 Entering Gaussian System, Link 0=g16
 Initial command:
 /software/gaussian/g16-c01/avx2/g16/l1.exe "/gpfs/fs2/scratch/bweight/software/many_molecule_many_mode_NAMD/src/NAMD/TEST_NVT/TRAJ/traj-50/G16/GS_NEW/Gau-7975.inp" -scrdir="/gpfs/fs2/scratch/bweight/software/many_molecule_many_mode_NAMD/src/NAMD/TEST_NVT/TRAJ/traj-50/G16/GS_NEW/"
 Entering Link 1 = /software/gaussian/g16-c01/avx2/g16/l1.exe PID=      7976.
  
 Copyright (c) 1988-2019, Gaussian, Inc.  All Rights Reserved.
  
 This is part of the Gaussian(R) 16 program.  It is based on
 the Gaussian(R) 09 system (copyright 2009, Gaussian, Inc.),
 the Gaussian(R) 03 system (copyright 2003, Gaussian, Inc.),
 the Gaussian(R) 98 system (copyright 1998, Gaussian, Inc.),
 the Gaussian(R) 94 system (copyright 1995, Gaussian, Inc.),
 the Gaussian 92(TM) system (copyright 1992, Gaussian, Inc.),
 the Gaussian 90(TM) system (copyright 1990, Gaussian, Inc.),
 the Gaussian 88(TM) system (copyright 1988, Gaussian, Inc.),
 the Gaussian 86(TM) system (copyright 1986, Carnegie Mellon
 University), and the Gaussian 82(TM) system (copyright 1983,
 Carnegie Mellon University). Gaussian is a federally registered
 trademark of Gaussian, Inc.
  
 This software contains proprietary and confidential information,
 including trade secrets, belonging to Gaussian, Inc.
  
 This software is provided under written license and may be
 used, copied, transmitted, or stored only in accord with that
 written license.
  
 The following legend is applicable only to US Government
 contracts under FAR:
  
                    RESTRICTED RIGHTS LEGEND
  
 Use, reproduction and disclosure by the US Government is
 subject to restrictions as set forth in subparagraphs (a)
 and (c) of the Commercial Computer Software - Restricted
 Rights clause in FAR 52.227-19.
  
 Gaussian, Inc.
 340 Quinnipiac St., Bldg. 40, Wallingford CT 06492
  
  
 ---------------------------------------------------------------
 Warning -- This program may not be used in any manner that
 competes with the business of Gaussian, Inc. or will provide
 assistance to any competitor of Gaussian, Inc.  The licensee
 of this program is prohibited from giving any competitor of
 Gaussian, Inc. access to this program.  By using this program,
 the user acknowledges that Gaussian, Inc. is engaged in the
 business of creating and licensing software in the field of
 computational chemistry and represents and warrants to the
 licensee that it is not a competitor of Gaussian, Inc. and that
 it will not use this program in any manner prohibited above.
 ---------------------------------------------------------------
  

 Cite this work as:
 Gaussian 16, Revision C.01,
 M. J. Frisch, G. W. Trucks, H. B. Schlegel, G. E. Scuseria, 
 M. A. Robb, J. R. Cheeseman, G. Scalmani, V. Barone, 
 G. A. Petersson, H. Nakatsuji, X. Li, M. Caricato, A. V. Marenich, 
 J. Bloino, B. G. Janesko, R. Gomperts, B. Mennucci, H. P. Hratchian, 
 J. V. Ortiz, A. F. Izmaylov, J. L. Sonnenberg, D. Williams-Young, 
 F. Ding, F. Lipparini, F. Egidi, J. Goings, B. Peng, A. Petrone, 
 T. Henderson, D. Ranasinghe, V. G. Zakrzewski, J. Gao, N. Rega, 
 G. Zheng, W. Liang, M. Hada, M. Ehara, K. Toyota, R. Fukuda, 
 J. Hasegawa, M. Ishida, T. Nakajima, Y. Honda, O. Kitao, H. Nakai, 
 T. Vreven, K. Throssell, J. A. Montgomery, Jr., J. E. Peralta, 
 F. Ogliaro, M. J. Bearpark, J. J. Heyd, E. N. Brothers, K. N. Kudin, 
 V. N. Staroverov, T. A. Keith, R. Kobayashi, J. Normand, 
 K. Raghavachari, A. P. Rendell, J. C. Burant, S. S. Iyengar, 
 J. Tomasi, M. Cossi, J. M. Millam, M. Klene, C. Adamo, R. Cammi, 
 J. W. Ochterski, R. L. Martin, K. Morokuma, O. Farkas, 
 J. B. Foresman, and D. J. Fox, Gaussian, Inc., Wallingford CT, 2019.
 
 ******************************************
 Gaussian 16:  ES64L-G16RevC.01  3-Jul-2019
                11-Jan-2023 
 ******************************************
 %oldchk=../GS_OLD/geometry.chk
 %chk=geometry.chk
 %nprocshared=4
 Will use up to    4 processors via shared memory.
 %mem=5GB
 Copying data from "../GS_OLD/geometry.chk" to current chk file "geometry.chk"
 IOpt=  2 FromEx=T IUOpen= 4 IOptOp= 5 NList=   0 IFRang= 0 IUIn= 4 IUOut= 2.
 -------------------------------------------------------
 # WB97XD/6-311G SCF=XQC FORCE nosym pop=full guess=read
 -------------------------------------------------------
 1/10=7,30=1,38=1/1,3;
 2/12=2,15=1,17=6,18=5,40=1/2;
 3/5=4,6=6,11=2,25=1,30=1,71=1,74=-58,116=-2/1,2,3;
 4/5=1/1;
 5/5=2,8=3,13=1,38=6/2,8;
 6/7=3,28=1/1;
 7/29=1,30=1/1,2,3,16;
 1/10=7,30=1/3;
 99//99;
 ------------
 MD Step 1000
 ------------
 Symbolic Z-matrix:
 Charge =  0 Multiplicity = 1
 C                    -0.33697  -0.58236   0.00801 
 H                     0.22807  -1.5288   -0.02967 
 H                    -1.42595  -0.58433  -0.0312 
 C                     0.33291   0.57765   0.00586 
 H                    -0.15185   1.56252  -0.03356 
 H                     1.43723   0.64596  -0.03165 
 

 GradGradGradGradGradGradGradGradGradGradGradGradGradGradGradGradGradGrad
 Berny optimization.
 Initialization pass.
 Trust Radius=3.00D-01 FncErr=1.00D-07 GrdErr=1.00D-07 EigMax=2.50D+02 EigMin=1.00D-04
 Number of steps in this run=      2 maximum allowed number of steps=      2.
 GradGradGradGradGradGradGradGradGradGradGradGradGradGradGradGradGradGrad

                          Input orientation:                          
 ---------------------------------------------------------------------
 Center     Atomic      Atomic             Coordinates (Angstroms)
 Number     Number       Type             X           Y           Z
 ---------------------------------------------------------------------
      1          6           0       -0.336965   -0.582364    0.008011
      2          1           0        0.228073   -1.528801   -0.029674
      3          1           0       -1.425948   -0.584329   -0.031197
      4          6           0        0.332907    0.577649    0.005856
      5          1           0       -0.151848    1.562515   -0.033557
      6          1           0        1.437233    0.645959   -0.031648
 ---------------------------------------------------------------------
                    Distance matrix (angstroms):
                    1          2          3          4          5
     1  C    0.000000
     2  H    1.102919   0.000000
     3  H    1.089691   1.904683   0.000000
     4  C    1.339539   2.109357   2.108350   0.000000
     5  H    2.153254   3.114577   2.496453   1.098409   0.000000
     6  H    2.158270   2.488303   3.116314   1.107071   1.834463
                    6
     6  H    0.000000
 Symmetry turned off by external request.
 Stoichiometry    C2H4
 Framework group  C1[X(C2H4)]
 Deg. of freedom    12
 Full point group                 C1      NOp   1
 Rotational constants (GHZ):         143.2003992          29.6675099          24.5881665
 Standard basis: 6-311G (5D, 7F)
    38 basis functions,    72 primitive gaussians,    38 cartesian basis functions
     8 alpha electrons        8 beta electrons
       nuclear repulsion energy        33.0601669207 Hartrees.
 NAtoms=    6 NActive=    6 NUniq=    6 SFac= 1.00D+00 NAtFMM=   60 NAOKFM=F Big=F
 Integral buffers will be    131072 words long.
 Raffenetti 2 integral format.
 Two-electron integral symmetry is turned off.
 Nuclear repulsion after empirical dispersion term =       33.0593240157 Hartrees.
 One-electron integrals computed using PRISM.
 NBasis=    38 RedAO= T EigKep=  6.45D-03  NBF=    38
 NBsUse=    38 1.00D-06 EigRej= -1.00D+00 NBFU=    38
 Initial guess from the checkpoint file:  "geometry.chk"
 B after Tr=    -0.000281   -0.000474   -0.000392
         Rot=    1.000000    0.000000    0.000001    0.000004 Ang=   0.00 deg.
 Keep R1 ints in memory in canonical form, NReq=4036876.
 Requested convergence on RMS density matrix=1.00D-08 within  32 cycles.
 Requested convergence on MAX density matrix=1.00D-06.
 Requested convergence on             energy=1.00D-06.
 No special actions if energy rises.
 SCF Done:  E(RwB97XD) =  -78.5555310184     A.U. after    8 cycles
            NFock=  8  Conv=0.62D-08     -V/T= 2.0052
 QCSCF skips out because SCF is already converged.

 **********************************************************************

            Population analysis using the SCF Density.

 **********************************************************************

 Alpha  occ. eigenvalues --  -10.28967 -10.28879  -0.86359  -0.67249  -0.55947
 Alpha  occ. eigenvalues --   -0.50884  -0.43688  -0.35660
 Alpha virt. eigenvalues --    0.07937   0.14085   0.16486   0.17027   0.24086
 Alpha virt. eigenvalues --    0.37169   0.39391   0.39990   0.46499   0.48847
 Alpha virt. eigenvalues --    0.49397   0.59094   0.66570   0.69111   0.77374
 Alpha virt. eigenvalues --    0.77438   0.84064   0.95093   2.23151   2.29124
 Alpha virt. eigenvalues --    2.33194   2.40568   2.67103   2.81728   2.87867
 Alpha virt. eigenvalues --    2.95183   3.14004   3.31866  23.35274  23.70484
     Molecular Orbital Coefficients:
                           1         2         3         4         5
                           O         O         O         O         O
     Eigenvalues --   -10.28967 -10.28879  -0.86359  -0.67249  -0.55947
   1 1   C  1S          0.42351  -0.37157  -0.08797   0.06725  -0.00032
   2        2S          0.34869  -0.30566  -0.13904   0.10770  -0.00053
   3        2PX         0.00012   0.00011   0.02618   0.03526   0.13756
   4        2PY         0.00021   0.00018   0.04662   0.05736  -0.07253
   5        2PZ        -0.00001   0.00001  -0.00157   0.00232   0.00032
   6        3S          0.01037  -0.01026   0.37307  -0.29396   0.00141
   7        3PX        -0.00020  -0.00071   0.03480   0.05672   0.21573
   8        3PY        -0.00032  -0.00124   0.06147   0.09348  -0.11483
   9        3PZ        -0.00004   0.00002  -0.00263   0.00415   0.00048
  10        4S         -0.00653   0.01348   0.19181  -0.22749   0.00054
  11        4PX         0.00019   0.00215   0.00510   0.02291   0.11197
  12        4PY         0.00033   0.00367   0.00883   0.03881  -0.06039
  13        4PZ         0.00006  -0.00007  -0.00093   0.00208   0.00023
  14 2   H  1S         -0.00007   0.00002   0.05192  -0.08602   0.10150
  15        2S         -0.00017  -0.00027   0.05339  -0.10441   0.12900
  16        3S          0.00167  -0.00080  -0.00182  -0.01483   0.04165
  17 3   H  1S         -0.00008   0.00002   0.05325  -0.09010  -0.10524
  18        2S         -0.00018  -0.00025   0.05429  -0.10826  -0.13257
  19        3S          0.00172  -0.00081  -0.00184  -0.01578  -0.04268
  20 4   C  1S          0.37143   0.42364  -0.08718  -0.06794  -0.00007
  21        2S          0.30585   0.34853  -0.13767  -0.10896  -0.00010
  22        2PX        -0.00011   0.00012  -0.02711   0.03894   0.11795
  23        2PY        -0.00020   0.00021  -0.04603   0.06913  -0.07509
  24        2PZ         0.00000  -0.00000  -0.00128  -0.00251   0.00033
  25        3S          0.00888   0.01147   0.36878   0.29777   0.00022
  26        3PX         0.00030  -0.00069  -0.03388   0.06277   0.18452
  27        3PY         0.00053  -0.00119  -0.05763   0.11084  -0.11635
  28        3PZ        -0.00004  -0.00002  -0.00219  -0.00448   0.00051
  29        4S         -0.00442  -0.01419   0.18921   0.23624  -0.00107
  30        4PX        -0.00051   0.00201  -0.00523   0.02718   0.10121
  31        4PY        -0.00092   0.00352  -0.00888   0.04702  -0.06325
  32        4PZ         0.00005   0.00007  -0.00090  -0.00229   0.00027
  33 5   H  1S         -0.00008  -0.00001   0.05064   0.09488  -0.09087
  34        2S         -0.00021   0.00023   0.05157   0.11243  -0.11407
  35        3S          0.00152   0.00101  -0.00103   0.01692  -0.03657
  36 6   H  1S         -0.00007  -0.00001   0.04969   0.09282   0.08578
  37        2S         -0.00022   0.00025   0.05100   0.11062   0.10827
  38        3S          0.00148   0.00101  -0.00102   0.01639   0.03511
                           6         7         8         9        10
                           O         O         O         V         V
     Eigenvalues --    -0.50884  -0.43688  -0.35660   0.07937   0.14085
   1 1   C  1S         -0.00282   0.00027  -0.00124   0.00334  -0.03472
   2        2S         -0.00412   0.00048  -0.00202   0.00554  -0.05573
   3        2PX         0.09402  -0.11083  -0.00410   0.00187  -0.03100
   4        2PY         0.16914   0.06596  -0.00694   0.00307  -0.06616
   5        2PZ         0.00615  -0.00000   0.17935  -0.18909  -0.00357
   6        3S          0.01713  -0.00120   0.00592  -0.01671   0.12197
   7        3PX         0.13640  -0.17733  -0.00578   0.00281  -0.03595
   8        3PY         0.24727   0.10583  -0.00979   0.00457  -0.08149
   9        3PZ         0.00977   0.00003   0.28815  -0.27776  -0.00559
  10        4S         -0.05798  -0.00389   0.00855  -0.02018   1.25166
  11        4PX         0.06839  -0.11034  -0.00479   0.01563  -0.18882
  12        4PY         0.12559   0.06691  -0.00812   0.02579  -0.38834
  13        4PZ         0.00557   0.00009   0.26714  -0.69348  -0.02031
  14 2   H  1S         -0.08159  -0.11524   0.00017   0.00521  -0.01902
  15        2S         -0.11372  -0.17838   0.00241   0.00832  -0.05055
  16        3S         -0.04262  -0.08247   0.00143   0.02217  -0.85839
  17 3   H  1S         -0.07955   0.11239   0.00007   0.00520  -0.01463
  18        2S         -0.11019   0.17313   0.00227   0.00846  -0.03998
  19        3S         -0.04092   0.07989   0.00136   0.02180  -0.78314
  20 4   C  1S         -0.00927  -0.00053  -0.00094  -0.00307  -0.03501
  21        2S         -0.01458  -0.00088  -0.00153  -0.00510  -0.05620
  22        2PX        -0.09877   0.12496   0.00394   0.00185   0.04075
  23        2PY        -0.16071  -0.07404   0.00732   0.00356   0.05949
  24        2PZ         0.00642   0.00031   0.17895   0.18928  -0.00302
  25        3S          0.04643   0.00256   0.00453   0.01536   0.12364
  26        3PX        -0.14647   0.19933   0.00550   0.00288   0.05044
  27        3PY        -0.23654  -0.11752   0.01029   0.00552   0.07072
  28        3PZ         0.01014   0.00047   0.28667   0.27786  -0.00464
  29        4S         -0.02276   0.00315   0.00769   0.01589   1.21540
  30        4PX        -0.07675   0.12745   0.00418   0.01475   0.26664
  31        4PY        -0.12266  -0.07399   0.00803   0.02731   0.40721
  32        4PZ         0.00587   0.00028   0.26773   0.69438  -0.01848
  33 5   H  1S         -0.07307  -0.12479   0.00032  -0.00471  -0.01030
  34        2S         -0.09920  -0.19383   0.00263  -0.00781  -0.03506
  35        3S         -0.03706  -0.09098   0.00148  -0.01988  -0.79782
  36 6   H  1S         -0.07955   0.12462   0.00020  -0.00469  -0.01444
  37        2S         -0.10859   0.19437   0.00244  -0.00765  -0.04581
  38        3S         -0.04083   0.09113   0.00137  -0.01983  -0.87228
                          11        12        13        14        15
                           V         V         V         V         V
     Eigenvalues --     0.16486   0.17027   0.24086   0.37169   0.39391
   1 1   C  1S          0.00073  -0.04480  -0.00002   0.00884   0.00143
   2        2S          0.00117  -0.07303  -0.00004   0.01186   0.00239
   3        2PX         0.09858  -0.02069   0.09923  -0.03544  -0.02535
   4        2PY        -0.05420  -0.03508  -0.05700  -0.06524   0.00821
   5        2PZ         0.00008  -0.00794   0.00004  -0.00568  -0.00023
   6        3S         -0.00229   0.16552   0.00018   0.03376  -0.00481
   7        3PX         0.14095  -0.01270   0.10502  -0.04324  -0.10993
   8        3PY        -0.07826  -0.02202  -0.06131  -0.08362   0.04318
   9        3PZ         0.00011  -0.01102  -0.00003  -0.01175  -0.00033
  10        4S         -0.04445   1.40171  -0.00912  -2.47898  -0.21801
  11        4PX         0.59132  -0.12204   1.16470  -1.52379  -0.52958
  12        4PY        -0.31635  -0.18864  -0.65968  -2.65677   0.13245
  13        4PZ         0.00062  -0.05182   0.00127  -0.05103  -0.00285
  14 2   H  1S         -0.02940  -0.02562   0.01298  -0.06116   0.07575
  15        2S         -0.08019  -0.01727  -0.02581  -0.68537   0.77598
  16        3S         -1.04145  -0.96325  -1.52674  -0.26786  -0.34085
  17 3   H  1S          0.02817  -0.02587  -0.01543  -0.05417  -0.07593
  18        2S          0.07882  -0.02330   0.01945  -0.63346  -0.75577
  19        3S          1.09613  -1.00700   1.54965  -0.34652   0.25423
  20 4   C  1S          0.00210   0.04306  -0.00000  -0.01979  -0.00010
  21        2S          0.00338   0.07007  -0.00003  -0.03259   0.00011
  22        2PX         0.09887  -0.02521  -0.10093  -0.04039  -0.03048
  23        2PY        -0.06167  -0.03776   0.05785  -0.07097   0.01375
  24        2PZ         0.00041   0.00774  -0.00007   0.00386   0.00040
  25        3S         -0.00700  -0.15497   0.00025   0.04414  -0.00692
  26        3PX         0.14227  -0.02097  -0.11467  -0.09306  -0.10631
  27        3PY        -0.08695  -0.02699   0.06463  -0.16585   0.06143
  28        3PZ         0.00058   0.01065  -0.00004   0.00434   0.00079
  29        4S         -0.08768  -1.37797   0.00131   3.21157   0.17678
  30        4PX         0.52619  -0.12914  -1.12525  -1.11551  -0.59797
  31        4PY        -0.33573  -0.20557   0.65852  -1.95136   0.07853
  32        4PZ         0.00257   0.05062  -0.00140   0.04079   0.00329
  33 5   H  1S          0.03134   0.02361   0.00643   0.00647  -0.08049
  34        2S          0.06823   0.02050  -0.03262   0.02086  -0.78779
  35        3S          1.09571   0.95236  -1.54410   0.44794   0.46514
  36 6   H  1S         -0.03064   0.02522  -0.00503   0.00285   0.08772
  37        2S         -0.06772   0.01940   0.03350  -0.01386   0.90167
  38        3S         -0.97688   0.98449   1.53414   0.45483  -0.43330
                          16        17        18        19        20
                           V         V         V         V         V
     Eigenvalues --     0.39990   0.46499   0.48847   0.49397   0.59094
   1 1   C  1S         -0.01940  -0.01007   0.04725  -0.00090  -0.00068
   2        2S         -0.03388  -0.02498   0.07942  -0.00120  -0.00122
   3        2PX         0.02849   0.05979  -0.01457   0.00175   0.00250
   4        2PY         0.05364   0.10540  -0.02042   0.00248   0.00379
   5        2PZ         0.00059   0.00059  -0.00762  -0.15207  -0.19230
   6        3S          0.07581   0.33210  -0.11224  -0.00946  -0.00042
   7        3PX         0.10373   0.23957   0.02379   0.00094   0.00840
   8        3PY         0.20151   0.41926   0.05025  -0.00016   0.01270
   9        3PZ        -0.00389   0.00512  -0.03417  -0.62863  -0.68379
  10        4S          2.81888  -0.30404  -3.04675   0.13703   0.08156
  11        4PX         0.31415  -0.29462  -0.81710   0.04326   0.02447
  12        4PY         0.60643  -0.53295  -1.40675   0.07657   0.04561
  13        4PZ        -0.00100   0.00143   0.11196   0.68455   1.23898
  14 2   H  1S         -0.02317   0.03751   0.07370  -0.00382  -0.00200
  15        2S         -0.49770   0.36734   0.87754  -0.03793  -0.01412
  16        3S          0.33640  -0.11256  -0.64484   0.04315   0.02812
  17 3   H  1S         -0.03369   0.03853   0.07219  -0.00373  -0.00196
  18        2S         -0.59617   0.37685   0.85042  -0.03684  -0.01363
  19        3S          0.36074  -0.10753  -0.61737   0.04189   0.02754
  20 4   C  1S          0.00079   0.00030  -0.05065   0.00414   0.00083
  21        2S         -0.00231  -0.00720  -0.08777   0.00744   0.00155
  22        2PX         0.00985  -0.05661  -0.02566   0.00038   0.00242
  23        2PY         0.02004  -0.09652  -0.04602   0.00039   0.00471
  24        2PZ        -0.00447   0.00203  -0.00777  -0.15231   0.19229
  25        3S          0.07666   0.29590   0.21389  -0.02697  -0.00276
  26        3PX        -0.04220  -0.23986  -0.04748   0.00065   0.00840
  27        3PY        -0.05758  -0.41326  -0.08228  -0.00030   0.01634
  28        3PZ        -0.01251   0.00846  -0.02953  -0.63039   0.68298
  29        4S         -1.03296  -0.60426   3.16468  -0.16824  -0.07357
  30        4PX         1.31158   0.28470  -0.60542   0.02387   0.02663
  31        4PY         2.37636   0.48066  -1.04423   0.04182   0.04259
  32        4PZ        -0.04064   0.01805  -0.03736   0.69411  -1.23780
  33 5   H  1S         -0.04725   0.06080  -0.06698   0.00360   0.00189
  34        2S         -0.85034   0.62402  -0.85074   0.05240   0.00815
  35        3S         -0.23561  -0.22739   0.54800  -0.01753  -0.02703
  36 6   H  1S         -0.03684   0.06052  -0.06668   0.00360   0.00190
  37        2S         -0.73107   0.62138  -0.84981   0.05212   0.00805
  38        3S         -0.26883  -0.24412   0.56226  -0.01880  -0.02737
                          21        22        23        24        25
                           V         V         V         V         V
     Eigenvalues --     0.66570   0.69111   0.77374   0.77438   0.84064
   1 1   C  1S          0.00093   0.00073   0.06152   0.06390   0.00107
   2        2S          0.00196   0.00155   0.13013   0.13641   0.00251
   3        2PX        -0.14495  -0.18881  -0.00839   0.11753  -0.00827
   4        2PY         0.08466   0.11402  -0.01585   0.18981   0.01597
   5        2PZ        -0.00013  -0.00019   0.00162   0.00564   0.00019
   6        3S         -0.01688  -0.01755  -0.92446  -1.21258  -0.02950
   7        3PX        -0.65641  -0.64989  -0.10720   0.47000  -0.22767
   8        3PY         0.37892   0.39345  -0.19005   0.74709   0.17645
   9        3PZ        -0.00070  -0.00069   0.00589   0.01967   0.00053
  10        4S          0.03041   0.05648   1.11464   2.29867   0.04097
  11        4PX         1.10256   0.70491   0.07276  -0.80691   4.52667
  12        4PY        -0.63582  -0.45127   0.05666  -1.00185  -2.55727
  13        4PZ         0.00040  -0.00167   0.00050  -0.06711   0.00606
  14 2   H  1S          0.02763   0.05736   0.01490   0.03102  -0.02566
  15        2S          0.18143   0.61772   0.07492   0.08224  -1.56861
  16        3S         -1.09337  -1.04026  -0.26136  -1.04771  -1.22399
  17 3   H  1S         -0.02676  -0.05656   0.01521   0.03171   0.02994
  18        2S         -0.20034  -0.64640   0.10692   0.02939   1.61117
  19        3S          1.08217   0.99020  -0.26167  -1.22373   1.21807
  20 4   C  1S          0.00117   0.00029   0.08820   0.01842   0.00067
  21        2S          0.00239   0.00055   0.18765   0.03833   0.00126
  22        2PX        -0.13931   0.19466  -0.08755   0.06649   0.01073
  23        2PY         0.08040  -0.10793  -0.15780   0.12279   0.00359
  24        2PZ        -0.00014   0.00026   0.00579  -0.00215  -0.00017
  25        3S         -0.01733   0.00140  -1.53753  -0.14816  -0.00157
  26        3PX        -0.64418   0.67247  -0.30408   0.32670   0.23200
  27        3PY         0.37479  -0.36981  -0.55555   0.60390  -0.08759
  28        3PZ        -0.00074   0.00088   0.02044  -0.00798  -0.00034
  29        4S          0.01014  -0.02782   2.64881  -0.28675  -0.05630
  30        4PX         1.26224  -0.83303   0.46670  -0.29248  -4.13630
  31        4PY        -0.73052   0.44016   0.92384  -0.84645   2.39342
  32        4PZ         0.00167   0.00101  -0.05604   0.03954  -0.00575
  33 5   H  1S         -0.02153   0.05654   0.03425  -0.00208  -0.02354
  34        2S         -0.10176   0.57635   0.09357   0.07301  -1.41367
  35        3S          1.06765  -1.05096  -1.12145   0.48589  -1.09838
  36 6   H  1S          0.02245  -0.05661   0.03393  -0.00156   0.02257
  37        2S          0.09796  -0.55018   0.09491  -0.00065   1.39531
  38        3S         -1.07045   1.08246  -1.05008   0.37871   1.11452
                          26        27        28        29        30
                           V         V         V         V         V
     Eigenvalues --     0.95093   2.23151   2.29124   2.33194   2.40568
   1 1   C  1S          0.09591  -0.00949  -0.01423   0.00045   0.00049
   2        2S          0.19931   0.00251  -0.01354   0.00087   0.00065
   3        2PX        -0.09093  -0.07500  -0.13096   0.35531   0.40262
   4        2PY        -0.15749  -0.14161  -0.23144  -0.20117  -0.22480
   5        2PZ         0.00024  -0.01589  -0.02246   0.00024   0.00094
   6        3S         -1.54668  -0.18729  -0.04246  -0.00037   0.00424
   7        3PX        -0.23128   0.07103   0.20661  -0.43110  -0.56399
   8        3PY        -0.39221   0.14866   0.37926   0.24665   0.31544
   9        3PZ        -0.00293   0.01608   0.02803  -0.00012  -0.00108
  10        4S          5.71464  -0.08619  -0.87575   0.00153   0.00614
  11        4PX         1.21219   0.05198  -0.18471  -0.07006  -0.97301
  12        4PY         1.98141   0.06736  -0.36428   0.02882   0.52861
  13        4PZ        -0.02275   0.00303   0.00952  -0.00041  -0.00226
  14 2   H  1S          0.01566  -0.69798  -0.80677  -0.72066  -0.63425
  15        2S         -0.29361   0.98886   1.20321   1.12192   1.42672
  16        3S         -0.10167  -0.30127  -0.48646  -0.47883  -0.36175
  17 3   H  1S          0.01607  -0.68733  -0.80289   0.71638   0.65504
  18        2S         -0.25720   0.97481   1.20565  -1.11945  -1.47185
  19        3S         -0.07569  -0.27858  -0.46389   0.46859   0.35130
  20 4   C  1S         -0.09386  -0.01111   0.01253   0.00044  -0.00030
  21        2S         -0.19466  -0.00113   0.01304   0.00057  -0.00061
  22        2PX        -0.09186   0.13848  -0.12201   0.29447  -0.41905
  23        2PY        -0.15868   0.23801  -0.20214  -0.17188   0.24468
  24        2PZ         0.00037  -0.01771   0.02054   0.00057  -0.00062
  25        3S          1.50516  -0.16533   0.01488   0.00095   0.00024
  26        3PX        -0.22464  -0.17532   0.20914  -0.36244   0.58536
  27        3PY        -0.39395  -0.29669   0.34074   0.20913  -0.34309
  28        3PZ         0.00435   0.01883  -0.02618  -0.00061   0.00081
  29        4S         -5.69712  -0.19538   0.89594   0.01491   0.00884
  30        4PX         1.09073  -0.01738  -0.20066   0.12296   0.84833
  31        4PY         1.98641  -0.03584  -0.30960  -0.06981  -0.50879
  32        4PZ         0.01503   0.00623  -0.00785  -0.00001   0.00201
  33 5   H  1S         -0.01769  -0.79748   0.66338   0.68887  -0.70562
  34        2S          0.28752   1.16156  -1.01824  -0.99101   1.48685
  35        3S          0.06085  -0.35448   0.38968   0.49755  -0.43539
  36 6   H  1S         -0.01747  -0.79472   0.68419  -0.67414   0.70260
  37        2S          0.31662   1.15633  -1.04114   0.96721  -1.47396
  38        3S          0.07977  -0.35740   0.41966  -0.49326   0.44448
                          31        32        33        34        35
                           V         V         V         V         V
     Eigenvalues --     2.67103   2.81728   2.87867   2.95183   3.14004
   1 1   C  1S          0.00061  -0.00305  -0.01347   0.00002  -0.00973
   2        2S          0.00050  -0.00870  -0.04394  -0.00031  -0.02985
   3        2PX         0.00659  -0.08648  -0.46837  -0.72565   0.44621
   4        2PY         0.00983  -0.15334  -0.85636   0.40966   0.77294
   5        2PZ        -0.92586   0.92381  -0.16546  -0.00160   0.00746
   6        3S         -0.00213   0.07157   0.38329   0.00513   0.25100
   7        3PX        -0.00520   0.14947   0.82730   0.87246  -0.42556
   8        3PY        -0.00769   0.26229   1.48051  -0.47719  -0.73276
   9        3PZ         0.94173  -1.12906   0.20755   0.00217  -0.00951
  10        4S          0.01628  -0.16733  -0.86921  -0.01274  -0.49385
  11        4PX        -0.00183  -0.11935  -0.70481  -0.67352   0.20995
  12        4PY        -0.00263  -0.21072  -1.26082   0.35535   0.35699
  13        4PZ        -0.33947   0.61049  -0.13148  -0.00174   0.00549
  14 2   H  1S          0.01468   0.02262   0.26045  -0.37784  -0.20836
  15        2S         -0.01681  -0.01375  -0.21650   0.39551   0.15851
  16        3S         -0.00328  -0.04874  -0.29668   0.26785   0.04970
  17 3   H  1S          0.01489   0.02203   0.25060   0.37799  -0.21241
  18        2S         -0.01726  -0.01193  -0.19939  -0.39164   0.16084
  19        3S         -0.00379  -0.04869  -0.29581  -0.28634   0.06187
  20 4   C  1S          0.00060   0.00291   0.01326   0.00047  -0.00754
  21        2S          0.00057   0.00906   0.04716   0.00113  -0.02286
  22        2PX        -0.00826  -0.07653  -0.40356  -0.81088  -0.50417
  23        2PY        -0.01584  -0.13585  -0.71070   0.44417  -0.90188
  24        2PZ        -0.92335  -0.92561   0.16883   0.00025   0.01629
  25        3S         -0.00310  -0.07779  -0.42494  -0.00838   0.19375
  26        3PX         0.00834   0.13983   0.76402   0.97086   0.54414
  27        3PY         0.01577   0.24647   1.33975  -0.52476   0.98369
  28        3PZ         0.93867   1.13046  -0.21276  -0.00030  -0.02071
  29        4S          0.01792   0.16846   0.88465   0.02587  -0.36593
  30        4PX        -0.00047  -0.11975  -0.70619  -0.69993  -0.33274
  31        4PY        -0.00165  -0.20855  -1.22824   0.37474  -0.61253
  32        4PZ        -0.33783  -0.61038   0.13591   0.00015   0.01630
  33 5   H  1S          0.01367  -0.03257  -0.29338   0.41505  -0.27160
  34        2S         -0.01683   0.02638   0.26776  -0.42114   0.21405
  35        3S         -0.00191   0.04549   0.28256  -0.25044   0.13511
  36 6   H  1S          0.01374  -0.03231  -0.28804  -0.42932  -0.25432
  37        2S         -0.01726   0.02702   0.26686   0.43457   0.19820
  38        3S         -0.00145   0.04401   0.27126   0.25320   0.12182
                          36        37        38
                           V         V         V
     Eigenvalues --     3.31866  23.35274  23.70484
   1 1   C  1S         -0.00032  -1.42071  -1.44570
   2        2S         -0.00038   1.51526   1.56336
   3        2PX         0.78940  -0.00645   0.01222
   4        2PY        -0.43642  -0.01047   0.02142
   5        2PZ         0.00146  -0.00065  -0.00029
   6        3S         -0.00222  -0.29814  -0.39769
   7        3PX        -1.12634   0.02339  -0.05566
   8        3PY         0.61689   0.03861  -0.09674
   9        3PZ        -0.00225   0.00185   0.00088
  10        4S          0.00701   0.27921   0.76515
  11        4PX         1.96914  -0.02420   0.13408
  12        4PY        -1.07413  -0.04083   0.22893
  13        4PZ         0.00382  -0.00313  -0.00367
  14 2   H  1S          0.55774   0.01241   0.00662
  15        2S         -0.86710   0.00778  -0.01464
  16        3S         -0.45323  -0.08344  -0.03955
  17 3   H  1S         -0.57050   0.01431   0.00771
  18        2S          0.88528   0.00754  -0.01417
  19        3S          0.48311  -0.08597  -0.03905
  20 4   C  1S         -0.00003  -1.44093   1.42541
  21        2S         -0.00040   1.53678  -1.54139
  22        2PX        -0.70749   0.00634   0.01254
  23        2PY         0.40861   0.01135   0.02144
  24        2PZ        -0.00129  -0.00067   0.00017
  25        3S          0.00662  -0.30127   0.39147
  26        3PX         1.00744  -0.02311  -0.05601
  27        3PY        -0.59280  -0.04104  -0.09650
  28        3PZ         0.00197   0.00191  -0.00041
  29        4S         -0.03198   0.27503  -0.76067
  30        4PX        -1.76301   0.02524   0.12934
  31        4PY         1.05233   0.04561   0.22617
  32        4PZ        -0.00343  -0.00307   0.00265
  33 5   H  1S          0.48625   0.01410  -0.00527
  34        2S         -0.75426   0.00790   0.01388
  35        3S         -0.43758  -0.08376   0.03767
  36 6   H  1S         -0.48147   0.01282  -0.00443
  37        2S          0.74800   0.00871   0.01411
  38        3S          0.42293  -0.08184   0.03798
     Density Matrix:
                           1         2         3         4         5
   1 1   C  1S          0.65940
   2        2S          0.56147   0.49193
   3        2PX        -0.00051  -0.00068   0.08398
   4        2PY        -0.00130  -0.00180   0.00377   0.08746
   5        2PZ         0.00010   0.00015  -0.00014  -0.00034   0.06443
   6        3S         -0.08887  -0.15373   0.00263   0.00641  -0.00020
   7        3PX         0.00087   0.00134   0.13018   0.00129  -0.00010
   8        3PY         0.00117   0.00180   0.00134   0.13085  -0.00030
   9        3PZ         0.00020   0.00034  -0.00025  -0.00053   0.10351
  10        4S         -0.07959  -0.11470  -0.01596  -0.02854   0.00070
  11        4PX         0.00024   0.00157   0.07005  -0.00449  -0.00071
  12        4PY         0.00060   0.00301  -0.00456   0.06546  -0.00126
  13        4PZ        -0.00014  -0.00033  -0.00100  -0.00169   0.09591
  14 2   H  1S         -0.02044  -0.03257   0.03478  -0.06255  -0.00144
  15        2S         -0.02292  -0.03667   0.04906  -0.08775  -0.00110
  16        3S          0.00050  -0.00081   0.02057  -0.03323  -0.00005
  17 3   H  1S         -0.02099  -0.03341  -0.07239  -0.00219  -0.00161
  18        2S         -0.02329  -0.03719  -0.10038  -0.00260  -0.00130
  19        3S          0.00055  -0.00075  -0.03836   0.00089  -0.00011
  20 4   C  1S          0.00605   0.00974  -0.01081  -0.01879  -0.00049
  21        2S          0.00971   0.01517  -0.01730  -0.03009  -0.00080
  22        2PX         0.01036   0.01657  -0.01253  -0.03215   0.00054
  23        2PY         0.01797   0.02873  -0.03206  -0.04970   0.00106
  24        2PZ        -0.00059  -0.00096  -0.00048  -0.00072   0.06426
  25        3S         -0.02610  -0.03962   0.04850   0.08450   0.00242
  26        3PX         0.01597   0.02475  -0.01836  -0.04605   0.00069
  27        3PY         0.02770   0.04291  -0.04573  -0.07144   0.00140
  28        3PZ        -0.00100  -0.00161  -0.00084  -0.00128   0.10294
  29        4S          0.00540   0.00402   0.02122   0.03750   0.00298
  30        4PX         0.00308   0.00636  -0.01323  -0.02126   0.00076
  31        4PY         0.00516   0.01077  -0.02128  -0.03762   0.00158
  32        4PZ        -0.00085  -0.00138  -0.00129  -0.00208   0.09610
  33 5   H  1S          0.00419   0.00688  -0.00174  -0.01240  -0.00056
  34        2S          0.00622   0.01033   0.00353  -0.02491   0.00001
  35        3S          0.00318   0.00463   0.00426  -0.01741   0.00013
  36 6   H  1S          0.00415   0.00681  -0.00984  -0.00764  -0.00058
  37        2S          0.00618   0.01030  -0.02326  -0.00939  -0.00004
  38        3S          0.00315   0.00462  -0.01713  -0.00512   0.00009
                           6         7         8         9        10
   6        3S          0.45228
   7        3PX        -0.00174   0.20210
   8        3PY        -0.00129  -0.00462   0.19628
   9        3PZ        -0.00066  -0.00019  -0.00046   0.16631
  10        4S          0.27458  -0.02678  -0.04876   0.00090   0.18443
  11        4PX        -0.00684   0.10910  -0.01025  -0.00116  -0.01545
  12        4PY        -0.01242  -0.01042   0.09863  -0.00201  -0.02946
  13        4PZ         0.00144  -0.00133  -0.00223   0.15409   0.00261
  14 2   H  1S          0.08708   0.05626  -0.09775  -0.00240   0.06953
  15        2S          0.09815   0.07974  -0.13662  -0.00187   0.08274
  16        3S          0.00628   0.03377  -0.05112  -0.00009   0.01166
  17 3   H  1S          0.08942  -0.11349  -0.00168  -0.00264   0.06966
  18        2S          0.09962  -0.15719  -0.00101  -0.00214   0.08140
  19        3S          0.00626  -0.05984   0.00327  -0.00017   0.01053
  20 4   C  1S         -0.02643  -0.01689  -0.02938  -0.00084   0.00510
  21        2S         -0.03999  -0.02625  -0.04571  -0.00136   0.00384
  22        2PX        -0.04643  -0.01788  -0.04561   0.00093  -0.01744
  23        2PY        -0.08045  -0.04543  -0.07078   0.00182  -0.02985
  24        2PZ         0.00286  -0.00066  -0.00096   0.10324   0.00296
  25        3S          0.10168   0.07123   0.12434   0.00405   0.00086
  26        3PX        -0.06707  -0.02634  -0.06516   0.00120  -0.02585
  27        3PY        -0.11616  -0.06460  -0.10170   0.00242  -0.04418
  28        3PZ         0.00474  -0.00116  -0.00172   0.16538   0.00492
  29        4S          0.00179   0.03211   0.05697   0.00495  -0.03248
  30        4PX        -0.02253  -0.01980  -0.02987   0.00127  -0.00622
  31        4PY        -0.03846  -0.02989  -0.05426   0.00260  -0.00982
  32        4PZ         0.00405  -0.00180  -0.00288   0.15439   0.00459
  33 5   H  1S         -0.02046  -0.00060  -0.01772  -0.00082  -0.01439
  34        2S         -0.03086   0.00878  -0.03658   0.00012  -0.01843
  35        3S         -0.01185   0.00821  -0.02618   0.00023  -0.00310
  36 6   H  1S         -0.02027  -0.01490  -0.00921  -0.00084  -0.01482
  37        2S         -0.03084  -0.03577  -0.01052   0.00005  -0.01951
  38        3S         -0.01189  -0.02654  -0.00606   0.00017  -0.00376
                          11        12        13        14        15
  11        4PX         0.05993
  12        4PY        -0.00915   0.05112
  13        4PZ        -0.00168  -0.00281   0.14280
  14 2   H  1S          0.03359  -0.05394  -0.00125   0.08067
  15        2S          0.04843  -0.07522  -0.00049   0.10937   0.15030
  16        3S          0.02098  -0.02798   0.00024   0.03678   0.05277
  17 3   H  1S         -0.06284   0.00172  -0.00135  -0.01326  -0.02465
  18        2S         -0.08740   0.00402  -0.00060  -0.02457  -0.04249
  19        3S         -0.03354   0.00428   0.00020  -0.01788  -0.02710
  20 4   C  1S         -0.00319  -0.00583  -0.00074   0.00422   0.00680
  21        2S         -0.00659  -0.01187  -0.00119   0.00698   0.01136
  22        2PX        -0.01320  -0.01985   0.00129   0.00175  -0.00269
  23        2PY        -0.01983  -0.03677   0.00244   0.01138   0.02428
  24        2PZ        -0.00096  -0.00151   0.09568  -0.00069  -0.00024
  25        3S          0.02325   0.04162   0.00349  -0.02106  -0.03421
  26        3PX        -0.02023  -0.02822   0.00175   0.00110  -0.00689
  27        3PY        -0.02808  -0.05368   0.00336   0.01702   0.03646
  28        3PZ        -0.00158  -0.00249   0.15326  -0.00102  -0.00026
  29        4S          0.00857   0.01628   0.00449  -0.01822  -0.02530
  30        4PX        -0.01480  -0.01248   0.00157  -0.00152  -0.00812
  31        4PY        -0.01261  -0.02968   0.00309   0.01522   0.02725
  32        4PZ        -0.00188  -0.00306   0.14310  -0.00058   0.00031
  33 5   H  1S          0.00206  -0.01582  -0.00041   0.01117   0.02329
  34        2S          0.00932  -0.02748   0.00058   0.02372   0.04432
  35        3S          0.00757  -0.01579   0.00041   0.01657   0.02781
  36 6   H  1S         -0.01442  -0.00559  -0.00043  -0.00914  -0.01831
  37        2S         -0.02793  -0.00489   0.00054  -0.01884  -0.03435
  38        3S         -0.01710  -0.00106   0.00038  -0.01014  -0.01769
                          16        17        18        19        20
  16        3S          0.02116
  17 3   H  1S         -0.01804   0.08198
  18        2S         -0.02719   0.10964   0.14873
  19        3S         -0.01276   0.03610   0.05122   0.02027
  20 4   C  1S          0.00376   0.00429   0.00677   0.00373   0.65948
  21        2S          0.00557   0.00708   0.01129   0.00549   0.56160
  22        2PX        -0.00341   0.00907   0.02241   0.01686   0.00113
  23        2PY         0.01779   0.00737   0.00976   0.00574   0.00172
  24        2PZ         0.00002  -0.00068  -0.00018   0.00007   0.00010
  25        3S         -0.01451  -0.02124  -0.03382  -0.01414  -0.08932
  26        3PX        -0.00674   0.01435   0.03513   0.02625  -0.00052
  27        3PY         0.02681   0.00960   0.01207   0.00726  -0.00112
  28        3PZ         0.00006  -0.00100  -0.00017   0.00013   0.00022
  29        4S         -0.00633  -0.01786  -0.02417  -0.00566  -0.07999
  30        4PX        -0.00683   0.01410   0.02778   0.01717  -0.00019
  31        4PY         0.01604   0.00678   0.00707   0.00218  -0.00020
  32        4PZ         0.00031  -0.00057   0.00035   0.00034  -0.00005
  33 5   H  1S          0.01624  -0.00900  -0.01806  -0.00938  -0.02029
  34        2S          0.02741  -0.01854  -0.03374  -0.01684  -0.02217
  35        3S          0.01463  -0.01001  -0.01741  -0.00890   0.00065
  36 6   H  1S         -0.00956   0.01118   0.02324   0.01599  -0.02000
  37        2S         -0.01724   0.02367   0.04412   0.02703  -0.02209
  38        3S         -0.00910   0.01653   0.02759   0.01440   0.00056
                          21        22        23        24        25
  21        2S          0.49212
  22        2PX         0.00162   0.08310
  23        2PY         0.00245   0.00347   0.08780
  24        2PZ         0.00016   0.00017   0.00023   0.06415
  25        3S         -0.15437  -0.00524  -0.00804  -0.00022   0.45412
  26        3PX        -0.00078   0.12905   0.00173   0.00011  -0.00006
  27        3PY        -0.00169   0.00174   0.13168   0.00008   0.00096
  28        3PZ         0.00037   0.00026   0.00037   0.10276  -0.00075
  29        4S         -0.11554   0.01323   0.02236   0.00079   0.27781
  30        4PX        -0.00141   0.07332  -0.00510   0.00054   0.00598
  31        4PY        -0.00222  -0.00498   0.06732   0.00099   0.00979
  32        4PZ        -0.00017   0.00095   0.00172   0.09591   0.00095
  33 5   H  1S         -0.03231  -0.03354   0.06407  -0.00157   0.08639
  34        2S         -0.03542  -0.04977   0.08855  -0.00123   0.09476
  35        3S         -0.00052  -0.02266   0.03333  -0.00011   0.00545
  36 6   H  1S         -0.03187   0.07163   0.00250  -0.00141   0.08521
  37        2S         -0.03531   0.10144   0.00050  -0.00101   0.09448
  38        3S         -0.00066   0.04047  -0.00326  -0.00003   0.00576
                          26        27        28        29        30
  26        3PX         0.20070
  27        3PY        -0.00256   0.19803
  28        3PZ         0.00015   0.00013   0.16462
  29        4S          0.02447   0.04102   0.00100   0.18484
  30        4PX         0.11445  -0.01049   0.00084   0.01496   0.06633
  31        4PY        -0.01032   0.10174   0.00160   0.02414  -0.01010
  32        4PZ         0.00121   0.00220   0.15364   0.00243   0.00135
  33 5   H  1S         -0.05339   0.10025  -0.00258   0.06673  -0.03436
  34        2S         -0.07966   0.13806  -0.00204   0.07621  -0.05168
  35        3S         -0.03670   0.05132  -0.00018   0.00878  -0.02396
  36 6   H  1S          0.11293   0.00324  -0.00234   0.06688   0.06587
  37        2S          0.15971  -0.00082  -0.00172   0.07753   0.09363
  38        3S          0.06339  -0.00649  -0.00007   0.00969   0.03752
                          31        32        33        34        35
  31        4PY         0.05378
  32        4PZ         0.00258   0.14344
  33 5   H  1S          0.05591  -0.00133   0.08147
  34        2S          0.07715  -0.00053   0.11016   0.15146
  35        3S          0.02882   0.00021   0.03787   0.05467   0.02256
  36 6   H  1S         -0.00193  -0.00123  -0.01242  -0.02610  -0.02002
  37        2S         -0.00628  -0.00040  -0.02616  -0.04836  -0.03159
  38        3S         -0.00632   0.00025  -0.02015  -0.03165  -0.01556
                          36        37        38
  36 6   H  1S          0.08060
  37        2S          0.10990   0.15227
  38        3S          0.03818   0.05542   0.02296
    Full Mulliken population analysis:
                           1         2         3         4         5
   1 1   C  1S          0.65940
   2        2S          0.49322   0.49193
   3        2PX         0.00000   0.00000   0.08398
   4        2PY         0.00000   0.00000   0.00000   0.08746
   5        2PZ         0.00000   0.00000   0.00000   0.00000   0.06443
   6        3S         -0.02926  -0.06438   0.00000   0.00000   0.00000
   7        3PX         0.00000   0.00000   0.08190   0.00000   0.00000
   8        3PY         0.00000   0.00000   0.00000   0.08232   0.00000
   9        3PZ         0.00000   0.00000   0.00000   0.00000   0.06512
  10        4S         -0.01224  -0.02147   0.00000   0.00000   0.00000
  11        4PX         0.00000   0.00000   0.01543   0.00000   0.00000
  12        4PY         0.00000   0.00000   0.00000   0.01442   0.00000
  13        4PZ         0.00000   0.00000   0.00000   0.00000   0.02112
  14 2   H  1S         -0.00022  -0.00031   0.00179   0.00540   0.00000
  15        2S         -0.00165  -0.00316   0.00435   0.01302   0.00001
  16        3S          0.00004  -0.00008   0.00070   0.00190   0.00000
  17 3   H  1S         -0.00025  -0.00036   0.00771   0.00000   0.00001
  18        2S         -0.00173  -0.00330   0.01762   0.00000   0.00001
  19        3S          0.00004  -0.00007   0.00256  -0.00000   0.00000
  20 4   C  1S          0.00000   0.00000  -0.00002  -0.00006   0.00000
  21        2S          0.00000  -0.00000  -0.00002  -0.00005   0.00000
  22        2PX        -0.00002  -0.00002   0.00011   0.00085   0.00000
  23        2PY        -0.00006  -0.00005   0.00084   0.00195   0.00000
  24        2PZ        -0.00000  -0.00000  -0.00000  -0.00000   0.00041
  25        3S         -0.00058  -0.00098   0.00252   0.00760  -0.00000
  26        3PX        -0.00054  -0.00099   0.00019   0.00555   0.00000
  27        3PY        -0.00161  -0.00296   0.00551   0.01070   0.00000
  28        3PZ        -0.00000  -0.00000  -0.00000  -0.00000   0.00608
  29        4S          0.00034   0.00030   0.00096   0.00295  -0.00000
  30        4PX        -0.00018  -0.00045  -0.00071   0.00147   0.00000
  31        4PY        -0.00052  -0.00132   0.00148   0.00098   0.00000
  32        4PZ        -0.00000  -0.00000  -0.00000  -0.00000   0.00902
  33 5   H  1S          0.00000   0.00000  -0.00000  -0.00000   0.00000
  34        2S          0.00001   0.00002   0.00000  -0.00031  -0.00000
  35        3S          0.00007   0.00013   0.00001  -0.00070  -0.00000
  36 6   H  1S          0.00000   0.00000  -0.00000  -0.00000   0.00000
  37        2S          0.00001   0.00002  -0.00024  -0.00007   0.00000
  38        3S          0.00007   0.00013  -0.00056  -0.00012  -0.00000
                           6         7         8         9        10
   6        3S          0.45228
   7        3PX         0.00000   0.20210
   8        3PY         0.00000   0.00000   0.19628
   9        3PZ         0.00000   0.00000   0.00000   0.16631
  10        4S          0.21271   0.00000   0.00000   0.00000   0.18443
  11        4PX         0.00000   0.07130   0.00000   0.00000   0.00000
  12        4PY         0.00000   0.00000   0.06445   0.00000   0.00000
  13        4PZ         0.00000   0.00000   0.00000   0.10069   0.00000
  14 2   H  1S          0.01573   0.01086   0.03162   0.00003   0.01828
  15        2S          0.04093   0.01988   0.05706   0.00003   0.04747
  16        3S          0.00288   0.00403   0.01023   0.00000   0.00877
  17 3   H  1S          0.01675   0.04379   0.00000   0.00004   0.01856
  18        2S          0.04239   0.07707   0.00000   0.00004   0.04719
  19        3S          0.00290   0.01389  -0.00000   0.00000   0.00797
  20 4   C  1S         -0.00059  -0.00057  -0.00171   0.00000   0.00032
  21        2S         -0.00099  -0.00105  -0.00315   0.00000   0.00029
  22        2PX         0.00241   0.00019   0.00550   0.00000   0.00079
  23        2PY         0.00724   0.00548   0.01060   0.00000   0.00234
  24        2PZ         0.00000  -0.00000  -0.00000   0.00610   0.00000
  25        3S          0.02160   0.01332   0.04027  -0.00000   0.00032
  26        3PX         0.01254  -0.00126   0.01857   0.00000   0.00398
  27        3PY         0.03762   0.01841   0.02859   0.00000   0.01179
  28        3PZ         0.00000  -0.00000  -0.00000   0.03514   0.00000
  29        4S          0.00068   0.00495   0.01520  -0.00000  -0.02037
  30        4PX         0.00633  -0.00405   0.00592   0.00000   0.00188
  31        4PY         0.01870   0.00592   0.00130   0.00000   0.00515
  32        4PZ         0.00000  -0.00000  -0.00000   0.04926   0.00000
  33 5   H  1S         -0.00005  -0.00000  -0.00019   0.00000  -0.00077
  34        2S         -0.00119   0.00007  -0.00321  -0.00000  -0.00309
  35        3S         -0.00193   0.00011  -0.00422  -0.00000  -0.00112
  36 6   H  1S         -0.00005  -0.00013  -0.00005   0.00000  -0.00079
  37        2S         -0.00118  -0.00256  -0.00052  -0.00000  -0.00325
  38        3S         -0.00193  -0.00351  -0.00056  -0.00000  -0.00135
                          11        12        13        14        15
  11        4PX         0.05993
  12        4PY         0.00000   0.05112
  13        4PZ         0.00000   0.00000   0.14280
  14 2   H  1S          0.00644   0.01732   0.00002   0.08067
  15        2S          0.01565   0.04071   0.00001   0.07725   0.15030
  16        3S          0.00532   0.01189  -0.00000   0.01374   0.04163
  17 3   H  1S          0.02353  -0.00000   0.00002  -0.00001  -0.00062
  18        2S          0.05499  -0.00000   0.00001  -0.00061  -0.00515
  19        3S          0.01650  -0.00000  -0.00000  -0.00195  -0.00777
  20 4   C  1S         -0.00019  -0.00059   0.00000   0.00000   0.00002
  21        2S         -0.00047  -0.00146   0.00000   0.00000   0.00003
  22        2PX        -0.00071   0.00138   0.00000  -0.00000   0.00000
  23        2PY         0.00137   0.00096   0.00000  -0.00000  -0.00036
  24        2PZ        -0.00000  -0.00000   0.00898   0.00000   0.00000
  25        3S          0.00653   0.02024  -0.00000  -0.00007  -0.00151
  26        3PX        -0.00414   0.00559   0.00000  -0.00000   0.00003
  27        3PY         0.00556   0.00129   0.00000  -0.00022  -0.00358
  28        3PZ        -0.00000  -0.00000   0.04890   0.00000   0.00000
  29        4S          0.00260   0.00854  -0.00000  -0.00107  -0.00454
  30        4PX        -0.00712   0.00316   0.00000   0.00001   0.00015
  31        4PY         0.00320  -0.00559   0.00000  -0.00242  -0.01027
  32        4PZ        -0.00000  -0.00000   0.08976   0.00000  -0.00000
  33 5   H  1S          0.00003  -0.00234   0.00000   0.00000   0.00000
  34        2S          0.00029  -0.00986  -0.00000   0.00000   0.00016
  35        3S          0.00030  -0.00728  -0.00000   0.00023   0.00147
  36 6   H  1S         -0.00175  -0.00047   0.00000  -0.00000  -0.00004
  37        2S         -0.00823  -0.00100  -0.00000  -0.00005  -0.00094
  38        3S         -0.00650  -0.00028  -0.00000  -0.00047  -0.00248
                          16        17        18        19        20
  16        3S          0.02116
  17 3   H  1S         -0.00197   0.08198
  18        2S         -0.00780   0.07745   0.14873
  19        3S         -0.00656   0.01349   0.04041   0.02027
  20 4   C  1S          0.00009   0.00000   0.00002   0.00009   0.65948
  21        2S          0.00016   0.00000   0.00003   0.00016   0.49333
  22        2PX         0.00001  -0.00000  -0.00028  -0.00059   0.00000
  23        2PY        -0.00075  -0.00000  -0.00008  -0.00013   0.00000
  24        2PZ        -0.00000   0.00000   0.00000  -0.00000   0.00000
  25        3S         -0.00250  -0.00007  -0.00150  -0.00244  -0.02940
  26        3PX         0.00006  -0.00016  -0.00289  -0.00367   0.00000
  27        3PY        -0.00449  -0.00007  -0.00066  -0.00067   0.00000
  28        3PZ        -0.00000   0.00000   0.00000  -0.00000   0.00000
  29        4S         -0.00238  -0.00105  -0.00435  -0.00213  -0.01230
  30        4PX         0.00016  -0.00187  -0.00876  -0.00677   0.00000
  31        4PY        -0.00757  -0.00060  -0.00147  -0.00057   0.00000
  32        4PZ        -0.00000   0.00000  -0.00000  -0.00000   0.00000
  33 5   H  1S          0.00023  -0.00000  -0.00004  -0.00042  -0.00023
  34        2S          0.00144  -0.00004  -0.00090  -0.00234  -0.00161
  35        3S          0.00247  -0.00045  -0.00241  -0.00284   0.00005
  36 6   H  1S         -0.00044   0.00000   0.00000   0.00022  -0.00021
  37        2S         -0.00242   0.00000   0.00016   0.00142  -0.00157
  38        3S         -0.00292   0.00023   0.00145   0.00242   0.00004
                          21        22        23        24        25
  21        2S          0.49212
  22        2PX         0.00000   0.08310
  23        2PY         0.00000   0.00000   0.08780
  24        2PZ         0.00000   0.00000   0.00000   0.06415
  25        3S         -0.06465   0.00000   0.00000   0.00000   0.45412
  26        3PX         0.00000   0.08119   0.00000   0.00000   0.00000
  27        3PY         0.00000   0.00000   0.08284   0.00000   0.00000
  28        3PZ         0.00000   0.00000   0.00000   0.06465   0.00000
  29        4S         -0.02162   0.00000   0.00000   0.00000   0.21522
  30        4PX         0.00000   0.01615   0.00000   0.00000   0.00000
  31        4PY         0.00000   0.00000   0.01483   0.00000   0.00000
  32        4PZ         0.00000   0.00000   0.00000   0.02112   0.00000
  33 5   H  1S         -0.00032   0.00152   0.00590   0.00001   0.01580
  34        2S         -0.00308   0.00382   0.01381   0.00001   0.03979
  35        3S         -0.00005   0.00067   0.00199   0.00000   0.00251
  36 6   H  1S         -0.00030   0.00706   0.00002   0.00000   0.01522
  37        2S         -0.00301   0.01741   0.00001   0.00001   0.03915
  38        3S         -0.00006   0.00270  -0.00001   0.00000   0.00264
                          26        27        28        29        30
  26        3PX         0.20070
  27        3PY         0.00000   0.19803
  28        3PZ         0.00000   0.00000   0.16462
  29        4S          0.00000   0.00000   0.00000   0.18484
  30        4PX         0.07479   0.00000   0.00000   0.00000   0.06633
  31        4PY         0.00000   0.06648   0.00000   0.00000   0.00000
  32        4PZ         0.00000   0.00000   0.10040   0.00000   0.00000
  33 5   H  1S          0.00896   0.03416   0.00004   0.01762   0.00568
  34        2S          0.01716   0.06042   0.00004   0.04388   0.01438
  35        3S          0.00377   0.01072   0.00000   0.00662   0.00523
  36 6   H  1S          0.04213   0.00007   0.00003   0.01751   0.02457
  37        2S          0.07733  -0.00002   0.00003   0.04433   0.05893
  38        3S          0.01475  -0.00009   0.00000   0.00728   0.01857
                          31        32        33        34        35
  31        4PY         0.05378
  32        4PZ         0.00000   0.14344
  33 5   H  1S          0.01877   0.00002   0.08147
  34        2S          0.04360   0.00001   0.07782   0.15146
  35        3S          0.01277  -0.00000   0.01415   0.04313   0.02256
  36 6   H  1S         -0.00004   0.00002  -0.00001  -0.00083  -0.00239
  37        2S         -0.00024   0.00001  -0.00083  -0.00683  -0.00975
  38        3S         -0.00019  -0.00000  -0.00241  -0.00977  -0.00839
                          36        37        38
  36 6   H  1S          0.08060
  37        2S          0.07763   0.15227
  38        3S          0.01426   0.04373   0.02296
     Gross orbital populations:
                           1
   1 1   C  1S          1.10437
   2        2S          0.88585
   3        2PX         0.22613
   4        2PY         0.23527
   5        2PZ         0.16621
   6        3S          0.79217
   7        3PX         0.56015
   8        3PY         0.55429
   9        3PZ         0.42275
  10        4S          0.50784
  11        4PX         0.25987
  12        4PY         0.21217
  13        4PZ         0.41229
  14 2   H  1S          0.27200
  15        2S          0.46809
  16        3S          0.08706
  17 3   H  1S          0.27605
  18        2S          0.46564
  19        3S          0.08341
  20 4   C  1S          1.10440
  21        2S          0.88584
  22        2PX         0.22322
  23        2PY         0.23653
  24        2PZ         0.16543
  25        3S          0.79315
  26        3PX         0.55367
  27        3PY         0.55782
  28        3PZ         0.41991
  29        4S          0.50401
  30        4PX         0.27380
  31        4PY         0.21615
  32        4PZ         0.41304
  33 5   H  1S          0.27453
  34        2S          0.46823
  35        3S          0.08743
  36 6   H  1S          0.27185
  37        2S          0.46975
  38        3S          0.08963
          Condensed to atoms (all electrons):
               1          2          3          4          5          6
     1  C    5.033132   0.386955   0.387886   0.601475  -0.035240  -0.034852
     2  H    0.386955   0.517399  -0.032441  -0.041003   0.006000  -0.009754
     3  H    0.387886  -0.032441   0.513672  -0.040472  -0.009450   0.005908
     4  C    0.601475  -0.041003  -0.040472   5.058537   0.384392   0.384045
     5  H   -0.035240   0.006000  -0.009450   0.384392   0.525691  -0.041205
     6  H   -0.034852  -0.009754   0.005908   0.384045  -0.041205   0.527082
 Mulliken charges:
               1
     1  C   -0.339356
     2  H    0.172845
     3  H    0.174897
     4  C   -0.346973
     5  H    0.169812
     6  H    0.168775
 Sum of Mulliken charges =  -0.00000
 Mulliken charges with hydrogens summed into heavy atoms:
               1
     1  C    0.008385
     4  C   -0.008385
 Electronic spatial extent (au):  <R**2>=             83.7330
 Charge=             -0.0000 electrons
 Dipole moment (field-independent basis, Debye):
    X=              0.0090    Y=              0.0313    Z=             -0.1278  Tot=              0.1319
 Quadrupole moment (field-independent basis, Debye-Ang):
   XX=            -12.2011   YY=            -12.2268   ZZ=            -15.6713
   XY=              0.0056   XZ=              0.0011   YZ=             -0.0030
 Traceless Quadrupole moment (field-independent basis, Debye-Ang):
   XX=              1.1653   YY=              1.1396   ZZ=             -2.3049
   XY=              0.0056   XZ=              0.0011   YZ=             -0.0030
 Octapole moment (field-independent basis, Debye-Ang**2):
  XXX=             -0.3675  YYY=              0.0587  ZZZ=             -0.0535  XYY=              0.2525
  XXY=             -0.0251  XXZ=             -0.1643  XZZ=             -0.0776  YZZ=             -0.0522
  YYZ=             -0.2191  XYZ=             -0.0466
 Hexadecapole moment (field-independent basis, Debye-Ang**3):
 XXXX=            -34.2824 YYYY=            -55.2528 ZZZZ=            -17.8276 XXXY=             -7.2608
 XXXZ=              0.0251 YYYX=            -10.7124 YYYZ=              0.0259 ZZZX=              0.0235
 ZZZY=              0.0458 XXYY=            -16.1983 XXZZ=             -9.9238 YYZZ=            -13.6458
 XXYZ=              0.0122 YYXZ=             -0.0026 ZZXY=             -3.2019
 N-N= 3.305932401567D+01 E-N=-2.478278225939D+02  KE= 7.815090180586D+01
 Orbital energies and kinetic energies (alpha):
                                 1                 2
   1         O               -10.289669         15.975778
   2         O               -10.288793         15.982699
   3         O                -0.863586          1.536595
   4         O                -0.672490          1.271995
   5         O                -0.559466          0.941421
   6         O                -0.508836          1.284042
   7         O                -0.436877          1.044730
   8         O                -0.356600          1.038191
   9         V                 0.079368          1.182418
  10         V                 0.140847          0.589313
  11         V                 0.164864          0.593179
  12         V                 0.170268          0.679596
  13         V                 0.240859          0.582985
  14         V                 0.371686          0.849200
  15         V                 0.393912          0.934243
  16         V                 0.399897          0.788629
  17         V                 0.464986          1.189206
  18         V                 0.488471          1.423164
  19         V                 0.493966          1.302773
  20         V                 0.590939          1.652074
  21         V                 0.665704          1.573673
  22         V                 0.691108          2.146667
  23         V                 0.773736          2.491732
  24         V                 0.774384          2.252571
  25         V                 0.840642          1.083787
  26         V                 0.950933          3.416786
  27         V                 2.231509          3.929012
  28         V                 2.291243          4.026614
  29         V                 2.331944          4.304850
  30         V                 2.405681          4.513854
  31         V                 2.671028          6.300395
  32         V                 2.817279          6.304179
  33         V                 2.878674          6.141228
  34         V                 2.951827          6.225951
  35         V                 3.140036          6.820202
  36         V                 3.318659          6.404079
  37         V                23.352743         60.074973
  38         V                23.704837         60.202950
 Total kinetic energy from orbitals= 7.815090180586D+01
 Calling FoFJK, ICntrl=      2127 FMM=F ISym2X=0 I1Cent= 0 IOpClX= 0 NMat=1 NMatS=1 NMatT=0.
 -------------------------------------------------------------------
 Center     Atomic                   Forces (Hartrees/Bohr)
 Number     Number              X              Y              Z
 -------------------------------------------------------------------
      1        6           0.014012067    0.008085759   -0.005336656
      2        1          -0.012105766    0.008182438    0.002688604
      3        1           0.005174715   -0.005374651    0.002441252
      4        6           0.007451448    0.005288832   -0.005334873
      5        1          -0.000541429   -0.010342616    0.002707830
      6        1          -0.013991035   -0.005839762    0.002833844
 -------------------------------------------------------------------
 Cartesian Forces:  Max     0.014012067 RMS     0.007590149

 GradGradGradGradGradGradGradGradGradGradGradGradGradGradGradGradGradGrad
 Berny optimization.
 Search for a local minimum.
 Step number   1 out of a maximum of    2
 All quantities printed in internal units (Hartrees-Bohrs-Radians)
 Second derivative matrix not updated -- first step.
 The second derivative matrix:
                          X1        Y1        Z1        X2        Y2
           X1           0.75292
           Y1           0.09677   0.84807
           Z1           0.00751   0.01134   0.16869
           X2          -0.16423   0.09544   0.00269   0.14182
           Y2           0.10096  -0.27616  -0.00953  -0.11435   0.26495
           Z2           0.00428  -0.01201  -0.05394  -0.00389   0.00984
           X3          -0.34799  -0.00034  -0.01054  -0.00013  -0.00006
           Y3          -0.00580  -0.10963  -0.00257   0.03193   0.01898
           Z3          -0.01351  -0.00248  -0.05562   0.00198   0.00077
           X4          -0.26601  -0.17726  -0.00097   0.02256   0.01344
           Y4          -0.17745  -0.47065  -0.00156  -0.01303  -0.00776
           Z4           0.00169   0.00309  -0.09350  -0.00078  -0.00107
           X5           0.02367  -0.01367   0.00081  -0.00001   0.00001
           Y5           0.01162  -0.00671   0.00111   0.00001  -0.00000
           Z5          -0.00067   0.00042   0.01765   0.00033  -0.00017
           X6           0.00164  -0.00095   0.00049  -0.00001   0.00001
           Y6          -0.02611   0.01508   0.00121   0.00001  -0.00000
           Z6           0.00069  -0.00037   0.01673  -0.00032   0.00017
                          Z2        X3        Y3        Z3        X4
           Z2           0.02813
           X3          -0.00038   0.34807
           Y3           0.00214   0.00043   0.07532
           Z3           0.01045   0.01149   0.00170   0.02921
           X4           0.00064   0.00007  -0.02658  -0.00062   0.71795
           Y4          -0.00034  -0.00004   0.01535   0.00039   0.11892
           Z4           0.01526  -0.00058  -0.00127   0.01607  -0.00669
           X5          -0.00033  -0.00001   0.00001   0.00033  -0.14724
           Y5           0.00021   0.00001  -0.00000  -0.00021   0.09401
           Z5           0.00918   0.00034  -0.00021  -0.00938  -0.00413
           X6          -0.00032  -0.00001   0.00001   0.00033  -0.32733
           Y6           0.00017   0.00001  -0.00000  -0.00017  -0.02255
           Z6          -0.00908  -0.00033   0.00021   0.00928   0.01177
                          Y4        Z4        X5        Y5        Z5
           Y4           0.86434
           Z4          -0.01313   0.17699
           X5           0.08536  -0.00274   0.12569
           Y5          -0.29608   0.00988  -0.10464   0.28666
           Z5           0.01219  -0.05798   0.00368  -0.01053   0.03022
           X6          -0.01377   0.00909  -0.00210  -0.00101   0.00045
           Y6          -0.10519   0.00250   0.03293   0.01614  -0.00169
           Z6           0.00245  -0.05683  -0.00176  -0.00045   0.01032
                          X6        Y6        Z6
           X6           0.32781
           Y6           0.01571   0.07398
           Z6          -0.01005  -0.00201   0.02960
 ITU=  0
     Eigenvalues ---    0.03700   0.04378   0.09090   0.10137   0.13499
     Eigenvalues ---    0.17492   0.26209   0.29047   0.52888   0.70383
     Eigenvalues ---    0.97299   1.55666
 Angle between quadratic step and forces=  34.10 degrees.
 Linear search not attempted -- first point.
 B after Tr=     0.007147    0.007088   -0.013177
         Rot=    1.000000   -0.000082    0.000047   -0.000109 Ang=  -0.02 deg.
 Variable       Old X    -DE/DX   Delta X   Delta X   Delta X     New X
                                 (Linear)    (Quad)   (Total)
    X1       -0.63677   0.01401   0.00000   0.02235   0.02973  -0.60704
    Y1       -1.10051   0.00809   0.00000   0.02339   0.03034  -1.07016
    Z1        0.01514  -0.00534   0.00000  -0.02840  -0.04181  -0.02667
    X2        0.43100  -0.01211   0.00000  -0.05087  -0.04309   0.38790
    Y2       -2.88901   0.00818   0.00000   0.02367   0.03085  -2.85817
    Z2       -0.05608   0.00269   0.00000   0.03476   0.02115  -0.03492
    X3       -2.69465   0.00517   0.00000   0.03526   0.04266  -2.65199
    Y3       -1.10422  -0.00537   0.00000  -0.02202  -0.01551  -1.11973
    Z3       -0.05895   0.00244   0.00000   0.03379   0.02018  -0.03877
    X4        0.62910   0.00745   0.00000   0.00722   0.01413   0.64324
    Y4        1.09160   0.00529   0.00000   0.00598   0.01321   1.10481
    Z4        0.01107  -0.00533   0.00000  -0.02612  -0.03906  -0.02799
    X5       -0.28695  -0.00054   0.00000  -0.02473  -0.01822  -0.30517
    Y5        2.95273  -0.01034   0.00000  -0.03746  -0.03044   2.92229
    Z5       -0.06341   0.00271   0.00000   0.03304   0.02031  -0.04310
    X6        2.71598  -0.01399   0.00000  -0.03210  -0.02521   2.69077
    Y6        1.22069  -0.00584   0.00000  -0.03614  -0.02846   1.19223
    Z6       -0.05981   0.00283   0.00000   0.03196   0.01922  -0.04058
         Item               Value     Threshold  Converged?
 Maximum Force            0.014012     0.000450     NO 
 RMS     Force            0.007590     0.000300     NO 
 Maximum Displacement     0.043092     0.001800     NO 
 RMS     Displacement     0.028540     0.001200     NO 
 Predicted change in Energy=-1.702898D-03
 GradGradGradGradGradGradGradGradGradGradGradGradGradGradGradGradGradGrad

 Unable to Open any file for archive entry.
 1\1\GINC-BHD0010\Force\RwB97XD\6-311G\C2H4\BWEIGHT\11-Jan-2023\0\\# WB
 97XD/6-311G SCF=XQC FORCE nosym pop=full guess=read\\MD Step 1000\\0,1
 \C,-0.33696508,-0.582364,0.00801082\H,0.22807341,-1.52880083,-0.029673
 84\H,-1.42594829,-0.58432882,-0.03119685\C,0.33290735,0.57764936,0.005
 85566\H,-0.1518479,1.56251504,-0.0335571\H,1.43723271,0.64595924,-0.03
 164824\\Version=ES64L-G16RevC.01\HF=-78.555531\RMSD=6.222e-09\RMSF=7.5
 90e-03\Dipole=0.0035248,0.0123036,-0.0502776\Quadrupole=0.8663743,0.84
 7253,-1.7136273,0.0041744,0.0008361,-0.002206\PG=C01 [X(C2H4)]\\@
 The archive entry for this job was punched.


 Sometimes the fool who rushes in gets the job done.
                                    -- Al Bernstein
 Job cpu time:       0 days  0 hours  0 minutes 46.1 seconds.
 Elapsed time:       0 days  0 hours  0 minutes 16.6 seconds.
 File lengths (MBytes):  RWF=    272 Int=      0 D2E=      0 Chk=     32 Scr=     32
 Normal termination of Gaussian 16 at Wed Jan 11 18:38:28 2023.
