 Entering Gaussian System, Link 0=g16
 Initial command:
 /software/gaussian/g16-c01/avx2/g16/l1.exe "/gpfs/fs2/scratch/bweight/software/many_molecule_many_mode_NAMD/src/NAMD/TEST_NVT/TRAJ/traj-3/G16/GS_NEW/Gau-2452.inp" -scrdir="/gpfs/fs2/scratch/bweight/software/many_molecule_many_mode_NAMD/src/NAMD/TEST_NVT/TRAJ/traj-3/G16/GS_NEW/"
 Entering Link 1 = /software/gaussian/g16-c01/avx2/g16/l1.exe PID=      2453.
  
 Copyright (c) 1988-2019, Gaussian, Inc.  All Rights Reserved.
  
 This is part of the Gaussian(R) 16 program.  It is based on
 the Gaussian(R) 09 system (copyright 2009, Gaussian, Inc.),
 the Gaussian(R) 03 system (copyright 2003, Gaussian, Inc.),
 the Gaussian(R) 98 system (copyright 1998, Gaussian, Inc.),
 the Gaussian(R) 94 system (copyright 1995, Gaussian, Inc.),
 the Gaussian 92(TM) system (copyright 1992, Gaussian, Inc.),
 the Gaussian 90(TM) system (copyright 1990, Gaussian, Inc.),
 the Gaussian 88(TM) system (copyright 1988, Gaussian, Inc.),
 the Gaussian 86(TM) system (copyright 1986, Carnegie Mellon
 University), and the Gaussian 82(TM) system (copyright 1983,
 Carnegie Mellon University). Gaussian is a federally registered
 trademark of Gaussian, Inc.
  
 This software contains proprietary and confidential information,
 including trade secrets, belonging to Gaussian, Inc.
  
 This software is provided under written license and may be
 used, copied, transmitted, or stored only in accord with that
 written license.
  
 The following legend is applicable only to US Government
 contracts under FAR:
  
                    RESTRICTED RIGHTS LEGEND
  
 Use, reproduction and disclosure by the US Government is
 subject to restrictions as set forth in subparagraphs (a)
 and (c) of the Commercial Computer Software - Restricted
 Rights clause in FAR 52.227-19.
  
 Gaussian, Inc.
 340 Quinnipiac St., Bldg. 40, Wallingford CT 06492
  
  
 ---------------------------------------------------------------
 Warning -- This program may not be used in any manner that
 competes with the business of Gaussian, Inc. or will provide
 assistance to any competitor of Gaussian, Inc.  The licensee
 of this program is prohibited from giving any competitor of
 Gaussian, Inc. access to this program.  By using this program,
 the user acknowledges that Gaussian, Inc. is engaged in the
 business of creating and licensing software in the field of
 computational chemistry and represents and warrants to the
 licensee that it is not a competitor of Gaussian, Inc. and that
 it will not use this program in any manner prohibited above.
 ---------------------------------------------------------------
  

 Cite this work as:
 Gaussian 16, Revision C.01,
 M. J. Frisch, G. W. Trucks, H. B. Schlegel, G. E. Scuseria, 
 M. A. Robb, J. R. Cheeseman, G. Scalmani, V. Barone, 
 G. A. Petersson, H. Nakatsuji, X. Li, M. Caricato, A. V. Marenich, 
 J. Bloino, B. G. Janesko, R. Gomperts, B. Mennucci, H. P. Hratchian, 
 J. V. Ortiz, A. F. Izmaylov, J. L. Sonnenberg, D. Williams-Young, 
 F. Ding, F. Lipparini, F. Egidi, J. Goings, B. Peng, A. Petrone, 
 T. Henderson, D. Ranasinghe, V. G. Zakrzewski, J. Gao, N. Rega, 
 G. Zheng, W. Liang, M. Hada, M. Ehara, K. Toyota, R. Fukuda, 
 J. Hasegawa, M. Ishida, T. Nakajima, Y. Honda, O. Kitao, H. Nakai, 
 T. Vreven, K. Throssell, J. A. Montgomery, Jr., J. E. Peralta, 
 F. Ogliaro, M. J. Bearpark, J. J. Heyd, E. N. Brothers, K. N. Kudin, 
 V. N. Staroverov, T. A. Keith, R. Kobayashi, J. Normand, 
 K. Raghavachari, A. P. Rendell, J. C. Burant, S. S. Iyengar, 
 J. Tomasi, M. Cossi, J. M. Millam, M. Klene, C. Adamo, R. Cammi, 
 J. W. Ochterski, R. L. Martin, K. Morokuma, O. Farkas, 
 J. B. Foresman, and D. J. Fox, Gaussian, Inc., Wallingford CT, 2019.
 
 ******************************************
 Gaussian 16:  ES64L-G16RevC.01  3-Jul-2019
                11-Jan-2023 
 ******************************************
 %oldchk=../GS_OLD/geometry.chk
 %chk=geometry.chk
 %nprocshared=4
 Will use up to    4 processors via shared memory.
 %mem=5GB
 Copying data from "../GS_OLD/geometry.chk" to current chk file "geometry.chk"
 IOpt=  2 FromEx=T IUOpen= 4 IOptOp= 5 NList=   0 IFRang= 0 IUIn= 4 IUOut= 2.
 -------------------------------------------------------
 # WB97XD/6-311G SCF=XQC FORCE nosym pop=full guess=read
 -------------------------------------------------------
 1/10=7,30=1,38=1/1,3;
 2/12=2,15=1,17=6,18=5,40=1/2;
 3/5=4,6=6,11=2,25=1,30=1,71=1,74=-58,116=-2/1,2,3;
 4/5=1/1;
 5/5=2,8=3,13=1,38=6/2,8;
 6/7=3,28=1/1;
 7/29=1,30=1/1,2,3,16;
 1/10=7,30=1/3;
 99//99;
 -----------
 MD Step 999
 -----------
 Symbolic Z-matrix:
 Charge =  0 Multiplicity = 1
 C                    -0.33601  -0.581     0.00671 
 H                     0.22016  -1.52811  -0.02165 
 H                    -1.42044  -0.58634  -0.02266 
 C                     0.33221   0.57616   0.00481 
 H                    -0.15574   1.56566  -0.02534 
 H                     1.44457   0.64982  -0.02432 
 

 GradGradGradGradGradGradGradGradGradGradGradGradGradGradGradGradGradGrad
 Berny optimization.
 Initialization pass.
 Trust Radius=3.00D-01 FncErr=1.00D-07 GrdErr=1.00D-07 EigMax=2.50D+02 EigMin=1.00D-04
 Number of steps in this run=      2 maximum allowed number of steps=      2.
 GradGradGradGradGradGradGradGradGradGradGradGradGradGradGradGradGradGrad

                          Input orientation:                          
 ---------------------------------------------------------------------
 Center     Atomic      Atomic             Coordinates (Angstroms)
 Number     Number       Type             X           Y           Z
 ---------------------------------------------------------------------
      1          6           0       -0.336011   -0.581004    0.006706
      2          1           0        0.220162   -1.528106   -0.021647
      3          1           0       -1.420436   -0.586343   -0.022660
      4          6           0        0.332209    0.576156    0.004810
      5          1           0       -0.155739    1.565657   -0.025344
      6          1           0        1.444566    0.649815   -0.024321
 ---------------------------------------------------------------------
                    Distance matrix (angstroms):
                    1          2          3          4          5
     1  C    0.000000
     2  H    1.098697   0.000000
     3  H    1.084836   1.891687   0.000000
     4  C    1.336241   2.107408   2.103313   0.000000
     5  H    2.154455   3.116517   2.496111   1.103683   0.000000
     6  H    2.164794   2.498502   3.120309   1.115174   1.843839
                    6
     6  H    0.000000
 Symmetry turned off by external request.
 Stoichiometry    C2H4
 Framework group  C1[X(C2H4)]
 Deg. of freedom    12
 Full point group                 C1      NOp   1
 Rotational constants (GHZ):         143.5934570          29.7186724          24.6297333
 Standard basis: 6-311G (5D, 7F)
    38 basis functions,    72 primitive gaussians,    38 cartesian basis functions
     8 alpha electrons        8 beta electrons
       nuclear repulsion energy        33.0837452406 Hartrees.
 NAtoms=    6 NActive=    6 NUniq=    6 SFac= 1.00D+00 NAtFMM=   60 NAOKFM=F Big=F
 Integral buffers will be    131072 words long.
 Raffenetti 2 integral format.
 Two-electron integral symmetry is turned off.
 Nuclear repulsion after empirical dispersion term =       33.0829052192 Hartrees.
 One-electron integrals computed using PRISM.
 NBasis=    38 RedAO= T EigKep=  6.39D-03  NBF=    38
 NBsUse=    38 1.00D-06 EigRej= -1.00D+00 NBFU=    38
 Initial guess from the checkpoint file:  "geometry.chk"
 B after Tr=    -0.000174   -0.000249   -0.000500
         Rot=    1.000000    0.000001    0.000001    0.000005 Ang=   0.00 deg.
 Keep R1 ints in memory in canonical form, NReq=4036876.
 Requested convergence on RMS density matrix=1.00D-08 within  32 cycles.
 Requested convergence on MAX density matrix=1.00D-06.
 Requested convergence on             energy=1.00D-06.
 No special actions if energy rises.
 SCF Done:  E(RwB97XD) =  -78.5555895676     A.U. after    8 cycles
            NFock=  8  Conv=0.60D-08     -V/T= 2.0051
 QCSCF skips out because SCF is already converged.

 **********************************************************************

            Population analysis using the SCF Density.

 **********************************************************************

 Alpha  occ. eigenvalues --  -10.29025 -10.28792  -0.86416  -0.67215  -0.55918
 Alpha  occ. eigenvalues --   -0.50993  -0.43581  -0.35722
 Alpha virt. eigenvalues --    0.08019   0.14097   0.16450   0.16996   0.24085
 Alpha virt. eigenvalues --    0.37380   0.39265   0.40013   0.46341   0.48856
 Alpha virt. eigenvalues --    0.49355   0.59122   0.66528   0.69092   0.77265
 Alpha virt. eigenvalues --    0.77590   0.84205   0.95361   2.23149   2.28982
 Alpha virt. eigenvalues --    2.33325   2.40675   2.67149   2.81757   2.87833
 Alpha virt. eigenvalues --    2.95118   3.14236   3.31836  23.35172  23.70731
     Molecular Orbital Coefficients:
                           1         2         3         4         5
                           O         O         O         O         O
     Eigenvalues --   -10.29025 -10.28792  -0.86416  -0.67215  -0.55918
   1 1   C  1S          0.10962   0.55262  -0.08849   0.06668  -0.00041
   2        2S          0.09042   0.45479  -0.13986   0.10679  -0.00067
   3        2PX         0.00016  -0.00001   0.02602   0.03649   0.13902
   4        2PY         0.00028  -0.00001   0.04669   0.05946  -0.07309
   5        2PZ         0.00000  -0.00001  -0.00121   0.00177   0.00024
   6        3S          0.00198   0.01451   0.37511  -0.29133   0.00184
   7        3PX        -0.00060   0.00044   0.03441   0.05852   0.21776
   8        3PY        -0.00103   0.00079   0.06134   0.09660  -0.11559
   9        3PZ        -0.00001  -0.00003  -0.00202   0.00316   0.00035
  10        4S          0.00307  -0.01476   0.19170  -0.22574   0.00108
  11        4PX         0.00148  -0.00158   0.00478   0.02332   0.11256
  12        4PY         0.00253  -0.00272   0.00862   0.03999  -0.06072
  13        4PZ         0.00000   0.00008  -0.00070   0.00158   0.00017
  14 2   H  1S         -0.00004  -0.00006   0.05236  -0.08688   0.10242
  15        2S         -0.00030   0.00011   0.05368  -0.10485   0.12984
  16        3S          0.00085   0.00166  -0.00177  -0.01503   0.04203
  17 3   H  1S         -0.00005  -0.00007   0.05396  -0.09089  -0.10650
  18        2S         -0.00030   0.00009   0.05469  -0.10869  -0.13387
  19        3S          0.00088   0.00170  -0.00180  -0.01606  -0.04325
  20 4   C  1S          0.55262  -0.10981  -0.08687  -0.06836  -0.00027
  21        2S          0.45485  -0.09018  -0.13716  -0.10963  -0.00042
  22        2PX        -0.00002  -0.00016  -0.02791   0.03748   0.11663
  23        2PY        -0.00003  -0.00029  -0.04692   0.06751  -0.07446
  24        2PZ        -0.00000   0.00000  -0.00094  -0.00188   0.00024
  25        3S          0.01400  -0.00369   0.36739   0.29955   0.00115
  26        3PX        -0.00020   0.00073  -0.03485   0.06094   0.18271
  27        3PY        -0.00032   0.00127  -0.05851   0.10895  -0.11541
  28        3PZ        -0.00003  -0.00000  -0.00162  -0.00339   0.00037
  29        4S         -0.01215   0.00860   0.18850   0.23797  -0.00021
  30        4PX         0.00085  -0.00192  -0.00543   0.02679   0.10078
  31        4PY         0.00144  -0.00336  -0.00906   0.04633  -0.06269
  32        4PZ         0.00006  -0.00002  -0.00068  -0.00175   0.00019
  33 5   H  1S         -0.00006  -0.00004   0.04977   0.09426  -0.08943
  34        2S         -0.00003  -0.00031   0.05085   0.11232  -0.11269
  35        3S          0.00181   0.00013  -0.00108   0.01697  -0.03619
  36 6   H  1S         -0.00005  -0.00004   0.04835   0.09165   0.08427
  37        2S         -0.00003  -0.00032   0.05001   0.10994   0.10684
  38        3S          0.00176   0.00011  -0.00114   0.01625   0.03468
                           6         7         8         9        10
                           O         O         O         V         V
     Eigenvalues --    -0.50993  -0.43581  -0.35722   0.08019   0.14097
   1 1   C  1S         -0.00332   0.00026  -0.00093   0.00251  -0.03306
   2        2S         -0.00493   0.00045  -0.00151   0.00416  -0.05303
   3        2PX         0.09359  -0.11004  -0.00310   0.00134  -0.03054
   4        2PY         0.16890   0.06534  -0.00522   0.00221  -0.06503
   5        2PZ         0.00462  -0.00002   0.17948  -0.18895  -0.00226
   6        3S          0.01921  -0.00106   0.00442  -0.01259   0.11512
   7        3PX         0.13552  -0.17566  -0.00437   0.00203  -0.03566
   8        3PY         0.24663   0.10490  -0.00735   0.00330  -0.08060
   9        3PZ         0.00733  -0.00000   0.28866  -0.27793  -0.00360
  10        4S         -0.05499  -0.00378   0.00634  -0.01441   1.21764
  11        4PX         0.06800  -0.10971  -0.00358   0.01157  -0.18684
  12        4PY         0.12518   0.06627  -0.00606   0.01931  -0.38404
  13        4PZ         0.00417   0.00004   0.26670  -0.69638  -0.01315
  14 2   H  1S         -0.08162  -0.11454   0.00013   0.00390  -0.01733
  15        2S         -0.11304  -0.17708   0.00184   0.00618  -0.04847
  16        3S         -0.04220  -0.08205   0.00109   0.01641  -0.83583
  17 3   H  1S         -0.07874   0.11200   0.00008   0.00392  -0.01273
  18        2S         -0.10831   0.17218   0.00178   0.00629  -0.03709
  19        3S         -0.04005   0.07955   0.00106   0.01615  -0.75824
  20 4   C  1S         -0.00868  -0.00053  -0.00072  -0.00240  -0.03645
  21        2S         -0.01359  -0.00089  -0.00117  -0.00398  -0.05854
  22        2PX        -0.09875   0.12538   0.00304   0.00155   0.04207
  23        2PY        -0.16154  -0.07385   0.00558   0.00283   0.06101
  24        2PZ         0.00493   0.00019   0.17921   0.18940  -0.00273
  25        3S          0.04370   0.00251   0.00347   0.01192   0.12930
  26        3PX        -0.14628   0.20092   0.00425   0.00238   0.05192
  27        3PY        -0.23734  -0.11745   0.00783   0.00435   0.07210
  28        3PZ         0.00778   0.00028   0.28683   0.27775  -0.00415
  29        4S         -0.02821   0.00371   0.00595   0.01343   1.24715
  30        4PX        -0.07656   0.12930   0.00324   0.01192   0.27177
  31        4PY        -0.12263  -0.07464   0.00610   0.02133   0.41484
  32        4PZ         0.00450   0.00016   0.26701   0.69759  -0.01624
  33 5   H  1S         -0.07397  -0.12505   0.00022  -0.00363  -0.01163
  34        2S         -0.10076  -0.19503   0.00196  -0.00606  -0.03679
  35        3S         -0.03749  -0.09188   0.00110  -0.01592  -0.81945
  36 6   H  1S         -0.08023   0.12499   0.00016  -0.00364  -0.01612
  37        2S         -0.10987   0.19608   0.00188  -0.00610  -0.04775
  38        3S         -0.04114   0.09248   0.00104  -0.01627  -0.89747
                          11        12        13        14        15
                           V         V         V         V         V
     Eigenvalues --     0.16450   0.16996   0.24085   0.37380   0.39265
   1 1   C  1S          0.00154  -0.04566   0.00007   0.00931   0.00119
   2        2S          0.00249  -0.07444   0.00010   0.01261   0.00189
   3        2PX         0.09728  -0.01933   0.10000  -0.03521  -0.02373
   4        2PY        -0.05295  -0.03778  -0.05727  -0.06462   0.00905
   5        2PZ         0.00017  -0.00612   0.00003  -0.00427  -0.00020
   6        3S         -0.00534   0.16851   0.00024   0.03466  -0.00097
   7        3PX         0.13928  -0.01045   0.10557  -0.04293  -0.10632
   8        3PY        -0.07722  -0.02501  -0.06160  -0.08406   0.04772
   9        3PZ         0.00024  -0.00850  -0.00002  -0.00883  -0.00026
  10        4S         -0.06943   1.43957  -0.02109  -2.57198  -0.21573
  11        4PX         0.58478  -0.11574   1.16954  -1.55798  -0.54761
  12        4PY        -0.30882  -0.21143  -0.66756  -2.71593   0.12372
  13        4PZ         0.00120  -0.04000   0.00086  -0.03831  -0.00249
  14 2   H  1S         -0.02943  -0.02565   0.01362  -0.05923   0.07536
  15        2S         -0.08183  -0.01814  -0.02319  -0.67681   0.76719
  16        3S         -1.01661  -1.01320  -1.54223  -0.29490  -0.32896
  17 3   H  1S          0.02896  -0.02501  -0.01602  -0.05151  -0.07599
  18        2S          0.08109  -0.02104   0.01673  -0.61593  -0.75914
  19        3S          1.10653  -1.00989   1.57429  -0.37802   0.24459
  20 4   C  1S          0.00140   0.04219  -0.00012  -0.02005  -0.00012
  21        2S          0.00223   0.06869  -0.00021  -0.03301  -0.00003
  22        2PX         0.10127  -0.02330  -0.10043  -0.04035  -0.03196
  23        2PY        -0.06184  -0.03765   0.05756  -0.07197   0.01283
  24        2PZ         0.00017   0.00593  -0.00003   0.00301   0.00035
  25        3S         -0.00441  -0.15253   0.00037   0.04528  -0.00402
  26        3PX         0.14585  -0.01853  -0.11447  -0.09274  -0.10970
  27        3PY        -0.08781  -0.02750   0.06417  -0.16809   0.05657
  28        3PZ         0.00024   0.00816   0.00001   0.00354   0.00071
  29        4S         -0.06762  -1.33108   0.01584   3.30391   0.18786
  30        4PX         0.53316  -0.11738  -1.12152  -1.14914  -0.56742
  31        4PY        -0.33407  -0.19983   0.65166  -2.02242   0.07370
  32        4PZ         0.00113   0.03855  -0.00087   0.03221   0.00271
  33 5   H  1S          0.03148   0.02473   0.00600   0.00832  -0.08044
  34        2S          0.06833   0.02270  -0.03365   0.04357  -0.78536
  35        3S          1.08395   0.93794  -1.52624   0.45060   0.48598
  36 6   H  1S         -0.03194   0.02538  -0.00426   0.00306   0.08862
  37        2S         -0.06927   0.02032   0.03572  -0.00416   0.90017
  38        3S         -0.99361   0.93770   1.50346   0.46308  -0.46411
                          16        17        18        19        20
                           V         V         V         V         V
     Eigenvalues --     0.40013   0.46341   0.48856   0.49355   0.59122
   1 1   C  1S         -0.01874   0.01250  -0.04633  -0.00066  -0.00049
   2        2S         -0.03285   0.02898  -0.07744  -0.00085  -0.00088
   3        2PX         0.02754  -0.06121   0.01202   0.00124   0.00188
   4        2PY         0.05122  -0.10632   0.01459   0.00169   0.00276
   5        2PZ         0.00034  -0.00050   0.00574  -0.15163  -0.19265
   6        3S          0.07536  -0.33682   0.09056  -0.00773  -0.00064
   7        3PX         0.10285  -0.23967  -0.03469   0.00030   0.00630
   8        3PY         0.19731  -0.41403  -0.07224  -0.00086   0.00932
   9        3PZ        -0.00336  -0.00425   0.02561  -0.62761  -0.68534
  10        4S          2.77604   0.13105   3.11469   0.10517   0.06373
  11        4PX         0.27859   0.22888   0.81664   0.03264   0.01985
  12        4PY         0.53189   0.43286   1.41700   0.05839   0.03491
  13        4PZ        -0.00115   0.00139  -0.08600   0.68475   1.24162
  14 2   H  1S         -0.02410  -0.03348  -0.07628  -0.00296  -0.00154
  15        2S         -0.51316  -0.32003  -0.91101  -0.02946  -0.01141
  16        3S          0.31540   0.06765   0.64615   0.03267   0.02136
  17 3   H  1S         -0.03323  -0.03611  -0.07390  -0.00287  -0.00146
  18        2S         -0.59706  -0.35043  -0.88125  -0.02870  -0.01000
  19        3S          0.33477   0.06850   0.60857   0.03143   0.02076
  20 4   C  1S         -0.00021  -0.00291   0.05096   0.00316   0.00064
  21        2S         -0.00396   0.00272   0.08875   0.00570   0.00119
  22        2PX         0.00887   0.05487   0.02679   0.00022   0.00182
  23        2PY         0.01814   0.09436   0.04969   0.00033   0.00359
  24        2PZ        -0.00346  -0.00173   0.00588  -0.15259   0.19236
  25        3S          0.07994  -0.28487  -0.23431  -0.02113  -0.00232
  26        3PX        -0.04436   0.23377   0.05571   0.00040   0.00644
  27        3PY        -0.06311   0.40707   0.10048   0.00007   0.01250
  28        3PZ        -0.00971  -0.00703   0.02212  -0.63107   0.68264
  29        4S         -0.97728   0.77213  -3.10369  -0.12559  -0.05615
  30        4PX         1.28277  -0.34195   0.61262   0.01847   0.01983
  31        4PY         2.33002  -0.56077   1.03960   0.03104   0.03351
  32        4PZ        -0.03077  -0.01465   0.02687   0.69420  -1.23840
  33 5   H  1S         -0.04747  -0.06493   0.06376   0.00268   0.00141
  34        2S         -0.85253  -0.66662   0.80598   0.03901   0.00533
  35        3S         -0.21272   0.27002  -0.54156  -0.01318  -0.02068
  36 6   H  1S         -0.03819  -0.06339   0.06411   0.00272   0.00146
  37        2S         -0.74546  -0.64549   0.80475   0.03879   0.00596
  38        3S         -0.23556   0.28840  -0.56663  -0.01469  -0.02097
                          21        22        23        24        25
                           V         V         V         V         V
     Eigenvalues --     0.66528   0.69092   0.77265   0.77590   0.84205
   1 1   C  1S          0.00100  -0.00052   0.05722   0.06846   0.00099
   2        2S          0.00206  -0.00117   0.12091   0.14600   0.00228
   3        2PX        -0.13094   0.19858  -0.01567   0.11619  -0.00838
   4        2PY         0.07641  -0.11996  -0.02719   0.18753   0.01487
   5        2PZ        -0.00007   0.00018   0.00100   0.00430   0.00016
   6        3S         -0.01621   0.01661  -0.84015  -1.28077  -0.02548
   7        3PX        -0.61027   0.69672  -0.13638   0.46233  -0.22288
   8        3PY         0.35206  -0.42126  -0.23609   0.73584   0.16964
   9        3PZ        -0.00042   0.00072   0.00373   0.01496   0.00057
  10        4S          0.02490  -0.07814   0.91139   2.41415  -0.01403
  11        4PX         1.08183  -0.77468   0.10899  -0.78427   4.51456
  12        4PY        -0.62614   0.47761   0.09806  -0.99473  -2.58274
  13        4PZ         0.00044   0.00116   0.00391  -0.05045   0.00379
  14 2   H  1S          0.02325  -0.05914   0.01324   0.03154  -0.02665
  15        2S          0.12825  -0.63677   0.07868   0.08783  -1.56672
  16        3S         -1.03508   1.11168  -0.20010  -1.07372  -1.23069
  17 3   H  1S         -0.02237   0.05862   0.01324   0.03233   0.03046
  18        2S         -0.14256   0.67431   0.11127   0.04512   1.61064
  19        3S          1.02477  -1.07019  -0.18745  -1.24331   1.22826
  20 4   C  1S          0.00121  -0.00036   0.08676   0.02330   0.00054
  21        2S          0.00247  -0.00066   0.18457   0.04888   0.00105
  22        2PX        -0.15270  -0.18452  -0.09055   0.05997   0.01202
  23        2PY         0.08726   0.10163  -0.16519   0.11101   0.00215
  24        2PZ        -0.00007  -0.00019   0.00450  -0.00138  -0.00018
  25        3S         -0.01827  -0.00256  -1.52556  -0.23738  -0.00246
  26        3PX        -0.68724  -0.62218  -0.32222   0.30580   0.24387
  27        3PY         0.39615   0.33954  -0.59509   0.56439  -0.09637
  28        3PZ        -0.00043  -0.00066   0.01591  -0.00519  -0.00054
  29        4S          0.01701   0.05379   2.70504  -0.14722  -0.00180
  30        4PX         1.28681   0.73192   0.47019  -0.26280  -4.16124
  31        4PY        -0.73687  -0.39301   0.95947  -0.76240   2.37227
  32        4PZ         0.00071  -0.00096  -0.04503   0.02740  -0.00315
  33 5   H  1S         -0.02548  -0.05497   0.03483  -0.00014  -0.02341
  34        2S         -0.14903  -0.56531   0.07731   0.07742  -1.40896
  35        3S          1.12072   0.96579  -1.14312   0.40750  -1.09190
  36 6   H  1S          0.02627   0.05492   0.03433   0.00059   0.02274
  37        2S          0.14007   0.52893   0.07874   0.01069   1.38836
  38        3S         -1.12531  -0.99103  -1.05539   0.31091   1.10455
                          26        27        28        29        30
                           V         V         V         V         V
     Eigenvalues --     0.95361   2.23149   2.28982   2.33325   2.40675
   1 1   C  1S          0.09584  -0.01011  -0.01451   0.00044  -0.00053
   2        2S          0.19920   0.00161  -0.01454   0.00095  -0.00063
   3        2PX        -0.09189  -0.07664  -0.13261   0.34699  -0.40772
   4        2PY        -0.15925  -0.14501  -0.23311  -0.19686   0.23051
   5        2PZ         0.00020  -0.01221  -0.01662   0.00007  -0.00072
   6        3S         -1.54205  -0.18647  -0.03616  -0.00144  -0.00493
   7        3PX        -0.23739   0.07132   0.20839  -0.41576   0.56910
   8        3PY        -0.40278   0.15043   0.38139   0.23832  -0.32391
   9        3PZ        -0.00219   0.01223   0.02070   0.00003   0.00082
  10        4S          5.71458  -0.10684  -0.88693   0.00265  -0.02040
  11        4PX         1.21349   0.05528  -0.18640  -0.05388   0.97932
  12        4PY         1.99167   0.07083  -0.35925   0.02162  -0.53917
  13        4PZ        -0.01742   0.00274   0.00759  -0.00030   0.00159
  14 2   H  1S          0.01533  -0.70603  -0.79824  -0.70620   0.65058
  15        2S         -0.29189   1.00313   1.19496   1.09066  -1.45470
  16        3S         -0.09268  -0.30142  -0.47867  -0.46859   0.36782
  17 3   H  1S          0.01569  -0.69748  -0.79275   0.69948  -0.67413
  18        2S         -0.25686   0.99217   1.19242  -1.08496   1.50435
  19        3S         -0.07077  -0.27781  -0.45689   0.45777  -0.35831
  20 4   C  1S         -0.09390  -0.01039   0.01213   0.00051   0.00036
  21        2S         -0.19478   0.00009   0.01224   0.00075   0.00063
  22        2PX        -0.09308   0.13635  -0.12408   0.30268   0.41666
  23        2PY        -0.16060   0.23691  -0.20766  -0.17548  -0.23993
  24        2PZ         0.00034  -0.01336   0.01594   0.00031   0.00035
  25        3S          1.50386  -0.16793   0.01664   0.00013   0.00030
  26        3PX        -0.22976  -0.17549   0.21460  -0.37890  -0.58416
  27        3PY        -0.40336  -0.29852   0.35085   0.21639   0.33641
  28        3PZ         0.00341   0.01438  -0.02040  -0.00030  -0.00048
  29        4S         -5.69043  -0.17305   0.88898   0.01524   0.00599
  30        4PX         1.10091  -0.01252  -0.20119   0.11430  -0.84840
  31        4PY         1.99467  -0.03431  -0.31561  -0.06335   0.50163
  32        4PZ         0.01068   0.00427  -0.00576  -0.00010  -0.00137
  33 5   H  1S         -0.01804  -0.79150   0.67132   0.70453   0.68796
  34        2S          0.28795   1.15149  -1.02745  -1.02101  -1.45965
  35        3S          0.05319  -0.35597   0.39723   0.51066   0.42855
  36 6   H  1S         -0.01799  -0.78487   0.69284  -0.69299  -0.68495
  37        2S          0.31576   1.13861  -1.05275   1.00042   1.44517
  38        3S          0.06554  -0.35914   0.42674  -0.50905  -0.43827
                          31        32        33        34        35
                           V         V         V         V         V
     Eigenvalues --     2.67149   2.81757   2.87833   2.95118   3.14236
   1 1   C  1S          0.00046   0.00230  -0.01329   0.00008  -0.00958
   2        2S          0.00037   0.00668  -0.04417  -0.00011  -0.02965
   3        2PX         0.00465   0.06643  -0.47158  -0.72594   0.44885
   4        2PY         0.00710   0.11700  -0.85411   0.40879   0.78001
   5        2PZ        -0.92418  -0.93182  -0.12699  -0.00107   0.00579
   6        3S         -0.00151  -0.05547   0.38904   0.00323   0.25067
   7        3PX        -0.00343  -0.11530   0.83671   0.87399  -0.43203
   8        3PY        -0.00522  -0.20121   1.48601  -0.47848  -0.74694
   9        3PZ         0.93892   1.13958   0.15933   0.00149  -0.00753
  10        4S          0.01206   0.12907  -0.87980  -0.01010  -0.49127
  11        4PX        -0.00188   0.09248  -0.71387  -0.66544   0.21907
  12        4PY        -0.00249   0.16232  -1.27191   0.35365   0.37081
  13        4PZ        -0.33783  -0.61739  -0.10094  -0.00121   0.00449
  14 2   H  1S          0.01101  -0.01813   0.26404  -0.37378  -0.21236
  15        2S         -0.01257   0.01142  -0.22128   0.38600   0.16030
  16        3S         -0.00264   0.03735  -0.29846   0.27234   0.05569
  17 3   H  1S          0.01117  -0.01744   0.25286   0.37385  -0.21535
  18        2S         -0.01293   0.00969  -0.20049  -0.38151   0.16319
  19        3S         -0.00318   0.03792  -0.30143  -0.29044   0.06640
  20 4   C  1S          0.00046  -0.00224   0.01356   0.00059  -0.00713
  21        2S          0.00044  -0.00703   0.04812   0.00132  -0.02255
  22        2PX        -0.00671   0.05900  -0.40758  -0.80929  -0.50406
  23        2PY        -0.01238   0.10503  -0.72160   0.44736  -0.89586
  24        2PZ        -0.92536   0.93002   0.13005   0.00028   0.01229
  25        3S         -0.00244   0.06075  -0.43501  -0.00963   0.19543
  26        3PX         0.00697  -0.10770   0.76990   0.96359   0.54141
  27        3PY         0.01259  -0.19049   1.35708  -0.52634   0.97191
  28        3PZ         0.94065  -1.13765  -0.16405  -0.00032  -0.01548
  29        4S          0.01395  -0.13156   0.90922   0.02819  -0.37209
  30        4PX        -0.00068   0.09210  -0.71192  -0.69867  -0.33186
  31        4PY        -0.00173   0.16121  -1.24142   0.37730  -0.59982
  32        4PZ        -0.33873   0.61622   0.10491   0.00016   0.01215
  33 5   H  1S          0.01042   0.02538  -0.29557   0.41849  -0.26727
  34        2S         -0.01287  -0.02070   0.26944  -0.42901   0.21035
  35        3S         -0.00128  -0.03489   0.28263  -0.24464   0.12922
  36 6   H  1S          0.01056   0.02567  -0.29406  -0.43022  -0.25383
  37        2S         -0.01338  -0.02183   0.27485   0.44063   0.20000
  38        3S         -0.00085  -0.03299   0.26659   0.24394   0.11971
                          36        37        38
                           V         V         V
     Eigenvalues --     3.31836  23.35172  23.70731
   1 1   C  1S         -0.00041  -1.41390  -1.45241
   2        2S         -0.00054   1.50787   1.57069
   3        2PX         0.78903  -0.00651   0.01202
   4        2PY        -0.43961  -0.01053   0.02119
   5        2PZ         0.00101  -0.00050  -0.00023
   6        3S         -0.00107  -0.29589  -0.40014
   7        3PX        -1.12849   0.02415  -0.05585
   8        3PY         0.62297   0.03980  -0.09740
   9        3PZ        -0.00156   0.00141   0.00070
  10        4S         -0.00631   0.27418   0.77114
  11        4PX         1.97916  -0.02609   0.13396
  12        4PY        -1.09205  -0.04378   0.23046
  13        4PZ         0.00261  -0.00237  -0.00285
  14 2   H  1S          0.56225   0.01295   0.00700
  15        2S         -0.87503   0.00770  -0.01481
  16        3S         -0.46127  -0.08396  -0.03934
  17 3   H  1S         -0.57501   0.01496   0.00837
  18        2S          0.89329   0.00721  -0.01485
  19        3S          0.49043  -0.08649  -0.03951
  20 4   C  1S          0.00016  -1.44757   1.41868
  21        2S         -0.00010   1.54387  -1.53431
  22        2PX        -0.70571   0.00589   0.01267
  23        2PY         0.40668   0.01076   0.02147
  24        2PZ        -0.00084  -0.00050   0.00011
  25        3S          0.00471  -0.30280   0.39098
  26        3PX         1.00432  -0.02206  -0.05693
  27        3PY        -0.58863  -0.03968  -0.09768
  28        3PZ         0.00129   0.00144  -0.00027
  29        4S         -0.01615   0.27917  -0.76228
  30        4PX        -1.76842   0.02324   0.13145
  31        4PY         1.04449   0.04297   0.22789
  32        4PZ        -0.00221  -0.00233   0.00193
  33 5   H  1S          0.48375   0.01338  -0.00463
  34        2S         -0.75431   0.00811   0.01361
  35        3S         -0.42972  -0.08321   0.03706
  36 6   H  1S         -0.47627   0.01168  -0.00333
  37        2S          0.74544   0.00933   0.01318
  38        3S          0.41479  -0.08096   0.03648
     Density Matrix:
                           1         2         3         4         5
   1 1   C  1S          0.65940
   2        2S          0.56151   0.49200
   3        2PX        -0.00050  -0.00067   0.08442
   4        2PY        -0.00130  -0.00182   0.00371   0.08776
   5        2PZ         0.00008   0.00012  -0.00011  -0.00025   0.06448
   6        3S         -0.08890  -0.15380   0.00258   0.00642  -0.00018
   7        3PX         0.00091   0.00139   0.13066   0.00121  -0.00008
   8        3PY         0.00120   0.00184   0.00123   0.13121  -0.00023
   9        3PZ         0.00016   0.00027  -0.00019  -0.00040   0.10370
  10        4S         -0.07932  -0.11419  -0.01570  -0.02824   0.00051
  11        4PX         0.00025   0.00156   0.07014  -0.00457  -0.00053
  12        4PY         0.00062   0.00304  -0.00463   0.06545  -0.00093
  13        4PZ        -0.00010  -0.00024  -0.00075  -0.00127   0.09578
  14 2   H  1S         -0.02053  -0.03270   0.03479  -0.06296  -0.00109
  15        2S         -0.02287  -0.03658   0.04904  -0.08778  -0.00082
  16        3S          0.00054  -0.00076   0.02065  -0.03309  -0.00002
  17 3   H  1S         -0.02109  -0.03356  -0.07282  -0.00216  -0.00121
  18        2S         -0.02323  -0.03709  -0.10048  -0.00235  -0.00095
  19        3S          0.00059  -0.00070  -0.03830   0.00110  -0.00006
  20 4   C  1S          0.00610   0.00984  -0.01091  -0.01888  -0.00037
  21        2S          0.00980   0.01532  -0.01745  -0.03022  -0.00060
  22        2PX         0.01037   0.01658  -0.01239  -0.03220   0.00043
  23        2PY         0.01807   0.02889  -0.03224  -0.04974   0.00083
  24        2PZ        -0.00045  -0.00073  -0.00035  -0.00053   0.06437
  25        3S         -0.02638  -0.04006   0.04891   0.08482   0.00182
  26        3PX         0.01598   0.02476  -0.01819  -0.04592   0.00055
  27        3PY         0.02781   0.04310  -0.04581  -0.07124   0.00110
  28        3PZ        -0.00076  -0.00122  -0.00061  -0.00094   0.10302
  29        4S          0.00540   0.00399   0.02098   0.03682   0.00226
  30        4PX         0.00309   0.00638  -0.01311  -0.02105   0.00061
  31        4PY         0.00519   0.01084  -0.02109  -0.03741   0.00122
  32        4PZ        -0.00064  -0.00104  -0.00096  -0.00155   0.09588
  33 5   H  1S          0.00420   0.00690  -0.00172  -0.01240  -0.00043
  34        2S          0.00629   0.01044   0.00356  -0.02496   0.00000
  35        3S          0.00322   0.00470   0.00432  -0.01748   0.00010
  36 6   H  1S          0.00414   0.00679  -0.00989  -0.00767  -0.00044
  37        2S          0.00619   0.01030  -0.02340  -0.00938  -0.00003
  38        3S          0.00317   0.00465  -0.01729  -0.00506   0.00007
                           6         7         8         9        10
   6        3S          0.45238
   7        3PX        -0.00193   0.20254
   8        3PY        -0.00149  -0.00476   0.19668
   9        3PZ        -0.00053  -0.00015  -0.00035   0.16679
  10        4S          0.27289  -0.02641  -0.04839   0.00066   0.18203
  11        4PX        -0.00681   0.10908  -0.01036  -0.00086  -0.01509
  12        4PY        -0.01251  -0.01048   0.09855  -0.00149  -0.02913
  13        4PZ         0.00107  -0.00100  -0.00168   0.15405   0.00194
  14 2   H  1S          0.08738   0.05616  -0.09833  -0.00181   0.06936
  15        2S          0.09790   0.07953  -0.13662  -0.00138   0.08199
  16        3S          0.00619   0.03381  -0.05088  -0.00005   0.01143
  17 3   H  1S          0.08979  -0.11400  -0.00166  -0.00198   0.06931
  18        2S          0.09936  -0.15712  -0.00067  -0.00156   0.08038
  19        3S          0.00620  -0.05965   0.00359  -0.00010   0.01024
  20 4   C  1S         -0.02668  -0.01702  -0.02949  -0.00063   0.00514
  21        2S         -0.04037  -0.02644  -0.04586  -0.00102   0.00385
  22        2PX        -0.04639  -0.01758  -0.04560   0.00074  -0.01741
  23        2PY        -0.08082  -0.04565  -0.07076   0.00142  -0.03022
  24        2PZ         0.00217  -0.00048  -0.00070   0.10352   0.00222
  25        3S          0.10274   0.07176   0.12467   0.00305   0.00103
  26        3PX        -0.06697  -0.02597  -0.06480   0.00096  -0.02588
  27        3PY        -0.11657  -0.06467  -0.10128   0.00189  -0.04482
  28        3PZ         0.00359  -0.00085  -0.00126   0.16569   0.00369
  29        4S          0.00193   0.03175   0.05596   0.00376  -0.03234
  30        4PX        -0.02255  -0.01956  -0.02948   0.00101  -0.00641
  31        4PY        -0.03861  -0.02958  -0.05391   0.00201  -0.01029
  32        4PZ         0.00304  -0.00134  -0.00214   0.15421   0.00342
  33 5   H  1S         -0.02049  -0.00061  -0.01774  -0.00062  -0.01458
  34        2S         -0.03116   0.00875  -0.03666   0.00008  -0.01887
  35        3S         -0.01206   0.00826  -0.02628   0.00017  -0.00332
  36 6   H  1S         -0.02017  -0.01491  -0.00919  -0.00064  -0.01478
  37        2S         -0.03078  -0.03585  -0.01041   0.00004  -0.01960
  38        3S         -0.01195  -0.02673  -0.00592   0.00013  -0.00385
                          11        12        13        14        15
  11        4PX         0.05982
  12        4PY        -0.00918   0.05095
  13        4PZ        -0.00125  -0.00209   0.14230
  14 2   H  1S          0.03353  -0.05410  -0.00094   0.08112
  15        2S          0.04832  -0.07502  -0.00034   0.10945   0.14974
  16        3S          0.02100  -0.02780   0.00019   0.03672   0.05248
  17 3   H  1S         -0.06298   0.00173  -0.00101  -0.01317  -0.02467
  18        2S         -0.08720   0.00419  -0.00041  -0.02457  -0.04258
  19        3S         -0.03341   0.00444   0.00018  -0.01794  -0.02717
  20 4   C  1S         -0.00316  -0.00578  -0.00056   0.00423   0.00673
  21        2S         -0.00654  -0.01180  -0.00090   0.00699   0.01125
  22        2PX        -0.01322  -0.01979   0.00101   0.00185  -0.00264
  23        2PY        -0.01987  -0.03666   0.00188   0.01139   0.02417
  24        2PZ        -0.00070  -0.00111   0.09563  -0.00052  -0.00017
  25        3S          0.02316   0.04147   0.00265  -0.02105  -0.03384
  26        3PX        -0.02037  -0.02796   0.00137   0.00104  -0.00715
  27        3PY        -0.02803  -0.05337   0.00258   0.01695   0.03619
  28        3PZ        -0.00115  -0.00183   0.15305  -0.00077  -0.00017
  29        4S          0.00810   0.01555   0.00343  -0.01790  -0.02462
  30        4PX        -0.01491  -0.01224   0.00123  -0.00170  -0.00850
  31        4PY        -0.01237  -0.02948   0.00237   0.01528   0.02721
  32        4PZ        -0.00138  -0.00226   0.14246  -0.00043   0.00025
  33 5   H  1S          0.00212  -0.01584  -0.00031   0.01124   0.02337
  34        2S          0.00943  -0.02755   0.00044   0.02385   0.04450
  35        3S          0.00769  -0.01584   0.00031   0.01669   0.02795
  36 6   H  1S         -0.01463  -0.00559  -0.00032  -0.00914  -0.01827
  37        2S         -0.02832  -0.00486   0.00042  -0.01897  -0.03454
  38        3S         -0.01734  -0.00098   0.00028  -0.01031  -0.01798
                          16        17        18        19        20
  16        3S          0.02103
  17 3   H  1S         -0.01815   0.08252
  18        2S         -0.02729   0.10980   0.14821
  19        3S         -0.01281   0.03606   0.05094   0.02014
  20 4   C  1S          0.00373   0.00431   0.00678   0.00374   0.65948
  21        2S          0.00551   0.00712   0.01129   0.00549   0.56158
  22        2PX        -0.00346   0.00897   0.02215   0.01667   0.00125
  23        2PY         0.01764   0.00742   0.00971   0.00564   0.00186
  24        2PZ         0.00002  -0.00051  -0.00012   0.00006   0.00007
  25        3S         -0.01429  -0.02137  -0.03384  -0.01413  -0.08926
  26        3PX        -0.00696   0.01428   0.03491   0.02606  -0.00044
  27        3PY         0.02656   0.00953   0.01181   0.00704  -0.00107
  28        3PZ         0.00006  -0.00075  -0.00011   0.00011   0.00016
  29        4S         -0.00604  -0.01760  -0.02364  -0.00544  -0.08012
  30        4PX        -0.00707   0.01410   0.02772   0.01715  -0.00022
  31        4PY         0.01597   0.00655   0.00660   0.00192  -0.00020
  32        4PZ         0.00025  -0.00043   0.00029   0.00028  -0.00003
  33 5   H  1S          0.01624  -0.00908  -0.01814  -0.00944  -0.02013
  34        2S          0.02748  -0.01874  -0.03401  -0.01700  -0.02214
  35        3S          0.01470  -0.01017  -0.01763  -0.00902   0.00060
  36 6   H  1S         -0.00958   0.01124   0.02322   0.01590  -0.01976
  37        2S         -0.01740   0.02388   0.04429   0.02705  -0.02204
  38        3S         -0.00927   0.01673   0.02782   0.01450   0.00049
                          21        22        23        24        25
  21        2S          0.49208
  22        2PX         0.00181   0.08254
  23        2PY         0.00266   0.00373   0.08777
  24        2PZ         0.00011   0.00013   0.00018   0.06429
  25        3S         -0.15426  -0.00577  -0.00865  -0.00014   0.45369
  26        3PX        -0.00066   0.12843   0.00192   0.00008  -0.00044
  27        3PY        -0.00162   0.00198   0.13150   0.00007   0.00071
  28        3PZ         0.00027   0.00020   0.00028   0.10290  -0.00055
  29        4S         -0.11574   0.01380   0.02310   0.00061   0.27827
  30        4PX        -0.00150   0.07338  -0.00521   0.00041   0.00631
  31        4PY        -0.00225  -0.00510   0.06716   0.00076   0.00997
  32        4PZ        -0.00012   0.00072   0.00130   0.09575   0.00071
  33 5   H  1S         -0.03206  -0.03332   0.06375  -0.00119   0.08574
  34        2S         -0.03537  -0.04970   0.08856  -0.00094   0.09462
  35        3S         -0.00059  -0.02274   0.03348  -0.00009   0.00560
  36 6   H  1S         -0.03151   0.07101   0.00275  -0.00108   0.08424
  37        2S         -0.03525   0.10125   0.00080  -0.00079   0.09425
  38        3S         -0.00075   0.04069  -0.00322  -0.00004   0.00590
                          26        27        28        29        30
  26        3PX         0.20019
  27        3PY        -0.00251   0.19760
  28        3PZ         0.00011   0.00010   0.16469
  29        4S          0.02560   0.04248   0.00075   0.18646
  30        4PX         0.11485  -0.01077   0.00065   0.01592   0.06699
  31        4PY        -0.01070   0.10145   0.00122   0.02501  -0.01052
  32        4PZ         0.00092   0.00167   0.15326   0.00184   0.00103
  33 5   H  1S         -0.05327   0.09985  -0.00196   0.06691  -0.03453
  34        2S         -0.07991   0.13821  -0.00156   0.07693  -0.05224
  35        3S         -0.03703   0.05157  -0.00014   0.00909  -0.02438
  36 6   H  1S          0.11229   0.00359  -0.00180   0.06727   0.06597
  37        2S          0.15990  -0.00044  -0.00135   0.07881   0.09442
  38        3S          0.06394  -0.00651  -0.00007   0.01027   0.03810
                          31        32        33        34        35
  31        4PY         0.05364
  32        4PZ         0.00196   0.14264
  33 5   H  1S          0.05586  -0.00101   0.08094
  34        2S          0.07747  -0.00042   0.11008   0.15218
  35        3S          0.02906   0.00015   0.03809   0.05526   0.02290
  36 6   H  1S         -0.00193  -0.00095  -0.01237  -0.02607  -0.02005
  37        2S         -0.00641  -0.00034  -0.02619  -0.04863  -0.03190
  38        3S         -0.00652   0.00017  -0.02030  -0.03206  -0.01586
                          36        37        38
  36 6   H  1S          0.07979
  37        2S          0.10964   0.15305
  38        3S          0.03843   0.05618   0.02344
    Full Mulliken population analysis:
                           1         2         3         4         5
   1 1   C  1S          0.65940
   2        2S          0.49325   0.49200
   3        2PX         0.00000   0.00000   0.08442
   4        2PY         0.00000   0.00000   0.00000   0.08776
   5        2PZ         0.00000   0.00000   0.00000   0.00000   0.06448
   6        3S         -0.02926  -0.06441   0.00000   0.00000   0.00000
   7        3PX         0.00000   0.00000   0.08220   0.00000   0.00000
   8        3PY         0.00000   0.00000   0.00000   0.08255   0.00000
   9        3PZ         0.00000   0.00000   0.00000   0.00000   0.06524
  10        4S         -0.01220  -0.02137   0.00000   0.00000   0.00000
  11        4PX         0.00000   0.00000   0.01545   0.00000   0.00000
  12        4PY         0.00000   0.00000   0.00000   0.01441   0.00000
  13        4PZ         0.00000   0.00000   0.00000   0.00000   0.02109
  14 2   H  1S         -0.00023  -0.00033   0.00181   0.00556   0.00000
  15        2S         -0.00166  -0.00318   0.00431   0.01315   0.00000
  16        3S          0.00004  -0.00007   0.00070   0.00190   0.00000
  17 3   H  1S         -0.00026  -0.00037   0.00793   0.00000   0.00000
  18        2S         -0.00174  -0.00333   0.01775   0.00000   0.00000
  19        3S          0.00005  -0.00007   0.00255  -0.00000   0.00000
  20 4   C  1S          0.00000   0.00000  -0.00002  -0.00006   0.00000
  21        2S          0.00000  -0.00000  -0.00002  -0.00006   0.00000
  22        2PX        -0.00002  -0.00002   0.00011   0.00086   0.00000
  23        2PY        -0.00006  -0.00005   0.00087   0.00199   0.00000
  24        2PZ        -0.00000  -0.00000  -0.00000  -0.00000   0.00042
  25        3S         -0.00060  -0.00101   0.00257   0.00770  -0.00000
  26        3PX        -0.00054  -0.00100   0.00019   0.00557   0.00000
  27        3PY        -0.00164  -0.00301   0.00556   0.01072   0.00000
  28        3PZ        -0.00000  -0.00000  -0.00000  -0.00000   0.00615
  29        4S          0.00034   0.00030   0.00095   0.00290  -0.00000
  30        4PX        -0.00018  -0.00045  -0.00071   0.00146   0.00000
  31        4PY        -0.00052  -0.00133   0.00146   0.00096   0.00000
  32        4PZ        -0.00000  -0.00000  -0.00000  -0.00000   0.00904
  33 5   H  1S          0.00000   0.00000  -0.00000  -0.00000   0.00000
  34        2S          0.00001   0.00002   0.00000  -0.00031  -0.00000
  35        3S          0.00007   0.00013   0.00001  -0.00070  -0.00000
  36 6   H  1S          0.00000   0.00000  -0.00000  -0.00000   0.00000
  37        2S          0.00001   0.00002  -0.00023  -0.00006   0.00000
  38        3S          0.00007   0.00013  -0.00057  -0.00011  -0.00000
                           6         7         8         9        10
   6        3S          0.45238
   7        3PX         0.00000   0.20254
   8        3PY         0.00000   0.00000   0.19668
   9        3PZ         0.00000   0.00000   0.00000   0.16679
  10        4S          0.21141   0.00000   0.00000   0.00000   0.18203
  11        4PX         0.00000   0.07128   0.00000   0.00000   0.00000
  12        4PY         0.00000   0.00000   0.06440   0.00000   0.00000
  13        4PZ         0.00000   0.00000   0.00000   0.10066   0.00000
  14 2   H  1S          0.01597   0.01080   0.03220   0.00002   0.01831
  15        2S          0.04109   0.01964   0.05747   0.00002   0.04719
  16        3S          0.00285   0.00399   0.01021   0.00000   0.00862
  17 3   H  1S          0.01704   0.04439   0.00000   0.00002   0.01856
  18        2S          0.04259   0.07728   0.00000   0.00002   0.04677
  19        3S          0.00288   0.01384  -0.00000   0.00000   0.00777
  20 4   C  1S         -0.00060  -0.00058  -0.00174   0.00000   0.00033
  21        2S         -0.00101  -0.00107  -0.00320   0.00000   0.00029
  22        2PX         0.00243   0.00018   0.00553   0.00000   0.00079
  23        2PY         0.00734   0.00554   0.01065   0.00000   0.00238
  24        2PZ         0.00000  -0.00000  -0.00000   0.00618   0.00000
  25        3S          0.02200   0.01349   0.04058  -0.00000   0.00039
  26        3PX         0.01259  -0.00127   0.01852   0.00000   0.00399
  27        3PY         0.03794   0.01848   0.02844   0.00000   0.01197
  28        3PZ         0.00000  -0.00000  -0.00000   0.03547   0.00000
  29        4S          0.00073   0.00490   0.01495  -0.00000  -0.02033
  30        4PX         0.00634  -0.00403   0.00583   0.00000   0.00194
  31        4PY         0.01880   0.00585   0.00121   0.00000   0.00540
  32        4PZ         0.00000  -0.00000  -0.00000   0.04937   0.00000
  33 5   H  1S         -0.00005  -0.00000  -0.00019   0.00000  -0.00078
  34        2S         -0.00120   0.00006  -0.00321  -0.00000  -0.00316
  35        3S         -0.00196   0.00011  -0.00423  -0.00000  -0.00119
  36 6   H  1S         -0.00005  -0.00012  -0.00005   0.00000  -0.00077
  37        2S         -0.00115  -0.00252  -0.00051  -0.00000  -0.00323
  38        3S         -0.00192  -0.00352  -0.00054  -0.00000  -0.00137
                          11        12        13        14        15
  11        4PX         0.05982
  12        4PY         0.00000   0.05095
  13        4PZ         0.00000   0.00000   0.14230
  14 2   H  1S          0.00635   0.01746   0.00001   0.08112
  15        2S          0.01542   0.04077   0.00001   0.07731   0.14974
  16        3S          0.00525   0.01184  -0.00000   0.01372   0.04140
  17 3   H  1S          0.02360  -0.00000   0.00001  -0.00001  -0.00065
  18        2S          0.05485  -0.00001   0.00001  -0.00064  -0.00531
  19        3S          0.01641  -0.00001  -0.00000  -0.00199  -0.00790
  20 4   C  1S         -0.00018  -0.00058   0.00000   0.00000   0.00002
  21        2S         -0.00046  -0.00145   0.00000   0.00000   0.00003
  22        2PX        -0.00072   0.00137   0.00000  -0.00000   0.00000
  23        2PY         0.00138   0.00094   0.00000  -0.00000  -0.00036
  24        2PZ        -0.00000  -0.00000   0.00902   0.00000   0.00000
  25        3S          0.00651   0.02019  -0.00000  -0.00007  -0.00150
  26        3PX        -0.00420   0.00553   0.00000  -0.00000   0.00004
  27        3PY         0.00554   0.00120   0.00000  -0.00023  -0.00357
  28        3PZ        -0.00000  -0.00000   0.04900   0.00000   0.00000
  29        4S          0.00245   0.00816  -0.00000  -0.00105  -0.00443
  30        4PX        -0.00720   0.00309   0.00000   0.00001   0.00017
  31        4PY         0.00313  -0.00563   0.00000  -0.00243  -0.01028
  32        4PZ        -0.00000  -0.00000   0.08956   0.00000  -0.00000
  33 5   H  1S          0.00003  -0.00234   0.00000   0.00000   0.00000
  34        2S          0.00028  -0.00988  -0.00000   0.00000   0.00016
  35        3S          0.00030  -0.00731  -0.00000   0.00023   0.00147
  36 6   H  1S         -0.00176  -0.00046   0.00000  -0.00000  -0.00004
  37        2S         -0.00829  -0.00098  -0.00000  -0.00004  -0.00091
  38        3S         -0.00657  -0.00026  -0.00000  -0.00047  -0.00249
                          16        17        18        19        20
  16        3S          0.02103
  17 3   H  1S         -0.00202   0.08252
  18        2S         -0.00794   0.07756   0.14821
  19        3S         -0.00664   0.01348   0.04019   0.02014
  20 4   C  1S          0.00009   0.00000   0.00002   0.00009   0.65948
  21        2S          0.00016   0.00000   0.00003   0.00016   0.49332
  22        2PX         0.00001  -0.00000  -0.00028  -0.00059   0.00000
  23        2PY        -0.00074  -0.00000  -0.00008  -0.00013   0.00000
  24        2PZ        -0.00000   0.00000   0.00000  -0.00000   0.00000
  25        3S         -0.00247  -0.00007  -0.00152  -0.00246  -0.02938
  26        3PX         0.00006  -0.00016  -0.00290  -0.00366   0.00000
  27        3PY        -0.00445  -0.00007  -0.00065  -0.00065   0.00000
  28        3PZ        -0.00000   0.00000   0.00000  -0.00000   0.00000
  29        4S         -0.00227  -0.00104  -0.00428  -0.00205  -0.01232
  30        4PX         0.00018  -0.00188  -0.00877  -0.00677   0.00000
  31        4PY        -0.00754  -0.00058  -0.00139  -0.00050   0.00000
  32        4PZ        -0.00000   0.00000  -0.00000  -0.00000   0.00000
  33 5   H  1S          0.00023  -0.00000  -0.00004  -0.00043  -0.00022
  34        2S          0.00144  -0.00004  -0.00091  -0.00236  -0.00159
  35        3S          0.00247  -0.00046  -0.00245  -0.00288   0.00005
  36 6   H  1S         -0.00043   0.00000   0.00000   0.00022  -0.00020
  37        2S         -0.00241   0.00000   0.00015   0.00141  -0.00154
  38        3S         -0.00295   0.00023   0.00145   0.00243   0.00004
                          21        22        23        24        25
  21        2S          0.49208
  22        2PX         0.00000   0.08254
  23        2PY         0.00000   0.00000   0.08777
  24        2PZ         0.00000   0.00000   0.00000   0.06429
  25        3S         -0.06460   0.00000   0.00000   0.00000   0.45369
  26        3PX         0.00000   0.08080   0.00000   0.00000   0.00000
  27        3PY         0.00000   0.00000   0.08273   0.00000   0.00000
  28        3PZ         0.00000   0.00000   0.00000   0.06473   0.00000
  29        4S         -0.02166   0.00000   0.00000   0.00000   0.21557
  30        4PX         0.00000   0.01616   0.00000   0.00000   0.00000
  31        4PY         0.00000   0.00000   0.01479   0.00000   0.00000
  32        4PZ         0.00000   0.00000   0.00000   0.02109   0.00000
  33 5   H  1S         -0.00031   0.00148   0.00573   0.00000   0.01546
  34        2S         -0.00304   0.00380   0.01372   0.00000   0.03942
  35        3S         -0.00006   0.00067   0.00200   0.00000   0.00257
  36 6   H  1S         -0.00028   0.00675   0.00002   0.00000   0.01471
  37        2S         -0.00295   0.01720   0.00001   0.00000   0.03857
  38        3S         -0.00007   0.00272  -0.00001   0.00000   0.00269
                          26        27        28        29        30
  26        3PX         0.20019
  27        3PY         0.00000   0.19760
  28        3PZ         0.00000   0.00000   0.16469
  29        4S          0.00000   0.00000   0.00000   0.18646
  30        4PX         0.07505   0.00000   0.00000   0.00000   0.06699
  31        4PY         0.00000   0.06630   0.00000   0.00000   0.00000
  32        4PZ         0.00000   0.00000   0.10015   0.00000   0.00000
  33 5   H  1S          0.00886   0.03369   0.00002   0.01757   0.00571
  34        2S          0.01719   0.06027   0.00002   0.04411   0.01457
  35        3S          0.00382   0.01078   0.00000   0.00684   0.00534
  36 6   H  1S          0.04126   0.00009   0.00002   0.01746   0.02458
  37        2S          0.07702  -0.00001   0.00002   0.04477   0.05947
  38        3S          0.01491  -0.00010   0.00000   0.00768   0.01892
                          31        32        33        34        35
  31        4PY         0.05364
  32        4PZ         0.00000   0.14264
  33 5   H  1S          0.01873   0.00001   0.08094
  34        2S          0.04381   0.00001   0.07776   0.15218
  35        3S          0.01291  -0.00000   0.01423   0.04360   0.02290
  36 6   H  1S         -0.00005   0.00001  -0.00001  -0.00080  -0.00237
  37        2S         -0.00027   0.00001  -0.00081  -0.00673  -0.00975
  38        3S         -0.00021  -0.00000  -0.00240  -0.00980  -0.00850
                          36        37        38
  36 6   H  1S          0.07979
  37        2S          0.07744   0.15305
  38        3S          0.01436   0.04432   0.02344
     Gross orbital populations:
                           1
   1 1   C  1S          1.10435
   2        2S          0.88586
   3        2PX         0.22728
   4        2PY         0.23620
   5        2PZ         0.16645
   6        3S          0.79276
   7        3PX         0.56146
   8        3PY         0.55556
   9        3PZ         0.42380
  10        4S          0.50374
  11        4PX         0.25867
  12        4PY         0.21138
  13        4PZ         0.41165
  14 2   H  1S          0.27340
  15        2S          0.46714
  16        3S          0.08626
  17 3   H  1S          0.27773
  18        2S          0.46464
  19        3S          0.08251
  20 4   C  1S          1.10441
  21        2S          0.88584
  22        2PX         0.22179
  23        2PY         0.23640
  24        2PZ         0.16575
  25        3S          0.79243
  26        3PX         0.55185
  27        3PY         0.55694
  28        3PZ         0.42028
  29        4S          0.50670
  30        4PX         0.27582
  31        4PY         0.21623
  32        4PZ         0.41187
  33 5   H  1S          0.27289
  34        2S          0.46939
  35        3S          0.08865
  36 6   H  1S          0.26932
  37        2S          0.47108
  38        3S          0.09152
          Condensed to atoms (all electrons):
               1          2          3          4          5          6
     1  C    5.030968   0.387500   0.388520   0.602490  -0.035487  -0.034838
     2  H    0.387500   0.516768  -0.033098  -0.040633   0.006007  -0.009738
     3  H    0.388520  -0.033098   0.513325  -0.040202  -0.009563   0.005903
     4  C    0.602490  -0.040633  -0.040202   5.057483   0.383940   0.383226
     5  H   -0.035487   0.006007  -0.009563   0.383940   0.527198  -0.041162
     6  H   -0.034838  -0.009738   0.005903   0.383226  -0.041162   0.528530
 Mulliken charges:
               1
     1  C   -0.339153
     2  H    0.173194
     3  H    0.175115
     4  C   -0.346303
     5  H    0.169067
     6  H    0.168080
 Sum of Mulliken charges =   0.00000
 Mulliken charges with hydrogens summed into heavy atoms:
               1
     1  C    0.009156
     4  C   -0.009156
 Electronic spatial extent (au):  <R**2>=             83.6891
 Charge=              0.0000 electrons
 Dipole moment (field-independent basis, Debye):
    X=              0.0010    Y=              0.0235    Z=             -0.0969  Tot=              0.0997
 Quadrupole moment (field-independent basis, Debye-Ang):
   XX=            -12.2098   YY=            -12.2135   ZZ=            -15.6662
   XY=              0.0228   XZ=             -0.0003   YZ=             -0.0035
 Traceless Quadrupole moment (field-independent basis, Debye-Ang):
   XX=              1.1534   YY=              1.1497   ZZ=             -2.3030
   XY=              0.0228   XZ=             -0.0003   YZ=             -0.0035
 Octapole moment (field-independent basis, Debye-Ang**2):
  XXX=             -0.3743  YYY=             -0.0310  ZZZ=             -0.0625  XYY=              0.2040
  XXY=             -0.0335  XXZ=             -0.1308  XZZ=             -0.0999  YZZ=             -0.0829
  YYZ=             -0.1723  XYZ=             -0.0361
 Hexadecapole moment (field-independent basis, Debye-Ang**3):
 XXXX=            -34.3048 YYYY=            -55.1656 ZZZZ=            -17.7967 XXXY=             -7.2343
 XXXZ=              0.0189 YYYX=            -10.6820 YYYZ=              0.0246 ZZZX=              0.0237
 ZZZY=              0.0428 XXYY=            -16.1836 XXZZ=             -9.9262 YYZZ=            -13.6370
 XXYZ=              0.0095 YYXZ=              0.0006 ZZXY=             -3.2031
 N-N= 3.308290521924D+01 E-N=-2.478777879503D+02  KE= 7.815447357026D+01
 Orbital energies and kinetic energies (alpha):
                                 1                 2
   1         O               -10.290247         15.978312
   2         O               -10.287917         15.979895
   3         O                -0.864162          1.540850
   4         O                -0.672146          1.270186
   5         O                -0.559181          0.942304
   6         O                -0.509933          1.284020
   7         O                -0.435812          1.042475
   8         O                -0.357221          1.039195
   9         V                 0.080189          1.181550
  10         V                 0.140969          0.589230
  11         V                 0.164500          0.596083
  12         V                 0.169960          0.679878
  13         V                 0.240853          0.583766
  14         V                 0.373800          0.848629
  15         V                 0.392651          0.932651
  16         V                 0.400126          0.784096
  17         V                 0.463409          1.193279
  18         V                 0.488560          1.418984
  19         V                 0.493552          1.300749
  20         V                 0.591216          1.653799
  21         V                 0.665284          1.569989
  22         V                 0.690922          2.147972
  23         V                 0.772645          2.461925
  24         V                 0.775900          2.275944
  25         V                 0.842051          1.085612
  26         V                 0.953609          3.434971
  27         V                 2.231490          3.926737
  28         V                 2.289819          4.030293
  29         V                 2.333249          4.303006
  30         V                 2.406749          4.516352
  31         V                 2.671487          6.301561
  32         V                 2.817571          6.305546
  33         V                 2.878326          6.136871
  34         V                 2.951179          6.227182
  35         V                 3.142358          6.821238
  36         V                 3.318357          6.401450
  37         V                23.351716         60.073857
  38         V                23.707315         60.204981
 Total kinetic energy from orbitals= 7.815447357026D+01
 Calling FoFJK, ICntrl=      2127 FMM=F ISym2X=0 I1Cent= 0 IOpClX= 0 NMat=1 NMatS=1 NMatT=0.
 -------------------------------------------------------------------
 Center     Atomic                   Forces (Hartrees/Bohr)
 Number     Number              X              Y              Z
 -------------------------------------------------------------------
      1        6           0.013593494    0.006301729   -0.003933753
      2        1          -0.009983920    0.006459040    0.001993684
      3        1           0.001907189   -0.004733710    0.001792619
      4        6           0.012147166    0.011549874   -0.004263569
      5        1           0.001001905   -0.013180600    0.002135533
      6        1          -0.018665834   -0.006396332    0.002275486
 -------------------------------------------------------------------
 Cartesian Forces:  Max     0.018665834 RMS     0.008457504

 GradGradGradGradGradGradGradGradGradGradGradGradGradGradGradGradGradGrad
 Berny optimization.
 Search for a local minimum.
 Step number   1 out of a maximum of    2
 All quantities printed in internal units (Hartrees-Bohrs-Radians)
 Second derivative matrix not updated -- first step.
 The second derivative matrix:
                          X1        Y1        Z1        X2        Y2
           X1           0.76160
           Y1           0.09971   0.86025
           Z1           0.00569   0.00856   0.17192
           X2          -0.16443   0.09604   0.00204   0.14185
           Y2           0.10198  -0.28159  -0.00728  -0.11525   0.27036
           Z2           0.00324  -0.00917  -0.05498  -0.00295   0.00754
           X3          -0.35385  -0.00115  -0.00805  -0.00020  -0.00011
           Y3          -0.00695  -0.11047  -0.00195   0.03237   0.01896
           Z3          -0.01030  -0.00188  -0.05646   0.00150   0.00056
           X4          -0.26865  -0.17997  -0.00068   0.02279   0.01337
           Y4          -0.18039  -0.47647  -0.00110  -0.01316  -0.00772
           Z4           0.00135   0.00244  -0.09517  -0.00059  -0.00082
           X5           0.02360  -0.01363   0.00062  -0.00001   0.00000
           Y5           0.01162  -0.00671   0.00084   0.00000  -0.00000
           Z5          -0.00053   0.00033   0.01772   0.00025  -0.00013
           X6           0.00173  -0.00100   0.00038  -0.00001   0.00000
           Y6          -0.02598   0.01500   0.00092   0.00000  -0.00000
           Z6           0.00055  -0.00029   0.01697  -0.00025   0.00013
                          Z2        X3        Y3        Z3        X4
           Z2           0.02862
           X3          -0.00029   0.35392
           Y3           0.00161   0.00133   0.07607
           Z3           0.01055   0.00878   0.00131   0.02964
           X4           0.00051   0.00015  -0.02677  -0.00049   0.71014
           Y4          -0.00027  -0.00008   0.01545   0.00031   0.12407
           Z4           0.01572  -0.00044  -0.00097   0.01636  -0.00507
           X5          -0.00025  -0.00001   0.00000   0.00026  -0.14560
           Y5           0.00016   0.00000  -0.00000  -0.00016   0.09221
           Z5           0.00935   0.00026  -0.00017  -0.00954  -0.00307
           X6          -0.00025  -0.00001   0.00000   0.00026  -0.31884
           Y6           0.00013   0.00000  -0.00000  -0.00013  -0.02292
           Z6          -0.00926  -0.00026   0.00016   0.00945   0.00880
                          Y4        Z4        X5        Y5        Z5
           Y4           0.86398
           Z4          -0.00994   0.17768
           X5           0.08385  -0.00204   0.12420
           Y5          -0.29115   0.00738  -0.10277   0.28186
           Z5           0.00912  -0.05780   0.00273  -0.00788   0.03005
           X6          -0.01429   0.00678  -0.00219  -0.00107   0.00035
           Y6          -0.10408   0.00190   0.03254   0.01601  -0.00128
           Z6           0.00188  -0.05680  -0.00132  -0.00034   0.01021
                          X6        Y6        Z6
           X6           0.31930
           Y6           0.01635   0.07308
           Z6          -0.00752  -0.00155   0.02943
 ITU=  0
     Eigenvalues ---    0.03764   0.04381   0.09256   0.10072   0.13541
     Eigenvalues ---    0.17405   0.26610   0.28973   0.52866   0.69826
     Eigenvalues ---    0.97392   1.57126
 Angle between quadratic step and forces=  35.68 degrees.
 Linear search not attempted -- first point.
 B after Tr=     0.007344    0.007685   -0.009913
         Rot=    1.000000   -0.000046    0.000025   -0.000114 Ang=  -0.01 deg.
 Variable       Old X    -DE/DX   Delta X   Delta X   Delta X     New X
                                 (Linear)    (Quad)   (Total)
    X1       -0.63497   0.01359   0.00000   0.02137   0.02896  -0.60601
    Y1       -1.09794   0.00630   0.00000   0.02201   0.02955  -1.06838
    Z1        0.01267  -0.00393   0.00000  -0.02113  -0.03117  -0.01850
    X2        0.41605  -0.00998   0.00000  -0.03823  -0.03023   0.38582
    Y2       -2.88770   0.00646   0.00000   0.02221   0.02998  -2.85772
    Z2       -0.04091   0.00199   0.00000   0.02585   0.01569  -0.02522
    X3       -2.68424   0.00191   0.00000   0.02576   0.03337  -2.65087
    Y3       -1.10803  -0.00473   0.00000  -0.01863  -0.01155  -1.11958
    Z3       -0.04282   0.00179   0.00000   0.02536   0.01521  -0.02761
    X4        0.62778   0.01215   0.00000   0.00901   0.01611   0.64389
    Y4        1.08878   0.01155   0.00000   0.00983   0.01766   1.10644
    Z4        0.00909  -0.00426   0.00000  -0.01989  -0.02967  -0.02058
    X5       -0.29430   0.00100   0.00000  -0.01564  -0.00896  -0.30327
    Y5        2.95866  -0.01318   0.00000  -0.04225  -0.03464   2.92403
    Z5       -0.04789   0.00214   0.00000   0.02489   0.01523  -0.03266
    X6        2.72984  -0.01867   0.00000  -0.04631  -0.03923   2.69060
    Y6        1.22797  -0.00640   0.00000  -0.03931  -0.03100   1.19697
    Z6       -0.04596   0.00228   0.00000   0.02438   0.01471  -0.03125
         Item               Value     Threshold  Converged?
 Maximum Force            0.018666     0.000450     NO 
 RMS     Force            0.008458     0.000300     NO 
 Maximum Displacement     0.039235     0.001800     NO 
 RMS     Displacement     0.025713     0.001200     NO 
 Predicted change in Energy=-1.672556D-03
 GradGradGradGradGradGradGradGradGradGradGradGradGradGradGradGradGradGrad

 Unable to Open any file for archive entry.
 1\1\GINC-BHD0001\Force\RwB97XD\6-311G\C2H4\BWEIGHT\11-Jan-2023\0\\# WB
 97XD/6-311G SCF=XQC FORCE nosym pop=full guess=read\\MD Step 999\\0,1\
 C,-0.3360108,-0.58100356,0.00670607\H,0.22016236,-1.52810558,-0.021647
 13\H,-1.42043619,-0.58634293,-0.02266039\C,0.3322094,0.57615561,0.0048
 099\H,-0.15573903,1.56565662,-0.02534378\H,1.44456648,0.6498154,-0.024
 32053\\Version=ES64L-G16RevC.01\HF=-78.5555896\RMSD=5.995e-09\RMSF=8.4
 58e-03\Dipole=0.0003885,0.0092649,-0.0381146\Quadrupole=0.8574894,0.85
 47579,-1.7122473,0.0169811,-0.0002281,-0.0025968\PG=C01 [X(C2H4)]\\@
 The archive entry for this job was punched.


 WE DON'T KNOW ONE MILLIONTH OF ONE PERCENT ABOUT
 ANYTHING.
                                     T. A. EDISON.
 Job cpu time:       0 days  0 hours  0 minutes 16.1 seconds.
 Elapsed time:       0 days  0 hours  0 minutes  4.7 seconds.
 File lengths (MBytes):  RWF=    272 Int=      0 D2E=      0 Chk=     32 Scr=     32
 Normal termination of Gaussian 16 at Wed Jan 11 18:54:01 2023.
