2
MD Step 0
Li  0.00000000 0.00000000 0.00000000
F  0.00000000 0.00000000 1.50000000
2
MD Step 1
Li  0.00208272 0.00208275 0.00197139
F  0.00125867 0.00125903 1.50129948
2
MD Step 2
Li  0.00416556 0.00416562 0.00371995
F  0.00251729 0.00251802 1.50268037
2
MD Step 3
Li  0.00624866 0.00624874 0.00524529
F  0.00377582 0.00377692 1.50414282
2
MD Step 4
Li  0.00833212 0.00833223 0.00654735
F  0.00503421 0.00503568 1.50568684
2
MD Step 5
Li  0.01041607 0.01041621 0.00762635
F  0.00629243 0.00629427 1.50731236
2
MD Step 6
Li  0.01250064 0.01250080 0.00848286
F  0.00755042 0.00755263 1.50901916
2
MD Step 7
Li  0.01458593 0.01458612 0.00911774
F  0.00880814 0.00881072 1.51080693
2
MD Step 8
Li  0.01667206 0.01667228 0.00953216
F  0.01006555 0.01006849 1.51267523
2
MD Step 9
Li  0.01875915 0.01875939 0.00972760
F  0.01132261 0.01132592 1.51462354
2
MD Step 10
Li  0.02084730 0.02084756 0.00970581
F  0.01257926 0.01258294 1.51665121
2
MD Step 11
Li  0.02293660 0.02293689 0.00946884
F  0.01383548 0.01383952 1.51875748
2
MD Step 12
Li  0.02502716 0.02502748 0.00901900
F  0.01509122 0.01509563 1.52094151
2
MD Step 13
Li  0.02711908 0.02711942 0.00835885
F  0.01634644 0.01635123 1.52320236
2
MD Step 14
Li  0.02921243 0.02921280 0.00749123
F  0.01760111 0.01760627 1.52553901
2
MD Step 15
Li  0.03130731 0.03130770 0.00641916
F  0.01885520 0.01886073 1.52795033
2
MD Step 16
Li  0.03340379 0.03340420 0.00514592
F  0.02010868 0.02011457 1.53043514
2
MD Step 17
Li  0.03550194 0.03550237 0.00367495
F  0.02136151 0.02136777 1.53299217
2
MD Step 18
Li  0.03760183 0.03760228 0.00200990
F  0.02261367 0.02262030 1.53562010
2
MD Step 19
Li  0.03970353 0.03970400 0.00015458
F  0.02386513 0.02387213 1.53831753
2
MD Step 20
Li  0.04180709 0.04180758 -0.00188707
F  0.02511587 0.02512324 1.54108303
2
MD Step 21
Li  0.04391256 0.04391307 -0.00411094
F  0.02636587 0.02637362 1.54391509
2
MD Step 22
Li  0.04601997 0.04602050 -0.00651285
F  0.02761511 0.02762323 1.54681219
2
MD Step 23
Li  0.04812938 0.04812992 -0.00908850
F  0.02886359 0.02887207 1.54977276
2
MD Step 24
Li  0.05024080 0.05024136 -0.01183350
F  0.03011127 0.03012013 1.55279519
2
MD Step 25
Li  0.05235428 0.05235485 -0.01474339
F  0.03135816 0.03136739 1.55587785
2
MD Step 26
Li  0.05446982 0.05447041 -0.01781366
F  0.03260424 0.03261384 1.55901911
2
MD Step 27
Li  0.05658746 0.05658806 -0.02103977
F  0.03384951 0.03385948 1.56221730
2
MD Step 28
Li  0.05870719 0.05870780 -0.02441713
F  0.03509396 0.03510431 1.56547075
2
MD Step 29
Li  0.06082903 0.06082965 -0.02794118
F  0.03633760 0.03634832 1.56877780
2
MD Step 30
Li  0.06295298 0.06295361 -0.03160734
F  0.03758042 0.03759152 1.57213677
2
MD Step 31
Li  0.06507903 0.06507967 -0.03541102
F  0.03882242 0.03883389 1.57554598
2
MD Step 32
Li  0.06720717 0.06720782 -0.03934766
F  0.04006361 0.04007546 1.57900377
2
MD Step 33
Li  0.06933740 0.06933806 -0.04341271
F  0.04130399 0.04131621 1.58250849
2
MD Step 34
Li  0.07146969 0.07147036 -0.04760167
F  0.04254357 0.04255617 1.58605848
2
MD Step 35
Li  0.07360394 0.07360461 -0.05191014
F  0.04378234 0.04379531 1.58965215
2
MD Step 36
Li  0.07574010 0.07574078 -0.05633370
F  0.04502030 0.04503365 1.59328789
2
MD Step 37
Li  0.07787817 0.07787885 -0.06086800
F  0.04625747 0.04627120 1.59696411
2
MD Step 38
Li  0.08001812 0.08001880 -0.06550873
F  0.04749386 0.04750796 1.60067924
2
MD Step 39
Li  0.08215990 0.08216058 -0.07025166
F  0.04872948 0.04874396 1.60443173
2
MD Step 40
Li  0.08430109 0.08430178 -0.07496520
F  0.04996532 0.04998017 1.60817348
2
MD Step 41
Li  0.08644164 0.08644233 -0.07964686
F  0.05120139 0.05121662 1.61190359
2
MD Step 42
Li  0.08858147 0.08858216 -0.08429431
F  0.05243773 0.05245334 1.61562120
2
MD Step 43
Li  0.09072053 0.09072122 -0.08890531
F  0.05367435 0.05369033 1.61932549
2
MD Step 44
Li  0.09285876 0.09285946 -0.09347776
F  0.05491128 0.05492763 1.62301569
2
MD Step 45
Li  0.09499610 0.09499681 -0.09800966
F  0.05614854 0.05616527 1.62669108
2
MD Step 46
Li  0.09713250 0.09713321 -0.10249913
F  0.05738615 0.05740326 1.63035096
2
MD Step 47
Li  0.09926790 0.09926862 -0.10694437
F  0.05862414 0.05864163 1.63399469
2
MD Step 48
Li  0.10140225 0.10140297 -0.11134369
F  0.05986253 0.05988040 1.63762163
2
MD Step 49
Li  0.10353549 0.10353621 -0.11569548
F  0.06110135 0.06111958 1.64123120
2
MD Step 50
Li  0.10566757 0.10566830 -0.11999824
F  0.06234060 0.06235921 1.64482285
2
MD Step 51
Li  0.10779843 0.10779917 -0.12425050
F  0.06358032 0.06359931 1.64839606
2
MD Step 52
Li  0.10992804 0.10992879 -0.12845092
F  0.06482052 0.06483988 1.65195031
2
MD Step 53
Li  0.11205633 0.11205709 -0.13259821
F  0.06606123 0.06608096 1.65548515
2
MD Step 54
Li  0.11418326 0.11418402 -0.13669114
F  0.06730245 0.06732256 1.65900013
2
MD Step 55
Li  0.11630874 0.11630952 -0.14072857
F  0.06854422 0.06856470 1.66249483
2
MD Step 56
Li  0.11843272 0.11843350 -0.14470942
F  0.06978653 0.06980738 1.66596886
2
MD Step 57
Li  0.12055513 0.12055592 -0.14863266
F  0.07102940 0.07105063 1.66942184
2
MD Step 58
Li  0.12267589 0.12267670 -0.15249732
F  0.07227284 0.07229445 1.67285342
2
MD Step 59
Li  0.12479496 0.12479577 -0.15630247
F  0.07351688 0.07353886 1.67626327
2
MD Step 60
Li  0.12691225 0.12691308 -0.16004724
F  0.07476151 0.07478387 1.67965106
2
MD Step 61
Li  0.12902772 0.12902856 -0.16373082
F  0.07600676 0.07602948 1.68301650
2
MD Step 62
Li  0.13114128 0.13114214 -0.16735240
F  0.07725263 0.07727572 1.68635930
2
MD Step 63
Li  0.13325290 0.13325377 -0.17091126
F  0.07849913 0.07852260 1.68967919
2
MD Step 64
Li  0.13536249 0.13536338 -0.17440670
F  0.07974628 0.07977012 1.69297592
2
MD Step 65
Li  0.13747001 0.13747091 -0.17783804
F  0.08099408 0.08101829 1.69624924
2
MD Step 66
Li  0.13957538 0.13957630 -0.18120466
F  0.08224255 0.08226713 1.69949891
2
MD Step 67
Li  0.14167856 0.14167950 -0.18450596
F  0.08349169 0.08351665 1.70272473
2
MD Step 68
Li  0.14377949 0.14378044 -0.18774138
F  0.08474153 0.08476685 1.70592649
2
MD Step 69
Li  0.14587810 0.14587907 -0.19091039
F  0.08599206 0.08601775 1.70910398
2
MD Step 70
Li  0.14797434 0.14797534 -0.19401248
F  0.08724329 0.08726936 1.71225702
2
MD Step 71
Li  0.15006815 0.15006917 -0.19704718
F  0.08849524 0.08852168 1.71538544
2
MD Step 72
Li  0.15215948 0.15216052 -0.20001403
F  0.08974792 0.08977472 1.71848907
2
MD Step 73
Li  0.15424828 0.15424934 -0.20291260
F  0.09100133 0.09102850 1.72156775
2
MD Step 74
Li  0.15633448 0.15633557 -0.20574249
F  0.09225548 0.09228302 1.72462133
2
MD Step 75
Li  0.15841804 0.15841915 -0.20850332
F  0.09351038 0.09353829 1.72764966
2
MD Step 76
Li  0.16049890 0.16050003 -0.21119473
F  0.09476603 0.09479431 1.73065261
2
MD Step 77
Li  0.16257701 0.16257817 -0.21381636
F  0.09602246 0.09605111 1.73363004
2
MD Step 78
Li  0.16465231 0.16465351 -0.21636790
F  0.09727966 0.09730867 1.73658185
2
MD Step 79
Li  0.16672477 0.16672599 -0.21884904
F  0.09853764 0.09856702 1.73950791
2
MD Step 80
Li  0.16879433 0.16879558 -0.22125949
F  0.09979641 0.09982616 1.74240810
2
MD Step 81
Li  0.17086093 0.17086221 -0.22359898
F  0.10105598 0.10108610 1.74528233
2
MD Step 82
Li  0.17292454 0.17292585 -0.22586726
F  0.10231636 0.10234684 1.74813050
2
MD Step 83
Li  0.17498509 0.17498644 -0.22806407
F  0.10357755 0.10360839 1.75095251
2
MD Step 84
Li  0.17704256 0.17704394 -0.23018918
F  0.10483955 0.10487076 1.75374827
2
MD Step 85
Li  0.17909688 0.17909830 -0.23224240
F  0.10610239 0.10613396 1.75651769
2
MD Step 86
Li  0.18114802 0.18114947 -0.23422350
F  0.10736605 0.10739799 1.75926070
2
MD Step 87
Li  0.18319592 0.18319741 -0.23613230
F  0.10863056 0.10866286 1.76197723
2
MD Step 88
Li  0.18524056 0.18524208 -0.23796862
F  0.10989591 0.10992857 1.76466718
2
MD Step 89
Li  0.18728187 0.18728344 -0.23973229
F  0.11116212 0.11119514 1.76733051
2
MD Step 90
Li  0.18931983 0.18932143 -0.24142316
F  0.11242919 0.11246258 1.76996714
2
MD Step 91
Li  0.19135438 0.19135603 -0.24304107
F  0.11369713 0.11373087 1.77257701
2
MD Step 92
Li  0.19338550 0.19338719 -0.24458590
F  0.11496594 0.11500005 1.77516007
2
MD Step 93
Li  0.19541313 0.19541487 -0.24605751
F  0.11623563 0.11627010 1.77771626
2
MD Step 94
Li  0.19743725 0.19743903 -0.24745579
F  0.11750621 0.11754104 1.78024553
2
MD Step 95
Li  0.19945782 0.19945964 -0.24878062
F  0.11877769 0.11881288 1.78274783
2
MD Step 96
Li  0.20147479 0.20147667 -0.25003191
F  0.12005007 0.12008561 1.78522312
2
MD Step 97
Li  0.20348814 0.20349007 -0.25120955
F  0.12132335 0.12135926 1.78767135
2
MD Step 98
Li  0.20549784 0.20549981 -0.25231347
F  0.12259756 0.12263382 1.79009249
2
MD Step 99
Li  0.20750384 0.20750586 -0.25334359
F  0.12387268 0.12390931 1.79248649
2
MD Step 100
Li  0.20950613 0.20950820 -0.25429983
F  0.12514874 0.12518572 1.79485333
2
MD Step 101
Li  0.21150466 0.21150679 -0.25518213
F  0.12642574 0.12646308 1.79719298
2
MD Step 102
Li  0.21349942 0.21350160 -0.25599042
F  0.12770369 0.12774138 1.79950539
2
MD Step 103
Li  0.21549037 0.21549261 -0.25672465
F  0.12898259 0.12902064 1.80179056
2
MD Step 104
Li  0.21747750 0.21747980 -0.25738477
F  0.13026245 0.13030085 1.80404844
2
MD Step 105
Li  0.21946078 0.21946313 -0.25797075
F  0.13154329 0.13158204 1.80627903
2
MD Step 106
Li  0.22144018 0.22144260 -0.25848253
F  0.13282510 0.13286422 1.80848229
2
MD Step 107
Li  0.22341570 0.22341817 -0.25892008
F  0.13410791 0.13414737 1.81065821
2
MD Step 108
Li  0.22538730 0.22538984 -0.25928337
F  0.13539172 0.13543153 1.81280678
