 Entering Gaussian System, Link 0=g16
 Initial command:
 /software/gaussian/g16-c01/avx2/g16/l1.exe "/gpfs/fs2/scratch/bweight/software/many_molecule_many_mode_NAMD/src/NAMD/TEST_NVT/TRAJ/traj-38/G16/GS_NEW/Gau-29101.inp" -scrdir="/gpfs/fs2/scratch/bweight/software/many_molecule_many_mode_NAMD/src/NAMD/TEST_NVT/TRAJ/traj-38/G16/GS_NEW/"
 Entering Link 1 = /software/gaussian/g16-c01/avx2/g16/l1.exe PID=     29102.
  
 Copyright (c) 1988-2019, Gaussian, Inc.  All Rights Reserved.
  
 This is part of the Gaussian(R) 16 program.  It is based on
 the Gaussian(R) 09 system (copyright 2009, Gaussian, Inc.),
 the Gaussian(R) 03 system (copyright 2003, Gaussian, Inc.),
 the Gaussian(R) 98 system (copyright 1998, Gaussian, Inc.),
 the Gaussian(R) 94 system (copyright 1995, Gaussian, Inc.),
 the Gaussian 92(TM) system (copyright 1992, Gaussian, Inc.),
 the Gaussian 90(TM) system (copyright 1990, Gaussian, Inc.),
 the Gaussian 88(TM) system (copyright 1988, Gaussian, Inc.),
 the Gaussian 86(TM) system (copyright 1986, Carnegie Mellon
 University), and the Gaussian 82(TM) system (copyright 1983,
 Carnegie Mellon University). Gaussian is a federally registered
 trademark of Gaussian, Inc.
  
 This software contains proprietary and confidential information,
 including trade secrets, belonging to Gaussian, Inc.
  
 This software is provided under written license and may be
 used, copied, transmitted, or stored only in accord with that
 written license.
  
 The following legend is applicable only to US Government
 contracts under FAR:
  
                    RESTRICTED RIGHTS LEGEND
  
 Use, reproduction and disclosure by the US Government is
 subject to restrictions as set forth in subparagraphs (a)
 and (c) of the Commercial Computer Software - Restricted
 Rights clause in FAR 52.227-19.
  
 Gaussian, Inc.
 340 Quinnipiac St., Bldg. 40, Wallingford CT 06492
  
  
 ---------------------------------------------------------------
 Warning -- This program may not be used in any manner that
 competes with the business of Gaussian, Inc. or will provide
 assistance to any competitor of Gaussian, Inc.  The licensee
 of this program is prohibited from giving any competitor of
 Gaussian, Inc. access to this program.  By using this program,
 the user acknowledges that Gaussian, Inc. is engaged in the
 business of creating and licensing software in the field of
 computational chemistry and represents and warrants to the
 licensee that it is not a competitor of Gaussian, Inc. and that
 it will not use this program in any manner prohibited above.
 ---------------------------------------------------------------
  

 Cite this work as:
 Gaussian 16, Revision C.01,
 M. J. Frisch, G. W. Trucks, H. B. Schlegel, G. E. Scuseria, 
 M. A. Robb, J. R. Cheeseman, G. Scalmani, V. Barone, 
 G. A. Petersson, H. Nakatsuji, X. Li, M. Caricato, A. V. Marenich, 
 J. Bloino, B. G. Janesko, R. Gomperts, B. Mennucci, H. P. Hratchian, 
 J. V. Ortiz, A. F. Izmaylov, J. L. Sonnenberg, D. Williams-Young, 
 F. Ding, F. Lipparini, F. Egidi, J. Goings, B. Peng, A. Petrone, 
 T. Henderson, D. Ranasinghe, V. G. Zakrzewski, J. Gao, N. Rega, 
 G. Zheng, W. Liang, M. Hada, M. Ehara, K. Toyota, R. Fukuda, 
 J. Hasegawa, M. Ishida, T. Nakajima, Y. Honda, O. Kitao, H. Nakai, 
 T. Vreven, K. Throssell, J. A. Montgomery, Jr., J. E. Peralta, 
 F. Ogliaro, M. J. Bearpark, J. J. Heyd, E. N. Brothers, K. N. Kudin, 
 V. N. Staroverov, T. A. Keith, R. Kobayashi, J. Normand, 
 K. Raghavachari, A. P. Rendell, J. C. Burant, S. S. Iyengar, 
 J. Tomasi, M. Cossi, J. M. Millam, M. Klene, C. Adamo, R. Cammi, 
 J. W. Ochterski, R. L. Martin, K. Morokuma, O. Farkas, 
 J. B. Foresman, and D. J. Fox, Gaussian, Inc., Wallingford CT, 2019.
 
 ******************************************
 Gaussian 16:  ES64L-G16RevC.01  3-Jul-2019
                11-Jan-2023 
 ******************************************
 %oldchk=../GS_OLD/geometry.chk
 %chk=geometry.chk
 %nprocshared=4
 Will use up to    4 processors via shared memory.
 %mem=5GB
 Copying data from "../GS_OLD/geometry.chk" to current chk file "geometry.chk"
 IOpt=  2 FromEx=T IUOpen= 4 IOptOp= 5 NList=   0 IFRang= 0 IUIn= 4 IUOut= 2.
 -------------------------------------------------------
 # WB97XD/6-311G SCF=XQC FORCE nosym pop=full guess=read
 -------------------------------------------------------
 1/10=7,30=1,38=1/1,3;
 2/12=2,15=1,17=6,18=5,40=1/2;
 3/5=4,6=6,11=2,25=1,30=1,71=1,74=-58,116=-2/1,2,3;
 4/5=1/1;
 5/5=2,8=3,13=1,38=6/2,8;
 6/7=3,28=1/1;
 7/29=1,30=1/1,2,3,16;
 1/10=7,30=1/3;
 99//99;
 -----------
 MD Step 999
 -----------
 Symbolic Z-matrix:
 Charge =  0 Multiplicity = 1
 C                    -0.33488  -0.57967   0.0056 
 H                     0.20589  -1.53226  -0.01863 
 H                    -1.42088  -0.60066  -0.01975 
 C                     0.33351   0.57786   0.00449 
 H                    -0.17051   1.56183  -0.02059 
 H                     1.4437    0.63448  -0.01932 
 

 GradGradGradGradGradGradGradGradGradGradGradGradGradGradGradGradGradGrad
 Berny optimization.
 Initialization pass.
 Trust Radius=3.00D-01 FncErr=1.00D-07 GrdErr=1.00D-07 EigMax=2.50D+02 EigMin=1.00D-04
 Number of steps in this run=      2 maximum allowed number of steps=      2.
 GradGradGradGradGradGradGradGradGradGradGradGradGradGradGradGradGradGrad

                          Input orientation:                          
 ---------------------------------------------------------------------
 Center     Atomic      Atomic             Coordinates (Angstroms)
 Number     Number       Type             X           Y           Z
 ---------------------------------------------------------------------
      1          6           0       -0.334884   -0.579666    0.005596
      2          1           0        0.205887   -1.532258   -0.018631
      3          1           0       -1.420884   -0.600662   -0.019745
      4          6           0        0.333514    0.577861    0.004488
      5          1           0       -0.170506    1.561827   -0.020590
      6          1           0        1.443699    0.634475   -0.019317
 ---------------------------------------------------------------------
                    Distance matrix (angstroms):
                    1          2          3          4          5
     1  C    0.000000
     2  H    1.095651   0.000000
     3  H    1.086498   1.874635   0.000000
     4  C    1.336647   2.114101   2.113626   0.000000
     5  H    2.147952   3.116895   2.497959   1.105827   0.000000
     6  H    2.153629   2.495378   3.119519   1.111883   1.861623
                    6
     6  H    0.000000
 Symmetry turned off by external request.
 Stoichiometry    C2H4
 Framework group  C1[X(C2H4)]
 Deg. of freedom    12
 Full point group                 C1      NOp   1
 Rotational constants (GHZ):         143.5972318          29.7183342          24.6275615
 Standard basis: 6-311G (5D, 7F)
    38 basis functions,    72 primitive gaussians,    38 cartesian basis functions
     8 alpha electrons        8 beta electrons
       nuclear repulsion energy        33.0856769456 Hartrees.
 NAtoms=    6 NActive=    6 NUniq=    6 SFac= 1.00D+00 NAtFMM=   60 NAOKFM=F Big=F
 Integral buffers will be    131072 words long.
 Raffenetti 2 integral format.
 Two-electron integral symmetry is turned off.
 Nuclear repulsion after empirical dispersion term =       33.0848370379 Hartrees.
 One-electron integrals computed using PRISM.
 NBasis=    38 RedAO= T EigKep=  6.40D-03  NBF=    38
 NBsUse=    38 1.00D-06 EigRej= -1.00D+00 NBFU=    38
 Initial guess from the checkpoint file:  "geometry.chk"
 B after Tr=    -0.000260   -0.000371   -0.000508
         Rot=    1.000000   -0.000002    0.000002    0.000002 Ang=  -0.00 deg.
 Keep R1 ints in memory in canonical form, NReq=4036876.
 Requested convergence on RMS density matrix=1.00D-08 within  32 cycles.
 Requested convergence on MAX density matrix=1.00D-06.
 Requested convergence on             energy=1.00D-06.
 No special actions if energy rises.
 SCF Done:  E(RwB97XD) =  -78.5562277971     A.U. after    8 cycles
            NFock=  8  Conv=0.55D-08     -V/T= 2.0051
 QCSCF skips out because SCF is already converged.

 **********************************************************************

            Population analysis using the SCF Density.

 **********************************************************************

 Alpha  occ. eigenvalues --  -10.29039 -10.28749  -0.86399  -0.67220  -0.55902
 Alpha  occ. eigenvalues --   -0.50995  -0.43649  -0.35709
 Alpha virt. eigenvalues --    0.08020   0.14111   0.16463   0.17020   0.24095
 Alpha virt. eigenvalues --    0.37713   0.39289   0.39659   0.46396   0.48813
 Alpha virt. eigenvalues --    0.49364   0.59123   0.66545   0.69115   0.77273
 Alpha virt. eigenvalues --    0.77628   0.84343   0.95340   2.23190   2.28940
 Alpha virt. eigenvalues --    2.33307   2.40737   2.67147   2.81790   2.87838
 Alpha virt. eigenvalues --    2.95185   3.14121   3.31933  23.35216  23.70717
     Molecular Orbital Coefficients:
                           1         2         3         4         5
                           O         O         O         O         O
     Eigenvalues --   -10.29039 -10.28749  -0.86399  -0.67220  -0.55902
   1 1   C  1S          0.08702   0.55663  -0.08843   0.06675  -0.00028
   2        2S          0.07182   0.45810  -0.13974   0.10693  -0.00046
   3        2PX         0.00016  -0.00001   0.02617   0.03751   0.13568
   4        2PY         0.00028  -0.00002   0.04624   0.06244  -0.07368
   5        2PZ         0.00000  -0.00001  -0.00100   0.00158   0.00018
   6        3S          0.00139   0.01457   0.37466  -0.29181   0.00127
   7        3PX        -0.00062   0.00042   0.03423   0.06006   0.21232
   8        3PY        -0.00107   0.00074   0.06012   0.10084  -0.11594
   9        3PZ        -0.00001  -0.00003  -0.00169   0.00280   0.00027
  10        4S          0.00372  -0.01460   0.19128  -0.22742   0.00079
  11        4PX         0.00154  -0.00150   0.00484   0.02434   0.11081
  12        4PY         0.00265  -0.00257   0.00849   0.04166  -0.06111
  13        4PZ         0.00000   0.00006  -0.00060   0.00139   0.00013
  14 2   H  1S         -0.00005  -0.00006   0.05248  -0.08891   0.10071
  15        2S         -0.00030   0.00010   0.05355  -0.10661   0.12735
  16        3S          0.00078   0.00170  -0.00157  -0.01554   0.04124
  17 3   H  1S         -0.00005  -0.00007   0.05342  -0.09180  -0.10311
  18        2S         -0.00030   0.00008   0.05417  -0.10934  -0.12957
  19        3S          0.00080   0.00172  -0.00162  -0.01621  -0.04192
  20 4   C  1S          0.55663  -0.08721  -0.08692  -0.06840  -0.00004
  21        2S          0.45814  -0.07157  -0.13727  -0.10966  -0.00006
  22        2PX        -0.00002  -0.00016  -0.02761   0.03655   0.12028
  23        2PY        -0.00003  -0.00028  -0.04708   0.06456  -0.07413
  24        2PZ        -0.00000   0.00000  -0.00081  -0.00150   0.00018
  25        3S          0.01415  -0.00312   0.36783   0.29957   0.00013
  26        3PX        -0.00023   0.00072  -0.03486   0.05942   0.18859
  27        3PY        -0.00038   0.00125  -0.05941   0.10457  -0.11536
  28        3PZ        -0.00003  -0.00000  -0.00138  -0.00271   0.00028
  29        4S         -0.01253   0.00806   0.18903   0.23686  -0.00084
  30        4PX         0.00094  -0.00189  -0.00537   0.02558   0.10285
  31        4PY         0.00161  -0.00330  -0.00916   0.04423  -0.06246
  32        4PZ         0.00005  -0.00001  -0.00057  -0.00140   0.00014
  33 5   H  1S         -0.00006  -0.00004   0.04978   0.09223  -0.09156
  34        2S         -0.00001  -0.00031   0.05106   0.11053  -0.11578
  35        3S          0.00180   0.00020  -0.00125   0.01650  -0.03719
  36 6   H  1S         -0.00005  -0.00004   0.04904   0.09095   0.08797
  37        2S         -0.00001  -0.00032   0.05062   0.10941   0.11159
  38        3S          0.00177   0.00019  -0.00128   0.01613   0.03614
                           6         7         8         9        10
                           O         O         O         V         V
     Eigenvalues --    -0.50995  -0.43649  -0.35709   0.08020   0.14111
   1 1   C  1S         -0.00480   0.00012  -0.00078   0.00209  -0.03278
   2        2S         -0.00733   0.00021  -0.00126   0.00348  -0.05256
   3        2PX         0.09442  -0.11299  -0.00265   0.00123  -0.03190
   4        2PY         0.16725   0.06701  -0.00444   0.00195  -0.06351
   5        2PZ         0.00396  -0.00002   0.17939  -0.18899  -0.00184
   6        3S          0.02590  -0.00046   0.00370  -0.01049   0.11404
   7        3PX         0.13742  -0.18016  -0.00374   0.00186  -0.03783
   8        3PY         0.24458   0.10711  -0.00626   0.00295  -0.07835
   9        3PZ         0.00627  -0.00001   0.28841  -0.27804  -0.00291
  10        4S         -0.04642  -0.00252   0.00521  -0.01192   1.20371
  11        4PX         0.06959  -0.11212  -0.00308   0.01000  -0.20045
  12        4PY         0.12466   0.06732  -0.00516   0.01643  -0.38740
  13        4PZ         0.00359   0.00003   0.26696  -0.69659  -0.01111
  14 2   H  1S         -0.07960  -0.11669   0.00012   0.00328  -0.01515
  15        2S         -0.10952  -0.18030   0.00160   0.00522  -0.04446
  16        3S         -0.04089  -0.08365   0.00092   0.01348  -0.82045
  17 3   H  1S         -0.07876   0.11444   0.00006   0.00328  -0.01212
  18        2S         -0.10781   0.17629   0.00153   0.00530  -0.03741
  19        3S         -0.03995   0.08163   0.00088   0.01336  -0.77098
  20 4   C  1S         -0.00723  -0.00039  -0.00061  -0.00203  -0.03676
  21        2S         -0.01124  -0.00065  -0.00100  -0.00337  -0.05904
  22        2PX        -0.09846   0.12275   0.00250   0.00119   0.04034
  23        2PY        -0.16324  -0.07254   0.00467   0.00229   0.06253
  24        2PZ         0.00408   0.00019   0.17930   0.18944  -0.00236
  25        3S          0.03711   0.00191   0.00294   0.01013   0.13042
  26        3PX        -0.14528   0.19683   0.00349   0.00182   0.04926
  27        3PY        -0.23947  -0.11582   0.00655   0.00350   0.07433
  28        3PZ         0.00646   0.00029   0.28709   0.27779  -0.00360
  29        4S         -0.03633   0.00209   0.00515   0.01142   1.26362
  30        4PX        -0.07532   0.12535   0.00265   0.00968   0.25814
  31        4PY        -0.12304  -0.07306   0.00510   0.01775   0.41096
  32        4PZ         0.00370   0.00018   0.26697   0.69757  -0.01362
  33 5   H  1S         -0.07566  -0.12342   0.00019  -0.00307  -0.01368
  34        2S         -0.10374  -0.19253   0.00162  -0.00508  -0.03967
  35        3S         -0.03863  -0.09038   0.00093  -0.01367  -0.83646
  36 6   H  1S         -0.08069   0.12286   0.00013  -0.00307  -0.01644
  37        2S         -0.11092   0.19231   0.00152  -0.00507  -0.04697
  38        3S         -0.04142   0.09022   0.00088  -0.01376  -0.88743
                          11        12        13        14        15
                           V         V         V         V         V
     Eigenvalues --     0.16463   0.17020   0.24095   0.37713   0.39289
   1 1   C  1S          0.00078  -0.04550   0.00000   0.01245   0.00156
   2        2S          0.00125  -0.07413  -0.00000   0.01805   0.00264
   3        2PX         0.09706  -0.02117   0.10034  -0.03827  -0.02540
   4        2PY        -0.05409  -0.03813  -0.05751  -0.06979   0.00844
   5        2PZ         0.00009  -0.00517   0.00005  -0.00371  -0.00013
   6        3S         -0.00268   0.16684   0.00022   0.02391  -0.00501
   7        3PX         0.13922  -0.01318   0.10731  -0.05489  -0.11093
   8        3PY        -0.07834  -0.02556  -0.06217  -0.10524   0.04206
   9        3PZ         0.00013  -0.00718   0.00002  -0.00731  -0.00007
  10        4S         -0.03671   1.44692  -0.00989  -2.96919  -0.25515
  11        4PX         0.57114  -0.12503   1.16708  -1.61456  -0.53812
  12        4PY        -0.31034  -0.21411  -0.66526  -2.82588   0.16554
  13        4PZ         0.00065  -0.03383   0.00089  -0.03317  -0.00157
  14 2   H  1S         -0.02986  -0.02484   0.01257  -0.05014   0.07824
  15        2S         -0.07912  -0.01716  -0.02399  -0.58278   0.80695
  16        3S         -1.03098  -1.01012  -1.55628  -0.38130  -0.35213
  17 3   H  1S          0.02924  -0.02466  -0.01418  -0.04281  -0.07616
  18        2S          0.07848  -0.02006   0.01958  -0.52414  -0.75167
  19        3S          1.07863  -1.02276   1.57507  -0.44428   0.27038
  20 4   C  1S          0.00112   0.04232  -0.00003  -0.01956   0.00017
  21        2S          0.00178   0.06893  -0.00007  -0.03165   0.00060
  22        2PX         0.10129  -0.02251  -0.09984  -0.04282  -0.03023
  23        2PY        -0.06112  -0.03657   0.05720  -0.07606   0.01346
  24        2PZ         0.00017   0.00493  -0.00006   0.00290   0.00031
  25        3S         -0.00357  -0.15391   0.00027   0.03171  -0.00785
  26        3PX         0.14576  -0.01720  -0.11200  -0.09112  -0.10551
  27        3PY        -0.08701  -0.02577   0.06335  -0.16545   0.06265
  28        3PZ         0.00024   0.00677  -0.00004   0.00390   0.00069
  29        4S         -0.05114  -1.32664   0.00295   3.47648   0.15161
  30        4PX         0.54692  -0.11424  -1.12809  -1.33891  -0.58143
  31        4PY        -0.33322  -0.19320   0.65507  -2.34899   0.03305
  32        4PZ         0.00104   0.03215  -0.00093   0.03010   0.00255
  33 5   H  1S          0.03132   0.02497   0.00736   0.01787  -0.07760
  34        2S          0.07049   0.02188  -0.03279   0.16663  -0.74838
  35        3S          1.08120   0.93080  -1.51542   0.46785   0.45871
  36 6   H  1S         -0.03112   0.02566  -0.00639   0.01263   0.08800
  37        2S         -0.07055   0.02057   0.03331   0.11861   0.90566
  38        3S         -1.01340   0.93967   1.50715   0.48500  -0.43043
                          16        17        18        19        20
                           V         V         V         V         V
     Eigenvalues --     0.39659   0.46396   0.48813   0.49364   0.59123
   1 1   C  1S         -0.01576   0.01179  -0.04718  -0.00004  -0.00042
   2        2S         -0.02837   0.02779  -0.07918   0.00014  -0.00077
   3        2PX         0.01946  -0.06098   0.01310   0.00099   0.00162
   4        2PY         0.03856  -0.10653   0.01890   0.00143   0.00245
   5        2PZ        -0.00032  -0.00059   0.00313  -0.15169  -0.19266
   6        3S          0.07873  -0.33592   0.10297  -0.00764  -0.00028
   7        3PX         0.08728  -0.24117  -0.02585   0.00104   0.00548
   8        3PY         0.17527  -0.41961  -0.05219   0.00076   0.00829
   9        3PZ        -0.00397  -0.00386   0.01437  -0.62814  -0.68539
  10        4S          2.12604   0.08689   3.19764   0.05930   0.05243
  11        4PX        -0.05098   0.21492   0.79256   0.01929   0.01592
  12        4PY        -0.01002   0.39434   1.36634   0.03486   0.02911
  13        4PZ        -0.00576  -0.00081  -0.06491   0.68624   1.24148
  14 2   H  1S         -0.02826  -0.03705  -0.07630  -0.00162  -0.00128
  15        2S         -0.56893  -0.35440  -0.92401  -0.01474  -0.00869
  16        3S          0.20935   0.07746   0.63105   0.02057   0.01783
  17 3   H  1S         -0.04121  -0.03834  -0.07489  -0.00158  -0.00126
  18        2S         -0.69340  -0.36860  -0.90169  -0.01454  -0.00818
  19        3S          0.24432   0.07744   0.60917   0.02018   0.01760
  20 4   C  1S         -0.00481  -0.00183   0.05078   0.00208   0.00054
  21        2S         -0.01140   0.00469   0.08807   0.00377   0.00100
  22        2PX         0.00167   0.05544   0.02667   0.00001   0.00150
  23        2PY         0.00755   0.09544   0.04735  -0.00019   0.00293
  24        2PZ        -0.00237  -0.00114   0.00323  -0.15275   0.19230
  25        3S          0.08454  -0.29161  -0.22191  -0.01480  -0.00175
  26        3PX        -0.05985   0.23693   0.04834  -0.00001   0.00521
  27        3PY        -0.08381   0.41080   0.08400  -0.00091   0.01017
  28        3PZ        -0.00732  -0.00499   0.01143  -0.63140   0.68251
  29        4S         -0.25012   0.78512  -3.09487  -0.07387  -0.04798
  30        4PX         0.99373  -0.37662   0.65876   0.01102   0.01712
  31        4PY         1.84253  -0.64157   1.13106   0.01912   0.02773
  32        4PZ        -0.02067  -0.01059   0.03053   0.69337  -1.23821
  33 5   H  1S         -0.05327  -0.06124   0.06481   0.00151   0.00122
  34        2S         -0.87977  -0.61733   0.79880   0.02290   0.00563
  35        3S         -0.06588   0.26860  -0.57027  -0.00621  -0.01743
  36 6   H  1S         -0.03955  -0.06082   0.06451   0.00151   0.00122
  37        2S         -0.73152  -0.61157   0.79412   0.02257   0.00564
  38        3S         -0.12641   0.28110  -0.58027  -0.00669  -0.01761
                          21        22        23        24        25
                           V         V         V         V         V
     Eigenvalues --     0.66545   0.69115   0.77273   0.77628   0.84343
   1 1   C  1S          0.00057  -0.00057   0.05590   0.07002   0.00093
   2        2S          0.00119  -0.00123   0.11807   0.14932   0.00212
   3        2PX        -0.12614   0.20216  -0.01860   0.11439  -0.00793
   4        2PY         0.07325  -0.12019  -0.03271   0.18885   0.01179
   5        2PZ        -0.00008   0.00015   0.00072   0.00378   0.00008
   6        3S         -0.00988   0.01365  -0.81463  -1.30264  -0.02281
   7        3PX        -0.59598   0.71309  -0.14878   0.45253  -0.21933
   8        3PY         0.34323  -0.42408  -0.25942   0.73893   0.15476
   9        3PZ        -0.00043   0.00056   0.00263   0.01321   0.00021
  10        4S          0.01610  -0.04740   0.86218   2.44733   0.01249
  11        4PX         1.11125  -0.81666   0.11536  -0.74650   4.46023
  12        4PY        -0.63913   0.49931   0.15533  -1.03467  -2.53667
  13        4PZ         0.00060   0.00046   0.00454  -0.04323   0.00385
  14 2   H  1S          0.02088  -0.05947   0.01275   0.03151  -0.02641
  15        2S          0.09767  -0.63474   0.08341   0.08893  -1.53944
  16        3S         -1.01337   1.14068  -0.15868  -1.10853  -1.21408
  17 3   H  1S         -0.02027   0.05890   0.01287   0.03200   0.02943
  18        2S         -0.10781   0.65643   0.10093   0.05853   1.57245
  19        3S          1.00758  -1.10623  -0.15470  -1.22888   1.21145
  20 4   C  1S          0.00078  -0.00036   0.08584   0.02523   0.00062
  21        2S          0.00160  -0.00070   0.18265   0.05301   0.00124
  22        2PX        -0.15707  -0.18047  -0.09364   0.05818   0.01232
  23        2PY         0.09030   0.10125  -0.16666   0.10582  -0.00103
  24        2PZ        -0.00011  -0.00017   0.00372  -0.00100  -0.00008
  25        3S         -0.01179   0.00117  -1.51521  -0.27135  -0.00516
  26        3PX        -0.69971  -0.60417  -0.33650   0.29878   0.24837
  27        3PY         0.40421   0.33661  -0.60298   0.54275  -0.11273
  28        3PZ        -0.00055  -0.00057   0.01314  -0.00367  -0.00010
  29        4S          0.00890   0.02001   2.68444  -0.07108  -0.02635
  30        4PX         1.25824   0.69024   0.50551  -0.27344  -4.24322
  31        4PY        -0.72370  -0.37627   0.95526  -0.70189   2.43597
  32        4PZ         0.00098  -0.00024  -0.03776   0.02150  -0.00358
  33 5   H  1S         -0.02770  -0.05453   0.03479   0.00034  -0.02427
  34        2S         -0.17755  -0.56495   0.07528   0.07229  -1.44396
  35        3S          1.13974   0.93915  -1.13185   0.35789  -1.11867
  36 6   H  1S          0.02821   0.05445   0.03456   0.00072   0.02404
  37        2S          0.17306   0.54560   0.07728   0.02009   1.43566
  38        3S         -1.14216  -0.95533  -1.08469   0.28998   1.12888
                          26        27        28        29        30
                           V         V         V         V         V
     Eigenvalues --     0.95340   2.23190   2.28940   2.33307   2.40737
   1 1   C  1S          0.09543  -0.01072  -0.01428  -0.00023  -0.00037
   2        2S          0.19827   0.00042  -0.01477  -0.00057  -0.00045
   3        2PX        -0.09195  -0.09012  -0.13199  -0.33187  -0.41519
   4        2PY        -0.15916  -0.16628  -0.22857   0.18931   0.23428
   5        2PZ         0.00011  -0.01087  -0.01390  -0.00009  -0.00059
   6        3S         -1.53396  -0.18133  -0.02884   0.00107  -0.00360
   7        3PX        -0.23562   0.09276   0.21036   0.39630   0.57841
   8        3PY        -0.40218   0.18169   0.37474  -0.22811  -0.32772
   9        3PZ        -0.00205   0.01100   0.01735   0.00003   0.00069
  10        4S          5.71701  -0.13442  -0.89724   0.00379  -0.00980
  11        4PX         1.19381   0.04791  -0.18755   0.00869   0.96685
  12        4PY         1.99092   0.06485  -0.35081   0.00332  -0.53458
  13        4PZ        -0.01396   0.00305   0.00630   0.00011   0.00127
  14 2   H  1S          0.01566  -0.73221  -0.76515   0.69561   0.67109
  15        2S         -0.29146   1.04695   1.15152  -1.05410  -1.47963
  16        3S         -0.08823  -0.31333  -0.45711   0.46939   0.38361
  17 3   H  1S          0.01601  -0.72313  -0.76853  -0.68455  -0.68822
  18        2S         -0.26847   1.03484   1.16102   1.03979   1.51552
  19        3S         -0.07070  -0.29453  -0.44695  -0.45873  -0.37644
  20 4   C  1S         -0.09432  -0.01000   0.01242  -0.00036   0.00017
  21        2S         -0.19574   0.00095   0.01220  -0.00043   0.00039
  22        2PX        -0.09269   0.12401  -0.12919  -0.31738   0.41146
  23        2PY        -0.16015   0.21646  -0.21547   0.18421  -0.23765
  24        2PZ         0.00023  -0.01064   0.01354  -0.00041   0.00031
  25        3S          1.51306  -0.17287   0.02300  -0.00084  -0.00067
  26        3PX        -0.23021  -0.15480   0.21870   0.39653  -0.57629
  27        3PY        -0.40178  -0.26765   0.36140  -0.22879   0.33393
  28        3PZ         0.00268   0.01131  -0.01728   0.00047  -0.00045
  29        4S         -5.69802  -0.14567   0.88621  -0.01442  -0.00500
  30        4PX         1.11913  -0.01997  -0.20341  -0.07238  -0.87728
  31        4PY         1.99878  -0.03745  -0.32797   0.04227   0.51443
  32        4PZ         0.00974   0.00292  -0.00500   0.00005  -0.00110
  33 5   H  1S         -0.01780  -0.76922   0.70243  -0.71965   0.66746
  34        2S          0.28723   1.11122  -1.06844   1.06141  -1.44093
  35        3S          0.05877  -0.34565   0.41738  -0.51279   0.40828
  36 6   H  1S         -0.01776  -0.76374   0.72276   0.70359  -0.66849
  37        2S          0.30625   1.10216  -1.09354  -1.03563   1.43741
  38        3S          0.06840  -0.34412   0.44140   0.50673  -0.41433
                          31        32        33        34        35
                           V         V         V         V         V
     Eigenvalues --     2.67147   2.81790   2.87838   2.95185   3.14121
   1 1   C  1S          0.00041   0.00193  -0.01321  -0.00006  -0.00922
   2        2S          0.00036   0.00570  -0.04485  -0.00041  -0.02836
   3        2PX         0.00475   0.05523  -0.45696  -0.74354   0.46315
   4        2PY         0.00708   0.09727  -0.82907   0.41744   0.80838
   5        2PZ        -0.92316  -0.93519  -0.10878  -0.00111   0.00631
   6        3S         -0.00171  -0.04775   0.39806   0.00521   0.23949
   7        3PX        -0.00409  -0.09676   0.82339   0.89656  -0.45981
   8        3PY        -0.00604  -0.16906   1.46620  -0.48978  -0.80128
   9        3PZ         0.93768   1.14342   0.13653   0.00147  -0.00820
  10        4S          0.01107   0.10929  -0.88162  -0.01452  -0.46279
  11        4PX        -0.00087   0.07854  -0.71535  -0.67269   0.24497
  12        4PY        -0.00120   0.13775  -1.27199   0.35685   0.42506
  13        4PZ        -0.33710  -0.61959  -0.08658  -0.00114   0.00548
  14 2   H  1S          0.00920  -0.01649   0.27109  -0.38232  -0.22412
  15        2S         -0.01067   0.01105  -0.23053   0.39058   0.17015
  16        3S         -0.00209   0.03167  -0.30010   0.27096   0.07327
  17 3   H  1S          0.00934  -0.01617   0.26238   0.38452  -0.22430
  18        2S         -0.01102   0.01020  -0.21656  -0.38910   0.16936
  19        3S         -0.00233   0.03156  -0.29776  -0.28616   0.08105
  20 4   C  1S          0.00037  -0.00192   0.01371   0.00043  -0.00759
  21        2S          0.00032  -0.00592   0.04771   0.00106  -0.02409
  22        2PX        -0.00484   0.05117  -0.42545  -0.79375  -0.49019
  23        2PY        -0.00943   0.09140  -0.75543   0.43793  -0.87152
  24        2PZ        -0.92643   0.93170   0.10937   0.00008   0.00881
  25        3S         -0.00160   0.05075  -0.42812  -0.00827   0.20841
  26        3PX         0.00467  -0.09253   0.79008   0.94555   0.51361
  27        3PY         0.00905  -0.16375   1.39237  -0.51330   0.92139
  28        3PZ         0.94202  -1.14000  -0.13788  -0.00013  -0.01099
  29        4S          0.01086  -0.11122   0.90859   0.02456  -0.39952
  30        4PX         0.00008   0.07823  -0.71611  -0.69558  -0.30013
  31        4PY        -0.00056   0.13708  -1.25241   0.37284  -0.54595
  32        4PZ        -0.33938   0.61814   0.08798   0.00006   0.00831
  33 5   H  1S          0.00894   0.02073  -0.29115   0.41173  -0.25419
  34        2S         -0.01086  -0.01645   0.26137  -0.42573   0.19886
  35        3S         -0.00123  -0.02985   0.28552  -0.24640   0.11271
  36 6   H  1S          0.00903   0.02069  -0.28654  -0.42263  -0.24178
  37        2S         -0.01122  -0.01683   0.26021   0.43543   0.18767
  38        3S         -0.00101  -0.02884   0.27435   0.25034   0.10519
                          36        37        38
                           V         V         V
     Eigenvalues --     3.31933  23.35216  23.70717
   1 1   C  1S         -0.00026  -1.41628  -1.45006
   2        2S         -0.00036   1.51040   1.56811
   3        2PX         0.77424  -0.00655   0.01210
   4        2PY        -0.43184  -0.01087   0.02111
   5        2PZ         0.00086  -0.00043  -0.00018
   6        3S         -0.00069  -0.29613  -0.39916
   7        3PX        -1.10802   0.02428  -0.05587
   8        3PY         0.61501   0.04073  -0.09698
   9        3PZ        -0.00130   0.00123   0.00055
  10        4S         -0.00176   0.27235   0.77055
  11        4PX         1.95151  -0.02660   0.13344
  12        4PY        -1.08297  -0.04566   0.22912
  13        4PZ         0.00223  -0.00205  -0.00232
  14 2   H  1S          0.54987   0.01360   0.00707
  15        2S         -0.85669   0.00748  -0.01503
  16        3S         -0.46032  -0.08420  -0.03954
  17 3   H  1S         -0.55952   0.01493   0.00781
  18        2S          0.87060   0.00741  -0.01477
  19        3S          0.48198  -0.08586  -0.03928
  20 4   C  1S         -0.00000  -1.44525   1.42106
  21        2S         -0.00027   1.54144  -1.53689
  22        2PX        -0.72215   0.00593   0.01257
  23        2PY         0.41357   0.01054   0.02151
  24        2PZ        -0.00074  -0.00041   0.00011
  25        3S          0.00450  -0.30275   0.39176
  26        3PX         1.02712  -0.02202  -0.05668
  27        3PY        -0.59611  -0.03890  -0.09767
  28        3PZ         0.00110   0.00118  -0.00028
  29        4S         -0.02079   0.28142  -0.76243
  30        4PX        -1.81093   0.02277   0.13162
  31        4PY         1.06084   0.04130   0.22872
  32        4PZ        -0.00194  -0.00191   0.00172
  33 5   H  1S          0.49847   0.01287  -0.00468
  34        2S         -0.78004   0.00820   0.01342
  35        3S         -0.43289  -0.08308   0.03711
  36 6   H  1S         -0.49581   0.01197  -0.00398
  37        2S          0.77708   0.00899   0.01336
  38        3S          0.42499  -0.08173   0.03702
     Density Matrix:
                           1         2         3         4         5
   1 1   C  1S          0.65941
   2        2S          0.56154   0.49206
   3        2PX        -0.00061  -0.00083   0.08438
   4        2PY        -0.00135  -0.00189   0.00357   0.08790
   5        2PZ         0.00007   0.00010  -0.00008  -0.00019   0.06440
   6        3S         -0.08900  -0.15396   0.00304   0.00658  -0.00014
   7        3PX         0.00084   0.00129   0.13060   0.00124  -0.00005
   8        3PY         0.00122   0.00187   0.00126   0.13146  -0.00016
   9        3PZ         0.00013   0.00022  -0.00015  -0.00031   0.10354
  10        4S         -0.07936  -0.11427  -0.01506  -0.02674   0.00040
  11        4PX         0.00024   0.00153   0.07064  -0.00456  -0.00044
  12        4PY         0.00052   0.00283  -0.00466   0.06576  -0.00078
  13        4PZ        -0.00009  -0.00020  -0.00063  -0.00107   0.09581
  14 2   H  1S         -0.02055  -0.03272   0.03475  -0.06336  -0.00093
  15        2S         -0.02271  -0.03631   0.04942  -0.08794  -0.00068
  16        3S          0.00058  -0.00069   0.02112  -0.03306  -0.00002
  17 3   H  1S         -0.02095  -0.03334  -0.07281  -0.00234  -0.00104
  18        2S         -0.02299  -0.03672  -0.10073  -0.00200  -0.00081
  19        3S          0.00061  -0.00066  -0.03867   0.00157  -0.00007
  20 4   C  1S          0.00610   0.00982  -0.01078  -0.01872  -0.00032
  21        2S          0.00980   0.01531  -0.01725  -0.02996  -0.00052
  22        2PX         0.01048   0.01676  -0.01241  -0.03222   0.00033
  23        2PY         0.01821   0.02912  -0.03219  -0.04974   0.00066
  24        2PZ        -0.00037  -0.00061  -0.00033  -0.00049   0.06436
  25        3S         -0.02643  -0.04011   0.04833   0.08406   0.00155
  26        3PX         0.01619   0.02511  -0.01812  -0.04584   0.00042
  27        3PY         0.02812   0.04361  -0.04565  -0.07112   0.00087
  28        3PZ        -0.00063  -0.00102  -0.00057  -0.00086   0.10305
  29        4S          0.00532   0.00393   0.02007   0.03526   0.00193
  30        4PX         0.00312   0.00644  -0.01301  -0.02088   0.00048
  31        4PY         0.00532   0.01105  -0.02086  -0.03711   0.00100
  32        4PZ        -0.00054  -0.00087  -0.00085  -0.00136   0.09581
  33 5   H  1S          0.00420   0.00691  -0.00172  -0.01224  -0.00037
  34        2S          0.00639   0.01062   0.00346  -0.02493  -0.00003
  35        3S          0.00333   0.00488   0.00420  -0.01761   0.00007
  36 6   H  1S          0.00417   0.00686  -0.00974  -0.00760  -0.00038
  37        2S          0.00634   0.01056  -0.02327  -0.00944  -0.00006
  38        3S          0.00330   0.00485  -0.01726  -0.00520   0.00005
                           6         7         8         9        10
   6        3S          0.45284
   7        3PX        -0.00160   0.20243
   8        3PY        -0.00156  -0.00433   0.19712
   9        3PZ        -0.00044  -0.00010  -0.00025   0.16646
  10        4S          0.27327  -0.02579  -0.04639   0.00050   0.18144
  11        4PX        -0.00665   0.10985  -0.01015  -0.00072  -0.01492
  12        4PY        -0.01181  -0.01033   0.09905  -0.00124  -0.02767
  13        4PZ         0.00091  -0.00084  -0.00140   0.15405   0.00158
  14 2   H  1S          0.08746   0.05585  -0.09891  -0.00155   0.06866
  15        2S          0.09718   0.07979  -0.13681  -0.00116   0.08026
  16        3S          0.00602   0.03443  -0.05082  -0.00004   0.01072
  17 3   H  1S          0.08916  -0.11404  -0.00219  -0.00170   0.06876
  18        2S          0.09834  -0.15761  -0.00048  -0.00134   0.07938
  19        3S          0.00606  -0.06026   0.00419  -0.00010   0.00995
  20 4   C  1S         -0.02659  -0.01679  -0.02916  -0.00054   0.00521
  21        2S         -0.04026  -0.02607  -0.04531  -0.00087   0.00390
  22        2PX        -0.04692  -0.01773  -0.04574   0.00057  -0.01844
  23        2PY        -0.08151  -0.04571  -0.07090   0.00113  -0.03192
  24        2PZ         0.00181  -0.00045  -0.00065   0.10347   0.00186
  25        3S          0.10267   0.07069   0.12310   0.00260   0.00123
  26        3PX        -0.06798  -0.02604  -0.06488   0.00074  -0.02756
  27        3PY        -0.11805  -0.06462  -0.10134   0.00150  -0.04763
  28        3PZ         0.00301  -0.00078  -0.00115   0.16567   0.00310
  29        4S          0.00176   0.03028   0.05334   0.00320  -0.03233
  30        4PX        -0.02274  -0.01951  -0.02937   0.00080  -0.00708
  31        4PY        -0.03920  -0.02937  -0.05360   0.00165  -0.01177
  32        4PZ         0.00256  -0.00119  -0.00188   0.15403   0.00286
  33 5   H  1S         -0.02056  -0.00072  -0.01764  -0.00054  -0.01540
  34        2S         -0.03174   0.00846  -0.03673   0.00002  -0.02030
  35        3S         -0.01255   0.00804  -0.02647   0.00013  -0.00398
  36 6   H  1S         -0.02040  -0.01481  -0.00932  -0.00055  -0.01559
  37        2S         -0.03156  -0.03579  -0.01080  -0.00002  -0.02087
  38        3S         -0.01250  -0.02670  -0.00623   0.00010  -0.00436
                          11        12        13        14        15
  11        4PX         0.06065
  12        4PY        -0.00913   0.05131
  13        4PZ        -0.00106  -0.00177   0.14257
  14 2   H  1S          0.03359  -0.05438  -0.00080   0.08151
  15        2S          0.04873  -0.07514  -0.00027   0.10975   0.14991
  16        3S          0.02142  -0.02783   0.00016   0.03694   0.05277
  17 3   H  1S         -0.06343   0.00163  -0.00087  -0.01301  -0.02499
  18        2S         -0.08806   0.00449  -0.00035  -0.02495  -0.04384
  19        3S         -0.03397   0.00476   0.00013  -0.01842  -0.02808
  20 4   C  1S         -0.00312  -0.00562  -0.00047   0.00423   0.00663
  21        2S         -0.00647  -0.01154  -0.00076   0.00699   0.01106
  22        2PX        -0.01308  -0.02017   0.00080   0.00186  -0.00280
  23        2PY        -0.02022  -0.03687   0.00153   0.01157   0.02424
  24        2PZ        -0.00062  -0.00097   0.09576  -0.00043  -0.00011
  25        3S          0.02294   0.04076   0.00223  -0.02099  -0.03326
  26        3PX        -0.02003  -0.02845   0.00109   0.00095  -0.00751
  27        3PY        -0.02845  -0.05357   0.00211   0.01709   0.03620
  28        3PZ        -0.00102  -0.00160   0.15333  -0.00064  -0.00010
  29        4S          0.00755   0.01411   0.00293  -0.01715  -0.02324
  30        4PX        -0.01461  -0.01245   0.00099  -0.00166  -0.00853
  31        4PY        -0.01254  -0.02937   0.00196   0.01523   0.02699
  32        4PZ        -0.00121  -0.00195   0.14256  -0.00035   0.00026
  33 5   H  1S          0.00183  -0.01576  -0.00027   0.01123   0.02343
  34        2S          0.00894  -0.02757   0.00033   0.02383   0.04457
  35        3S          0.00744  -0.01590   0.00025   0.01669   0.02793
  36 6   H  1S         -0.01438  -0.00592  -0.00028  -0.00913  -0.01836
  37        2S         -0.02802  -0.00544   0.00030  -0.01889  -0.03453
  38        3S         -0.01721  -0.00128   0.00023  -0.01018  -0.01783
                          16        17        18        19        20
  16        3S          0.02124
  17 3   H  1S         -0.01852   0.08243
  18        2S         -0.02813   0.10991   0.14876
  19        3S         -0.01333   0.03643   0.05163   0.02057
  20 4   C  1S          0.00362   0.00428   0.00662   0.00360   0.65946
  21        2S          0.00533   0.00706   0.01103   0.00528   0.56155
  22        2PX        -0.00361   0.00914   0.02236   0.01673   0.00112
  23        2PY         0.01752   0.00752   0.00963   0.00548   0.00178
  24        2PZ         0.00003  -0.00043  -0.00007   0.00006   0.00006
  25        3S         -0.01379  -0.02114  -0.03302  -0.01355  -0.08916
  26        3PX        -0.00722   0.01441   0.03509   0.02613  -0.00053
  27        3PY         0.02640   0.00946   0.01141   0.00671  -0.00106
  28        3PZ         0.00006  -0.00062  -0.00004   0.00010   0.00014
  29        4S         -0.00539  -0.01692  -0.02250  -0.00496  -0.08010
  30        4PX        -0.00711   0.01407   0.02762   0.01705  -0.00021
  31        4PY         0.01579   0.00644   0.00630   0.00174  -0.00025
  32        4PZ         0.00022  -0.00034   0.00029   0.00024  -0.00003
  33 5   H  1S          0.01626  -0.00906  -0.01825  -0.00958  -0.02013
  34        2S          0.02755  -0.01869  -0.03415  -0.01719  -0.02230
  35        3S          0.01471  -0.01009  -0.01764  -0.00908   0.00056
  36 6   H  1S         -0.00968   0.01123   0.02335   0.01602  -0.01995
  37        2S         -0.01745   0.02380   0.04437   0.02720  -0.02229
  38        3S         -0.00922   0.01662   0.02771   0.01450   0.00048
                          21        22        23        24        25
  21        2S          0.49203
  22        2PX         0.00160   0.08267
  23        2PY         0.00254   0.00385   0.08762
  24        2PZ         0.00010   0.00012   0.00017   0.06434
  25        3S         -0.15411  -0.00521  -0.00834  -0.00013   0.45328
  26        3PX        -0.00080   0.12859   0.00190   0.00008  -0.00001
  27        3PY        -0.00162   0.00193   0.13124   0.00009   0.00072
  28        3PZ         0.00023   0.00018   0.00027   0.10302  -0.00048
  29        4S         -0.11568   0.01436   0.02451   0.00054   0.27791
  30        4PX        -0.00149   0.07253  -0.00501   0.00035   0.00635
  31        4PY        -0.00238  -0.00497   0.06665   0.00066   0.01043
  32        4PZ        -0.00010   0.00061   0.00111   0.09577   0.00059
  33 5   H  1S         -0.03207  -0.03343   0.06340  -0.00098   0.08577
  34        2S         -0.03563  -0.04942   0.08844  -0.00079   0.09533
  35        3S         -0.00067  -0.02225   0.03349  -0.00008   0.00580
  36 6   H  1S         -0.03181   0.07116   0.00261  -0.00089   0.08507
  37        2S         -0.03563   0.10111   0.00114  -0.00066   0.09533
  38        3S         -0.00078   0.04025  -0.00271  -0.00002   0.00605
                          26        27        28        29        30
  26        3PX         0.20035
  27        3PY        -0.00291   0.19715
  28        3PZ         0.00012   0.00014   0.16494
  29        4S          0.02609   0.04428   0.00068   0.18682
  30        4PX         0.11345  -0.01067   0.00055   0.01588   0.06532
  31        4PY        -0.01064   0.10066   0.00105   0.02619  -0.01023
  32        4PZ         0.00078   0.00142   0.15334   0.00160   0.00086
  33 5   H  1S         -0.05364   0.09933  -0.00163   0.06765  -0.03419
  34        2S         -0.07973   0.13806  -0.00133   0.07861  -0.05134
  35        3S         -0.03633   0.05163  -0.00012   0.00980  -0.02363
  36 6   H  1S          0.11238   0.00309  -0.00148   0.06785   0.06518
  37        2S          0.15951  -0.00028  -0.00112   0.07965   0.09294
  38        3S          0.06320  -0.00586  -0.00004   0.01045   0.03714
                          31        32        33        34        35
  31        4PY         0.05291
  32        4PZ         0.00166   0.14257
  33 5   H  1S          0.05534  -0.00084   0.08065
  34        2S          0.07698  -0.00037   0.10990   0.15212
  35        3S          0.02885   0.00013   0.03788   0.05495   0.02264
  36 6   H  1S         -0.00194  -0.00077  -0.01256  -0.02582  -0.01964
  37        2S         -0.00598  -0.00027  -0.02590  -0.04752  -0.03101
  38        3S         -0.00604   0.00016  -0.01977  -0.03108  -0.01525
                          36        37        38
  36 6   H  1S          0.08004
  37        2S          0.10965   0.15255
  38        3S          0.03802   0.05536   0.02285
    Full Mulliken population analysis:
                           1         2         3         4         5
   1 1   C  1S          0.65941
   2        2S          0.49328   0.49206
   3        2PX         0.00000   0.00000   0.08438
   4        2PY         0.00000   0.00000   0.00000   0.08790
   5        2PZ         0.00000   0.00000   0.00000   0.00000   0.06440
   6        3S         -0.02930  -0.06448   0.00000   0.00000   0.00000
   7        3PX         0.00000   0.00000   0.08216   0.00000   0.00000
   8        3PY         0.00000   0.00000   0.00000   0.08271   0.00000
   9        3PZ         0.00000   0.00000   0.00000   0.00000   0.06514
  10        4S         -0.01220  -0.02139   0.00000   0.00000   0.00000
  11        4PX         0.00000   0.00000   0.01556   0.00000   0.00000
  12        4PY         0.00000   0.00000   0.00000   0.01448   0.00000
  13        4PZ         0.00000   0.00000   0.00000   0.00000   0.02110
  14 2   H  1S         -0.00023  -0.00033   0.00178   0.00572   0.00000
  15        2S         -0.00166  -0.00318   0.00426   0.01334   0.00000
  16        3S          0.00005  -0.00007   0.00070   0.00192   0.00000
  17 3   H  1S         -0.00025  -0.00036   0.00787   0.00000   0.00000
  18        2S         -0.00172  -0.00329   0.01776   0.00001   0.00000
  19        3S          0.00005  -0.00006   0.00257  -0.00000   0.00000
  20 4   C  1S          0.00000   0.00000  -0.00002  -0.00006   0.00000
  21        2S          0.00000  -0.00000  -0.00002  -0.00006   0.00000
  22        2PX        -0.00002  -0.00002   0.00011   0.00086   0.00000
  23        2PY        -0.00006  -0.00005   0.00086   0.00198   0.00000
  24        2PZ        -0.00000  -0.00000  -0.00000  -0.00000   0.00042
  25        3S         -0.00060  -0.00101   0.00253   0.00763  -0.00000
  26        3PX        -0.00055  -0.00101   0.00019   0.00556   0.00000
  27        3PY        -0.00165  -0.00304   0.00554   0.01069   0.00000
  28        3PZ        -0.00000  -0.00000  -0.00000  -0.00000   0.00615
  29        4S          0.00034   0.00030   0.00091   0.00277  -0.00000
  30        4PX        -0.00018  -0.00046  -0.00071   0.00145   0.00000
  31        4PY        -0.00054  -0.00136   0.00145   0.00095   0.00000
  32        4PZ        -0.00000  -0.00000  -0.00000  -0.00000   0.00903
  33 5   H  1S          0.00000   0.00000  -0.00000  -0.00000   0.00000
  34        2S          0.00001   0.00002   0.00000  -0.00032   0.00000
  35        3S          0.00008   0.00014   0.00001  -0.00071  -0.00000
  36 6   H  1S          0.00000   0.00000  -0.00000  -0.00000   0.00000
  37        2S          0.00001   0.00002  -0.00024  -0.00007   0.00000
  38        3S          0.00008   0.00013  -0.00057  -0.00012  -0.00000
                           6         7         8         9        10
   6        3S          0.45284
   7        3PX         0.00000   0.20243
   8        3PY         0.00000   0.00000   0.19712
   9        3PZ         0.00000   0.00000   0.00000   0.16646
  10        4S          0.21171   0.00000   0.00000   0.00000   0.18144
  11        4PX         0.00000   0.07179   0.00000   0.00000   0.00000
  12        4PY         0.00000   0.00000   0.06472   0.00000   0.00000
  13        4PZ         0.00000   0.00000   0.00000   0.10066   0.00000
  14 2   H  1S          0.01612   0.01053   0.03285   0.00001   0.01818
  15        2S          0.04098   0.01925   0.05815   0.00001   0.04631
  16        3S          0.00277   0.00395   0.01028   0.00000   0.00809
  17 3   H  1S          0.01684   0.04427   0.00002   0.00002   0.01838
  18        2S          0.04205   0.07744   0.00000   0.00002   0.04613
  19        3S          0.00281   0.01398  -0.00002   0.00000   0.00755
  20 4   C  1S         -0.00060  -0.00057  -0.00172   0.00000   0.00033
  21        2S         -0.00101  -0.00105  -0.00316   0.00000   0.00030
  22        2PX         0.00246   0.00018   0.00555   0.00000   0.00084
  23        2PY         0.00739   0.00554   0.01066   0.00000   0.00251
  24        2PZ         0.00000  -0.00000  -0.00000   0.00617   0.00000
  25        3S          0.02196   0.01328   0.04005  -0.00000   0.00047
  26        3PX         0.01277  -0.00127   0.01854   0.00000   0.00425
  27        3PY         0.03840   0.01846   0.02846   0.00000   0.01272
  28        3PZ         0.00000  -0.00000  -0.00000   0.03544   0.00000
  29        4S          0.00067   0.00467   0.01425  -0.00000  -0.02032
  30        4PX         0.00639  -0.00401   0.00581   0.00000   0.00214
  31        4PY         0.01908   0.00581   0.00121   0.00000   0.00618
  32        4PZ         0.00000  -0.00000  -0.00000   0.04929   0.00000
  33 5   H  1S         -0.00006  -0.00000  -0.00019   0.00000  -0.00083
  34        2S         -0.00125   0.00006  -0.00327  -0.00000  -0.00344
  35        3S         -0.00206   0.00010  -0.00429  -0.00000  -0.00144
  36 6   H  1S         -0.00005  -0.00013  -0.00006   0.00000  -0.00083
  37        2S         -0.00122  -0.00260  -0.00054   0.00000  -0.00350
  38        3S         -0.00204  -0.00356  -0.00057  -0.00000  -0.00157
                          11        12        13        14        15
  11        4PX         0.06065
  12        4PY         0.00000   0.05131
  13        4PZ         0.00000   0.00000   0.14257
  14 2   H  1S          0.00621   0.01770   0.00001   0.08151
  15        2S          0.01516   0.04116   0.00000   0.07752   0.14991
  16        3S          0.00522   0.01195  -0.00000   0.01380   0.04163
  17 3   H  1S          0.02376  -0.00001   0.00001  -0.00001  -0.00069
  18        2S          0.05540  -0.00005   0.00001  -0.00069  -0.00567
  19        3S          0.01669  -0.00005  -0.00000  -0.00209  -0.00831
  20 4   C  1S         -0.00018  -0.00057   0.00000   0.00000   0.00002
  21        2S         -0.00046  -0.00142   0.00000   0.00000   0.00003
  22        2PX        -0.00071   0.00140   0.00000  -0.00000   0.00000
  23        2PY         0.00140   0.00095   0.00000  -0.00000  -0.00035
  24        2PZ        -0.00000  -0.00000   0.00903   0.00000   0.00000
  25        3S          0.00645   0.01984  -0.00000  -0.00007  -0.00145
  26        3PX        -0.00412   0.00563   0.00000  -0.00000   0.00004
  27        3PY         0.00563   0.00121   0.00000  -0.00022  -0.00351
  28        3PZ        -0.00000  -0.00000   0.04907   0.00000   0.00000
  29        4S          0.00229   0.00740  -0.00000  -0.00099  -0.00414
  30        4PX        -0.00705   0.00315   0.00000   0.00002   0.00019
  31        4PY         0.00317  -0.00560   0.00000  -0.00240  -0.01012
  32        4PZ        -0.00000  -0.00000   0.08960   0.00000  -0.00000
  33 5   H  1S          0.00002  -0.00236   0.00000   0.00000   0.00000
  34        2S          0.00025  -0.00996  -0.00000   0.00000   0.00016
  35        3S          0.00026  -0.00736  -0.00000   0.00023   0.00147
  36 6   H  1S         -0.00177  -0.00050   0.00000  -0.00000  -0.00004
  37        2S         -0.00833  -0.00110  -0.00000  -0.00004  -0.00092
  38        3S         -0.00659  -0.00033  -0.00000  -0.00046  -0.00248
                          16        17        18        19        20
  16        3S          0.02124
  17 3   H  1S         -0.00210   0.08243
  18        2S         -0.00833   0.07764   0.14876
  19        3S         -0.00700   0.01361   0.04074   0.02057
  20 4   C  1S          0.00009   0.00000   0.00002   0.00009   0.65946
  21        2S          0.00016   0.00000   0.00003   0.00015   0.49329
  22        2PX         0.00001  -0.00000  -0.00027  -0.00058   0.00000
  23        2PY        -0.00073  -0.00000  -0.00008  -0.00013   0.00000
  24        2PZ        -0.00000   0.00000   0.00000  -0.00000   0.00000
  25        3S         -0.00236  -0.00007  -0.00144  -0.00233  -0.02935
  26        3PX         0.00007  -0.00015  -0.00284  -0.00362   0.00000
  27        3PY        -0.00440  -0.00007  -0.00062  -0.00063   0.00000
  28        3PZ        -0.00000   0.00000   0.00000  -0.00000   0.00000
  29        4S         -0.00201  -0.00098  -0.00401  -0.00186  -0.01232
  30        4PX         0.00020  -0.00185  -0.00861  -0.00667   0.00000
  31        4PY        -0.00743  -0.00057  -0.00132  -0.00046   0.00000
  32        4PZ        -0.00000   0.00000  -0.00000  -0.00000   0.00000
  33 5   H  1S          0.00023  -0.00000  -0.00004  -0.00043  -0.00021
  34        2S          0.00145  -0.00004  -0.00091  -0.00238  -0.00159
  35        3S          0.00247  -0.00046  -0.00244  -0.00289   0.00004
  36 6   H  1S         -0.00044   0.00000   0.00000   0.00022  -0.00020
  37        2S         -0.00242   0.00000   0.00015   0.00142  -0.00157
  38        3S         -0.00294   0.00023   0.00145   0.00243   0.00004
                          21        22        23        24        25
  21        2S          0.49203
  22        2PX         0.00000   0.08267
  23        2PY         0.00000   0.00000   0.08762
  24        2PZ         0.00000   0.00000   0.00000   0.06434
  25        3S         -0.06454   0.00000   0.00000   0.00000   0.45328
  26        3PX         0.00000   0.08090   0.00000   0.00000   0.00000
  27        3PY         0.00000   0.00000   0.08257   0.00000   0.00000
  28        3PZ         0.00000   0.00000   0.00000   0.06481   0.00000
  29        4S         -0.02165   0.00000   0.00000   0.00000   0.21530
  30        4PX         0.00000   0.01597   0.00000   0.00000   0.00000
  31        4PY         0.00000   0.00000   0.01468   0.00000   0.00000
  32        4PZ         0.00000   0.00000   0.00000   0.02109   0.00000
  33 5   H  1S         -0.00030   0.00151   0.00560   0.00000   0.01537
  34        2S         -0.00305   0.00388   0.01356   0.00000   0.03958
  35        3S         -0.00006   0.00068   0.00199   0.00000   0.00266
  36 6   H  1S         -0.00029   0.00687   0.00001   0.00000   0.01500
  37        2S         -0.00300   0.01727   0.00001   0.00000   0.03921
  38        3S         -0.00007   0.00269  -0.00001   0.00000   0.00276
                          26        27        28        29        30
  26        3PX         0.20035
  27        3PY         0.00000   0.19715
  28        3PZ         0.00000   0.00000   0.16494
  29        4S          0.00000   0.00000   0.00000   0.18682
  30        4PX         0.07414   0.00000   0.00000   0.00000   0.06532
  31        4PY         0.00000   0.06578   0.00000   0.00000   0.00000
  32        4PZ         0.00000   0.00000   0.10020   0.00000   0.00000
  33 5   H  1S          0.00917   0.03313   0.00001   0.01773   0.00583
  34        2S          0.01765   0.05968   0.00001   0.04499   0.01476
  35        3S          0.00386   0.01072   0.00000   0.00737   0.00534
  36 6   H  1S          0.04159   0.00006   0.00001   0.01767   0.02432
  37        2S          0.07707  -0.00001   0.00001   0.04537   0.05858
  38        3S          0.01474  -0.00007   0.00000   0.00783   0.01843
                          31        32        33        34        35
  31        4PY         0.05291
  32        4PZ         0.00000   0.14257
  33 5   H  1S          0.01842   0.00001   0.08065
  34        2S          0.04321   0.00001   0.07763   0.15212
  35        3S          0.01273  -0.00000   0.01416   0.04335   0.02264
  36 6   H  1S         -0.00004   0.00001  -0.00001  -0.00075  -0.00227
  37        2S         -0.00019   0.00000  -0.00075  -0.00633  -0.00930
  38        3S         -0.00015  -0.00000  -0.00228  -0.00932  -0.00808
                          36        37        38
  36 6   H  1S          0.08004
  37        2S          0.07746   0.15255
  38        3S          0.01421   0.04367   0.02285
     Gross orbital populations:
                           1
   1 1   C  1S          1.10435
   2        2S          0.88586
   3        2PX         0.22707
   4        2PY         0.23664
   5        2PZ         0.16624
   6        3S          0.79319
   7        3PX         0.56070
   8        3PY         0.55657
   9        3PZ         0.42323
  10        4S          0.50200
  11        4PX         0.26068
  12        4PY         0.21159
  13        4PZ         0.41204
  14 2   H  1S          0.27465
  15        2S          0.46707
  16        3S          0.08604
  17 3   H  1S          0.27746
  18        2S          0.46525
  19        3S          0.08339
  20 4   C  1S          1.10441
  21        2S          0.88584
  22        2PX         0.22225
  23        2PY         0.23594
  24        2PZ         0.16587
  25        3S          0.79215
  26        3PX         0.55295
  27        3PY         0.55599
  28        3PZ         0.42066
  29        4S          0.50839
  30        4PX         0.27250
  31        4PY         0.21541
  32        4PZ         0.41181
  33 5   H  1S          0.27200
  34        2S          0.46979
  35        3S          0.08894
  36 6   H  1S          0.27010
  37        2S          0.47066
  38        3S          0.09032
          Condensed to atoms (all electrons):
               1          2          3          4          5          6
     1  C    5.034854   0.387192   0.387810   0.602940  -0.036587  -0.036060
     2  H    0.387192   0.518579  -0.034899  -0.039368   0.006007  -0.009751
     3  H    0.387810  -0.034899   0.515738  -0.038861  -0.009588   0.005912
     4  C    0.602940  -0.039368  -0.038861   5.051205   0.384298   0.383955
     5  H   -0.036587   0.006007  -0.009588   0.384298   0.525691  -0.039093
     6  H   -0.036060  -0.009751   0.005912   0.383955  -0.039093   0.526121
 Mulliken charges:
               1
     1  C   -0.340149
     2  H    0.172240
     3  H    0.173889
     4  C   -0.344168
     5  H    0.169272
     6  H    0.168916
 Sum of Mulliken charges =  -0.00000
 Mulliken charges with hydrogens summed into heavy atoms:
               1
     1  C    0.005980
     4  C   -0.005980
 Electronic spatial extent (au):  <R**2>=             83.6748
 Charge=             -0.0000 electrons
 Dipole moment (field-independent basis, Debye):
    X=             -0.0023    Y=              0.0078    Z=             -0.0815  Tot=              0.0819
 Quadrupole moment (field-independent basis, Debye-Ang):
   XX=            -12.2040   YY=            -12.2110   ZZ=            -15.6652
   XY=              0.0209   XZ=              0.0016   YZ=             -0.0010
 Traceless Quadrupole moment (field-independent basis, Debye-Ang):
   XX=              1.1561   YY=              1.1490   ZZ=             -2.3051
   XY=              0.0209   XZ=              0.0016   YZ=             -0.0010
 Octapole moment (field-independent basis, Debye-Ang**2):
  XXX=             -0.2458  YYY=             -0.0730  ZZZ=             -0.0621  XYY=              0.0782
  XXY=             -0.0472  XXZ=             -0.1124  XZZ=             -0.0802  YZZ=             -0.0770
  YYZ=             -0.1474  XYZ=             -0.0300
 Hexadecapole moment (field-independent basis, Debye-Ang**3):
 XXXX=            -34.2560 YYYY=            -55.1472 ZZZZ=            -17.7923 XXXY=             -7.2228
 XXXZ=              0.0102 YYYX=            -10.6920 YYYZ=              0.0130 ZZZX=              0.0098
 ZZZY=              0.0225 XXYY=            -16.1851 XXZZ=             -9.9192 YYZZ=            -13.6338
 XXYZ=              0.0064 YYXZ=              0.0008 ZZXY=             -3.1999
 N-N= 3.308483703791D+01 E-N=-2.478843392715D+02  KE= 7.815625927485D+01
 Orbital energies and kinetic energies (alpha):
                                 1                 2
   1         O               -10.290393         15.978623
   2         O               -10.287487         15.979552
   3         O                -0.863994          1.540314
   4         O                -0.672203          1.271213
   5         O                -0.559023          0.941738
   6         O                -0.509947          1.284246
   7         O                -0.436488          1.043517
   8         O                -0.357089          1.038927
   9         V                 0.080204          1.181503
  10         V                 0.141105          0.588543
  11         V                 0.164629          0.595630
  12         V                 0.170195          0.678716
  13         V                 0.240948          0.582532
  14         V                 0.377133          0.860607
  15         V                 0.392893          0.932577
  16         V                 0.396594          0.769785
  17         V                 0.463959          1.191107
  18         V                 0.488131          1.425457
  19         V                 0.493645          1.300795
  20         V                 0.591227          1.653451
  21         V                 0.665454          1.572339
  22         V                 0.691147          2.147143
  23         V                 0.772733          2.450471
  24         V                 0.776277          2.290184
  25         V                 0.843433          1.086108
  26         V                 0.953396          3.432609
  27         V                 2.231897          3.923074
  28         V                 2.289402          4.033339
  29         V                 2.333068          4.301633
  30         V                 2.407371          4.521185
  31         V                 2.671471          6.301510
  32         V                 2.817902          6.306525
  33         V                 2.878383          6.134207
  34         V                 2.951850          6.226557
  35         V                 3.141206          6.822491
  36         V                 3.319334          6.401310
  37         V                23.352160         60.074056
  38         V                23.707169         60.204752
 Total kinetic energy from orbitals= 7.815625927485D+01
 Calling FoFJK, ICntrl=      2127 FMM=F ISym2X=0 I1Cent= 0 IOpClX= 0 NMat=1 NMatS=1 NMatT=0.
 -------------------------------------------------------------------
 Center     Atomic                   Forces (Hartrees/Bohr)
 Number     Number              X              Y              Z
 -------------------------------------------------------------------
      1        6           0.009853201    0.005127490   -0.003374376
      2        1          -0.006897201    0.005805851    0.001686765
      3        1           0.002799338   -0.002422174    0.001570659
      4        6           0.007586875    0.008694318   -0.003498354
      5        1           0.004089266   -0.013572479    0.001785641
      6        1          -0.017431479   -0.003633005    0.001829665
 -------------------------------------------------------------------
 Cartesian Forces:  Max     0.017431479 RMS     0.007090580

 GradGradGradGradGradGradGradGradGradGradGradGradGradGradGradGradGradGrad
 Berny optimization.
 Search for a local minimum.
 Step number   1 out of a maximum of    2
 All quantities printed in internal units (Hartrees-Bohrs-Radians)
 Second derivative matrix not updated -- first step.
 The second derivative matrix:
                          X1        Y1        Z1        X2        Y2
           X1           0.75750
           Y1           0.10338   0.86495
           Z1           0.00494   0.00756   0.17366
           X2          -0.16204   0.09522   0.00175   0.13967
           Y2           0.10191  -0.28742  -0.00628  -0.11461   0.27645
           Z2           0.00278  -0.00789  -0.05574  -0.00250   0.00654
           X3          -0.35178  -0.00465  -0.00686  -0.00066  -0.00037
           Y3          -0.01130  -0.10990  -0.00168   0.03269   0.01853
           Z3          -0.00877  -0.00162  -0.05692   0.00125   0.00044
           X4          -0.26839  -0.17969  -0.00066   0.02304   0.01307
           Y4          -0.17987  -0.47578  -0.00106  -0.01331  -0.00755
           Z4           0.00105   0.00193  -0.09496  -0.00051  -0.00070
           X5           0.02337  -0.01349   0.00051  -0.00000   0.00000
           Y5           0.01196  -0.00690   0.00070   0.00000  -0.00000
           Z5          -0.00046   0.00028   0.01727   0.00022  -0.00012
           X6           0.00134  -0.00077   0.00032  -0.00000   0.00000
           Y6          -0.02607   0.01506   0.00076   0.00000  -0.00000
           Z6           0.00047  -0.00025   0.01669  -0.00021   0.00011
                          Z2        X3        Y3        Z3        X4
           Z2           0.02900
           X3          -0.00027   0.35193
           Y3           0.00133   0.00531   0.07595
           Z3           0.01057   0.00750   0.00118   0.02978
           X4           0.00041   0.00053  -0.02671  -0.00040   0.71607
           Y4          -0.00022  -0.00030   0.01542   0.00025   0.11919
           Z4           0.01613  -0.00037  -0.00083   0.01662  -0.00412
           X5          -0.00021  -0.00001   0.00000   0.00021  -0.14837
           Y5           0.00013   0.00000  -0.00000  -0.00013   0.09321
           Z5           0.00933   0.00022  -0.00014  -0.00948  -0.00259
           X6          -0.00020  -0.00000   0.00000   0.00021  -0.32288
           Y6           0.00011   0.00000  -0.00000  -0.00011  -0.01907
           Z6          -0.00929  -0.00022   0.00014   0.00943   0.00735
                          Y4        Z4        X5        Y5        Z5
           Y4           0.85909
           Z4          -0.00806   0.17521
           X5           0.08544  -0.00172   0.12668
           Y5          -0.28650   0.00610  -0.10432   0.27686
           Z5           0.00755  -0.05680   0.00233  -0.00648   0.02945
           X6          -0.01115   0.00566  -0.00167  -0.00085   0.00028
           Y6          -0.10469   0.00157   0.03236   0.01655  -0.00110
           Z6           0.00155  -0.05620  -0.00113  -0.00032   0.01023
                          X6        Y6        Z6
           X6           0.32323
           Y6           0.01277   0.07309
           Z6          -0.00626  -0.00123   0.02913
 ITU=  0
     Eigenvalues ---    0.03755   0.04386   0.09322   0.10019   0.13539
     Eigenvalues ---    0.17461   0.26568   0.28959   0.52986   0.70118
     Eigenvalues ---    0.97403   1.57021
 Angle between quadratic step and forces=  32.26 degrees.
 Linear search not attempted -- first point.
 B after Tr=     0.004710    0.004776   -0.008320
         Rot=    1.000000   -0.000032    0.000018   -0.000105 Ang=  -0.01 deg.
 Variable       Old X    -DE/DX   Delta X   Delta X   Delta X     New X
                                 (Linear)    (Quad)   (Total)
    X1       -0.63284   0.00985   0.00000   0.01601   0.02094  -0.61189
    Y1       -1.09541   0.00513   0.00000   0.01648   0.02113  -1.07428
    Z1        0.01057  -0.00337   0.00000  -0.01767  -0.02608  -0.01551
    X2        0.38907  -0.00690   0.00000  -0.02312  -0.01780   0.37127
    Y2       -2.89555   0.00581   0.00000   0.02185   0.02670  -2.86884
    Z2       -0.03521   0.00169   0.00000   0.02171   0.01322  -0.02199
    X3       -2.68508   0.00280   0.00000   0.02340   0.02835  -2.65673
    Y3       -1.13509  -0.00242   0.00000  -0.00340   0.00082  -1.13426
    Z3       -0.03731   0.00157   0.00000   0.02114   0.01265  -0.02466
    X4        0.63025   0.00759   0.00000   0.00348   0.00796   0.63821
    Y4        1.09200   0.00869   0.00000   0.00330   0.00821   1.10021
    Z4        0.00848  -0.00350   0.00000  -0.01676  -0.02499  -0.01651
    X5       -0.32221   0.00409   0.00000   0.00089   0.00499  -0.31722
    Y5        2.95142  -0.01357   0.00000  -0.04461  -0.03990   2.91152
    Z5       -0.03891   0.00179   0.00000   0.02106   0.01291  -0.02599
    X6        2.72820  -0.01743   0.00000  -0.04891  -0.04444   2.68375
    Y6        1.19898  -0.00363   0.00000  -0.02230  -0.01697   1.18202
    Z6       -0.03650   0.00183   0.00000   0.02044   0.01229  -0.02422
         Item               Value     Threshold  Converged?
 Maximum Force            0.017431     0.000450     NO 
 RMS     Force            0.007091     0.000300     NO 
 Maximum Displacement     0.044444     0.001800     NO 
 RMS     Displacement     0.021970     0.001200     NO 
 Predicted change in Energy=-1.231581D-03
 GradGradGradGradGradGradGradGradGradGradGradGradGradGradGradGradGradGrad

 Unable to Open any file for archive entry.
 1\1\GINC-BHD0008\Force\RwB97XD\6-311G\C2H4\BWEIGHT\11-Jan-2023\0\\# WB
 97XD/6-311G SCF=XQC FORCE nosym pop=full guess=read\\MD Step 999\\0,1\
 C,-0.33488387,-0.57966631,0.00559583\H,0.20588691,-1.53225787,-0.01863
 109\H,-1.42088351,-0.6006617,-0.01974544\C,0.33351404,0.57786074,0.004
 48837\H,-0.17050594,1.5618267,-0.02058979\H,1.44369931,0.63447536,-0.0
 1931747\\Version=ES64L-G16RevC.01\HF=-78.5562278\RMSD=5.543e-09\RMSF=7
 .091e-03\Dipole=-0.0008928,0.0030696,-0.0320677\Quadrupole=0.8595131,0
 .8542734,-1.7137865,0.0155028,0.0012093,-0.0007512\PG=C01 [X(C2H4)]\\@
 The archive entry for this job was punched.


 NO SCIENCE HAS EVER MADE MORE RAPID PROGRESS IN A
 SHORTER TIME THAN CHEMISTRY.
   -- MARTIN HEINRICH KLOPROTH, 1791
 (FIRST PROFESSOR OF CHEMISTRY AT THE UNIVERSITY OF BERLIN)
 Job cpu time:       0 days  0 hours  0 minutes 52.3 seconds.
 Elapsed time:       0 days  0 hours  0 minutes 20.4 seconds.
 File lengths (MBytes):  RWF=    272 Int=      0 D2E=      0 Chk=     32 Scr=     32
 Normal termination of Gaussian 16 at Wed Jan 11 16:32:58 2023.
