 Entering Gaussian System, Link 0=g16
 Initial command:
 /software/gaussian/g16-c01/avx2/g16/l1.exe "/gpfs/fs2/scratch/bweight/software/many_molecule_many_mode_NAMD/EXAMPLES/Mccamant_Planarization/O_Ph/GS_DYN/NVT_RESCALE/G16/GS_NEW/Gau-14341.inp" -scrdir="/gpfs/fs2/scratch/bweight/software/many_molecule_many_mode_NAMD/EXAMPLES/Mccamant_Planarization/O_Ph/GS_DYN/NVT_RESCALE/G16/GS_NEW/"
 Entering Link 1 = /software/gaussian/g16-c01/avx2/g16/l1.exe PID=     14342.
  
 Copyright (c) 1988-2019, Gaussian, Inc.  All Rights Reserved.
  
 This is part of the Gaussian(R) 16 program.  It is based on
 the Gaussian(R) 09 system (copyright 2009, Gaussian, Inc.),
 the Gaussian(R) 03 system (copyright 2003, Gaussian, Inc.),
 the Gaussian(R) 98 system (copyright 1998, Gaussian, Inc.),
 the Gaussian(R) 94 system (copyright 1995, Gaussian, Inc.),
 the Gaussian 92(TM) system (copyright 1992, Gaussian, Inc.),
 the Gaussian 90(TM) system (copyright 1990, Gaussian, Inc.),
 the Gaussian 88(TM) system (copyright 1988, Gaussian, Inc.),
 the Gaussian 86(TM) system (copyright 1986, Carnegie Mellon
 University), and the Gaussian 82(TM) system (copyright 1983,
 Carnegie Mellon University). Gaussian is a federally registered
 trademark of Gaussian, Inc.
  
 This software contains proprietary and confidential information,
 including trade secrets, belonging to Gaussian, Inc.
  
 This software is provided under written license and may be
 used, copied, transmitted, or stored only in accord with that
 written license.
  
 The following legend is applicable only to US Government
 contracts under FAR:
  
                    RESTRICTED RIGHTS LEGEND
  
 Use, reproduction and disclosure by the US Government is
 subject to restrictions as set forth in subparagraphs (a)
 and (c) of the Commercial Computer Software - Restricted
 Rights clause in FAR 52.227-19.
  
 Gaussian, Inc.
 340 Quinnipiac St., Bldg. 40, Wallingford CT 06492
  
  
 ---------------------------------------------------------------
 Warning -- This program may not be used in any manner that
 competes with the business of Gaussian, Inc. or will provide
 assistance to any competitor of Gaussian, Inc.  The licensee
 of this program is prohibited from giving any competitor of
 Gaussian, Inc. access to this program.  By using this program,
 the user acknowledges that Gaussian, Inc. is engaged in the
 business of creating and licensing software in the field of
 computational chemistry and represents and warrants to the
 licensee that it is not a competitor of Gaussian, Inc. and that
 it will not use this program in any manner prohibited above.
 ---------------------------------------------------------------
  

 Cite this work as:
 Gaussian 16, Revision C.01,
 M. J. Frisch, G. W. Trucks, H. B. Schlegel, G. E. Scuseria, 
 M. A. Robb, J. R. Cheeseman, G. Scalmani, V. Barone, 
 G. A. Petersson, H. Nakatsuji, X. Li, M. Caricato, A. V. Marenich, 
 J. Bloino, B. G. Janesko, R. Gomperts, B. Mennucci, H. P. Hratchian, 
 J. V. Ortiz, A. F. Izmaylov, J. L. Sonnenberg, D. Williams-Young, 
 F. Ding, F. Lipparini, F. Egidi, J. Goings, B. Peng, A. Petrone, 
 T. Henderson, D. Ranasinghe, V. G. Zakrzewski, J. Gao, N. Rega, 
 G. Zheng, W. Liang, M. Hada, M. Ehara, K. Toyota, R. Fukuda, 
 J. Hasegawa, M. Ishida, T. Nakajima, Y. Honda, O. Kitao, H. Nakai, 
 T. Vreven, K. Throssell, J. A. Montgomery, Jr., J. E. Peralta, 
 F. Ogliaro, M. J. Bearpark, J. J. Heyd, E. N. Brothers, K. N. Kudin, 
 V. N. Staroverov, T. A. Keith, R. Kobayashi, J. Normand, 
 K. Raghavachari, A. P. Rendell, J. C. Burant, S. S. Iyengar, 
 J. Tomasi, M. Cossi, J. M. Millam, M. Klene, C. Adamo, R. Cammi, 
 J. W. Ochterski, R. L. Martin, K. Morokuma, O. Farkas, 
 J. B. Foresman, and D. J. Fox, Gaussian, Inc., Wallingford CT, 2019.
 
 ******************************************
 Gaussian 16:  ES64L-G16RevC.01  3-Jul-2019
                12-Jan-2023 
 ******************************************
 %oldchk=../GS_OLD/geometry.chk
 %chk=geometry.chk
 %nprocshared=24
 Will use up to   24 processors via shared memory.
 %mem=5GB
 Copying data from "../GS_OLD/geometry.chk" to current chk file "geometry.chk"
 IOpt=  2 FromEx=T IUOpen= 4 IOptOp= 5 NList=   0 IFRang= 0 IUIn= 4 IUOut= 2.
 ----------------------------------------------------
 # AM1/STO-5G SCF=XQC FORCE nosym pop=full guess=read
 ----------------------------------------------------
 1/10=7,30=1,38=1/1,3;
 2/12=2,15=1,17=6,18=5,40=1/2;
 3/5=2,6=5,25=1,41=700000,71=1,116=-2/1,2,3;
 4/5=1,35=1/1;
 5/5=2,8=3,13=1,35=1,38=6/2,8;
 6/7=3,28=1/1;
 7/29=1,30=1/1,2,3,16;
 1/10=7,30=1/3;
 99//99;
 ------------
 MD Step 5000
 ------------
 Symbolic Z-matrix:
 Charge =  0 Multiplicity = 1
 C                     5.55065  -1.45561   0.33937 
 C                     4.39437  -0.76172   0.75818 
 C                     3.18821  -0.84773   0.0748 
 C                     3.20453  -1.64097  -1.10505 
 C                     4.28019  -2.39328  -1.54928 
 C                     5.4954   -2.24154  -0.86854 
 C                     2.00544  -0.06938   0.33598 
 C                     0.97048  -1.00921  -1.68909 
 C                     0.93574  -0.10972  -0.53573 
 C                    -0.31535   0.6393   -0.33952 
 H                    -0.46469   1.34827   0.47165 
 C                    -1.35163   0.42747  -1.24389 
 C                    -1.29757  -0.53461  -2.32159 
 C                    -0.12383  -1.32626  -2.53967 
 H                     6.51544  -1.38215   0.85626 
 H                     4.37723  -0.21229   1.67999 
 H                     3.98626  -2.97518  -2.42543 
 H                    -2.38981   0.82363  -0.99414 
 H                    -0.08367  -2.19397  -3.22163 
 N                    -2.36571  -0.73142  -3.15163 
 N                     6.70358  -2.82237  -1.38698 
 P                    -4.87765   1.60248   1.21461 
 C                     1.9323    0.6407    1.60378 
 C                     0.9012    0.35146   2.53926 
 C                     2.88935   1.62324   1.85778 
 C                     0.96609   1.04701   3.73469 
 H                     0.16159  -0.42935   2.30448 
 C                     2.83798   2.31314   3.03913 
 H                     3.70181   1.8166    1.10872 
 C                     1.88779   2.06175   4.01984 
 H                     0.14503   0.82587   4.46493 
 H                     3.61324   3.07375   3.1935 
 H                     1.84304   2.59322   4.97654 
 F                    -4.30277   2.81154   0.44303 
 F                    -3.43299   1.08139   1.34021 
 F                    -4.86542   2.35698   2.55301 
 F                    -5.38301   0.25996   1.78273 
 F                    -4.85762   0.8623   -0.19883 
 F                    -6.32918   2.04979   0.88795 
 C                    -3.48193   0.10809  -2.94805 
 H                    -3.95731  -0.16018  -1.93691 
 H                    -3.17454   1.19512  -2.97696 
 H                    -4.3574   -0.06436  -3.67472 
 C                    -2.52887  -1.95469  -3.97332 
 H                    -1.49993  -2.47747  -4.00727 
 H                    -3.29189  -2.6774   -3.55778 
 H                    -2.68168  -1.47375  -5.05596 
 C                     6.66269  -3.40942  -2.68238 
 H                     7.0406   -4.47186  -2.73042 
 H                     5.69511  -3.27077  -3.18297 
 H                     7.42246  -2.83004  -3.36053 
 C                     7.92947  -2.27337  -0.88704 
 H                     7.93933  -1.17438  -0.90893 
 H                     8.25596  -2.58319   0.18245 
 H                     8.75312  -2.72648  -1.5373 
 O                     2.05541  -1.83605  -1.89297 
 

 GradGradGradGradGradGradGradGradGradGradGradGradGradGradGradGradGradGrad
 Berny optimization.
 Initialization pass.
 Trust Radius=3.00D-01 FncErr=1.00D-07 GrdErr=1.00D-07 EigMax=2.50D+02 EigMin=1.00D-04
 Number of steps in this run=      2 maximum allowed number of steps=      2.
 GradGradGradGradGradGradGradGradGradGradGradGradGradGradGradGradGradGrad

 Symmetry turned off by external request.
 Stoichiometry    C23H23F6N2OP
 Framework group  C1[X(C23H23F6N2OP)]
 Deg. of freedom   162
 Full point group                 C1      NOp   1
                          Input orientation:                          
 ---------------------------------------------------------------------
 Center     Atomic      Atomic             Coordinates (Angstroms)
 Number     Number       Type             X           Y           Z
 ---------------------------------------------------------------------
      1          6           0        5.550654   -1.455608    0.339369
      2          6           0        4.394371   -0.761720    0.758177
      3          6           0        3.188212   -0.847726    0.074799
      4          6           0        3.204534   -1.640972   -1.105052
      5          6           0        4.280193   -2.393278   -1.549278
      6          6           0        5.495396   -2.241543   -0.868542
      7          6           0        2.005437   -0.069376    0.335985
      8          6           0        0.970482   -1.009209   -1.689091
      9          6           0        0.935735   -0.109718   -0.535727
     10          6           0       -0.315354    0.639303   -0.339522
     11          1           0       -0.464694    1.348272    0.471654
     12          6           0       -1.351634    0.427471   -1.243891
     13          6           0       -1.297572   -0.534608   -2.321586
     14          6           0       -0.123828   -1.326258   -2.539672
     15          1           0        6.515436   -1.382150    0.856260
     16          1           0        4.377234   -0.212290    1.679991
     17          1           0        3.986263   -2.975180   -2.425433
     18          1           0       -2.389811    0.823633   -0.994142
     19          1           0       -0.083669   -2.193974   -3.221631
     20          7           0       -2.365710   -0.731420   -3.151631
     21          7           0        6.703583   -2.822374   -1.386981
     22         15           0       -4.877655    1.602477    1.214615
     23          6           0        1.932301    0.640699    1.603782
     24          6           0        0.901200    0.351460    2.539257
     25          6           0        2.889354    1.623237    1.857780
     26          6           0        0.966094    1.047008    3.734693
     27          1           0        0.161587   -0.429353    2.304479
     28          6           0        2.837985    2.313144    3.039128
     29          1           0        3.701808    1.816596    1.108719
     30          6           0        1.887790    2.061753    4.019836
     31          1           0        0.145031    0.825870    4.464935
     32          1           0        3.613238    3.073754    3.193499
     33          1           0        1.843044    2.593217    4.976537
     34          9           0       -4.302771    2.811537    0.443027
     35          9           0       -3.432989    1.081391    1.340215
     36          9           0       -4.865416    2.356985    2.553012
     37          9           0       -5.383015    0.259955    1.782728
     38          9           0       -4.857617    0.862300   -0.198834
     39          9           0       -6.329182    2.049786    0.887954
     40          6           0       -3.481934    0.108094   -2.948050
     41          1           0       -3.957307   -0.160180   -1.936905
     42          1           0       -3.174536    1.195117   -2.976955
     43          1           0       -4.357399   -0.064359   -3.674719
     44          6           0       -2.528873   -1.954695   -3.973318
     45          1           0       -1.499927   -2.477466   -4.007271
     46          1           0       -3.291889   -2.677399   -3.557777
     47          1           0       -2.681677   -1.473745   -5.055961
     48          6           0        6.662693   -3.409419   -2.682384
     49          1           0        7.040604   -4.471865   -2.730421
     50          1           0        5.695113   -3.270772   -3.182970
     51          1           0        7.422460   -2.830039   -3.360534
     52          6           0        7.929467   -2.273369   -0.887044
     53          1           0        7.939333   -1.174377   -0.908934
     54          1           0        8.255959   -2.583191    0.182449
     55          1           0        8.753123   -2.726485   -1.537304
     56          8           0        2.055406   -1.836054   -1.892971
 ---------------------------------------------------------------------
 Rotational constants (GHZ):           0.1979536           0.0549553           0.0444829
 Standard basis: VSTO-5G (5D, 7F)
   155 basis functions,   930 primitive gaussians,   155 cartesian basis functions
    89 alpha electrons       89 beta electrons
       nuclear repulsion energy      1933.0642700909 Hartrees.



 Warning!  P  atom   22 may be hypervalent but has no d functions.



 Integral buffers will be    131072 words long.
 Regular integral format.
 Two-electron integral symmetry is turned off.
 Do NDO integrals.
 One-electron integrals computed using PRISM.
 NBasis=   155 RedAO= F EigKep=  0.00D+00  NBF=   155
 NBsUse=   155 1.00D-04 EigRej=  0.00D+00 NBFU=   155
 Initial guess from the checkpoint file:  "geometry.chk"
 B after Tr=     0.000229    0.000285   -0.000183
         Rot=    1.000000   -0.000085    0.000028    0.000003 Ang=  -0.01 deg.
 Keep J ints in memory in canonical form, NReq=924747.
 Overlap will be assumed to be unity.
 Requested convergence on RMS density matrix=1.00D-08 within  32 cycles.
 Requested convergence on MAX density matrix=1.00D-06.
 Requested convergence on             energy=1.00D-06.
 No special actions if energy rises.
 SCF Done:  E(RAM1) = -0.459145327676     A.U. after   14 cycles
            NFock= 13  Conv=0.93D-08     -V/T= 0.9989
 QCSCF skips out because SCF is already converged.

 **********************************************************************

            Population analysis using the SCF Density.

 **********************************************************************

 Alpha  occ. eigenvalues --   -1.74278  -1.70234  -1.69986  -1.68881  -1.58956
 Alpha  occ. eigenvalues --   -1.54441  -1.53808  -1.51128  -1.49917  -1.48556
 Alpha  occ. eigenvalues --   -1.40922  -1.39249  -1.30202  -1.23151  -1.19118
 Alpha  occ. eigenvalues --   -1.17460  -1.17072  -1.15399  -1.09573  -1.08049
 Alpha  occ. eigenvalues --   -1.03088  -0.98761  -0.94622  -0.90598  -0.89852
 Alpha  occ. eigenvalues --   -0.87990  -0.85455  -0.83986  -0.77220  -0.75764
 Alpha  occ. eigenvalues --   -0.71074  -0.69406  -0.68559  -0.67666  -0.67418
 Alpha  occ. eigenvalues --   -0.65835  -0.65757  -0.64112  -0.63562  -0.62782
 Alpha  occ. eigenvalues --   -0.62254  -0.61771  -0.60761  -0.60301  -0.59917
 Alpha  occ. eigenvalues --   -0.59798  -0.59576  -0.59253  -0.57922  -0.56719
 Alpha  occ. eigenvalues --   -0.56052  -0.55076  -0.53989  -0.53635  -0.53197
 Alpha  occ. eigenvalues --   -0.53020  -0.52022  -0.51619  -0.51093  -0.50656
 Alpha  occ. eigenvalues --   -0.50548  -0.50334  -0.49449  -0.49026  -0.47916
 Alpha  occ. eigenvalues --   -0.47692  -0.47448  -0.47344  -0.46725  -0.46152
 Alpha  occ. eigenvalues --   -0.45572  -0.44416  -0.44107  -0.43513  -0.43344
 Alpha  occ. eigenvalues --   -0.43018  -0.42800  -0.42609  -0.42281  -0.41269
 Alpha  occ. eigenvalues --   -0.40964  -0.40712  -0.39981  -0.39787  -0.39204
 Alpha  occ. eigenvalues --   -0.38873  -0.37906  -0.36595  -0.33934
 Alpha virt. eigenvalues --   -0.10647  -0.05211  -0.03424  -0.02548  -0.01701
 Alpha virt. eigenvalues --   -0.00723   0.00004   0.01048   0.03502   0.03721
 Alpha virt. eigenvalues --    0.04671   0.05591   0.06524   0.07238   0.07491
 Alpha virt. eigenvalues --    0.07910   0.08598   0.09040   0.09316   0.09767
 Alpha virt. eigenvalues --    0.09992   0.10064   0.10484   0.10579   0.10840
 Alpha virt. eigenvalues --    0.11115   0.11320   0.11495   0.11696   0.11937
 Alpha virt. eigenvalues --    0.11977   0.12337   0.12372   0.12499   0.12629
 Alpha virt. eigenvalues --    0.12729   0.12887   0.13129   0.13221   0.13619
 Alpha virt. eigenvalues --    0.13765   0.13904   0.14043   0.14520   0.14805
 Alpha virt. eigenvalues --    0.15137   0.15213   0.15332   0.15523   0.15831
 Alpha virt. eigenvalues --    0.16114   0.16888   0.16978   0.17134   0.17502
 Alpha virt. eigenvalues --    0.17805   0.17987   0.18216   0.18546   0.18601
 Alpha virt. eigenvalues --    0.18949   0.19145   0.21153   0.35952   0.36553
 Alpha virt. eigenvalues --    0.36691
     Molecular Orbital Coefficients:
                           1         2         3         4         5
                           O         O         O         O         O
     Eigenvalues --    -1.74278  -1.70234  -1.69986  -1.68881  -1.58956
   1 1   C  1S          0.00003   0.00005  -0.00003  -0.00002   0.12830
   2        1PX        -0.00001  -0.00003   0.00001   0.00001  -0.04194
   3        1PY         0.00000   0.00000  -0.00000  -0.00000  -0.00067
   4        1PZ        -0.00000  -0.00001   0.00000   0.00000  -0.02447
   5 2   C  1S          0.00007   0.00012  -0.00006  -0.00005   0.17721
   6        1PX        -0.00003  -0.00005   0.00002   0.00002  -0.03714
   7        1PY         0.00000  -0.00000   0.00000   0.00000  -0.01846
   8        1PZ        -0.00002  -0.00003   0.00001   0.00001  -0.04627
   9 3   C  1S          0.00020   0.00032  -0.00015  -0.00014   0.30847
  10        1PX        -0.00008  -0.00010   0.00005   0.00004  -0.02261
  11        1PY         0.00003   0.00003  -0.00002  -0.00000  -0.00848
  12        1PZ        -0.00002  -0.00003   0.00001   0.00003  -0.04197
  13 4   C  1S          0.00016   0.00028  -0.00013  -0.00015   0.35418
  14        1PX        -0.00007  -0.00011   0.00005   0.00006  -0.06626
  15        1PY         0.00003   0.00005  -0.00002  -0.00002   0.01768
  16        1PZ         0.00001   0.00001  -0.00000   0.00001  -0.00657
  17 5   C  1S          0.00004   0.00009  -0.00004  -0.00005   0.18991
  18        1PX        -0.00002  -0.00003   0.00001   0.00002  -0.03214
  19        1PY         0.00001   0.00003  -0.00001  -0.00001   0.04447
  20        1PZ         0.00001   0.00002  -0.00001  -0.00001   0.03856
  21 6   C  1S          0.00002   0.00005  -0.00002  -0.00003   0.15085
  22        1PX        -0.00001  -0.00002   0.00001   0.00001  -0.03224
  23        1PY         0.00000   0.00001  -0.00000  -0.00000   0.01424
  24        1PZ         0.00000   0.00000  -0.00000  -0.00000   0.00201
  25 7   C  1S          0.00048   0.00065  -0.00031  -0.00022   0.28134
  26        1PX        -0.00017  -0.00019   0.00009   0.00006   0.00673
  27        1PY         0.00002   0.00001  -0.00001   0.00002  -0.03089
  28        1PZ        -0.00007  -0.00009   0.00004   0.00007  -0.03440
  29 8   C  1S          0.00083   0.00107  -0.00046  -0.00072   0.30637
  30        1PX        -0.00026  -0.00027   0.00010   0.00022   0.08282
  31        1PY         0.00014   0.00014  -0.00006  -0.00006  -0.03440
  32        1PZ         0.00007   0.00009  -0.00005   0.00001   0.02857
  33 9   C  1S          0.00111   0.00134  -0.00061  -0.00062   0.26021
  34        1PX        -0.00039  -0.00040   0.00018   0.00019   0.04599
  35        1PY         0.00010   0.00008  -0.00005   0.00002  -0.03631
  36        1PZ        -0.00005  -0.00007   0.00002   0.00014  -0.00683
  37 10  C  1S          0.00278   0.00293  -0.00138  -0.00091   0.11712
  38        1PX        -0.00108  -0.00107   0.00048   0.00024   0.02894
  39        1PY         0.00001  -0.00006  -0.00002   0.00023  -0.02984
  40        1PZ        -0.00023  -0.00025   0.00009   0.00051  -0.01785
  41 11  H  1S          0.00234   0.00226  -0.00116   0.00028   0.03399
  42 12  C  1S          0.00522   0.00521  -0.00227  -0.00303   0.08656
  43        1PX        -0.00161  -0.00142   0.00059   0.00086   0.02737
  44        1PY         0.00036   0.00020  -0.00022   0.00021  -0.01783
  45        1PZ         0.00073   0.00069  -0.00039   0.00047  -0.00278
  46 13  C  1S          0.00311   0.00345  -0.00119  -0.00333   0.10760
  47        1PX        -0.00077  -0.00080   0.00018   0.00104   0.01737
  48        1PY         0.00051   0.00047  -0.00021  -0.00029  -0.00353
  49        1PZ         0.00036   0.00032  -0.00020   0.00010   0.00740
  50 14  C  1S          0.00109   0.00133  -0.00049  -0.00119   0.13528
  51        1PX        -0.00036  -0.00039   0.00012   0.00043   0.02870
  52        1PY         0.00036   0.00040  -0.00016  -0.00033   0.02005
  53        1PZ         0.00023   0.00027  -0.00012  -0.00015   0.03838
  54 15  H  1S          0.00001   0.00001  -0.00001  -0.00001   0.03178
  55 16  H  1S          0.00003   0.00005  -0.00002  -0.00002   0.05512
  56 17  H  1S          0.00001   0.00003  -0.00001  -0.00002   0.05812
  57 18  H  1S          0.01053   0.00903  -0.00426  -0.00492   0.02045
  58 19  H  1S          0.00028   0.00035  -0.00012  -0.00035   0.03875
  59 20  N  1S          0.00318   0.00364  -0.00089  -0.00466   0.06669
  60        1PX        -0.00024  -0.00024  -0.00005   0.00057   0.01146
  61        1PY         0.00053   0.00053  -0.00015  -0.00064   0.00123
  62        1PZ         0.00079   0.00084  -0.00023  -0.00094   0.01167
  63 21  N  1S          0.00001   0.00002  -0.00001  -0.00001   0.08140
  64        1PX        -0.00000  -0.00000   0.00000   0.00000  -0.01538
  65        1PY         0.00000   0.00000  -0.00000  -0.00000   0.01223
  66        1PZ         0.00000   0.00000  -0.00000  -0.00000   0.00162
  67 22  P  1S          0.35178  -0.04117   0.04285  -0.06470  -0.00109
  68        1PX         0.07432   0.18556  -0.19016   0.12685  -0.00086
  69        1PY         0.00006  -0.22408  -0.20512   0.02065   0.00052
  70        1PZ         0.01856  -0.07603   0.11491   0.26151   0.00087
  71 23  C  1S          0.00032   0.00042  -0.00020  -0.00006   0.16543
  72        1PX        -0.00007  -0.00008   0.00004   0.00000   0.00632
  73        1PY        -0.00003  -0.00004   0.00002   0.00002  -0.01585
  74        1PZ        -0.00006  -0.00008   0.00004   0.00004  -0.02929
  75 24  C  1S          0.00028   0.00034  -0.00016   0.00001   0.08733
  76        1PX        -0.00001   0.00000  -0.00000  -0.00002   0.02504
  77        1PY         0.00001   0.00001  -0.00001  -0.00000   0.01001
  78        1PZ        -0.00008  -0.00009   0.00004   0.00001  -0.01819
  79 25  C  1S          0.00013   0.00018  -0.00009  -0.00002   0.09881
  80        1PX        -0.00005  -0.00006   0.00003   0.00000  -0.02221
  81        1PY        -0.00004  -0.00005   0.00002   0.00001  -0.02468
  82        1PZ        -0.00001  -0.00001   0.00000   0.00001  -0.00191
  83 26  C  1S          0.00012   0.00016  -0.00007   0.00002   0.05368
  84        1PX         0.00000   0.00001  -0.00000  -0.00001   0.01162
  85        1PY        -0.00001  -0.00001   0.00001  -0.00000   0.00024
  86        1PZ        -0.00005  -0.00006   0.00003  -0.00000  -0.01851
  87 27  H  1S          0.00028   0.00031  -0.00012   0.00007   0.02855
  88 28  C  1S          0.00007   0.00010  -0.00005  -0.00000   0.05833
  89        1PX        -0.00002  -0.00003   0.00001  -0.00000  -0.01088
  90        1PY        -0.00002  -0.00003   0.00002   0.00000  -0.01740
  91        1PZ        -0.00001  -0.00002   0.00001   0.00000  -0.01092
  92 29  H  1S          0.00004   0.00006  -0.00003  -0.00001   0.03421
  93 30  C  1S          0.00006   0.00009  -0.00004   0.00000   0.04645
  94        1PX        -0.00001  -0.00001   0.00000  -0.00000   0.00119
  95        1PY        -0.00002  -0.00002   0.00001  -0.00000  -0.00951
  96        1PZ        -0.00003  -0.00004   0.00002   0.00000  -0.01700
  97 31  H  1S          0.00006   0.00006  -0.00003   0.00002   0.01223
  98 32  H  1S          0.00001   0.00002  -0.00001  -0.00000   0.01418
  99 33  H  1S          0.00001   0.00002  -0.00001   0.00000   0.01035
 100 34  F  1S          0.39158  -0.19672  -0.57440  -0.24935  -0.00510
 101        1PX        -0.02082   0.02927   0.01829   0.02657   0.00018
 102        1PY        -0.06050   0.00494   0.05816   0.03391   0.00040
 103        1PZ         0.03962  -0.02348  -0.03893   0.00393  -0.00025
 104 35  F  1S          0.51751   0.51489  -0.17737   0.24005  -0.00265
 105        1PX        -0.08331  -0.06126   0.00871  -0.02153   0.00081
 106        1PY         0.03267   0.00779  -0.02996   0.01408  -0.00022
 107        1PZ        -0.00733  -0.01346   0.01339   0.02233  -0.00023
 108 36  F  1S          0.42906  -0.48598   0.05736   0.54000   0.00416
 109        1PX         0.00581   0.01626  -0.01643   0.01090  -0.00008
 110        1PY        -0.03828   0.01894  -0.02175  -0.03834  -0.00012
 111        1PZ        -0.06651   0.06041   0.00242  -0.04723  -0.00019
 112 37  F  1S          0.33239   0.17923   0.68021  -0.00556  -0.00370
 113        1PX         0.02813   0.02754   0.02090   0.01115  -0.00019
 114        1PY         0.05557   0.00764   0.08177   0.00060  -0.00025
 115        1PZ        -0.02239  -0.01795  -0.03088   0.02420   0.00018
 116 38  F  1S          0.27476   0.26303   0.02727  -0.52443   0.00083
 117        1PX         0.00709   0.01655  -0.01697   0.01087   0.00032
 118        1PY         0.02672   0.00334  -0.01629  -0.04130  -0.00030
 119        1PZ         0.05296   0.03743   0.01452  -0.05869  -0.00066
 120 39  F  1S          0.22096  -0.49881   0.24655  -0.45510   0.00072
 121        1PX         0.04694  -0.06583   0.02365  -0.06027  -0.00001
 122        1PY        -0.01256   0.00565  -0.02994   0.02365   0.00003
 123        1PZ         0.01076  -0.02554   0.01916   0.00642   0.00010
 124 40  C  1S          0.00405   0.00430  -0.00072  -0.00637   0.02741
 125        1PX         0.00016   0.00019  -0.00024   0.00020   0.01291
 126        1PY        -0.00020  -0.00031  -0.00004   0.00039  -0.00699
 127        1PZ         0.00146   0.00149  -0.00015  -0.00231   0.00116
 128 41  H  1S          0.00724   0.00726  -0.00023  -0.01199   0.00944
 129 42  H  1S          0.00206   0.00189  -0.00061  -0.00291   0.00978
 130 43  H  1S          0.00114   0.00122  -0.00015  -0.00198   0.00647
 131 44  C  1S          0.00087   0.00106  -0.00023  -0.00143   0.02582
 132        1PX         0.00001   0.00002  -0.00003   0.00001   0.00493
 133        1PY         0.00041   0.00048  -0.00011  -0.00065   0.00905
 134        1PZ         0.00033   0.00039  -0.00009  -0.00051   0.00828
 135 45  H  1S          0.00028   0.00035  -0.00009  -0.00043   0.01334
 136 46  H  1S          0.00029   0.00035  -0.00007  -0.00048   0.00722
 137 47  H  1S          0.00026   0.00032  -0.00007  -0.00044   0.00726
 138 48  C  1S          0.00000   0.00001  -0.00000  -0.00000   0.03754
 139        1PX        -0.00000  -0.00000   0.00000   0.00000  -0.00506
 140        1PY         0.00000   0.00000  -0.00000  -0.00000   0.00969
 141        1PZ         0.00000   0.00000  -0.00000  -0.00000   0.01483
 142 49  H  1S          0.00000   0.00000  -0.00000  -0.00000   0.00947
 143 50  H  1S          0.00000   0.00001  -0.00000  -0.00000   0.01886
 144 51  H  1S          0.00000   0.00000  -0.00000  -0.00000   0.01076
 145 52  C  1S          0.00000   0.00001  -0.00000  -0.00000   0.03497
 146        1PX        -0.00000  -0.00000   0.00000   0.00000  -0.01700
 147        1PY         0.00000  -0.00000   0.00000   0.00000  -0.00279
 148        1PZ        -0.00000  -0.00000   0.00000   0.00000  -0.00404
 149 53  H  1S          0.00000   0.00000  -0.00000  -0.00000   0.01374
 150 54  H  1S          0.00000   0.00000  -0.00000  -0.00000   0.01032
 151 55  H  1S          0.00000   0.00000  -0.00000  -0.00000   0.00972
 152 56  O  1S          0.00028   0.00048  -0.00021  -0.00032   0.48575
 153        1PX        -0.00007  -0.00009   0.00004   0.00007   0.00529
 154        1PY         0.00009   0.00013  -0.00006  -0.00008   0.08834
 155        1PZ         0.00006   0.00009  -0.00004  -0.00005   0.09026
                           6         7         8         9        10
                           O         O         O         O         O
     Eigenvalues --    -1.54441  -1.53808  -1.51128  -1.49917  -1.48556
   1 1   C  1S         -0.00147  -0.00691  -0.19452  -0.03241   0.19438
   2        1PX         0.00036   0.00166   0.03391  -0.00400  -0.01448
   3        1PY         0.00007   0.00031   0.01493   0.01423  -0.02456
   4        1PZ         0.00032   0.00145   0.04480   0.02022  -0.05144
   5 2   C  1S         -0.00153  -0.00735  -0.16676   0.03820   0.11661
   6        1PX         0.00013   0.00065  -0.00197  -0.02793   0.02310
   7        1PY         0.00025   0.00105   0.02961   0.01963  -0.02696
   8        1PZ         0.00043   0.00185   0.04161   0.01201  -0.02753
   9 3   C  1S         -0.00196  -0.00889  -0.14265   0.05983   0.03064
  10        1PX        -0.00025  -0.00118  -0.05212  -0.02645   0.05673
  11        1PY         0.00027   0.00074   0.01942   0.05070  -0.00740
  12        1PZ         0.00033   0.00084   0.00527   0.05157   0.01882
  13 4   C  1S         -0.00267  -0.00992  -0.13875  -0.13159  -0.03961
  14        1PX         0.00012  -0.00064  -0.06875   0.03644   0.12067
  15        1PY         0.00004   0.00006   0.00870   0.02644  -0.00820
  16        1PZ         0.00007  -0.00042  -0.02592   0.05317   0.04890
  17 5   C  1S         -0.00198  -0.00830  -0.19767  -0.10289   0.14300
  18        1PX         0.00011   0.00000  -0.03208   0.01001   0.07853
  19        1PY        -0.00038  -0.00156  -0.02882  -0.01401   0.00737
  20        1PZ        -0.00040  -0.00180  -0.04516  -0.00969   0.03714
  21 6   C  1S         -0.00194  -0.00892  -0.27338  -0.09345   0.31087
  22        1PX         0.00021   0.00076  -0.00263  -0.00042   0.04442
  23        1PY        -0.00010  -0.00045  -0.00459   0.00514  -0.00928
  24        1PZ         0.00002   0.00006   0.00720   0.01324  -0.01718
  25 7   C  1S         -0.00050  -0.00393  -0.00811   0.21920  -0.03671
  26        1PX        -0.00052  -0.00204  -0.04762  -0.00802   0.01222
  27        1PY         0.00031   0.00071   0.00840   0.04330   0.00711
  28        1PZ         0.00011  -0.00044  -0.01965   0.07064   0.01665
  29 8   C  1S         -0.00005   0.00487   0.19134  -0.09740  -0.11789
  30        1PX        -0.00105  -0.00480  -0.04304  -0.05435  -0.10204
  31        1PY         0.00050   0.00123   0.00117   0.05374   0.05144
  32        1PZ        -0.00002  -0.00103  -0.01089   0.02621  -0.00740
  33 9   C  1S          0.00078   0.00338   0.13320   0.08643  -0.04008
  34        1PX        -0.00082  -0.00331  -0.04179   0.01612  -0.03453
  35        1PY         0.00033   0.00026  -0.00909   0.02997   0.02328
  36        1PZ        -0.00004  -0.00174  -0.03492   0.05875   0.00624
  37 10  C  1S          0.00297   0.00775   0.14900   0.06122   0.04532
  38        1PX        -0.00094  -0.00168  -0.00914   0.02103  -0.02344
  39        1PY        -0.00003  -0.00165  -0.03271  -0.00521  -0.00558
  40        1PZ        -0.00017  -0.00310  -0.04560   0.01038  -0.02062
  41 11  H  1S          0.00229   0.00114   0.03581   0.03176   0.01096
  42 12  C  1S          0.00391   0.01682   0.22134   0.01450   0.13304
  43        1PX        -0.00034  -0.00060   0.02525   0.00888  -0.00469
  44        1PY        -0.00003  -0.00348  -0.05224   0.00341  -0.03411
  45        1PZ         0.00065  -0.00366  -0.04091   0.01025  -0.03892
  46 13  C  1S          0.00295   0.02780   0.37276  -0.01620   0.26962
  47        1PX        -0.00030  -0.00559  -0.03668  -0.00156  -0.07016
  48        1PY         0.00023  -0.00020  -0.01209   0.00688  -0.00729
  49        1PZ         0.00022  -0.00268  -0.02787   0.00679  -0.04238
  50 14  C  1S          0.00128   0.01330   0.24046  -0.04370   0.07819
  51        1PX        -0.00055  -0.00449  -0.03991  -0.01786  -0.07851
  52        1PY         0.00043   0.00319   0.04954   0.00180   0.02881
  53        1PZ         0.00019   0.00123   0.03450  -0.00738  -0.00941
  54 15  H  1S         -0.00040  -0.00189  -0.05733  -0.01077   0.06406
  55 16  H  1S         -0.00040  -0.00215  -0.04585   0.03707   0.03004
  56 17  H  1S         -0.00059  -0.00237  -0.05344  -0.03686   0.03411
  57 18  H  1S          0.00407   0.00993   0.06546   0.00333   0.04653
  58 19  H  1S          0.00032   0.00405   0.07174  -0.01643   0.02532
  59 20  N  1S          0.00243   0.03604   0.40963  -0.02072   0.38516
  60        1PX         0.00034   0.00033   0.03210  -0.00222   0.01652
  61        1PY         0.00012   0.00179   0.00724   0.00118   0.00686
  62        1PZ         0.00044   0.00483   0.05063  -0.00136   0.04040
  63 21  N  1S         -0.00142  -0.00682  -0.26180  -0.10208   0.38896
  64        1PX         0.00019   0.00085   0.02318   0.00834  -0.01997
  65        1PY        -0.00018  -0.00088  -0.03052  -0.01017   0.04036
  66        1PZ        -0.00000  -0.00002   0.00236   0.00355  -0.00848
  67 22  P  1S         -0.00141   0.00335  -0.00320  -0.00014  -0.00234
  68        1PX        -0.01360   0.00452  -0.00147  -0.00022  -0.00085
  69        1PY         0.00495  -0.01585   0.00247   0.00002   0.00160
  70        1PZ         0.00048  -0.02539   0.00439  -0.00008   0.00293
  71 23  C  1S          0.00004  -0.00355  -0.02798   0.40625  -0.00901
  72        1PX        -0.00019  -0.00058  -0.01284   0.00535   0.00334
  73        1PY         0.00007   0.00009  -0.00155   0.03089   0.00212
  74        1PZ         0.00009   0.00009  -0.00470   0.04180   0.00380
  75 24  C  1S          0.00032  -0.00202  -0.01408   0.31971  -0.00567
  76        1PX        -0.00006  -0.00068  -0.00714   0.08139  -0.00138
  77        1PY         0.00002  -0.00035  -0.00400   0.06328  -0.00033
  78        1PZ        -0.00003   0.00010  -0.00274  -0.00279   0.00154
  79 25  C  1S         -0.00003  -0.00287  -0.03336   0.34877  -0.00020
  80        1PX        -0.00005   0.00049   0.00280  -0.07870   0.00263
  81        1PY         0.00004   0.00056   0.00588  -0.03778  -0.00002
  82        1PZ         0.00005  -0.00015  -0.00255   0.05485  -0.00012
  83 26  C  1S          0.00020  -0.00167  -0.01691   0.28986  -0.00303
  84        1PX        -0.00000  -0.00039  -0.00474   0.06174  -0.00043
  85        1PY        -0.00001  -0.00008  -0.00164   0.01643   0.00016
  86        1PZ        -0.00006   0.00046   0.00369  -0.07233   0.00105
  87 27  H  1S          0.00033  -0.00052  -0.00047   0.08397  -0.00181
  88 28  C  1S          0.00006  -0.00199  -0.02426   0.30853  -0.00092
  89        1PX        -0.00003   0.00034   0.00338  -0.06102   0.00086
  90        1PY        -0.00001   0.00053   0.00617  -0.07387   0.00021
  91        1PZ         0.00001   0.00030   0.00345  -0.02815  -0.00023
  92 29  H  1S         -0.00006  -0.00100  -0.01314   0.09265   0.00202
  93 30  C  1S          0.00011  -0.00162  -0.01891   0.28001  -0.00195
  94        1PX        -0.00002  -0.00006  -0.00124   0.00573   0.00028
  95        1PY        -0.00003   0.00029   0.00291  -0.04811   0.00052
  96        1PZ        -0.00003   0.00054   0.00613  -0.08575   0.00055
  97 31  H  1S          0.00008  -0.00040  -0.00384   0.07012  -0.00076
  98 32  H  1S          0.00001  -0.00051  -0.00643   0.07844  -0.00006
  99 33  H  1S          0.00003  -0.00038  -0.00455   0.06824  -0.00047
 100 34  F  1S         -0.47990  -0.31806   0.01886   0.00033   0.00712
 101        1PX         0.00797   0.00484   0.00010   0.00001   0.00020
 102        1PY         0.01797   0.00738   0.00012   0.00000   0.00028
 103        1PZ        -0.01254  -0.01243   0.00045  -0.00003   0.00009
 104 35  F  1S          0.50031  -0.21021   0.00336  -0.00218   0.00113
 105        1PX        -0.01781   0.00611   0.00162   0.00044   0.00110
 106        1PY         0.00709  -0.00600  -0.00018  -0.00010  -0.00018
 107        1PZ         0.00033  -0.00573  -0.00041  -0.00009  -0.00036
 108 36  F  1S         -0.04240   0.44288  -0.02220   0.00084  -0.00903
 109        1PX        -0.00196   0.00065  -0.00017  -0.00002  -0.00010
 110        1PY         0.00093  -0.00979   0.00040   0.00000   0.00012
 111        1PZ         0.00161  -0.01499   0.00059  -0.00001   0.00017
 112 37  F  1S         -0.46788  -0.30044   0.02019   0.00050   0.00825
 113        1PX        -0.00841  -0.00401  -0.00002  -0.00003  -0.00010
 114        1PY        -0.02046  -0.01455   0.00067   0.00001   0.00016
 115        1PZ         0.00709  -0.00155   0.00056  -0.00001   0.00044
 116 38  F  1S         -0.05474   0.70820  -0.05067   0.00132  -0.02576
 117        1PX        -0.00038   0.00139   0.00162  -0.00001   0.00145
 118        1PY        -0.00161   0.01540  -0.00255   0.00006  -0.00187
 119        1PZ        -0.00272   0.02983  -0.00522   0.00008  -0.00383
 120 39  F  1S          0.54132  -0.24171   0.01042  -0.00133   0.00519
 121        1PX         0.02723  -0.01083   0.00010  -0.00004  -0.00008
 122        1PY        -0.00771   0.00098   0.00024   0.00000   0.00020
 123        1PZ         0.00807  -0.00688   0.00062  -0.00002   0.00037
 124 40  C  1S          0.00075   0.02437   0.18355  -0.00777   0.17951
 125        1PX         0.00067   0.00493   0.07749  -0.00332   0.07239
 126        1PY        -0.00028  -0.00431  -0.04959   0.00262  -0.04900
 127        1PZ        -0.00012   0.00364  -0.00091   0.00055  -0.00327
 128 41  H  1S         -0.00068   0.02305   0.05713  -0.00211   0.05513
 129 42  H  1S          0.00013   0.00874   0.05905  -0.00209   0.05608
 130 43  H  1S          0.00010   0.00695   0.04699  -0.00214   0.04728
 131 44  C  1S          0.00085   0.01347   0.16266  -0.01033   0.15512
 132        1PX         0.00012   0.00099   0.01817  -0.00166   0.01309
 133        1PY         0.00033   0.00536   0.06099  -0.00317   0.05925
 134        1PZ         0.00028   0.00415   0.04858  -0.00273   0.04503
 135 45  H  1S          0.00033   0.00472   0.06244  -0.00523   0.05330
 136 46  H  1S          0.00023   0.00402   0.04670  -0.00294   0.04506
 137 47  H  1S          0.00024   0.00403   0.04779  -0.00300   0.04634
 138 48  C  1S         -0.00066  -0.00317  -0.12349  -0.05141   0.18693
 139        1PX         0.00006   0.00024   0.00589   0.00275  -0.00365
 140        1PY        -0.00016  -0.00078  -0.02960  -0.01180   0.04342
 141        1PZ        -0.00026  -0.00126  -0.04908  -0.01947   0.07383
 142 49  H  1S         -0.00017  -0.00083  -0.03281  -0.01378   0.05063
 143 50  H  1S         -0.00029  -0.00134  -0.04745  -0.02074   0.06574
 144 51  H  1S         -0.00019  -0.00094  -0.03727  -0.01550   0.05749
 145 52  C  1S         -0.00064  -0.00310  -0.12319  -0.04673   0.18962
 146        1PX         0.00029   0.00139   0.05263   0.01964  -0.07710
 147        1PY         0.00006   0.00031   0.01370   0.00591  -0.02297
 148        1PZ         0.00009   0.00042   0.01782   0.00775  -0.02930
 149 53  H  1S         -0.00023  -0.00114  -0.04364  -0.01585   0.06503
 150 54  H  1S         -0.00018  -0.00089  -0.03454  -0.01262   0.05236
 151 55  H  1S         -0.00019  -0.00091  -0.03712  -0.01454   0.05878
 152 56  O  1S         -0.00284  -0.00639   0.07515  -0.31150  -0.36559
 153        1PX        -0.00039  -0.00236  -0.05598  -0.00585   0.01490
 154        1PY        -0.00036  -0.00051   0.02558  -0.03812  -0.05722
 155        1PZ        -0.00054  -0.00168  -0.00311  -0.03688  -0.04770
                          11        12        13        14        15
                           O         O         O         O         O
     Eigenvalues --    -1.40922  -1.39249  -1.30202  -1.23151  -1.19118
   1 1   C  1S         -0.15201  -0.05387  -0.20276  -0.24931   0.15779
   2        1PX         0.09115   0.03343   0.04336   0.04605  -0.00732
   3        1PY        -0.03743  -0.00791   0.00852  -0.05302  -0.00387
   4        1PZ        -0.01436   0.00174   0.03237  -0.04684  -0.01101
   5 2   C  1S         -0.30407  -0.06702  -0.08851  -0.33800   0.05913
   6        1PX         0.04574  -0.00987  -0.07745  -0.02266   0.05436
   7        1PY         0.02711   0.01795   0.04861   0.01290  -0.03031
   8        1PZ         0.05917   0.01884   0.02780   0.00733  -0.00891
   9 3   C  1S         -0.34649  -0.01304   0.12063  -0.11501  -0.05503
  10        1PX        -0.04725  -0.07047  -0.11952  -0.08160   0.01808
  11        1PY        -0.00470   0.05153   0.07121  -0.04878  -0.00083
  12        1PZ        -0.01383   0.02900   0.02517  -0.10254   0.02397
  13 4   C  1S         -0.13059  -0.19261  -0.04956   0.26969  -0.10403
  14        1PX        -0.09675   0.00428  -0.10352   0.05618  -0.00001
  15        1PY        -0.04348   0.03962   0.05199  -0.09285   0.00726
  16        1PZ        -0.11370   0.04870   0.01754  -0.09077   0.00890
  17 5   C  1S         -0.07157  -0.13556  -0.19883   0.36196  -0.05679
  18        1PX         0.03064   0.04994  -0.01869  -0.05174   0.04096
  19        1PY        -0.04195  -0.03262  -0.02968   0.03055  -0.00682
  20        1PZ        -0.04830  -0.02126  -0.04739   0.00813   0.01246
  21 6   C  1S          0.03247  -0.00991  -0.17530   0.07071   0.07797
  22        1PX         0.12210   0.07917   0.09543  -0.10155   0.01610
  23        1PY        -0.06498  -0.02737  -0.04493  -0.04971   0.02977
  24        1PZ        -0.06779  -0.01936  -0.03996  -0.10942   0.05272
  25 7   C  1S         -0.19905   0.23063   0.33428   0.03494  -0.00041
  26        1PX        -0.05441  -0.08259   0.01323  -0.08730  -0.04984
  27        1PY         0.03588   0.00565   0.00111   0.01698  -0.00453
  28        1PZ         0.01778  -0.04566   0.02219  -0.01815   0.02040
  29 8   C  1S          0.13655   0.18586  -0.11463  -0.23203   0.08076
  30        1PX         0.05012  -0.08955   0.10954   0.02415   0.00266
  31        1PY        -0.06980   0.08618  -0.00846   0.08014  -0.02375
  32        1PZ        -0.04334   0.05979   0.05059   0.09157  -0.01728
  33 9   C  1S         -0.06642   0.38493   0.05072   0.12154   0.01775
  34        1PX        -0.03553  -0.03089   0.13769  -0.04035   0.01368
  35        1PY        -0.01610   0.01186  -0.00205   0.06606  -0.01803
  36        1PZ        -0.04546   0.00676   0.09554   0.06632   0.00425
  37 10  C  1S         -0.02685   0.31489  -0.17708   0.25006  -0.06722
  38        1PX        -0.01133   0.04048   0.06339  -0.00804   0.03373
  39        1PY         0.00331  -0.05637   0.02385  -0.01021   0.00161
  40        1PZ        -0.00224  -0.04605   0.07077  -0.01538   0.03131
  41 11  H  1S         -0.00760   0.08862  -0.04042   0.09089  -0.00970
  42 12  C  1S         -0.01287   0.18592  -0.25052   0.17611  -0.12064
  43        1PX         0.00075   0.09159  -0.06654   0.03298  -0.01177
  44        1PY        -0.00088  -0.00817   0.03278   0.02156   0.00484
  45        1PZ        -0.00107   0.04751  -0.00523   0.05093  -0.00285
  46 13  C  1S         -0.00758   0.00805  -0.17261  -0.05405  -0.04460
  47        1PX         0.02575   0.11932  -0.11763  -0.07417   0.01253
  48        1PY        -0.00697   0.02840  -0.01998   0.07726  -0.03679
  49        1PZ         0.00604   0.09657  -0.08708   0.04505  -0.03294
  50 14  C  1S          0.06892   0.11366  -0.22660  -0.27715   0.05818
  51        1PX         0.03591   0.03130   0.00303  -0.04317   0.02679
  52        1PY        -0.00234   0.03840  -0.05052  -0.00471  -0.01066
  53        1PZ         0.01623   0.05830  -0.05191  -0.02862   0.00389
  54 15  H  1S         -0.02387  -0.00530  -0.05124  -0.09413   0.05660
  55 16  H  1S         -0.08884  -0.01725  -0.00929  -0.13040   0.00027
  56 17  H  1S         -0.00017  -0.04306  -0.04939   0.13667  -0.03058
  57 18  H  1S         -0.00606   0.03185  -0.05588   0.06162  -0.03875
  58 19  H  1S          0.02350   0.01262  -0.05282  -0.09926   0.02745
  59 20  N  1S         -0.05498  -0.32367   0.24063   0.03516   0.02442
  60        1PX         0.00540   0.02957  -0.07178  -0.04883  -0.00544
  61        1PY        -0.00281   0.00568  -0.01204   0.03861  -0.02762
  62        1PZ        -0.00342  -0.00035  -0.03233   0.01128  -0.02462
  63 21  N  1S          0.39262   0.19874   0.18655  -0.03888  -0.02852
  64        1PX         0.02668   0.02236   0.06395  -0.06336  -0.01144
  65        1PY         0.01811   0.00927  -0.01036  -0.02450   0.02560
  66        1PZ        -0.03682  -0.01707  -0.04188  -0.03893   0.04538
  67 22  P  1S          0.00031   0.00017   0.00016  -0.00168   0.00062
  68        1PX         0.00009  -0.00061   0.00058  -0.00072   0.00021
  69        1PY        -0.00018  -0.00034   0.00013   0.00074  -0.00024
  70        1PZ        -0.00032  -0.00104   0.00062   0.00088  -0.00027
  71 23  C  1S          0.01610   0.02892   0.19651   0.02304   0.04700
  72        1PX        -0.01925  -0.01992   0.01121  -0.07375  -0.16999
  73        1PY         0.05008  -0.04622  -0.05153  -0.02644  -0.10422
  74        1PZ         0.08319  -0.08175  -0.09150   0.00597   0.06246
  75 24  C  1S          0.11458  -0.04988   0.00743   0.12860   0.44124
  76        1PX         0.01741  -0.01243   0.02077  -0.00346  -0.00454
  77        1PY         0.03830  -0.03020  -0.02866   0.00838   0.03347
  78        1PZ         0.03976  -0.04832  -0.07415   0.00541   0.07807
  79 25  C  1S          0.09607  -0.09278   0.01502  -0.11463  -0.38526
  80        1PX        -0.02381   0.00693  -0.01736  -0.01795  -0.03141
  81        1PY         0.02491  -0.02070  -0.05896  -0.00750  -0.07165
  82        1PZ         0.05980  -0.05193  -0.06983  -0.01412  -0.07737
  83 26  C  1S          0.17704  -0.13437  -0.15215   0.09404   0.38896
  84        1PX         0.03654  -0.03247  -0.03486  -0.00899  -0.03491
  85        1PY         0.02049  -0.02222  -0.03829  -0.01851  -0.07411
  86        1PZ        -0.02536   0.01192  -0.00799  -0.02506  -0.08669
  87 27  H  1S          0.02313   0.00248   0.01180   0.05045   0.15283
  88 28  C  1S          0.17591  -0.16004  -0.15865  -0.09700  -0.40209
  89        1PX        -0.03915   0.03034   0.03685  -0.01049  -0.03221
  90        1PY        -0.03001   0.02606   0.01113   0.01037   0.02866
  91        1PZ         0.00696  -0.00487  -0.03704   0.02479   0.08664
  92 29  H  1S          0.00793  -0.01969   0.01684  -0.05156  -0.13835
  93 30  C  1S          0.19103  -0.16428  -0.21104  -0.00320  -0.02021
  94        1PX         0.00174  -0.00547  -0.00285  -0.03323  -0.14418
  95        1PY        -0.02695   0.01976   0.01901  -0.02121  -0.09495
  96        1PZ        -0.04607   0.03871   0.03374   0.01166   0.05316
  97 31  H  1S          0.04640  -0.03507  -0.04470   0.03237   0.13777
  98 32  H  1S          0.04733  -0.04479  -0.04827  -0.03569  -0.15008
  99 33  H  1S          0.05128  -0.04493  -0.06441  -0.00072  -0.00520
 100 34  F  1S         -0.00032  -0.00102   0.00068   0.00021   0.00010
 101        1PX        -0.00004   0.00006  -0.00017   0.00043  -0.00022
 102        1PY        -0.00005  -0.00013   0.00013   0.00017  -0.00000
 103        1PZ         0.00002  -0.00016   0.00023  -0.00035   0.00019
 104 35  F  1S          0.00011  -0.00401   0.00296  -0.00246   0.00096
 105        1PX        -0.00017   0.00126  -0.00137   0.00245  -0.00077
 106        1PY         0.00003  -0.00026   0.00034  -0.00047   0.00018
 107        1PZ         0.00009  -0.00086   0.00127  -0.00155   0.00098
 108 36  F  1S          0.00043   0.00204  -0.00097  -0.00010  -0.00003
 109        1PX         0.00001  -0.00007   0.00008  -0.00012   0.00005
 110        1PY        -0.00000   0.00007  -0.00009   0.00009  -0.00004
 111        1PZ         0.00000   0.00008  -0.00011   0.00008  -0.00004
 112 37  F  1S         -0.00048  -0.00045  -0.00004   0.00123  -0.00040
 113        1PX         0.00002  -0.00007   0.00009  -0.00024   0.00009
 114        1PY         0.00001   0.00001   0.00002  -0.00024   0.00010
 115        1PZ        -0.00006  -0.00016   0.00009   0.00029  -0.00010
 116 38  F  1S          0.00198   0.00579  -0.00199  -0.00422   0.00158
 117        1PX        -0.00025  -0.00039  -0.00012   0.00178  -0.00092
 118        1PY         0.00026   0.00102  -0.00082  -0.00106   0.00031
 119        1PZ         0.00055   0.00186  -0.00137  -0.00253   0.00086
 120 39  F  1S         -0.00032  -0.00187   0.00078   0.00039  -0.00017
 121        1PX         0.00003   0.00010  -0.00008  -0.00020   0.00009
 122        1PY        -0.00003  -0.00010   0.00007   0.00015  -0.00006
 123        1PZ        -0.00004  -0.00010   0.00004   0.00013  -0.00005
 124 40  C  1S         -0.03145  -0.16713   0.15359   0.08932  -0.00896
 125        1PX        -0.01083  -0.05581   0.03850   0.01755  -0.00352
 126        1PY         0.00814   0.05036  -0.04719  -0.00835  -0.00752
 127        1PZ         0.00122   0.01445  -0.02136   0.00274  -0.00864
 128 41  H  1S         -0.00952  -0.04647   0.04056   0.03192  -0.00663
 129 42  H  1S         -0.00953  -0.04489   0.03756   0.03357  -0.00880
 130 43  H  1S         -0.00884  -0.05003   0.05201   0.02634   0.00101
 131 44  C  1S         -0.02115  -0.15771   0.14749  -0.02812   0.06086
 132        1PX         0.00087  -0.00286  -0.00856  -0.01764   0.00389
 133        1PY        -0.00934  -0.05724   0.05047   0.00665   0.00824
 134        1PZ        -0.00585  -0.03793   0.02771  -0.00189   0.00568
 135 45  H  1S         -0.00325  -0.04449   0.03192  -0.03053   0.02485
 136 46  H  1S         -0.00648  -0.04790   0.04771  -0.00710   0.02016
 137 47  H  1S         -0.00678  -0.04982   0.04990  -0.00624   0.02015
 138 48  C  1S          0.21909   0.10756   0.13494   0.04549  -0.08441
 139        1PX         0.00901   0.00864   0.01958  -0.02511  -0.00090
 140        1PY         0.04391   0.02151   0.02066   0.00125  -0.00563
 141        1PZ         0.07903   0.04000   0.04141  -0.00275  -0.01057
 142 49  H  1S          0.06323   0.03158   0.04337   0.01278  -0.02907
 143 50  H  1S          0.06652   0.02745   0.03047   0.04151  -0.03252
 144 51  H  1S          0.07089   0.03574   0.04825   0.00868  -0.02887
 145 52  C  1S          0.20843   0.11387   0.12980  -0.12029   0.00978
 146        1PX        -0.07102  -0.03692  -0.02925   0.02027  -0.00477
 147        1PY        -0.03334  -0.01761  -0.02508   0.00291   0.00929
 148        1PZ        -0.04167  -0.02161  -0.03098  -0.00033   0.01371
 149 53  H  1S          0.06341   0.03504   0.03557  -0.04779   0.01037
 150 54  H  1S          0.05372   0.03001   0.03247  -0.04365   0.00892
 151 55  H  1S          0.07202   0.03942   0.05169  -0.03770  -0.00431
 152 56  O  1S          0.34404  -0.25729   0.07531  -0.04031   0.01779
 153        1PX        -0.05044  -0.07464   0.01271   0.19250  -0.06977
 154        1PY         0.04105   0.00487   0.01560  -0.05401   0.01709
 155        1PZ         0.00819  -0.02808   0.02658   0.04378  -0.01901
                          16        17        18        19        20
                           O         O         O         O         O
     Eigenvalues --    -1.17460  -1.17072  -1.15399  -1.09573  -1.08049
   1 1   C  1S         -0.07640   0.27256   0.20125  -0.06085   0.02125
   2        1PX         0.02490  -0.00057   0.03516   0.07537  -0.03627
   3        1PY        -0.04835   0.00170  -0.05907  -0.04381   0.04460
   4        1PZ        -0.05321  -0.00471  -0.07213  -0.03880   0.04825
   5 2   C  1S         -0.18388   0.11250  -0.11940  -0.18223   0.12184
   6        1PX         0.00932   0.11304   0.11893  -0.02048   0.01074
   7        1PY         0.01271  -0.02160  -0.03122   0.00493  -0.00353
   8        1PZ         0.01927   0.02399   0.00939  -0.00835   0.00352
   9 3   C  1S         -0.16034  -0.21543  -0.24233   0.01520  -0.00454
  10        1PX        -0.03191   0.06412  -0.04769  -0.06690   0.07272
  11        1PY         0.00779   0.02000   0.01209  -0.02651  -0.02069
  12        1PZ         0.00131   0.07509  -0.00916  -0.07403   0.01530
  13 4   C  1S          0.00466  -0.16643  -0.16274   0.17715   0.03958
  14        1PX         0.09621  -0.05860   0.03599   0.00099  -0.02063
  15        1PY        -0.07657  -0.04358  -0.02779  -0.01683  -0.01752
  16        1PZ        -0.05879  -0.08915  -0.03273  -0.01530  -0.02766
  17 5   C  1S          0.26913  -0.10456   0.08338   0.04512  -0.04113
  18        1PX         0.04267   0.03820   0.10941  -0.09003  -0.05364
  19        1PY         0.00184  -0.01680  -0.01254   0.04209   0.00407
  20        1PZ         0.01497  -0.00018   0.03168   0.01976  -0.01765
  21 6   C  1S          0.17325   0.10425   0.28583  -0.01316  -0.12306
  22        1PX        -0.08205   0.04632  -0.01032   0.03694  -0.00777
  23        1PY        -0.02937   0.05028   0.02621   0.02936   0.01017
  24        1PZ        -0.06789   0.09489   0.04297   0.04493   0.01069
  25 7   C  1S          0.02934  -0.09108   0.06340   0.04551  -0.10618
  26        1PX        -0.01169  -0.03217  -0.15227  -0.00106  -0.00315
  27        1PY         0.07504   0.09779   0.02518  -0.00873   0.02220
  28        1PZ         0.11499   0.12595  -0.09010  -0.01170   0.02718
  29 8   C  1S          0.09155  -0.15280   0.18758  -0.08544  -0.12724
  30        1PX        -0.09308   0.08501   0.03758  -0.03497   0.00008
  31        1PY        -0.03805  -0.05080   0.04440   0.03103   0.00389
  32        1PZ        -0.09217  -0.01599   0.08223   0.01061   0.00039
  33 9   C  1S         -0.10992  -0.10490   0.33351  -0.00998  -0.01782
  34        1PX         0.02724  -0.09049   0.02250   0.02493  -0.10633
  35        1PY        -0.02013   0.07477  -0.01480   0.00453   0.06870
  36        1PZ        -0.00184   0.03972  -0.00455   0.02340   0.01776
  37 10  C  1S         -0.21193   0.21336   0.05484  -0.04137   0.25716
  38        1PX         0.02580  -0.07310   0.12831   0.00494  -0.03131
  39        1PY         0.00834   0.01334  -0.02690  -0.00028   0.00510
  40        1PZ         0.03068  -0.02490   0.03880   0.00356  -0.01347
  41 11  H  1S         -0.06605   0.08631   0.01589  -0.01547   0.09947
  42 12  C  1S         -0.16535   0.24700  -0.23992  -0.01458   0.07579
  43        1PX        -0.02405   0.01998   0.01770  -0.00061   0.09104
  44        1PY        -0.03289   0.01789   0.05201  -0.01941   0.04312
  45        1PZ        -0.05760   0.04138   0.06464  -0.02345   0.11122
  46 13  C  1S          0.12131  -0.01591  -0.29362   0.09753  -0.09842
  47        1PX         0.09206  -0.07113  -0.01920   0.02062   0.05688
  48        1PY        -0.09712   0.09974  -0.03809  -0.03416  -0.05388
  49        1PZ        -0.05523   0.06960  -0.04990  -0.02282  -0.00199
  50 14  C  1S          0.30726  -0.21724  -0.09601   0.05294  -0.03912
  51        1PX        -0.01330  -0.00361   0.09735  -0.06562  -0.04148
  52        1PY         0.01551  -0.01128  -0.03980   0.01431  -0.02784
  53        1PZ         0.01133  -0.01634   0.01057  -0.01716  -0.04083
  54 15  H  1S         -0.03840   0.10751   0.07329   0.01542   0.00522
  55 16  H  1S         -0.05121   0.05765  -0.05114  -0.07442   0.04997
  56 17  H  1S          0.09492  -0.04058   0.00873  -0.00078  -0.00096
  57 18  H  1S         -0.06657   0.09205  -0.07611  -0.01616  -0.00663
  58 19  H  1S          0.11294  -0.07933  -0.01851   0.02196   0.02680
  59 20  N  1S         -0.04828  -0.00347   0.10953  -0.01097  -0.01472
  60        1PX         0.09859  -0.05040  -0.12194   0.08704   0.06229
  61        1PY        -0.06457   0.07595  -0.06175  -0.05383  -0.27712
  62        1PZ        -0.00743   0.03813  -0.10541   0.00146  -0.17508
  63 21  N  1S         -0.05368  -0.03579  -0.06753   0.00133  -0.00852
  64        1PX        -0.10796  -0.00093  -0.10213   0.17525   0.04456
  65        1PY        -0.01048   0.05122   0.05623   0.14833  -0.04033
  66        1PZ        -0.01493   0.08835   0.09600   0.23675  -0.06243
  67 22  P  1S          0.00217  -0.00233   0.00053   0.00135   0.00240
  68        1PX         0.00058  -0.00081   0.00042   0.00009  -0.00051
  69        1PY        -0.00100   0.00099  -0.00008  -0.00067  -0.00130
  70        1PZ        -0.00138   0.00116   0.00022  -0.00112  -0.00287
  71 23  C  1S          0.31144   0.24379  -0.08092   0.01024   0.00229
  72        1PX         0.01962   0.01113   0.00294  -0.00157  -0.00409
  73        1PY         0.02293   0.03363   0.02063  -0.00127   0.01793
  74        1PZ         0.00413   0.02083  -0.04073  -0.01003   0.02600
  75 24  C  1S          0.10749   0.09589  -0.14658  -0.01172   0.02588
  76        1PX         0.05546   0.03987  -0.01405   0.00265  -0.00228
  77        1PY        -0.01396  -0.01097  -0.00835  -0.00173   0.00139
  78        1PZ        -0.09613  -0.08346  -0.01724  -0.00801  -0.00460
  79 25  C  1S          0.20240   0.18021   0.03484   0.00551   0.02876
  80        1PX        -0.05020  -0.03555   0.01410  -0.00558   0.00151
  81        1PY        -0.07041  -0.05664   0.05198   0.00509  -0.00026
  82        1PZ        -0.05097  -0.04047   0.04146   0.00438   0.00181
  83 26  C  1S         -0.18323  -0.16183  -0.07733  -0.01601  -0.01278
  84        1PX        -0.04315  -0.04008   0.02278   0.00265  -0.00853
  85        1PY        -0.07509  -0.06698   0.04433   0.00377  -0.01386
  86        1PZ        -0.05751  -0.05197   0.04029   0.00268  -0.01321
  87 27  H  1S          0.03471   0.03662  -0.04495  -0.00430   0.01303
  88 28  C  1S         -0.10389  -0.08611   0.15186   0.01698  -0.00443
  89        1PX         0.05359   0.04968  -0.00742  -0.00123   0.00944
  90        1PY        -0.02065  -0.01863   0.00228   0.00053  -0.00430
  91        1PZ        -0.11492  -0.10353   0.01183  -0.00003  -0.01979
  92 29  H  1S          0.06586   0.06422   0.00596  -0.00392   0.01267
  93 30  C  1S         -0.30399  -0.26981   0.09196   0.00493  -0.04154
  94        1PX         0.01292   0.01254   0.04447   0.00693   0.00164
  95        1PY         0.01896   0.01728   0.02804   0.00482   0.00058
  96        1PZ         0.00881   0.00687  -0.01891  -0.00280  -0.00225
  97 31  H  1S         -0.06492  -0.05702  -0.02835  -0.00643  -0.00477
  98 32  H  1S         -0.03716  -0.03019   0.05776   0.00636  -0.00144
  99 33  H  1S         -0.11031  -0.09826   0.03360   0.00176  -0.01713
 100 34  F  1S         -0.00035   0.00015   0.00047  -0.00041  -0.00101
 101        1PX        -0.00056   0.00066  -0.00032  -0.00029  -0.00042
 102        1PY        -0.00028   0.00021   0.00017  -0.00030  -0.00071
 103        1PZ         0.00043  -0.00055   0.00035   0.00018   0.00019
 104 35  F  1S          0.00182  -0.00276   0.00197   0.00008  -0.00152
 105        1PX        -0.00252   0.00328  -0.00135  -0.00093   0.00079
 106        1PY         0.00050  -0.00068   0.00045   0.00018   0.00003
 107        1PZ         0.00175  -0.00242   0.00175   0.00043  -0.00066
 108 36  F  1S          0.00032  -0.00005  -0.00043   0.00036   0.00125
 109        1PX         0.00012  -0.00016   0.00009   0.00003  -0.00006
 110        1PY        -0.00008   0.00014  -0.00011   0.00000   0.00019
 111        1PZ        -0.00006   0.00013  -0.00014   0.00002   0.00024
 112 37  F  1S         -0.00142   0.00149  -0.00028  -0.00077  -0.00130
 113        1PX         0.00029  -0.00034   0.00011   0.00016   0.00012
 114        1PY         0.00037  -0.00040   0.00010   0.00028   0.00049
 115        1PZ        -0.00046   0.00044  -0.00001  -0.00038  -0.00087
 116 38  F  1S          0.00551  -0.00521   0.00060   0.00305   0.00673
 117        1PX        -0.00265   0.00287  -0.00108  -0.00171  -0.00374
 118        1PY         0.00187  -0.00157  -0.00041   0.00168   0.00409
 119        1PZ         0.00429  -0.00385  -0.00038   0.00368   0.00882
 120 39  F  1S         -0.00079   0.00062   0.00012  -0.00065  -0.00174
 121        1PX         0.00038  -0.00035   0.00001   0.00035   0.00088
 122        1PY        -0.00027   0.00025  -0.00000  -0.00024  -0.00058
 123        1PZ        -0.00020   0.00019  -0.00000  -0.00015  -0.00035
 124 40  C  1S         -0.16923   0.11463   0.10532  -0.15222  -0.35450
 125        1PX        -0.02446   0.01912   0.00081  -0.00975  -0.05324
 126        1PY         0.01558   0.00121  -0.04209   0.00943  -0.01350
 127        1PZ         0.00029   0.01165  -0.03601   0.00405  -0.02977
 128 41  H  1S         -0.05862   0.04460   0.02366  -0.05223  -0.12699
 129 42  H  1S         -0.06106   0.04901   0.01649  -0.05442  -0.14562
 130 43  H  1S         -0.05452   0.03170   0.05229  -0.05454  -0.09921
 131 44  C  1S          0.04674  -0.11124   0.22181   0.05297   0.55465
 132        1PX         0.03054  -0.02178  -0.01599   0.02256   0.03489
 133        1PY        -0.01176  -0.00442   0.03983  -0.00609   0.00956
 134        1PZ         0.00385  -0.00955   0.01486   0.00525   0.01469
 135 45  H  1S          0.04725  -0.05903   0.06114   0.03492   0.22340
 136 46  H  1S          0.01165  -0.03506   0.08003   0.01515   0.20070
 137 47  H  1S          0.00963  -0.03377   0.08111   0.01277   0.18981
 138 48  C  1S          0.00671  -0.16014  -0.18973  -0.47731   0.12711
 139        1PX        -0.03471   0.00288  -0.02754   0.04241   0.01297
 140        1PY        -0.00184  -0.00880  -0.00947  -0.00452  -0.00126
 141        1PZ        -0.00878  -0.01650  -0.02193  -0.01190  -0.00075
 142 49  H  1S         -0.00171  -0.05551  -0.07101  -0.17282   0.05131
 143 50  H  1S          0.02996  -0.06391  -0.05431  -0.20502   0.04311
 144 51  H  1S         -0.00796  -0.05366  -0.07403  -0.15267   0.05088
 145 52  C  1S         -0.17147   0.05794  -0.07914   0.49714   0.00158
 146        1PX         0.01547  -0.01266  -0.00662  -0.02776   0.01292
 147        1PY         0.01201   0.01470   0.02656   0.00889  -0.00901
 148        1PZ         0.01176   0.02301   0.03625   0.02400  -0.01435
 149 53  H  1S         -0.06154   0.03346  -0.01474   0.20029  -0.00368
 150 54  H  1S         -0.05802   0.03003  -0.01594   0.18990  -0.00254
 151 55  H  1S         -0.06380   0.00637  -0.04913   0.16116   0.01340
 152 56  O  1S         -0.06241   0.28238  -0.04748  -0.05885   0.07481
 153        1PX        -0.02615   0.00312  -0.10058   0.11412   0.07439
 154        1PY        -0.01833  -0.01659   0.03796  -0.02618  -0.03494
 155        1PZ        -0.04047  -0.02118  -0.01637   0.03576   0.00366
                          21        22        23        24        25
                           O         O         O         O         O
     Eigenvalues --    -1.03088  -0.98761  -0.94622  -0.90598  -0.89852
   1 1   C  1S         -0.10617   0.23718   0.00536   0.27912  -0.07435
   2        1PX        -0.04688  -0.03105  -0.01385   0.09967  -0.04784
   3        1PY         0.04968   0.07123   0.02152  -0.04773   0.07043
   4        1PZ         0.04945   0.08455   0.02457  -0.02732   0.08534
   5 2   C  1S          0.07535   0.08244   0.04567  -0.20377   0.19532
   6        1PX        -0.03135   0.18985   0.01372   0.14193  -0.01051
   7        1PY        -0.00011  -0.04869   0.02179  -0.07216   0.02780
   8        1PZ        -0.01344   0.02552   0.04143  -0.03772   0.04724
   9 3   C  1S          0.02351  -0.24847  -0.10006  -0.02085  -0.04654
  10        1PX         0.11863   0.03221  -0.01648  -0.15012   0.11427
  11        1PY        -0.07858  -0.03845   0.10059  -0.06229  -0.01616
  12        1PZ        -0.04178  -0.02661   0.13877  -0.15996   0.05688
  13 4   C  1S          0.14330   0.06763  -0.13121   0.20822   0.09069
  14        1PX         0.11368   0.00340   0.08412  -0.15861  -0.05108
  15        1PY        -0.01772  -0.09325  -0.11323   0.04519  -0.07927
  16        1PZ         0.03321  -0.12273  -0.11110  -0.00088  -0.11185
  17 5   C  1S          0.11810   0.05306   0.18755  -0.23755  -0.04941
  18        1PX        -0.10157  -0.12552   0.00087  -0.10207  -0.12256
  19        1PY         0.03826   0.01991  -0.02512   0.04450  -0.00110
  20        1PZ         0.00338  -0.02999  -0.03514   0.02063  -0.05126
  21 6   C  1S         -0.19576  -0.19738  -0.03300  -0.00389  -0.10677
  22        1PX        -0.09436  -0.10735  -0.12309   0.12542   0.14812
  23        1PY         0.01614   0.09693   0.01931   0.08512  -0.08000
  24        1PZ        -0.02067   0.10165  -0.01780   0.17851  -0.06360
  25 7   C  1S         -0.25245  -0.01464   0.22052   0.07477  -0.06634
  26        1PX         0.01146  -0.18610   0.01025  -0.02402  -0.07360
  27        1PY        -0.00067   0.05432   0.09794  -0.03310   0.06181
  28        1PZ         0.00392  -0.05284   0.16414  -0.02965   0.04681
  29 8   C  1S          0.24940  -0.04076  -0.09180  -0.12133  -0.15008
  30        1PX        -0.09221  -0.01733  -0.06475  -0.09557  -0.15661
  31        1PY         0.01342   0.09868  -0.09643   0.05359   0.04568
  32        1PZ        -0.03269   0.09713  -0.14577   0.00733  -0.04297
  33 9   C  1S          0.00815   0.24059  -0.13153  -0.04641   0.07995
  34        1PX        -0.11119   0.01313   0.01405   0.07548  -0.13768
  35        1PY        -0.03693   0.01445   0.07808  -0.02120   0.12159
  36        1PZ        -0.12792   0.03093   0.12259   0.03856   0.07325
  37 10  C  1S          0.07644  -0.05191   0.02403  -0.12706   0.18330
  38        1PX         0.00354   0.15351  -0.03865  -0.03296   0.13969
  39        1PY        -0.00979  -0.03580   0.02923  -0.00650  -0.00274
  40        1PZ        -0.01293   0.04792   0.01466  -0.01929   0.07783
  41 11  H  1S          0.02463  -0.02357   0.02496  -0.05816   0.09498
  42 12  C  1S         -0.05925  -0.21116   0.04623   0.06608  -0.26592
  43        1PX         0.03699  -0.01142  -0.00001  -0.02539   0.08098
  44        1PY         0.04795  -0.03378   0.01541  -0.03593   0.02668
  45        1PZ         0.07510  -0.05715   0.02217  -0.05206   0.06495
  46 13  C  1S         -0.26854   0.11434  -0.04283   0.04775  -0.03848
  47        1PX         0.09293  -0.06675   0.10108   0.16974   0.09930
  48        1PY         0.00557  -0.05879  -0.00930   0.00425  -0.14710
  49        1PZ         0.05427  -0.11284   0.04920   0.10702  -0.11966
  50 14  C  1S          0.11481  -0.03429   0.17090   0.15845   0.22213
  51        1PX         0.15967  -0.08011   0.02190  -0.07814  -0.06441
  52        1PY        -0.01764   0.02958  -0.03040   0.02247  -0.00731
  53        1PZ         0.06304  -0.01469  -0.01631  -0.00796  -0.04039
  54 15  H  1S         -0.04171   0.11068   0.00951   0.14946  -0.03765
  55 16  H  1S          0.02835   0.03060   0.04064  -0.12527   0.10998
  56 17  H  1S          0.04536   0.05084   0.10415  -0.10322   0.01277
  57 18  H  1S         -0.00855  -0.08932   0.02984   0.03569  -0.12020
  58 19  H  1S          0.03622  -0.02942   0.09219   0.06540   0.10270
  59 20  N  1S         -0.06421   0.13025  -0.13246  -0.25900   0.03072
  60        1PX        -0.24265   0.13093  -0.09558  -0.10437  -0.01635
  61        1PY         0.04591   0.03277   0.00964   0.00297   0.02780
  62        1PZ        -0.09135   0.08520  -0.04333  -0.04866  -0.00981
  63 21  N  1S         -0.07131  -0.21029  -0.16072   0.00106   0.30125
  64        1PX         0.15953   0.16948   0.07809  -0.01170  -0.04555
  65        1PY        -0.02194  -0.07271  -0.01592  -0.01248   0.01239
  66        1PZ        -0.03322  -0.10542  -0.02769  -0.00660   0.03092
  67 22  P  1S         -0.00279   0.00291  -0.00267  -0.00407   0.00063
  68        1PX         0.00007   0.00046  -0.00005   0.00039   0.00016
  69        1PY         0.00141  -0.00113   0.00113   0.00167   0.00006
  70        1PZ         0.00258  -0.00127   0.00176   0.00309   0.00078
  71 23  C  1S          0.01581  -0.00417   0.16281   0.02113   0.01302
  72        1PX        -0.00210  -0.05106   0.02992  -0.06070  -0.03934
  73        1PY         0.06641   0.01067  -0.09032  -0.02842  -0.01720
  74        1PZ         0.11704   0.00627  -0.18128   0.01209  -0.01209
  75 24  C  1S          0.13119   0.02494  -0.20861   0.06084   0.00027
  76        1PX         0.00573  -0.00236   0.04265   0.00962  -0.00094
  77        1PY         0.01202  -0.00410  -0.01611  -0.01556  -0.01253
  78        1PZ         0.01473  -0.02401  -0.09515  -0.03896  -0.04531
  79 25  C  1S          0.13049   0.00214  -0.17219  -0.04390  -0.05325
  80        1PX        -0.00357  -0.00052  -0.04425  -0.01651   0.00097
  81        1PY         0.00259   0.02591  -0.09850   0.03101  -0.00269
  82        1PZ         0.01582   0.02182  -0.09100   0.04151  -0.00005
  83 26  C  1S         -0.00972  -0.03819  -0.04157  -0.07081  -0.04912
  84        1PX        -0.03714  -0.00351   0.08068   0.00094   0.01238
  85        1PY        -0.07211  -0.00870   0.14152  -0.01902   0.01775
  86        1PZ        -0.06838  -0.01369   0.12486  -0.03283   0.00681
  87 27  H  1S          0.04386   0.01597  -0.08268   0.02972   0.01351
  88 28  C  1S         -0.01796   0.04071  -0.08738   0.07506   0.01673
  89        1PX         0.03977   0.00672  -0.08733   0.00139  -0.01153
  90        1PY        -0.02452   0.00343   0.02821   0.01529   0.01414
  91        1PZ        -0.09679  -0.00845   0.17369   0.01452   0.04203
  92 29  H  1S          0.04487  -0.00547  -0.06099  -0.04243  -0.01707
  93 30  C  1S         -0.18378  -0.02036   0.29241  -0.01497   0.04638
  94        1PX        -0.00221   0.02115  -0.01479   0.05021   0.02298
  95        1PY        -0.01092   0.01332   0.02037   0.03198   0.02297
  96        1PZ        -0.01718  -0.01101   0.06075  -0.02413   0.00405
  97 31  H  1S         -0.00578  -0.01704  -0.01811  -0.03745  -0.02355
  98 32  H  1S         -0.00895   0.01909  -0.04318   0.03781   0.01104
  99 33  H  1S         -0.08255  -0.01012   0.15064  -0.01008   0.02630
 100 34  F  1S          0.00111  -0.00030   0.00066   0.00115   0.00064
 101        1PX         0.00047  -0.00094   0.00068   0.00102  -0.00074
 102        1PY         0.00090  -0.00037   0.00072   0.00135   0.00073
 103        1PZ        -0.00021   0.00076  -0.00045  -0.00060   0.00080
 104 35  F  1S          0.00089   0.00126   0.00012   0.00083   0.00170
 105        1PX         0.00133  -0.00369   0.00205   0.00144  -0.00160
 106        1PY        -0.00018   0.00084  -0.00036  -0.00051   0.00089
 107        1PZ         0.00027   0.00306  -0.00102  -0.00043   0.00422
 108 36  F  1S         -0.00082  -0.00013  -0.00024  -0.00053  -0.00065
 109        1PX        -0.00001   0.00017  -0.00006   0.00002   0.00014
 110        1PY        -0.00007  -0.00026   0.00009   0.00001  -0.00038
 111        1PZ        -0.00012  -0.00029   0.00010   0.00004  -0.00049
 112 37  F  1S          0.00144  -0.00143   0.00124   0.00175  -0.00030
 113        1PX        -0.00031   0.00051  -0.00041  -0.00050   0.00017
 114        1PY        -0.00066   0.00082  -0.00080  -0.00130   0.00033
 115        1PZ         0.00095  -0.00076   0.00091   0.00160   0.00005
 116 38  F  1S         -0.00484   0.00352  -0.00269  -0.00341   0.00117
 117        1PX         0.00311  -0.00398   0.00320   0.00507  -0.00286
 118        1PY        -0.00412   0.00238  -0.00306  -0.00517  -0.00090
 119        1PZ        -0.00875   0.00578  -0.00691  -0.01152  -0.00103
 120 39  F  1S          0.00140  -0.00090   0.00106   0.00183  -0.00006
 121        1PX        -0.00091   0.00077  -0.00094  -0.00179   0.00010
 122        1PY         0.00060  -0.00048   0.00058   0.00107  -0.00003
 123        1PZ         0.00035  -0.00022   0.00027   0.00047   0.00009
 124 40  C  1S          0.34383  -0.12209   0.16755   0.22966   0.11186
 125        1PX        -0.02554   0.04246  -0.04707  -0.09456  -0.01431
 126        1PY        -0.01832  -0.00632   0.01902   0.05095  -0.00436
 127        1PZ        -0.02976   0.00921  -0.00513   0.00263  -0.02191
 128 41  H  1S          0.11914  -0.05383   0.07017   0.10682   0.02961
 129 42  H  1S          0.11889  -0.05018   0.07111   0.10890   0.03301
 130 43  H  1S          0.15010  -0.06802   0.08502   0.12735   0.05463
 131 44  C  1S          0.05347  -0.19122   0.06517   0.15024  -0.13246
 132        1PX        -0.04953   0.02657  -0.01439  -0.02209   0.01392
 133        1PY         0.00585   0.02541  -0.03113  -0.07754   0.02746
 134        1PZ        -0.02016   0.02821  -0.02688  -0.05660   0.01669
 135 45  H  1S         -0.00017  -0.07079   0.04039   0.08385  -0.03606
 136 46  H  1S          0.03412  -0.08933   0.03821   0.08784  -0.06514
 137 47  H  1S          0.03701  -0.08298   0.03488   0.07552  -0.05335
 138 48  C  1S          0.04735   0.26326   0.07573   0.10701  -0.19434
 139        1PX         0.03705   0.04394   0.00844   0.01724  -0.00985
 140        1PY        -0.00729  -0.03345  -0.02045  -0.01649   0.05278
 141        1PZ        -0.01864  -0.07487  -0.05787  -0.01983   0.13550
 142 49  H  1S          0.02866   0.12952   0.04410   0.05481  -0.11296
 143 50  H  1S          0.01021   0.10616   0.05307   0.02452  -0.11254
 144 51  H  1S          0.03735   0.13246   0.04869   0.04729  -0.11472
 145 52  C  1S          0.22823   0.16617   0.16237  -0.11432  -0.17808
 146        1PX         0.04074   0.08405   0.07290  -0.03304  -0.12737
 147        1PY        -0.00906   0.00785   0.01816   0.00206  -0.05329
 148        1PZ        -0.01666  -0.00532   0.00929   0.00801  -0.03735
 149 53  H  1S          0.08569   0.07772   0.07848  -0.04047  -0.10996
 150 54  H  1S          0.08442   0.07614   0.07628  -0.04117  -0.10293
 151 55  H  1S          0.11044   0.10431   0.08885  -0.05794  -0.10808
 152 56  O  1S         -0.16736  -0.01058   0.11004  -0.05614   0.06624
 153        1PX        -0.05485   0.14764  -0.02294   0.24179   0.24110
 154        1PY         0.02851  -0.03913  -0.08524  -0.03446  -0.13021
 155        1PZ        -0.00565   0.03343  -0.11591   0.11385  -0.00433
                          26        27        28        29        30
                           O         O         O         O         O
     Eigenvalues --    -0.87990  -0.85455  -0.83986  -0.77220  -0.75764
   1 1   C  1S          0.04406   0.09445   0.04105  -0.17782   0.01762
   2        1PX         0.02022   0.08317  -0.01639  -0.05062   0.13699
   3        1PY         0.02235  -0.10372   0.02911  -0.07758  -0.02732
   4        1PZ         0.03565  -0.11806   0.03875  -0.13653   0.01852
   5 2   C  1S          0.02418  -0.24546   0.00123   0.05142   0.01539
   6        1PX         0.05687  -0.02707   0.06121  -0.19435  -0.05547
   7        1PY         0.03277  -0.05314  -0.04033   0.02140   0.09674
   8        1PZ         0.05334  -0.10483  -0.01618  -0.05441   0.11771
   9 3   C  1S         -0.09614   0.13016  -0.07198   0.10134   0.04705
  10        1PX        -0.02095  -0.05241   0.07472   0.16133  -0.14055
  11        1PY         0.03999  -0.07270  -0.11024  -0.04511   0.14542
  12        1PZ         0.00161  -0.14633  -0.09042   0.03935   0.14557
  13 4   C  1S          0.03833   0.11784   0.17281  -0.07630  -0.03622
  14        1PX        -0.05306  -0.01956   0.02356  -0.12275  -0.20134
  15        1PY        -0.04225   0.11413   0.01311   0.07617  -0.06148
  16        1PZ        -0.09752   0.14830   0.02726   0.06114  -0.17342
  17 5   C  1S         -0.00047  -0.16698  -0.04592  -0.12074   0.00238
  18        1PX        -0.05688   0.01761  -0.11431   0.20487  -0.00464
  19        1PY        -0.00502   0.05852   0.05464  -0.01916  -0.09859
  20        1PZ        -0.03617   0.08816   0.02217   0.06592  -0.13597
  21 6   C  1S         -0.03352   0.08867  -0.10241   0.21430   0.07315
  22        1PX         0.04738   0.02169   0.05090  -0.01385   0.13904
  23        1PY        -0.00777   0.08386   0.00872  -0.02354  -0.05019
  24        1PZ         0.00506   0.13285   0.03077  -0.04678  -0.02233
  25 7   C  1S         -0.00545  -0.04946  -0.16174  -0.21181   0.02070
  26        1PX         0.02655   0.08898  -0.02369  -0.00626   0.22699
  27        1PY         0.05097   0.01790   0.06776   0.00720  -0.09671
  28        1PZ        -0.05617   0.04674   0.12746   0.00408   0.07183
  29 8   C  1S          0.01117  -0.03649   0.23173  -0.08835   0.09844
  30        1PX        -0.03425  -0.02361   0.02191   0.00330  -0.18460
  31        1PY         0.10538  -0.09713   0.05926   0.12245   0.15112
  32        1PZ         0.08082  -0.12447   0.07465   0.14467   0.05257
  33 9   C  1S          0.09163  -0.13197  -0.01982   0.14161  -0.08478
  34        1PX         0.02353  -0.11806  -0.04787  -0.16128  -0.06095
  35        1PY        -0.02570   0.10470  -0.10350   0.02531  -0.11305
  36        1PZ        -0.07591   0.04134  -0.16693  -0.08658  -0.18754
  37 10  C  1S         -0.08869   0.29439  -0.09449   0.01453  -0.01711
  38        1PX         0.02779  -0.01844  -0.03471   0.18102  -0.10536
  39        1PY        -0.03706   0.07430  -0.02979  -0.08304  -0.02680
  40        1PZ        -0.05280   0.06883  -0.05871  -0.00346  -0.10074
  41 11  H  1S         -0.07959   0.17543  -0.06783  -0.03823  -0.05341
  42 12  C  1S          0.01435  -0.13803   0.07316  -0.16456   0.03706
  43        1PX        -0.00489   0.09526  -0.02030   0.05943   0.08465
  44        1PY        -0.03420   0.10591  -0.01669  -0.09055   0.02414
  45        1PZ        -0.05119   0.17290  -0.03055  -0.09275   0.07226
  46 13  C  1S          0.03670  -0.13954  -0.03237   0.15579  -0.12727
  47        1PX         0.03583  -0.01235  -0.07864   0.07472   0.08326
  48        1PY         0.02361  -0.12513   0.08357  -0.04320  -0.00066
  49        1PZ         0.04539  -0.15684   0.04827  -0.01209   0.03616
  50 14  C  1S         -0.03015   0.14668  -0.14993  -0.07098   0.03027
  51        1PX        -0.03551   0.04734   0.09936  -0.18444   0.06980
  52        1PY         0.04132  -0.06836   0.04127   0.09402   0.07200
  53        1PZ         0.02142  -0.04908   0.08474   0.00329   0.09751
  54 15  H  1S          0.03614   0.04654   0.01558  -0.14006   0.09160
  55 16  H  1S          0.06061  -0.16583  -0.01979   0.00183   0.09971
  56 17  H  1S          0.02389  -0.12602  -0.03957  -0.09955   0.10967
  57 18  H  1S         -0.00201  -0.06252   0.02475  -0.11570  -0.02417
  58 19  H  1S         -0.03506   0.09872  -0.11239  -0.07498  -0.06577
  59 20  N  1S         -0.06602   0.19391   0.08564  -0.13743   0.17306
  60        1PX        -0.01993   0.01140  -0.01211   0.06620  -0.15261
  61        1PY        -0.00254   0.00070  -0.00921   0.01013  -0.04320
  62        1PZ        -0.00917  -0.01788  -0.00287   0.03805  -0.12937
  63 21  N  1S          0.05210  -0.11099   0.13536  -0.16354  -0.11026
  64        1PX        -0.00839  -0.00473   0.04489  -0.14880  -0.17192
  65        1PY         0.00125   0.00481  -0.02022   0.06133   0.07597
  66        1PZ         0.00615   0.00609  -0.01450   0.05048   0.09204
  67 22  P  1S         -0.00009   0.00203   0.00260   0.00017   0.01079
  68        1PX         0.00055  -0.00088   0.00012   0.00133  -0.00021
  69        1PY         0.00010  -0.00067  -0.00101   0.00052  -0.00253
  70        1PZ         0.00076  -0.00179  -0.00167   0.00357  -0.00398
  71 23  C  1S         -0.01335   0.06741   0.31157   0.08239  -0.00829
  72        1PX         0.25746   0.07982  -0.02104  -0.00719   0.03883
  73        1PY         0.17567   0.07489   0.01978   0.06718  -0.07665
  74        1PZ        -0.07076  -0.02327   0.06148   0.12353   0.02132
  75 24  C  1S         -0.28383  -0.12378  -0.05962   0.00192   0.05469
  76        1PX        -0.00454   0.02155   0.15461   0.08077  -0.00156
  77        1PY         0.09751   0.03799   0.00797   0.02565  -0.03584
  78        1PZ         0.17727   0.00094  -0.20671  -0.07611   0.02060
  79 25  C  1S          0.29327   0.08412  -0.09935  -0.00590  -0.05456
  80        1PX         0.00495  -0.04841  -0.16108  -0.08428   0.03127
  81        1PY        -0.10373  -0.06033  -0.17759  -0.08309  -0.02394
  82        1PZ        -0.15965  -0.06530  -0.06937  -0.00864   0.00807
  83 26  C  1S          0.32269   0.05417  -0.20074  -0.09016  -0.02633
  84        1PX        -0.00631   0.02466   0.13179   0.07207  -0.00660
  85        1PY         0.07752   0.06402   0.13088   0.04962  -0.03956
  86        1PZ         0.13887   0.06270   0.03752  -0.01925  -0.02933
  87 27  H  1S         -0.17238  -0.07040  -0.06534  -0.03170   0.03372
  88 28  C  1S         -0.31829  -0.12464  -0.13597  -0.07460   0.03741
[...]
     52        6           0.028582368   -0.029814159   -0.000700738
     53        1           0.000706516    0.013797562   -0.003490254
     54        1          -0.018547100    0.000498709   -0.016092279
     55        1          -0.003091140    0.010205462    0.004287062
     56        8           0.010072900    0.012976514    0.008656896
 -------------------------------------------------------------------
 Cartesian Forces:  Max     0.060029160 RMS     0.019485278

 GradGradGradGradGradGradGradGradGradGradGradGradGradGradGradGradGradGrad
 Berny optimization.
 Search for a local minimum.
 Step number   1 out of a maximum of    2
 All quantities printed in internal units (Hartrees-Bohrs-Radians)
 Second derivative matrix not updated -- first step.
 ITU=  0
     Eigenvalues ---   -0.00000   0.00000   0.00000   0.00033   0.00042
     Eigenvalues ---    0.00045   0.00059   0.00070   0.00112   0.00135
     Eigenvalues ---    0.00213   0.00298   0.00339   0.00431   0.00459
     Eigenvalues ---    0.00476   0.00489   0.00515   0.00679   0.00690
     Eigenvalues ---    0.00744   0.00780   0.00854   0.00864   0.01235
     Eigenvalues ---    0.01263   0.01451   0.01728   0.01913   0.02044
     Eigenvalues ---    0.02138   0.02148   0.02441   0.02727   0.02845
     Eigenvalues ---    0.03030   0.03297   0.03838   0.04170   0.04423
     Eigenvalues ---    0.04846   0.04976   0.05341   0.05611   0.05729
     Eigenvalues ---    0.05966   0.06248   0.06302   0.06430   0.06587
     Eigenvalues ---    0.06662   0.06787   0.06915   0.07078   0.07182
     Eigenvalues ---    0.07428   0.08353   0.08359   0.08818   0.09303
     Eigenvalues ---    0.09678   0.10143   0.11105   0.11460   0.11528
     Eigenvalues ---    0.11695   0.11801   0.11841   0.12025   0.12113
     Eigenvalues ---    0.12154   0.12191   0.12311   0.12366   0.12474
     Eigenvalues ---    0.12539   0.12745   0.12892   0.13009   0.13282
     Eigenvalues ---    0.13699   0.16014   0.16824   0.17246   0.17399
     Eigenvalues ---    0.17958   0.19602   0.20386   0.21403   0.21450
     Eigenvalues ---    0.22570   0.23388   0.24092   0.25649   0.26138
     Eigenvalues ---    0.27030   0.28728   0.28746   0.29081   0.29807
     Eigenvalues ---    0.30601   0.30710   0.31663   0.32564   0.33433
     Eigenvalues ---    0.37158   0.39396   0.39669   0.41011   0.42947
     Eigenvalues ---    0.43118   0.45158   0.47790   0.48684   0.50364
     Eigenvalues ---    0.54624   0.58213   0.58530   0.62955   0.63140
     Eigenvalues ---    0.63789   0.65136   0.66885   0.70745   0.73330
     Eigenvalues ---    0.73743   0.77278   0.78393   0.79636   0.80633
     Eigenvalues ---    0.82626   0.85591   0.88745   0.91206   0.94117
     Eigenvalues ---    0.95775   0.96460   1.04518   1.09840   1.11874
     Eigenvalues ---    1.15191   1.19205   1.20105   1.22952   1.27336
     Eigenvalues ---    1.28897   1.31812   1.32966   1.40406   1.41608
     Eigenvalues ---    1.45347   1.47842   1.53311   1.53740   1.57890
     Eigenvalues ---    1.61086   1.63785   1.67730   1.73782   2.17154
     Eigenvalues ---    2.30644   2.32562
 Eigenvalue     1 is  -3.33D-16 should be greater than     0.000000 Eigenvector:
                          X36       X22       X39       X34       X35
   1                    0.29545   0.29545   0.29545   0.29545   0.29545
                          X37       X38       Y36       Y35       Y37
   1                    0.29545   0.29545  -0.09729  -0.09729  -0.09729
 Eigenvalue     2 is   4.19D-08 Eigenvector:
                          Z34       Z36       Z35       Z22       Z39
   1                    0.19795   0.19795   0.19795   0.19795   0.19795
                          Z38       Z37       Z43       Z41       X33
   1                    0.19795   0.19795  -0.17196  -0.16410  -0.15711
 Eigenvalue     3 is   6.83D-07 Eigenvector:
                          Y31       Y38       Y34       Y35       Y22
   1                    0.17758  -0.17415  -0.17415  -0.17414  -0.17414
                          Y39       Y37       Y36       Y41       Y43
   1                   -0.17414  -0.17413  -0.17413   0.16852   0.14910
 Quadratic step=2.218D+01 exceeds max=3.000D-01 adjusted using Lamda=-2.575D-01.
 Angle between NR and scaled steps=  85.40 degrees.
 Angle between quadratic step and forces=  33.12 degrees.
 Linear search not attempted -- first point.
 B after Tr=    -0.000362   -0.000857   -0.000507
         Rot=    1.000000   -0.000029   -0.000006   -0.000019 Ang=  -0.00 deg.
 Variable       Old X    -DE/DX   Delta X   Delta X   Delta X     New X
                                 (Linear)    (Quad)   (Total)
    X1       10.48922  -0.03383   0.00000  -0.02092  -0.02117  10.46805
    Y1       -2.75070   0.00883   0.00000   0.00276   0.00227  -2.74843
    Z1        0.64131  -0.01462   0.00000  -0.02495  -0.02574   0.61558
    X2        8.30416   0.04169   0.00000   0.02126   0.02097   8.32513
    Y2       -1.43944  -0.03305   0.00000  -0.03766  -0.03828  -1.47772
    Z2        1.43275  -0.00203   0.00000  -0.00367  -0.00437   1.42838
    X3        6.02485  -0.01463   0.00000  -0.00944  -0.00974   6.01511
    Y3       -1.60197   0.00359   0.00000   0.01244   0.01181  -1.59017
    Z3        0.14135  -0.04193   0.00000  -0.04794  -0.04861   0.09274
    X4        6.05569  -0.03796   0.00000  -0.04300  -0.04327   6.01242
    Y4       -3.10099   0.00117   0.00000  -0.00313  -0.00363  -3.10462
    Z4       -2.08825   0.00479   0.00000  -0.00022  -0.00098  -2.08923
    X5        8.08839  -0.01033   0.00000  -0.00805  -0.00827   8.08012
    Y5       -4.52264   0.01121   0.00000   0.01469   0.01432  -4.50832
    Z5       -2.92771   0.00593   0.00000   0.00493   0.00406  -2.92365
    X6       10.38479   0.05014   0.00000   0.02850   0.02828  10.41307
    Y6       -4.23590  -0.01267   0.00000   0.00231   0.00195  -4.23395
    Z6       -1.64131  -0.00873   0.00000  -0.00914  -0.01001  -1.65132
    X7        3.78973  -0.00081   0.00000  -0.02230  -0.02265   3.76708
    Y7       -0.13110  -0.01375   0.00000  -0.02228  -0.02303  -0.15413
    Z7        0.63492   0.00837   0.00000  -0.00581  -0.00637   0.62855
    X8        1.83395  -0.01993   0.00000  -0.01662  -0.01694   1.81700
    Y8       -1.90713  -0.01679   0.00000  -0.02223  -0.02283  -1.92996
    Z8       -3.19192   0.00031   0.00000   0.02861   0.02796  -3.16396
    X9        1.76828  -0.02572   0.00000  -0.02871  -0.02907   1.73921
    Y9       -0.20734   0.00331   0.00000  -0.00994  -0.01067  -0.21801
    Z9       -1.01238  -0.01926   0.00000  -0.02570  -0.02624  -1.03862
   X10       -0.59593  -0.00519   0.00000  -0.00162  -0.00203  -0.59797
   Y10        1.20811  -0.03120   0.00000  -0.03403  -0.03487   1.17324
   Z10       -0.64160  -0.05329   0.00000  -0.05781  -0.05824  -0.69985
   X11       -0.87814   0.00334   0.00000   0.01658   0.01613  -0.86201
   Y11        2.54787   0.00314   0.00000  -0.01957  -0.02052   2.52735
   Z11        0.89130   0.00928   0.00000  -0.01115  -0.01150   0.87980
   X12       -2.55422   0.00832   0.00000   0.00027  -0.00015  -2.55436
   Y12        0.80780   0.00088   0.00000  -0.02830  -0.02912   0.77868
   Z12       -2.35061   0.03409   0.00000   0.02317   0.02274  -2.32787
   X13       -2.45205   0.00160   0.00000   0.00566   0.00528  -2.44677
   Y13       -1.01026  -0.01960   0.00000  -0.02583  -0.02653  -1.03679
   Z13       -4.38716  -0.01763   0.00000   0.00003  -0.00051  -4.38767
   X14       -0.23400   0.03379   0.00000   0.03821   0.03789  -0.19612
   Y14       -2.50626   0.02447   0.00000   0.02147   0.02088  -2.48538
   Z14       -4.79928   0.04642   0.00000   0.06014   0.05949  -4.73979
   X15       12.31239  -0.00465   0.00000  -0.02852  -0.02876  12.28363
   Y15       -2.61188   0.00324   0.00000   0.00986   0.00938  -2.60250
   Z15        1.61810   0.00696   0.00000   0.01391   0.01311   1.63120
   X16        8.27177   0.00870   0.00000   0.03424   0.03393   8.30570
   Y16       -0.40117   0.01143   0.00000   0.00403   0.00331  -0.39786
   Z16        3.17472   0.01894   0.00000   0.02381   0.02318   3.19790
   X17        7.53295   0.01526   0.00000   0.04691   0.04671   7.57966
   Y17       -5.62228  -0.01129   0.00000  -0.02516  -0.02546  -5.64773
   Z17       -4.58340  -0.00640   0.00000  -0.00640  -0.00732  -4.59073
   X18       -4.51609   0.01811   0.00000   0.04245   0.04200  -4.47408
   Y18        1.55644   0.00486   0.00000   0.02040   0.01948   1.57592
   Z18       -1.87866   0.00015   0.00000   0.01025   0.00989  -1.86877
   X19       -0.15811   0.01019   0.00000   0.04650   0.04622  -0.11189
   Y19       -4.14601   0.00956   0.00000   0.04019   0.03968  -4.10633
   Z19       -6.08800   0.00451   0.00000   0.02718   0.02643  -6.06157
   X20       -4.47054   0.01314   0.00000   0.00379   0.00341  -4.46713
   Y20       -1.38218  -0.03300   0.00000  -0.01962  -0.02030  -1.40248
   Z20       -5.95572  -0.00692   0.00000   0.00261   0.00208  -5.95364
   X21       12.66794  -0.04991   0.00000  -0.03070  -0.03089  12.63705
   Y21       -5.33351   0.01505   0.00000   0.00511   0.00489  -5.32863
   Z21       -2.62101   0.04214   0.00000   0.03802   0.03705  -2.58396
   X22       -9.21743  -0.02926   0.00000  -0.00620  -0.00665  -9.22408
   Y22        3.02824  -0.01914   0.00000  -0.00968  -0.01102   3.01722
   Z22        2.29529  -0.06003   0.00000  -0.03301  -0.03323   2.26206
   X23        3.65152  -0.01607   0.00000  -0.01012  -0.01049   3.64103
   Y23        1.21075  -0.00412   0.00000   0.00044  -0.00046   1.21029
   Z23        3.03071  -0.00445   0.00000  -0.01677  -0.01725   3.01346
   X24        1.70302   0.03322   0.00000   0.03255   0.03222   1.73524
   Y24        0.66416   0.00747   0.00000   0.00927   0.00820   0.67236
   Z24        4.79850  -0.01688   0.00000  -0.00805  -0.00854   4.78996
   X25        5.46009   0.00627   0.00000   0.00447   0.00403   5.46411
   Y25        3.06747  -0.01102   0.00000  -0.00350  -0.00435   3.06312
   Z25        3.51070  -0.02117   0.00000  -0.01068  -0.01107   3.49962
   X26        1.82565  -0.03396   0.00000  -0.04018  -0.04054   1.78512
   Y26        1.97856   0.00045   0.00000   0.00376   0.00256   1.98111
   Z26        7.05755   0.02389   0.00000   0.01523   0.01482   7.07237
   X27        0.30536  -0.00141   0.00000   0.00883   0.00855   0.31391
   Y27       -0.81136   0.00350   0.00000   0.01654   0.01544  -0.79592
   Z27        4.35483   0.00369   0.00000   0.00769   0.00713   4.36196
   X28        5.36301   0.01752   0.00000   0.02229   0.02182   5.38484
   Y28        4.37121   0.02645   0.00000   0.02271   0.02172   4.39293
   Z28        5.74312   0.02205   0.00000   0.01843   0.01811   5.76123
   X29        6.99540  -0.01069   0.00000  -0.01824  -0.01871   6.97669
   Y29        3.43287   0.00070   0.00000   0.00447   0.00376   3.43663
   Z29        2.09518   0.00803   0.00000   0.00735   0.00696   2.10214
   X30        3.56741  -0.00764   0.00000  -0.01064  -0.01106   3.55635
   Y30        3.89615  -0.01836   0.00000  -0.01864  -0.01981   3.87634
   Z30        7.59639  -0.01178   0.00000  -0.00751  -0.00783   7.58856
   X31        0.27407   0.00937   0.00000   0.00094   0.00062   0.27469
   Y31        1.56067   0.00269   0.00000   0.00300   0.00166   1.56233
   Z31        8.43750  -0.00207   0.00000   0.01108   0.01066   8.44816
   X32        6.82803   0.00159   0.00000   0.01108   0.01057   6.83860
   Y32        5.80855   0.00606   0.00000   0.02711   0.02616   5.83471
   Z32        6.03484   0.00457   0.00000   0.02142   0.02117   6.05601
   X33        3.48285   0.00175   0.00000   0.00181   0.00137   3.48422
   Y33        4.90047   0.00237   0.00000  -0.00104  -0.00231   4.89816
   Z33        9.40429   0.00020   0.00000  -0.00661  -0.00687   9.39742
   X34       -8.13106   0.01247   0.00000   0.01314   0.01258  -8.11848
   Y34        5.31303   0.03466   0.00000   0.04444   0.04322   5.35626
   Z34        0.83720  -0.01007   0.00000  -0.01342  -0.01352   0.82368
   X35       -6.48741   0.04726   0.00000   0.05000   0.04959  -6.43782
   Y35        2.04353  -0.01127   0.00000  -0.00673  -0.00799   2.03554
   Z35        2.53264   0.01671   0.00000   0.02300   0.02269   2.55533
   X36       -9.19430   0.00220   0.00000   0.00375   0.00327  -9.19103
   Y36        4.45406   0.00952   0.00000  -0.00493  -0.00642   4.44763
   Z36        4.82449   0.02721   0.00000   0.01106   0.01092   4.83542
   X37      -10.17242  -0.01194   0.00000  -0.01499  -0.01533 -10.18776
   Y37        0.49124  -0.02171   0.00000  -0.01908  -0.02053   0.47071
   Z37        3.36887   0.02489   0.00000   0.03363   0.03327   3.40214
   X38       -9.17956  -0.00020   0.00000  -0.00021  -0.00064  -9.18021
   Y38        1.62951  -0.00162   0.00000  -0.00884  -0.01002   1.61949
   Z38       -0.37574  -0.00522   0.00000  -0.02817  -0.02848  -0.40422
   X39      -11.96042  -0.01606   0.00000  -0.02401  -0.02450 -11.98492
   Y39        3.87353   0.00799   0.00000   0.01118   0.00976   3.88330
   Z39        1.67799   0.00386   0.00000  -0.00124  -0.00138   1.67661
   X40       -6.57990  -0.05331   0.00000  -0.05142  -0.05185  -6.63175
   Y40        0.20427   0.00742   0.00000  -0.00457  -0.00535   0.19891
   Z40       -5.57101   0.00392   0.00000   0.00759   0.00717  -5.56384
   X41       -7.47823   0.00157   0.00000  -0.01677  -0.01716  -7.49539
   Y41       -0.30270   0.00944   0.00000   0.02539   0.02446  -0.27823
   Z41       -3.66022  -0.00323   0.00000   0.00440   0.00397  -3.65625
   X42       -5.99900  -0.00368   0.00000  -0.02042  -0.02093  -6.01994
   Y42        2.25844  -0.00514   0.00000  -0.01551  -0.01627   2.24218
   Z42       -5.62563  -0.00071   0.00000  -0.00267  -0.00298  -5.62861
   X43       -8.23429   0.01966   0.00000   0.02646   0.02602  -8.20827
   Y43       -0.12162   0.00099   0.00000  -0.00306  -0.00383  -0.12545
   Z43       -6.94421   0.00242   0.00000  -0.01160  -0.01202  -6.95623
   X44       -4.77888   0.03118   0.00000   0.03389   0.03357  -4.74530
   Y44       -3.69384   0.04430   0.00000   0.05310   0.05250  -3.64134
   Z44       -7.50848  -0.01395   0.00000  -0.01082  -0.01149  -7.51997
   X45       -2.83445  -0.02676   0.00000  -0.04874  -0.04901  -2.88346
   Y45       -4.68173   0.00074   0.00000  -0.00372  -0.00425  -4.68598
   Z45       -7.57264  -0.00599   0.00000  -0.02546  -0.02621  -7.59885
   X46       -6.22077   0.00236   0.00000   0.01585   0.01560  -6.20517
   Y46       -5.05955   0.01407   0.00000   0.05846   0.05776  -5.00179
   Z46       -6.72322  -0.00831   0.00000  -0.02513  -0.02586  -6.74908
   X47       -5.06763  -0.00659   0.00000  -0.01845  -0.01882  -5.08645
   Y47       -2.78498  -0.02690   0.00000  -0.05040  -0.05090  -2.83587
   Z47       -9.55438   0.03201   0.00000   0.05041   0.04980  -9.50459
   X48       12.59067   0.04385   0.00000   0.03847   0.03829  12.62896
   Y48       -6.44287   0.01697   0.00000   0.03167   0.03159  -6.41127
   Z48       -5.06897  -0.02746   0.00000  -0.01492  -0.01595  -5.08492
   X49       13.30481  -0.00832   0.00000  -0.01522  -0.01532  13.28949
   Y49       -8.45060   0.00268   0.00000   0.01342   0.01337  -8.43723
   Z49       -5.15975   0.00962   0.00000   0.03060   0.02945  -5.13030
   X50       10.76220  -0.01127   0.00000  -0.00428  -0.00448  10.75772
   Y50       -6.18086  -0.00658   0.00000  -0.01637  -0.01646  -6.19732
   Z50       -6.01494  -0.00485   0.00000  -0.00866  -0.00965  -6.02460
   X51       14.02642  -0.01212   0.00000  -0.00406  -0.00429  14.02213
   Y51       -5.34800  -0.00963   0.00000  -0.00718  -0.00712  -5.35512
   Z51       -6.35049   0.00936   0.00000   0.00535   0.00436  -6.34613
   X52       14.98452   0.02858   0.00000   0.01932   0.01910  15.00362
   Y52       -4.29604  -0.02981   0.00000  -0.02696  -0.02715  -4.32319
   Z52       -1.67627  -0.00070   0.00000  -0.00392  -0.00486  -1.68113
   X53       15.00317   0.00071   0.00000   0.00637   0.00607  15.00924
   Y53       -2.21925   0.01380   0.00000   0.00801   0.00783  -2.21142
   Z53       -1.71764  -0.00349   0.00000  -0.00806  -0.00888  -1.72651
   X54       15.60150  -0.01855   0.00000  -0.04473  -0.04490  15.55660
   Y54       -4.88152   0.00050   0.00000  -0.01022  -0.01050  -4.89202
   Z54        0.34478  -0.01609   0.00000  -0.02482  -0.02580   0.31898
   X55       16.54101  -0.00309   0.00000   0.00781   0.00761  16.54861
   Y55       -5.15231   0.01021   0.00000   0.01503   0.01498  -5.13733
   Z55       -2.90508   0.00429   0.00000   0.00234   0.00134  -2.90375
   X56        3.88415   0.01007   0.00000  -0.00380  -0.00407   3.88009
   Y56       -3.46964   0.01298   0.00000   0.01751   0.01702  -3.45262
   Z56       -3.57720   0.00866   0.00000   0.00472   0.00396  -3.57323
         Item               Value     Threshold  Converged?
 Maximum Force            0.060029     0.000450     NO 
 RMS     Force            0.019485     0.000300     NO 
 Maximum Displacement     0.059490     0.001800     NO 
 RMS     Displacement     0.023143     0.001200     NO 
 Predicted change in Energy=-4.333043D-02
 GradGradGradGradGradGradGradGradGradGradGradGradGradGradGradGradGradGrad

 Unable to Open any file for archive entry.
 1\1\GINC-BHD0002\Force\RAM1\ZDO\C23H23F6N2O1P1\BWEIGHT\12-Jan-2023\0\\
 # AM1/STO-5G SCF=XQC FORCE nosym pop=full guess=read\\MD Step 5000\\0,
 1\C,5.55065361,-1.45560838,0.33936927\C,4.39437074,-0.76172019,0.75817
 732\C,3.18821243,-0.8477261,0.07479905\C,3.20453385,-1.64097231,-1.105
 0518\C,4.28019284,-2.39327766,-1.54927754\C,5.49539576,-2.2415431,-0.8
 6854167\C,2.00543707,-0.06937606,0.33598472\C,0.97048216,-1.00920878,-
 1.68909131\C,0.93573513,-0.10971823,-0.53572693\C,-0.31535372,0.639303
 2,-0.33952206\H,-0.46469431,1.34827219,0.47165392\C,-1.35163398,0.4274
 709,-1.24389081\C,-1.29757154,-0.53460754,-2.32158642\C,-0.12382847,-1
 .32625818,-2.5396718\H,6.515436,-1.38214977,0.85625986\H,4.37723369,-0
 .21229047,1.6799913\H,3.98626332,-2.97518049,-2.42543323\H,-2.38981113
 ,0.823633,-0.99414227\H,-0.08366863,-2.19397391,-3.22163147\N,-2.36571
 034,-0.73141986,-3.15163086\N,6.70358287,-2.82237449,-1.38698106\P,-4.
 8776546,1.60247734,1.21461471\C,1.93230065,0.64069898,1.60378204\C,0.9
 0120047,0.35146018,2.53925676\C,2.88935355,1.62323665,1.85778023\C,0.9
 6609386,1.04700808,3.73469307\H,0.16158708,-0.42935257,2.30447865\C,2.
 83798488,2.3131438,3.03912754\H,3.7018079,1.81659627,1.10871931\C,1.88
 77904,2.06175326,4.01983599\H,0.14503077,0.82587025,4.46493461\H,3.613
 23825,3.07375388,3.19349851\H,1.84304352,2.59321692,4.97653717\F,-4.30
 277103,2.81153667,0.44302722\F,-3.43298911,1.08139122,1.34021481\F,-4.
 86541611,2.35698473,2.55301193\F,-5.38301494,0.25995511,1.78272787\F,-
 4.85761655,0.86230025,-0.19883398\F,-6.32918198,2.04978566,0.88795358\
 C,-3.48193418,0.10809406,-2.9480501\H,-3.95730728,-0.16017963,-1.93690
 508\H,-3.17453586,1.19511726,-2.97695519\H,-4.35739938,-0.06435868,-3.
 67471948\C,-2.52887343,-1.95469458,-3.97331761\H,-1.49992714,-2.477465
 8,-4.00727116\H,-3.29188924,-2.67739923,-3.55777701\H,-2.68167669,-1.4
 7374548,-5.05596134\C,6.66269322,-3.40941903,-2.68238406\H,7.04060407,
 -4.47186458,-2.73042133\H,5.69511286,-3.27077186,-3.18296962\H,7.42245
 989,-2.83003941,-3.36053363\C,7.92946683,-2.27336906,-0.88704351\H,7.9
 3933342,-1.17437717,-0.90893377\H,8.25595866,-2.5831905,0.18244877\H,8
 .75312292,-2.7264846,-1.53730428\O,2.05540621,-1.83605431,-1.89297082\
 \Version=ES64L-G16RevC.01\HF=-0.4591453\RMSD=9.342e-09\RMSF=1.949e-02\
 Dipole=9.6513835,-3.4138489,-3.2877112\PG=C01 [X(C23H23F6N2O1P1)]\\@
 The archive entry for this job was punched.


 THE SECRET OF SUCCESS IN LIFE IS TO EAT WHAT YOU LIKE, AND LET THE FOOD
 FIGHT IT OUT INSIDE YOU. -- FROM A FORTUNE COOKIE
 Job cpu time:       0 days  0 hours  0 minutes 38.0 seconds.
 Elapsed time:       0 days  0 hours  0 minutes  2.0 seconds.
 File lengths (MBytes):  RWF=    272 Int=      0 D2E=      0 Chk=     32 Scr=     32
 Normal termination of Gaussian 16 at Thu Jan 12 20:11:24 2023.
