 Entering Gaussian System, Link 0=g16
 Initial command:
 /software/gaussian/g16-c01/avx2/g16/l1.exe "/gpfs/fs2/scratch/bweight/software/many_molecule_many_mode_NAMD/EXAMPLES/Mccamant_Planarization/O_Ph/GS_DYN/NVT_RESCALE/G16/GS_NEW/Gau-5282.inp" -scrdir="/gpfs/fs2/scratch/bweight/software/many_molecule_many_mode_NAMD/EXAMPLES/Mccamant_Planarization/O_Ph/GS_DYN/NVT_RESCALE/G16/GS_NEW/"
 Entering Link 1 = /software/gaussian/g16-c01/avx2/g16/l1.exe PID=      5283.
  
 Copyright (c) 1988-2019, Gaussian, Inc.  All Rights Reserved.
  
 This is part of the Gaussian(R) 16 program.  It is based on
 the Gaussian(R) 09 system (copyright 2009, Gaussian, Inc.),
 the Gaussian(R) 03 system (copyright 2003, Gaussian, Inc.),
 the Gaussian(R) 98 system (copyright 1998, Gaussian, Inc.),
 the Gaussian(R) 94 system (copyright 1995, Gaussian, Inc.),
 the Gaussian 92(TM) system (copyright 1992, Gaussian, Inc.),
 the Gaussian 90(TM) system (copyright 1990, Gaussian, Inc.),
 the Gaussian 88(TM) system (copyright 1988, Gaussian, Inc.),
 the Gaussian 86(TM) system (copyright 1986, Carnegie Mellon
 University), and the Gaussian 82(TM) system (copyright 1983,
 Carnegie Mellon University). Gaussian is a federally registered
 trademark of Gaussian, Inc.
  
 This software contains proprietary and confidential information,
 including trade secrets, belonging to Gaussian, Inc.
  
 This software is provided under written license and may be
 used, copied, transmitted, or stored only in accord with that
 written license.
  
 The following legend is applicable only to US Government
 contracts under FAR:
  
                    RESTRICTED RIGHTS LEGEND
  
 Use, reproduction and disclosure by the US Government is
 subject to restrictions as set forth in subparagraphs (a)
 and (c) of the Commercial Computer Software - Restricted
 Rights clause in FAR 52.227-19.
  
 Gaussian, Inc.
 340 Quinnipiac St., Bldg. 40, Wallingford CT 06492
  
  
 ---------------------------------------------------------------
 Warning -- This program may not be used in any manner that
 competes with the business of Gaussian, Inc. or will provide
 assistance to any competitor of Gaussian, Inc.  The licensee
 of this program is prohibited from giving any competitor of
 Gaussian, Inc. access to this program.  By using this program,
 the user acknowledges that Gaussian, Inc. is engaged in the
 business of creating and licensing software in the field of
 computational chemistry and represents and warrants to the
 licensee that it is not a competitor of Gaussian, Inc. and that
 it will not use this program in any manner prohibited above.
 ---------------------------------------------------------------
  

 Cite this work as:
 Gaussian 16, Revision C.01,
 M. J. Frisch, G. W. Trucks, H. B. Schlegel, G. E. Scuseria, 
 M. A. Robb, J. R. Cheeseman, G. Scalmani, V. Barone, 
 G. A. Petersson, H. Nakatsuji, X. Li, M. Caricato, A. V. Marenich, 
 J. Bloino, B. G. Janesko, R. Gomperts, B. Mennucci, H. P. Hratchian, 
 J. V. Ortiz, A. F. Izmaylov, J. L. Sonnenberg, D. Williams-Young, 
 F. Ding, F. Lipparini, F. Egidi, J. Goings, B. Peng, A. Petrone, 
 T. Henderson, D. Ranasinghe, V. G. Zakrzewski, J. Gao, N. Rega, 
 G. Zheng, W. Liang, M. Hada, M. Ehara, K. Toyota, R. Fukuda, 
 J. Hasegawa, M. Ishida, T. Nakajima, Y. Honda, O. Kitao, H. Nakai, 
 T. Vreven, K. Throssell, J. A. Montgomery, Jr., J. E. Peralta, 
 F. Ogliaro, M. J. Bearpark, J. J. Heyd, E. N. Brothers, K. N. Kudin, 
 V. N. Staroverov, T. A. Keith, R. Kobayashi, J. Normand, 
 K. Raghavachari, A. P. Rendell, J. C. Burant, S. S. Iyengar, 
 J. Tomasi, M. Cossi, J. M. Millam, M. Klene, C. Adamo, R. Cammi, 
 J. W. Ochterski, R. L. Martin, K. Morokuma, O. Farkas, 
 J. B. Foresman, and D. J. Fox, Gaussian, Inc., Wallingford CT, 2019.
 
 ******************************************
 Gaussian 16:  ES64L-G16RevC.01  3-Jul-2019
                12-Jan-2023 
 ******************************************
 %oldchk=../GS_OLD/geometry.chk
 %chk=geometry.chk
 %nprocshared=24
 Will use up to   24 processors via shared memory.
 %mem=5GB
 Copying data from "../GS_OLD/geometry.chk" to current chk file "geometry.chk"
 IOpt=  2 FromEx=T IUOpen= 4 IOptOp= 5 NList=   0 IFRang= 0 IUIn= 4 IUOut= 2.
 -----------------------------------------------------
 # BLYP/6-31G* SCF=XQC FORCE nosym pop=full guess=read
 -----------------------------------------------------
 1/10=7,30=1,38=1/1,3;
 2/12=2,15=1,17=6,18=5,40=1/2;
 3/5=1,6=6,7=1,11=2,25=1,30=1,71=1,74=402,116=-2/1,2,3;
 4/5=1/1;
 5/5=2,8=3,13=1,38=6/2,8;
 6/7=3,28=1/1;
 7/29=1,30=1/1,2,3,16;
 1/10=7,30=1/3;
 99//99;
 -----------
 MD Step 165
 -----------
 Symbolic Z-matrix:
 Charge =  0 Multiplicity = 1
 C                     5.13715  -0.60675   0.50529 
 C                     4.25647   0.46937   0.30347 
 C                     2.95698   0.26284  -0.25241 
 C                     2.60021  -1.10565  -0.54696 
 C                     3.4407   -2.17235  -0.36333 
 C                     4.75335  -1.95697   0.1505 
 C                     1.97234   1.28634  -0.45099 
 C                     0.36365  -0.41936  -1.2181 
 C                     0.67055   0.96127  -0.93427 
 C                    -0.38402   1.92487  -1.16969 
 H                    -0.2501    2.96502  -0.99756 
 C                    -1.62001   1.50971  -1.61262 
 C                    -1.91912   0.13105  -1.88495 
 C                    -0.86987  -0.83964  -1.67783 
 H                     6.08436  -0.39579   0.94075 
 H                     4.54997   1.45266   0.58723 
 H                     3.07755  -3.18263  -0.60256 
 H                    -2.41751   2.23173  -1.75091 
 H                    -1.06691  -1.89279  -1.80931 
 N                    -3.12228  -0.2803   -2.33199 
 N                     5.60374  -3.02096   0.33609 
 P                    -4.10198  -0.77474   1.39659 
 C                     2.31187   2.72424  -0.13038 
 C                     1.65501   3.35666   0.93415 
 C                     3.34957   3.39243  -0.80135 
 C                     1.99663   4.65877   1.28784 
 H                     0.84685   2.84061   1.48395 
 C                     3.67972   4.70307  -0.45134 
 H                     3.87618   2.92406  -1.64892 
 C                     3.03323   5.32161   0.6212 
 H                     1.48149   5.1814    2.08776 
 H                     4.44303   5.2516   -1.00029 
 H                     3.29925   6.33026   0.89168 
 F                    -2.88488  -1.62428   0.57919 
 F                    -3.04994  -0.50631   2.64981 
 F                    -3.54534   0.64638   0.648 
 F                    -5.28389   0.08864   2.15114 
 F                    -4.62691  -2.17207   2.07929 
 F                    -5.09609  -1.01856   0.06434 
 C                    -4.25142   0.68216  -2.39733 
 H                    -5.15825   0.13593  -2.77511 
 H                    -4.50758   1.06155  -1.40793 
 H                    -4.05266   1.48348  -3.09992 
 C                    -3.40163  -1.71854  -2.48517 
 H                    -4.39159  -1.82127  -3.00289 
 H                    -2.65245  -2.18771  -3.11681 
 H                    -3.48615  -2.20344  -1.50536 
 C                     5.13215  -4.38387   0.07774 
 H                     5.98706  -5.0551    0.30676 
 H                     4.28633  -4.65139   0.75078 
 H                     4.84155  -4.4906   -0.97693 
 C                     6.91287  -2.79286   0.98945 
 H                     6.81952  -2.41784   2.00557 
 H                     7.48707  -3.72093   1.04328 
 H                     7.51621  -2.07234   0.44668 
 O                     1.32697  -1.42575  -1.04283 
 

 GradGradGradGradGradGradGradGradGradGradGradGradGradGradGradGradGradGrad
 Berny optimization.
 Initialization pass.
 Trust Radius=3.00D-01 FncErr=1.00D-07 GrdErr=1.00D-07 EigMax=2.50D+02 EigMin=1.00D-04
 Number of steps in this run=      2 maximum allowed number of steps=      2.
 GradGradGradGradGradGradGradGradGradGradGradGradGradGradGradGradGradGrad

 Symmetry turned off by external request.
 Stoichiometry    C23H23F6N2OP
 Framework group  C1[X(C23H23F6N2OP)]
 Deg. of freedom   162
 Full point group                 C1      NOp   1
                          Input orientation:                          
 ---------------------------------------------------------------------
 Center     Atomic      Atomic             Coordinates (Angstroms)
 Number     Number       Type             X           Y           Z
 ---------------------------------------------------------------------
      1          6           0        5.137145   -0.606745    0.505289
      2          6           0        4.256473    0.469370    0.303467
      3          6           0        2.956983    0.262839   -0.252411
      4          6           0        2.600211   -1.105649   -0.546956
      5          6           0        3.440700   -2.172351   -0.363332
      6          6           0        4.753348   -1.956965    0.150504
      7          6           0        1.972342    1.286341   -0.450993
      8          6           0        0.363654   -0.419363   -1.218104
      9          6           0        0.670549    0.961267   -0.934269
     10          6           0       -0.384015    1.924866   -1.169690
     11          1           0       -0.250098    2.965018   -0.997557
     12          6           0       -1.620009    1.509712   -1.612623
     13          6           0       -1.919118    0.131047   -1.884947
     14          6           0       -0.869866   -0.839641   -1.677833
     15          1           0        6.084363   -0.395787    0.940748
     16          1           0        4.549968    1.452664    0.587226
     17          1           0        3.077548   -3.182630   -0.602564
     18          1           0       -2.417510    2.231730   -1.750909
     19          1           0       -1.066910   -1.892793   -1.809314
     20          7           0       -3.122276   -0.280305   -2.331992
     21          7           0        5.603736   -3.020960    0.336090
     22         15           0       -4.101979   -0.774736    1.396593
     23          6           0        2.311874    2.724242   -0.130383
     24          6           0        1.655013    3.356655    0.934150
     25          6           0        3.349575    3.392428   -0.801351
     26          6           0        1.996632    4.658773    1.287836
     27          1           0        0.846851    2.840613    1.483947
     28          6           0        3.679720    4.703070   -0.451340
     29          1           0        3.876181    2.924063   -1.648919
     30          6           0        3.033229    5.321607    0.621195
     31          1           0        1.481491    5.181403    2.087760
     32          1           0        4.443028    5.251596   -1.000287
     33          1           0        3.299249    6.330257    0.891681
     34          9           0       -2.884880   -1.624276    0.579188
     35          9           0       -3.049939   -0.506312    2.649813
     36          9           0       -3.545341    0.646378    0.647998
     37          9           0       -5.283891    0.088644    2.151136
     38          9           0       -4.626912   -2.172066    2.079290
     39          9           0       -5.096087   -1.018558    0.064343
     40          6           0       -4.251419    0.682157   -2.397327
     41          1           0       -5.158247    0.135933   -2.775111
     42          1           0       -4.507582    1.061550   -1.407928
     43          1           0       -4.052665    1.483478   -3.099923
     44          6           0       -3.401628   -1.718542   -2.485167
     45          1           0       -4.391586   -1.821273   -3.002887
     46          1           0       -2.652453   -2.187710   -3.116812
     47          1           0       -3.486149   -2.203442   -1.505362
     48          6           0        5.132148   -4.383870    0.077741
     49          1           0        5.987060   -5.055097    0.306760
     50          1           0        4.286326   -4.651388    0.750784
     51          1           0        4.841547   -4.490597   -0.976928
     52          6           0        6.912874   -2.792863    0.989455
     53          1           0        6.819517   -2.417841    2.005574
     54          1           0        7.487070   -3.720933    1.043277
     55          1           0        7.516206   -2.072335    0.446681
     56          8           0        1.326968   -1.425753   -1.042833
 ---------------------------------------------------------------------
 Rotational constants (GHZ):           0.1520854           0.0666717           0.0554662
 Standard basis: 6-31G(d) (6D, 7F)
   545 basis functions,  1040 primitive gaussians,   545 cartesian basis functions
   126 alpha electrons      126 beta electrons
       nuclear repulsion energy      3725.9945270635 Hartrees.
 NAtoms=   56 NActive=   56 NUniq=   56 SFac= 1.00D+00 NAtFMM=   60 NAOKFM=F Big=F
 Integral buffers will be    131072 words long.
 Raffenetti 2 integral format.
 Two-electron integral symmetry is turned off.
 One-electron integrals computed using PRISM.
 NBasis=   545 RedAO= T EigKep=  3.53D-04  NBF=   545
 NBsUse=   545 1.00D-06 EigRej= -1.00D+00 NBFU=   545
 Initial guess from the checkpoint file:  "geometry.chk"
 B after Tr=    -0.000101    0.000008   -0.000130
         Rot=    1.000000    0.000018   -0.000000   -0.000008 Ang=   0.00 deg.
 Requested convergence on RMS density matrix=1.00D-08 within  32 cycles.
 Requested convergence on MAX density matrix=1.00D-06.
 Requested convergence on             energy=1.00D-06.
 No special actions if energy rises.
 EnCoef did     7 forward-backward iterations
