 Entering Gaussian System, Link 0=g16
 Initial command:
 /software/gaussian/g16-c01/avx2/g16/l1.exe "/gpfs/fs2/scratch/bweight/software/many_molecule_many_mode_NAMD/src/NAMD/TEST_NVT/TRAJ/traj-34/G16/GS_NEW/Gau-14670.inp" -scrdir="/gpfs/fs2/scratch/bweight/software/many_molecule_many_mode_NAMD/src/NAMD/TEST_NVT/TRAJ/traj-34/G16/GS_NEW/"
 Entering Link 1 = /software/gaussian/g16-c01/avx2/g16/l1.exe PID=     14674.
  
 Copyright (c) 1988-2019, Gaussian, Inc.  All Rights Reserved.
  
 This is part of the Gaussian(R) 16 program.  It is based on
 the Gaussian(R) 09 system (copyright 2009, Gaussian, Inc.),
 the Gaussian(R) 03 system (copyright 2003, Gaussian, Inc.),
 the Gaussian(R) 98 system (copyright 1998, Gaussian, Inc.),
 the Gaussian(R) 94 system (copyright 1995, Gaussian, Inc.),
 the Gaussian 92(TM) system (copyright 1992, Gaussian, Inc.),
 the Gaussian 90(TM) system (copyright 1990, Gaussian, Inc.),
 the Gaussian 88(TM) system (copyright 1988, Gaussian, Inc.),
 the Gaussian 86(TM) system (copyright 1986, Carnegie Mellon
 University), and the Gaussian 82(TM) system (copyright 1983,
 Carnegie Mellon University). Gaussian is a federally registered
 trademark of Gaussian, Inc.
  
 This software contains proprietary and confidential information,
 including trade secrets, belonging to Gaussian, Inc.
  
 This software is provided under written license and may be
 used, copied, transmitted, or stored only in accord with that
 written license.
  
 The following legend is applicable only to US Government
 contracts under FAR:
  
                    RESTRICTED RIGHTS LEGEND
  
 Use, reproduction and disclosure by the US Government is
 subject to restrictions as set forth in subparagraphs (a)
 and (c) of the Commercial Computer Software - Restricted
 Rights clause in FAR 52.227-19.
  
 Gaussian, Inc.
 340 Quinnipiac St., Bldg. 40, Wallingford CT 06492
  
  
 ---------------------------------------------------------------
 Warning -- This program may not be used in any manner that
 competes with the business of Gaussian, Inc. or will provide
 assistance to any competitor of Gaussian, Inc.  The licensee
 of this program is prohibited from giving any competitor of
 Gaussian, Inc. access to this program.  By using this program,
 the user acknowledges that Gaussian, Inc. is engaged in the
 business of creating and licensing software in the field of
 computational chemistry and represents and warrants to the
 licensee that it is not a competitor of Gaussian, Inc. and that
 it will not use this program in any manner prohibited above.
 ---------------------------------------------------------------
  

 Cite this work as:
 Gaussian 16, Revision C.01,
 M. J. Frisch, G. W. Trucks, H. B. Schlegel, G. E. Scuseria, 
 M. A. Robb, J. R. Cheeseman, G. Scalmani, V. Barone, 
 G. A. Petersson, H. Nakatsuji, X. Li, M. Caricato, A. V. Marenich, 
 J. Bloino, B. G. Janesko, R. Gomperts, B. Mennucci, H. P. Hratchian, 
 J. V. Ortiz, A. F. Izmaylov, J. L. Sonnenberg, D. Williams-Young, 
 F. Ding, F. Lipparini, F. Egidi, J. Goings, B. Peng, A. Petrone, 
 T. Henderson, D. Ranasinghe, V. G. Zakrzewski, J. Gao, N. Rega, 
 G. Zheng, W. Liang, M. Hada, M. Ehara, K. Toyota, R. Fukuda, 
 J. Hasegawa, M. Ishida, T. Nakajima, Y. Honda, O. Kitao, H. Nakai, 
 T. Vreven, K. Throssell, J. A. Montgomery, Jr., J. E. Peralta, 
 F. Ogliaro, M. J. Bearpark, J. J. Heyd, E. N. Brothers, K. N. Kudin, 
 V. N. Staroverov, T. A. Keith, R. Kobayashi, J. Normand, 
 K. Raghavachari, A. P. Rendell, J. C. Burant, S. S. Iyengar, 
 J. Tomasi, M. Cossi, J. M. Millam, M. Klene, C. Adamo, R. Cammi, 
 J. W. Ochterski, R. L. Martin, K. Morokuma, O. Farkas, 
 J. B. Foresman, and D. J. Fox, Gaussian, Inc., Wallingford CT, 2019.
 
 ******************************************
 Gaussian 16:  ES64L-G16RevC.01  3-Jul-2019
                11-Jan-2023 
 ******************************************
 %oldchk=../GS_OLD/geometry.chk
 %chk=geometry.chk
 %nprocshared=4
 Will use up to    4 processors via shared memory.
 %mem=5GB
 Copying data from "../GS_OLD/geometry.chk" to current chk file "geometry.chk"
 IOpt=  2 FromEx=T IUOpen= 4 IOptOp= 5 NList=   0 IFRang= 0 IUIn= 4 IUOut= 2.
 -------------------------------------------------------
 # WB97XD/6-311G SCF=XQC FORCE nosym pop=full guess=read
 -------------------------------------------------------
 1/10=7,30=1,38=1/1,3;
 2/12=2,15=1,17=6,18=5,40=1/2;
 3/5=4,6=6,11=2,25=1,30=1,71=1,74=-58,116=-2/1,2,3;
 4/5=1/1;
 5/5=2,8=3,13=1,38=6/2,8;
 6/7=3,28=1/1;
 7/29=1,30=1/1,2,3,16;
 1/10=7,30=1/3;
 99//99;
 ------------
 MD Step 1000
 ------------
 Symbolic Z-matrix:
 Charge =  0 Multiplicity = 1
 C                    -0.33635  -0.58189   0.00819 
 H                     0.22162  -1.53238  -0.02932 
 H                    -1.42303  -0.58236  -0.02991 
 C                     0.33369   0.57809   0.00658 
 H                    -0.15872   1.56078  -0.03359 
 H                     1.44216   0.64958  -0.0328 
 

 GradGradGradGradGradGradGradGradGradGradGradGradGradGradGradGradGradGrad
 Berny optimization.
 Initialization pass.
 Trust Radius=3.00D-01 FncErr=1.00D-07 GrdErr=1.00D-07 EigMax=2.50D+02 EigMin=1.00D-04
 Number of steps in this run=      2 maximum allowed number of steps=      2.
 GradGradGradGradGradGradGradGradGradGradGradGradGradGradGradGradGradGrad

                          Input orientation:                          
 ---------------------------------------------------------------------
 Center     Atomic      Atomic             Coordinates (Angstroms)
 Number     Number       Type             X           Y           Z
 ---------------------------------------------------------------------
      1          6           0       -0.336348   -0.581887    0.008193
      2          1           0        0.221621   -1.532377   -0.029321
      3          1           0       -1.423032   -0.582363   -0.029910
      4          6           0        0.333693    0.578091    0.006578
      5          1           0       -0.158725    1.560776   -0.033593
      6          1           0        1.442158    0.649581   -0.032804
 ---------------------------------------------------------------------
                    Distance matrix (angstroms):
                    1          2          3          4          5
     1  C    0.000000
     2  H    1.102800   0.000000
     3  H    1.087352   1.899319   0.000000
     4  C    1.339592   2.113747   2.105723   0.000000
     5  H    2.150419   3.116452   2.488279   1.099890   0.000000
     6  H    2.163627   2.500133   3.118816   1.111466   1.842038
                    6
     6  H    0.000000
 Symmetry turned off by external request.
 Stoichiometry    C2H4
 Framework group  C1[X(C2H4)]
 Deg. of freedom    12
 Full point group                 C1      NOp   1
 Rotational constants (GHZ):         143.0486260          29.6496746          24.5716512
 Standard basis: 6-311G (5D, 7F)
    38 basis functions,    72 primitive gaussians,    38 cartesian basis functions
     8 alpha electrons        8 beta electrons
       nuclear repulsion energy        33.0470497136 Hartrees.
 NAtoms=    6 NActive=    6 NUniq=    6 SFac= 1.00D+00 NAtFMM=   60 NAOKFM=F Big=F
 Integral buffers will be    131072 words long.
 Raffenetti 2 integral format.
 Two-electron integral symmetry is turned off.
 Nuclear repulsion after empirical dispersion term =       33.0462066842 Hartrees.
 One-electron integrals computed using PRISM.
 NBasis=    38 RedAO= T EigKep=  6.46D-03  NBF=    38
 NBsUse=    38 1.00D-06 EigRej= -1.00D+00 NBFU=    38
 Initial guess from the checkpoint file:  "geometry.chk"
 B after Tr=    -0.000269   -0.000421   -0.000511
         Rot=    1.000000    0.000003   -0.000000    0.000004 Ang=   0.00 deg.
 Keep R1 ints in memory in canonical form, NReq=4036876.
 Requested convergence on RMS density matrix=1.00D-08 within  32 cycles.
 Requested convergence on MAX density matrix=1.00D-06.
 Requested convergence on             energy=1.00D-06.
 No special actions if energy rises.
 SCF Done:  E(RwB97XD) =  -78.5555061117     A.U. after    8 cycles
            NFock=  8  Conv=0.59D-08     -V/T= 2.0052
 QCSCF skips out because SCF is already converged.

 **********************************************************************

            Population analysis using the SCF Density.

 **********************************************************************

 Alpha  occ. eigenvalues --  -10.29004 -10.28886  -0.86350  -0.67223  -0.55924
 Alpha  occ. eigenvalues --   -0.50889  -0.43672  -0.35662
 Alpha virt. eigenvalues --    0.07933   0.14078   0.16467   0.17010   0.24076
 Alpha virt. eigenvalues --    0.37255   0.39345   0.39916   0.46463   0.48803
 Alpha virt. eigenvalues --    0.49393   0.59088   0.66556   0.69058   0.77312
 Alpha virt. eigenvalues --    0.77467   0.84043   0.95089   2.23171   2.29077
 Alpha virt. eigenvalues --    2.33197   2.40547   2.67093   2.81719   2.87894
 Alpha virt. eigenvalues --    2.95178   3.13945   3.31775  23.35232  23.70460
     Molecular Orbital Coefficients:
                           1         2         3         4         5
                           O         O         O         O         O
     Eigenvalues --   -10.29004 -10.28886  -0.86350  -0.67223  -0.55924
   1 1   C  1S          0.22662   0.51582  -0.08812   0.06707  -0.00057
   2        2S          0.18670   0.42445  -0.13928   0.10742  -0.00093
   3        2PX         0.00015  -0.00005   0.02578   0.03613   0.13758
   4        2PY         0.00027  -0.00008   0.04666   0.05831  -0.07285
   5        2PZ        -0.00000  -0.00001  -0.00153   0.00227   0.00026
   6        3S          0.00506   0.01369   0.37369  -0.29320   0.00258
   7        3PX        -0.00049   0.00055   0.03413   0.05793   0.21567
   8        3PY        -0.00082   0.00099   0.06149   0.09483  -0.11525
   9        3PZ        -0.00002  -0.00003  -0.00257   0.00408   0.00037
  10        4S         -0.00021  -0.01498   0.19194  -0.22744   0.00215
  11        4PX         0.00109  -0.00184   0.00484   0.02295   0.11185
  12        4PY         0.00186  -0.00319   0.00883   0.03952  -0.06090
  13        4PZ         0.00003   0.00009  -0.00092   0.00206   0.00017
  14 2   H  1S         -0.00005  -0.00004   0.05180  -0.08639   0.10159
  15        2S         -0.00027   0.00017   0.05335  -0.10461   0.12905
  16        3S          0.00118   0.00143  -0.00180  -0.01485   0.04170
  17 3   H  1S         -0.00007  -0.00006   0.05376  -0.09065  -0.10530
  18        2S         -0.00027   0.00015   0.05458  -0.10875  -0.13258
  19        3S          0.00121   0.00147  -0.00178  -0.01602  -0.04277
  20 4   C  1S          0.51576  -0.22680  -0.08703  -0.06813  -0.00034
  21        2S          0.42456  -0.18647  -0.13744  -0.10925  -0.00055
  22        2PX        -0.00006  -0.00016  -0.02761   0.03790   0.11790
  23        2PY        -0.00009  -0.00027  -0.04611   0.06825  -0.07476
  24        2PZ        -0.00000   0.00000  -0.00133  -0.00258   0.00027
  25        3S          0.01288  -0.00663   0.36823   0.29859   0.00155
  26        3PX        -0.00003   0.00076  -0.03471   0.06134   0.18460
  27        3PY        -0.00003   0.00130  -0.05776   0.10964  -0.11590
  28        3PZ        -0.00004   0.00000  -0.00228  -0.00461   0.00041
  29        4S         -0.01000   0.01097   0.18924   0.23712   0.00028
  30        4PX         0.00042  -0.00206  -0.00550   0.02699   0.10156
  31        4PY         0.00066  -0.00357  -0.00885   0.04630  -0.06258
  32        4PZ         0.00008  -0.00004  -0.00092  -0.00235   0.00020
  33 5   H  1S         -0.00008  -0.00002   0.05062   0.09449  -0.09065
  34        2S         -0.00009  -0.00030   0.05150   0.11236  -0.11409
  35        3S          0.00181  -0.00028  -0.00105   0.01698  -0.03666
  36 6   H  1S         -0.00006  -0.00003   0.04900   0.09208   0.08567
  37        2S         -0.00010  -0.00031   0.05061   0.11011   0.10840
  38        3S          0.00175  -0.00027  -0.00111   0.01621   0.03514
                           6         7         8         9        10
                           O         O         O         V         V
     Eigenvalues --    -0.50889  -0.43672  -0.35662   0.07933   0.14078
   1 1   C  1S         -0.00320   0.00024  -0.00118   0.00329  -0.03412
   2        2S         -0.00474   0.00040  -0.00191   0.00546  -0.05475
   3        2PX         0.09430  -0.11078  -0.00409   0.00171  -0.03114
   4        2PY         0.16852   0.06618  -0.00700   0.00299  -0.06557
   5        2PZ         0.00618   0.00003   0.17934  -0.18907  -0.00320
   6        3S          0.01884  -0.00088   0.00558  -0.01654   0.11953
   7        3PX         0.13683  -0.17687  -0.00576   0.00259  -0.03630
   8        3PY         0.24650   0.10644  -0.00988   0.00445  -0.08094
   9        3PZ         0.00979   0.00010   0.28819  -0.27781  -0.00509
  10        4S         -0.05548  -0.00405   0.00853  -0.01873   1.23657
  11        4PX         0.06876  -0.11035  -0.00466   0.01493  -0.19067
  12        4PY         0.12534   0.06684  -0.00804   0.02579  -0.38660
  13        4PZ         0.00556   0.00012   0.26721  -0.69341  -0.01818
  14 2   H  1S         -0.08133  -0.11516   0.00020   0.00509  -0.01834
  15        2S         -0.11315  -0.17841   0.00240   0.00811  -0.04956
  16        3S         -0.04241  -0.08260   0.00147   0.02181  -0.84807
  17 3   H  1S         -0.07913   0.11256   0.00011   0.00510  -0.01391
  18        2S         -0.10933   0.17317   0.00228   0.00810  -0.03914
  19        3S         -0.04062   0.07978   0.00141   0.02115  -0.77516
  20 4   C  1S         -0.00885  -0.00053  -0.00102  -0.00319  -0.03560
  21        2S         -0.01389  -0.00088  -0.00167  -0.00529  -0.05716
  22        2PX        -0.09839   0.12485   0.00403   0.00208   0.04093
  23        2PY        -0.16133  -0.07366   0.00735   0.00368   0.06034
  24        2PZ         0.00649   0.00024   0.17900   0.18933  -0.00344
  25        3S          0.04456   0.00247   0.00494   0.01586   0.12599
  26        3PX        -0.14593   0.19967   0.00565   0.00318   0.05056
  27        3PY        -0.23736  -0.11674   0.01033   0.00568   0.07166
  28        3PZ         0.01026   0.00034   0.28664   0.27776  -0.00524
  29        4S         -0.02571   0.00371   0.00783   0.01805   1.22839
  30        4PX        -0.07644   0.12759   0.00441   0.01582   0.26519
  31        4PY        -0.12286  -0.07399   0.00819   0.02767   0.40941
  32        4PZ         0.00596   0.00019   0.26765   0.69433  -0.02091
  33 5   H  1S         -0.07342  -0.12475   0.00027  -0.00490  -0.01109
  34        2S         -0.09999  -0.19391   0.00264  -0.00812  -0.03619
  35        3S         -0.03739  -0.09091   0.00145  -0.02065  -0.80692
  36 6   H  1S         -0.07998   0.12431   0.00017  -0.00489  -0.01532
  37        2S         -0.10949   0.19451   0.00249  -0.00822  -0.04668
  38        3S         -0.04115   0.09135   0.00134  -0.02117  -0.87967
                          11        12        13        14        15
                           V         V         V         V         V
     Eigenvalues --     0.16467   0.17010   0.24076   0.37255   0.39345
   1 1   C  1S          0.00106  -0.04513   0.00017   0.00940   0.00135
   2        2S          0.00171  -0.07356   0.00027   0.01281   0.00211
   3        2PX         0.09785  -0.01939   0.09970  -0.03623  -0.02423
   4        2PY        -0.05436  -0.03658  -0.05706  -0.06591   0.00981
   5        2PZ         0.00009  -0.00796  -0.00001  -0.00556  -0.00024
   6        3S         -0.00358   0.16652   0.00019   0.03253   0.00050
   7        3PX         0.13991  -0.01100   0.10554  -0.04479  -0.10594
   8        3PY        -0.07879  -0.02383  -0.06169  -0.08680   0.04937
   9        3PZ         0.00012  -0.01101  -0.00008  -0.01124  -0.00018
  10        4S         -0.05412   1.41701  -0.03450  -2.54828  -0.24481
  11        4PX         0.58635  -0.11207   1.16049  -1.54652  -0.55030
  12        4PY        -0.31568  -0.20027  -0.66816  -2.68424   0.10909
  13        4PZ         0.00077  -0.05199   0.00069  -0.05163  -0.00332
  14 2   H  1S         -0.02957  -0.02570   0.01287  -0.05985   0.07611
  15        2S         -0.08082  -0.01847  -0.02535  -0.67626   0.77731
  16        3S         -1.03019  -0.98915  -1.52398  -0.28064  -0.34412
  17 3   H  1S          0.02836  -0.02558  -0.01542  -0.05220  -0.07567
  18        2S          0.07897  -0.02180   0.01811  -0.61429  -0.75612
  19        3S          1.09882  -0.99994   1.56603  -0.36985   0.24865
  20 4   C  1S          0.00166   0.04282  -0.00019  -0.01988  -0.00024
  21        2S          0.00265   0.06968  -0.00033  -0.03265  -0.00024
  22        2PX         0.10016  -0.02474  -0.10072  -0.04023  -0.03205
  23        2PY        -0.06104  -0.03732   0.05776  -0.07235   0.01126
  24        2PZ         0.00026   0.00792  -0.00000   0.00407   0.00055
  25        3S         -0.00538  -0.15447   0.00035   0.04287  -0.00228
  26        3PX         0.14407  -0.02025  -0.11459  -0.09153  -0.11074
  27        3PY        -0.08640  -0.02676   0.06412  -0.16739   0.05334
  28        3PZ         0.00036   0.01095   0.00005   0.00501   0.00122
  29        4S         -0.07433  -1.36155   0.02651   3.25575   0.19619
  30        4PX         0.53244  -0.12787  -1.12690  -1.13974  -0.59403
  31        4PY        -0.33250  -0.19883   0.64880  -2.01543   0.06091
  32        4PZ         0.00178   0.05151  -0.00075   0.04044   0.00403
  33 5   H  1S          0.03109   0.02422   0.00648   0.00901  -0.07910
  34        2S          0.06812   0.02088  -0.03225   0.04790  -0.77536
  35        3S          1.08789   0.94369  -1.54250   0.45009   0.46928
  36 6   H  1S         -0.03126   0.02537  -0.00482   0.00307   0.08873
  37        2S         -0.06896   0.02040   0.03449  -0.00423   0.90821
  38        3S         -0.98741   0.96965   1.51313   0.46241  -0.44111
                          16        17        18        19        20
                           V         V         V         V         V
     Eigenvalues --     0.39916   0.46463   0.48803   0.49393   0.59088
   1 1   C  1S         -0.01883   0.01104   0.04705  -0.00007  -0.00069
   2        2S         -0.03299   0.02657   0.07892   0.00020  -0.00125
   3        2PX         0.02747  -0.06119  -0.01482   0.00138   0.00258
   4        2PY         0.05112  -0.10552  -0.01818   0.00198   0.00380
   5        2PZ         0.00045  -0.00055  -0.00500  -0.15207  -0.19236
   6        3S          0.07559  -0.33375  -0.10500  -0.01156  -0.00030
   7        3PX         0.10206  -0.24356   0.02497   0.00082   0.00854
   8        3PY         0.19668  -0.41714   0.05788   0.00026   0.01286
   9        3PZ        -0.00441  -0.00509  -0.02333  -0.62884  -0.68408
  10        4S          2.71841   0.21596  -3.07740   0.08175   0.08180
  11        4PX         0.26543   0.25718  -0.80601   0.02757   0.02667
  12        4PY         0.51709   0.49199  -1.41371   0.05005   0.04417
  13        4PZ         0.00029   0.00052   0.09985   0.68581   1.23928
  14 2   H  1S         -0.02440  -0.03516   0.07544  -0.00259  -0.00204
  15        2S         -0.51166  -0.33540   0.89257  -0.02308  -0.01530
  16        3S          0.31884   0.09307  -0.65502   0.03138   0.02818
  17 3   H  1S         -0.03444  -0.03863   0.07248  -0.00253  -0.00189
  18        2S         -0.60616  -0.37830   0.86451  -0.02278  -0.01236
  19        3S          0.34221   0.09381  -0.60766   0.03008   0.02725
  20 4   C  1S         -0.00013  -0.00133  -0.05082   0.00329   0.00081
  21        2S         -0.00380   0.00544  -0.08820   0.00598   0.00150
  22        2PX         0.00872   0.05520  -0.02527  -0.00024   0.00239
  23        2PY         0.01871   0.09612  -0.04840  -0.00040   0.00473
  24        2PZ        -0.00462  -0.00210  -0.00519  -0.15255   0.19225
  25        3S          0.07789  -0.29160   0.22122  -0.02391  -0.00256
  26        3PX        -0.04425   0.23529  -0.04810  -0.00069   0.00847
  27        3PY        -0.06103   0.41367  -0.09062  -0.00152   0.01635
  28        3PZ        -0.01305  -0.00856  -0.01876  -0.63105   0.68263
  29        4S         -0.92492   0.67645   3.13291  -0.10955  -0.07330
  30        4PX         1.25778  -0.32773  -0.62400   0.01265   0.02479
  31        4PY         2.30151  -0.52466  -1.04948   0.02051   0.04437
  32        4PZ        -0.04083  -0.01986  -0.04964   0.69400  -1.23748
  33 5   H  1S         -0.04871  -0.06297  -0.06508   0.00238   0.00186
  34        2S         -0.85687  -0.64758  -0.82875   0.03738   0.00692
  35        3S         -0.20833   0.24723   0.54184  -0.00671  -0.02729
  36 6   H  1S         -0.03784  -0.06042  -0.06633   0.00249   0.00198
  37        2S         -0.73629  -0.61190  -0.83121   0.03752   0.00876
  38        3S         -0.23892   0.26189   0.57602  -0.00869  -0.02784
                          21        22        23        24        25
                           V         V         V         V         V
     Eigenvalues --     0.66556   0.69058   0.77312   0.77467   0.84043
   1 1   C  1S          0.00101  -0.00045   0.05336   0.07107   0.00094
   2        2S          0.00208  -0.00106   0.11268   0.15159   0.00212
   3        2PX        -0.13903   0.19269  -0.02275   0.11591  -0.00942
   4        2PY         0.08169  -0.11679  -0.03946   0.18653   0.01425
   5        2PZ        -0.00004   0.00021   0.00090   0.00576   0.00026
   6        3S         -0.01645   0.01731  -0.76942  -1.31834  -0.02136
   7        3PX        -0.63686   0.66835  -0.16291   0.45291  -0.23010
   8        3PY         0.36989  -0.40503  -0.28269   0.71956   0.16849
   9        3PZ        -0.00031   0.00085   0.00338   0.02016   0.00110
  10        4S          0.03110  -0.09858   0.81581   2.42129  -0.07716
  11        4PX         1.09584  -0.73686   0.15140  -0.76955   4.48434
  12        4PY        -0.63879   0.44232   0.18919  -1.00507  -2.60206
  13        4PZ        -0.00003   0.00164   0.00924  -0.06577   0.00274
  14 2   H  1S          0.02565  -0.05806   0.01135   0.03230  -0.02606
  15        2S          0.15772  -0.62055   0.07163   0.08440  -1.55953
  16        3S         -1.06905   1.06230  -0.12596  -1.08068  -1.21948
  17 3   H  1S         -0.02492   0.05765   0.01112   0.03338   0.02939
  18        2S         -0.17471   0.66522   0.09784   0.05454   1.60537
  19        3S          1.05734  -1.02899  -0.11439  -1.24415   1.22239
  20 4   C  1S          0.00126  -0.00057   0.08505   0.02907   0.00077
  21        2S          0.00254  -0.00106   0.18106   0.06101   0.00158
  22        2PX        -0.14531  -0.19066  -0.09457   0.05527   0.01103
  23        2PY         0.08302   0.10513  -0.17198   0.10232   0.00128
  24        2PZ        -0.00003  -0.00025   0.00614  -0.00143  -0.00025
  25        3S         -0.01771  -0.00089  -1.50520  -0.33584  -0.00917
  26        3PX        -0.66367  -0.65161  -0.34087   0.28807   0.23618
  27        3PY         0.38231   0.35670  -0.62559   0.52908  -0.09835
  28        3PZ        -0.00027  -0.00092   0.02166  -0.00543  -0.00092
  29        4S          0.01251   0.06994   2.66525   0.04752   0.05958
  30        4PX         1.27342   0.77247   0.50821  -0.25536  -4.17693
  31        4PY        -0.72473  -0.43118   1.00965  -0.70900   2.34615
  32        4PZ         0.00058  -0.00116  -0.06226   0.03247  -0.00217
  33 5   H  1S         -0.02337  -0.05620   0.03453   0.00178  -0.02298
  34        2S         -0.12336  -0.58221   0.08406   0.07567  -1.41508
  35        3S          1.08912   1.02033  -1.16609   0.33602  -1.10154
  36 6   H  1S          0.02411   0.05584   0.03402   0.00276   0.02286
  37        2S          0.11728   0.54044   0.08279   0.01778   1.39545
  38        3S         -1.09394  -1.03521  -1.08501   0.25094   1.10949
                          26        27        28        29        30
                           V         V         V         V         V
     Eigenvalues --     0.95089   2.23171   2.29077   2.33197   2.40547
   1 1   C  1S          0.09583  -0.00972  -0.01428   0.00047  -0.00055
   2        2S          0.19913   0.00214  -0.01384   0.00106  -0.00059
   3        2PX        -0.09080  -0.07774  -0.13254   0.35010  -0.40280
   4        2PY        -0.15753  -0.14515  -0.23021  -0.20000   0.23095
   5        2PZ         0.00015  -0.01570  -0.02199  -0.00018  -0.00075
   6        3S         -1.54503  -0.18647  -0.03982  -0.00234  -0.00535
   7        3PX        -0.23138   0.07367   0.20798  -0.42281   0.56249
   8        3PY        -0.39207   0.15354   0.37818   0.24454  -0.32576
   9        3PZ        -0.00309   0.01577   0.02754   0.00035   0.00084
  10        4S          5.71391  -0.09531  -0.87973   0.00344  -0.03494
  11        4PX         1.20530   0.05609  -0.19044  -0.05715   0.96321
  12        4PY         1.98220   0.06495  -0.35949   0.02356  -0.53881
  13        4PZ        -0.02178   0.00306   0.00945  -0.00042   0.00164
  14 2   H  1S          0.01575  -0.70202  -0.79985  -0.71697   0.64160
  15        2S         -0.29397   0.99506   1.19667   1.10915  -1.43550
  16        3S         -0.09689  -0.30413  -0.48067  -0.47737   0.36688
  17 3   H  1S          0.01591  -0.69647  -0.79650   0.70537  -0.66545
  18        2S         -0.25844   0.99060   1.19534  -1.09758   1.48629
  19        3S         -0.08017  -0.27996  -0.46169   0.46337  -0.35815
  20 4   C  1S         -0.09393  -0.01074   0.01239   0.00051   0.00038
  21        2S         -0.19481  -0.00045   0.01264   0.00079   0.00058
  22        2PX        -0.09205   0.13510  -0.12230   0.30022   0.41936
  23        2PY        -0.15856   0.23503  -0.20500  -0.17374  -0.23871
  24        2PZ         0.00028  -0.01829   0.02118   0.00026   0.00035
  25        3S          1.50705  -0.16723   0.01684  -0.00045   0.00068
  26        3PX        -0.22422  -0.17233   0.21107  -0.37229  -0.58761
  27        3PY        -0.39339  -0.29333   0.34521   0.21240   0.33325
  28        3PZ         0.00419   0.01959  -0.02697  -0.00024  -0.00046
  29        4S         -5.69462  -0.18268   0.89145   0.01559   0.01966
  30        4PX         1.09785  -0.01361  -0.19711   0.11536  -0.85297
  31        4PY         1.98363  -0.03586  -0.31691  -0.06487   0.49541
  32        4PZ         0.01651   0.00619  -0.00799  -0.00021  -0.00139
  33 5   H  1S         -0.01772  -0.79499   0.66832   0.69502   0.69834
  34        2S          0.28766   1.15663  -1.02204  -1.00550  -1.47586
  35        3S          0.06554  -0.35426   0.39545   0.50181   0.43242
  36 6   H  1S         -0.01768  -0.78677   0.69329  -0.68327  -0.69290
  37        2S          0.31557   1.14195  -1.05496   0.98426   1.45832
  38        3S          0.07370  -0.35716   0.42491  -0.49963  -0.43995
                          31        32        33        34        35
                           V         V         V         V         V
     Eigenvalues --     2.67093   2.81719   2.87894   2.95178   3.13945
   1 1   C  1S          0.00058   0.00304  -0.01340   0.00014  -0.00968
   2        2S          0.00042   0.00875  -0.04395   0.00003  -0.02963
   3        2PX         0.00574   0.08688  -0.47099  -0.72974   0.44555
   4        2PY         0.00945   0.15274  -0.84748   0.40709   0.78112
   5        2PZ        -0.92509  -0.92460  -0.16555  -0.00113   0.00764
   6        3S         -0.00153  -0.07211   0.38396   0.00209   0.24875
   7        3PX        -0.00388  -0.15061   0.83291   0.87754  -0.42701
   8        3PY        -0.00664  -0.26221   1.47078  -0.47603  -0.74706
   9        3PZ         0.94077   1.12975   0.20796   0.00164  -0.00963
  10        4S          0.01492   0.16765  -0.86745  -0.00875  -0.48743
  11        4PX        -0.00271   0.12086  -0.70860  -0.67147   0.21285
  12        4PY        -0.00351   0.21113  -1.25791   0.35532   0.37041
  13        4PZ        -0.33894  -0.61064  -0.13199  -0.00138   0.00557
  14 2   H  1S          0.01465  -0.02391   0.26368  -0.37717  -0.21307
  15        2S         -0.01678   0.01528  -0.22246   0.39301   0.16205
  16        3S         -0.00328   0.04809  -0.29303   0.26767   0.05626
  17 3   H  1S          0.01475  -0.02257   0.25005   0.37886  -0.21213
  18        2S         -0.01702   0.01250  -0.19737  -0.38951   0.16037
  19        3S         -0.00408   0.04960  -0.29971  -0.28777   0.06264
  20 4   C  1S          0.00063  -0.00296   0.01341   0.00063  -0.00750
  21        2S          0.00064  -0.00913   0.04729   0.00146  -0.02298
  22        2PX        -0.00925   0.07705  -0.40199  -0.80590  -0.50514
  23        2PY        -0.01640   0.13793  -0.71954   0.44789  -0.89471
  24        2PZ        -0.92410   0.92451   0.17039   0.00065   0.01635
  25        3S         -0.00372   0.07813  -0.42492  -0.01107   0.19565
  26        3PX         0.00979  -0.14023   0.75953   0.96324   0.54243
  27        3PY         0.01701  -0.24908   1.34937  -0.52776   0.96998
  28        3PZ         0.93967  -1.12939  -0.21442  -0.00073  -0.02082
  29        4S          0.01952  -0.16995   0.88755   0.03050  -0.37071
  30        4PX        -0.00130   0.11935  -0.70263  -0.69829  -0.33136
  31        4PY        -0.00251   0.21007  -1.23110   0.37563  -0.59726
  32        4PZ        -0.33838   0.60992   0.13690   0.00042   0.01635
  33 5   H  1S          0.01392   0.03161  -0.29042   0.41733  -0.26543
  34        2S         -0.01716  -0.02512   0.26228  -0.42503   0.20807
  35        3S         -0.00188  -0.04645   0.28562  -0.24911   0.12801
  36 6   H  1S          0.01410   0.03233  -0.29055  -0.42764  -0.25442
  37        2S         -0.01780  -0.02700   0.27098   0.43559   0.19962
  38        3S         -0.00122  -0.04321   0.26595   0.24859   0.12084
                          36        37        38
                           V         V         V
     Eigenvalues --     3.31775  23.35232  23.70460
   1 1   C  1S         -0.00058  -1.41852  -1.44785
   2        2S         -0.00084   1.51288   1.56565
   3        2PX         0.78599  -0.00660   0.01208
   4        2PY        -0.43963  -0.01058   0.02145
   5        2PZ         0.00097  -0.00065  -0.00028
   6        3S          0.00126  -0.29739  -0.39812
   7        3PX        -1.12122   0.02389  -0.05531
   8        3PY         0.62315   0.03906  -0.09681
   9        3PZ        -0.00152   0.00184   0.00083
  10        4S         -0.02309   0.27706   0.76582
  11        4PX         1.95499  -0.02532   0.13239
  12        4PY        -1.09221  -0.04189   0.22952
  13        4PZ         0.00248  -0.00307  -0.00354
  14 2   H  1S          0.55614   0.01244   0.00641
  15        2S         -0.86439   0.00801  -0.01420
  16        3S         -0.45505  -0.08350  -0.03898
  17 3   H  1S         -0.57034   0.01467   0.00815
  18        2S          0.88400   0.00724  -0.01486
  19        3S          0.48279  -0.08619  -0.03991
  20 4   C  1S          0.00025  -1.44308   1.42323
  21        2S          0.00009   1.53909  -1.53905
  22        2PX        -0.71103   0.00614   0.01273
  23        2PY         0.40567   0.01122   0.02145
  24        2PZ        -0.00079  -0.00068   0.00018
  25        3S          0.00307  -0.30188   0.39106
  26        3PX         1.01211  -0.02252  -0.05644
  27        3PY        -0.58635  -0.04055  -0.09649
  28        3PZ         0.00123   0.00195  -0.00048
  29        4S         -0.00228   0.27685  -0.75983
  30        4PX        -1.77473   0.02399   0.13116
  31        4PY         1.03262   0.04461   0.22562
  32        4PZ        -0.00202  -0.00318   0.00283
  33 5   H  1S          0.48732   0.01390  -0.00530
  34        2S         -0.75616   0.00775   0.01419
  35        3S         -0.43282  -0.08363   0.03820
  36 6   H  1S         -0.48068   0.01216  -0.00379
  37        2S          0.74851   0.00920   0.01331
  38        3S          0.42060  -0.08151   0.03694
     Density Matrix:
                           1         2         3         4         5
   1 1   C  1S          0.65940
   2        2S          0.56148   0.49195
   3        2PX        -0.00048  -0.00063   0.08416
   4        2PY        -0.00131  -0.00182   0.00375   0.08742
   5        2PZ         0.00011   0.00016  -0.00015  -0.00034   0.06441
   6        3S         -0.08890  -0.15377   0.00249   0.00646  -0.00024
   7        3PX         0.00091   0.00140   0.13033   0.00131  -0.00012
   8        3PY         0.00116   0.00178   0.00130   0.13089  -0.00031
   9        3PZ         0.00021   0.00036  -0.00027  -0.00054   0.10351
  10        4S         -0.07956  -0.11464  -0.01558  -0.02828   0.00075
  11        4PX         0.00021   0.00150   0.07014  -0.00453  -0.00068
  12        4PY         0.00061   0.00303  -0.00455   0.06551  -0.00121
  13        4PZ        -0.00012  -0.00029  -0.00101  -0.00172   0.09592
  14 2   H  1S         -0.02043  -0.03256   0.03456  -0.06270  -0.00144
  15        2S         -0.02289  -0.03661   0.04887  -0.08781  -0.00112
  16        3S          0.00051  -0.00079   0.02060  -0.03322  -0.00004
  17 3   H  1S         -0.02104  -0.03349  -0.07262  -0.00198  -0.00156
  18        2S         -0.02324  -0.03712  -0.10053  -0.00223  -0.00125
  19        3S          0.00058  -0.00072  -0.03837   0.00105  -0.00008
  20 4   C  1S          0.00605   0.00975  -0.01087  -0.01874  -0.00052
  21        2S          0.00971   0.01518  -0.01739  -0.03000  -0.00084
  22        2PX         0.01031   0.01648  -0.01249  -0.03203   0.00056
  23        2PY         0.01802   0.02882  -0.03218  -0.04968   0.00105
  24        2PZ        -0.00057  -0.00093  -0.00047  -0.00075   0.06428
  25        3S         -0.02614  -0.03968   0.04881   0.08424   0.00255
  26        3PX         0.01592   0.02466  -0.01837  -0.04582   0.00072
  27        3PY         0.02778   0.04307  -0.04594  -0.07131   0.00138
  28        3PZ        -0.00097  -0.00156  -0.00082  -0.00132   0.10292
  29        4S          0.00539   0.00403   0.02123   0.03698   0.00299
  30        4PX         0.00308   0.00636  -0.01311  -0.02110   0.00084
  31        4PY         0.00519   0.01082  -0.02117  -0.03762   0.00162
  32        4PZ        -0.00083  -0.00134  -0.00127  -0.00210   0.09606
  33 5   H  1S          0.00421   0.00691  -0.00172  -0.01231  -0.00059
  34        2S          0.00631   0.01049   0.00346  -0.02487  -0.00001
  35        3S          0.00323   0.00472   0.00417  -0.01743   0.00011
  36 6   H  1S          0.00413   0.00679  -0.00987  -0.00768  -0.00061
  37        2S          0.00615   0.01024  -0.02337  -0.00942  -0.00005
  38        3S          0.00315   0.00461  -0.01723  -0.00513   0.00007
                           6         7         8         9        10
   6        3S          0.45243
   7        3PX        -0.00193   0.20214
   8        3PY        -0.00124  -0.00461   0.19649
   9        3PZ        -0.00073  -0.00022  -0.00047   0.16634
  10        4S          0.27443  -0.02618  -0.04844   0.00099   0.18393
  11        4PX        -0.00658   0.10914  -0.01034  -0.00111  -0.01486
  12        4PY        -0.01244  -0.01034   0.09879  -0.00193  -0.02934
  13        4PZ         0.00130  -0.00135  -0.00228   0.15414   0.00265
  14 2   H  1S          0.08703   0.05583  -0.09804  -0.00240   0.06958
  15        2S          0.09796   0.07930  -0.13684  -0.00190   0.08266
  16        3S          0.00619   0.03374  -0.05117  -0.00008   0.01160
  17 3   H  1S          0.08961  -0.11372  -0.00136  -0.00256   0.06929
  18        2S          0.09949  -0.15726  -0.00043  -0.00205   0.08062
  19        3S          0.00624  -0.05978   0.00353  -0.00012   0.01026
  20 4   C  1S         -0.02643  -0.01696  -0.02930  -0.00088   0.00513
  21        2S         -0.04000  -0.02637  -0.04556  -0.00143   0.00387
  22        2PX        -0.04614  -0.01778  -0.04539   0.00096  -0.01735
  23        2PY        -0.08074  -0.04566  -0.07086   0.00180  -0.03043
  24        2PZ         0.00276  -0.00064  -0.00100   0.10328   0.00300
  25        3S          0.10180   0.07164   0.12391   0.00426   0.00085
  26        3PX        -0.06672  -0.02627  -0.06473   0.00125  -0.02578
  27        3PY        -0.11665  -0.06501  -0.10167   0.00239  -0.04512
  28        3PZ         0.00458  -0.00113  -0.00178   0.16538   0.00497
  29        4S          0.00171   0.03210   0.05617   0.00497  -0.03258
  30        4PX        -0.02252  -0.01954  -0.02958   0.00139  -0.00636
  31        4PY        -0.03859  -0.02978  -0.05437   0.00268  -0.01025
  32        4PZ         0.00390  -0.00177  -0.00291   0.15437   0.00462
  33 5   H  1S         -0.02059  -0.00066  -0.01772  -0.00086  -0.01478
  34        2S         -0.03139   0.00852  -0.03668   0.00009  -0.01911
  35        3S         -0.01216   0.00799  -0.02628   0.00020  -0.00337
  36 6   H  1S         -0.02016  -0.01490  -0.00923  -0.00088  -0.01483
  37        2S         -0.03064  -0.03583  -0.01050   0.00005  -0.01957
  38        3S         -0.01184  -0.02663  -0.00603   0.00015  -0.00380
                          11        12        13        14        15
  11        4PX         0.05998
  12        4PY        -0.00915   0.05121
  13        4PZ        -0.00163  -0.00276   0.14287
  14 2   H  1S          0.03349  -0.05407  -0.00124   0.08068
  15        2S          0.04837  -0.07530  -0.00050   0.10932   0.15016
  16        3S          0.02101  -0.02799   0.00025   0.03678   0.05276
  17 3   H  1S         -0.06292   0.00182  -0.00130  -0.01322  -0.02473
  18        2S         -0.08740   0.00422  -0.00055  -0.02459  -0.04268
  19        3S         -0.03353   0.00437   0.00025  -0.01788  -0.02715
  20 4   C  1S         -0.00318  -0.00579  -0.00078   0.00421   0.00672
  21        2S         -0.00656  -0.01180  -0.00126   0.00696   0.01121
  22        2PX        -0.01328  -0.01989   0.00134   0.00179  -0.00271
  23        2PY        -0.02003  -0.03672   0.00246   0.01145   0.02434
  24        2PZ        -0.00090  -0.00148   0.09572  -0.00068  -0.00022
  25        3S          0.02321   0.04142   0.00369  -0.02094  -0.03373
  26        3PX        -0.02042  -0.02823   0.00183   0.00106  -0.00709
  27        3PY        -0.02843  -0.05352   0.00337   0.01702   0.03640
  28        3PZ        -0.00148  -0.00245   0.15328  -0.00099  -0.00024
  29        4S          0.00829   0.01587   0.00453  -0.01798  -0.02480
  30        4PX        -0.01480  -0.01250   0.00170  -0.00155  -0.00823
  31        4PY        -0.01259  -0.02967   0.00318   0.01540   0.02746
  32        4PZ        -0.00179  -0.00301   0.14309  -0.00056   0.00031
  33 5   H  1S          0.00198  -0.01568  -0.00044   0.01118   0.02336
  34        2S          0.00916  -0.02734   0.00058   0.02367   0.04437
  35        3S          0.00748  -0.01575   0.00040   0.01653   0.02778
  36 6   H  1S         -0.01457  -0.00573  -0.00045  -0.00905  -0.01818
  37        2S         -0.02821  -0.00509   0.00056  -0.01875  -0.03428
  38        3S         -0.01723  -0.00114   0.00036  -0.01012  -0.01772
                          16        17        18        19        20
  16        3S          0.02118
  17 3   H  1S         -0.01817   0.08225
  18        2S         -0.02735   0.10979   0.14866
  19        3S         -0.01281   0.03611   0.05115   0.02022
  20 4   C  1S          0.00371   0.00430   0.00680   0.00374   0.65947
  21        2S          0.00548   0.00711   0.01134   0.00550   0.56158
  22        2PX        -0.00346   0.00901   0.02225   0.01672   0.00117
  23        2PY         0.01778   0.00736   0.00974   0.00574   0.00173
  24        2PZ         0.00004  -0.00067  -0.00017   0.00008   0.00010
  25        3S         -0.01423  -0.02137  -0.03403  -0.01421  -0.08929
  26        3PX        -0.00689   0.01432   0.03501   0.02610  -0.00046
  27        3PY         0.02674   0.00961   0.01210   0.00730  -0.00111
  28        3PZ         0.00009  -0.00098  -0.00017   0.00015   0.00021
  29        4S         -0.00610  -0.01780  -0.02404  -0.00558  -0.08010
  30        4PX        -0.00690   0.01395   0.02752   0.01704  -0.00022
  31        4PY         0.01610   0.00662   0.00683   0.00209  -0.00019
  32        4PZ         0.00034  -0.00056   0.00034   0.00036  -0.00007
  33 5   H  1S          0.01629  -0.00906  -0.01814  -0.00939  -0.02026
  34        2S          0.02748  -0.01864  -0.03385  -0.01684  -0.02218
  35        3S          0.01464  -0.01002  -0.01740  -0.00887   0.00064
  36 6   H  1S         -0.00952   0.01117   0.02315   0.01588  -0.01990
  37        2S         -0.01725   0.02376   0.04415   0.02696  -0.02212
  38        3S         -0.00914   0.01662   0.02768   0.01441   0.00052
                          21        22        23        24        25
  21        2S          0.49209
  22        2PX         0.00169   0.08277
  23        2PY         0.00246   0.00351   0.08776
  24        2PZ         0.00015   0.00017   0.00023   0.06418
  25        3S         -0.15431  -0.00545  -0.00810  -0.00017   0.45395
  26        3PX        -0.00070   0.12872   0.00173   0.00010  -0.00033
  27        3PY        -0.00169   0.00181   0.13156   0.00009   0.00093
  28        3PZ         0.00036   0.00025   0.00037   0.10278  -0.00069
  29        4S         -0.11573   0.01364   0.02273   0.00075   0.27837
  30        4PX        -0.00149   0.07323  -0.00506   0.00058   0.00628
  31        4PY        -0.00221  -0.00499   0.06716   0.00105   0.00977
  32        4PZ        -0.00021   0.00095   0.00171   0.09591   0.00109
  33 5   H  1S         -0.03226  -0.03371   0.06386  -0.00159   0.08627
  34        2S         -0.03544  -0.04995   0.08851  -0.00122   0.09484
  35        3S         -0.00055  -0.02263   0.03337  -0.00011   0.00554
  36 6   H  1S         -0.03172   0.07125   0.00274  -0.00148   0.08482
  37        2S         -0.03537   0.10125   0.00087  -0.00108   0.09459
  38        3S         -0.00071   0.04050  -0.00310  -0.00007   0.00582
                          26        27        28        29        30
  26        3PX         0.20049
  27        3PY        -0.00255   0.19774
  28        3PZ         0.00012   0.00013   0.16458
  29        4S          0.02515   0.04160   0.00091   0.18598
  30        4PX         0.11450  -0.01040   0.00091   0.01567   0.06644
  31        4PY        -0.01041   0.10144   0.00169   0.02438  -0.01012
  32        4PZ         0.00121   0.00220   0.15358   0.00242   0.00142
  33 5   H  1S         -0.05377   0.09987  -0.00261   0.06677  -0.03447
  34        2S         -0.08013   0.13793  -0.00204   0.07645  -0.05184
  35        3S         -0.03675   0.05135  -0.00018   0.00886  -0.02398
  36 6   H  1S          0.11251   0.00362  -0.00246   0.06730   0.06578
  37        2S          0.15968  -0.00022  -0.00185   0.07854   0.09380
  38        3S          0.06355  -0.00623  -0.00013   0.01006   0.03764
                          31        32        33        34        35
  31        4PY         0.05358
  32        4PZ         0.00267   0.14335
  33 5   H  1S          0.05571  -0.00135   0.08132
  34        2S          0.07708  -0.00053   0.11019   0.15180
  35        3S          0.02885   0.00020   0.03792   0.05481   0.02260
  36 6   H  1S         -0.00180  -0.00130  -0.01244  -0.02602  -0.01988
  37        2S         -0.00610  -0.00047  -0.02617  -0.04830  -0.03149
  38        3S         -0.00626   0.00020  -0.02017  -0.03168  -0.01555
                          36        37        38
  36 6   H  1S          0.08013
  37        2S          0.10968   0.15252
  38        3S          0.03819   0.05563   0.02308
    Full Mulliken population analysis:
                           1         2         3         4         5
   1 1   C  1S          0.65940
   2        2S          0.49323   0.49195
   3        2PX         0.00000   0.00000   0.08416
   4        2PY         0.00000   0.00000   0.00000   0.08742
   5        2PZ         0.00000   0.00000   0.00000   0.00000   0.06441
   6        3S         -0.02926  -0.06440   0.00000   0.00000   0.00000
   7        3PX         0.00000   0.00000   0.08199   0.00000   0.00000
   8        3PY         0.00000   0.00000   0.00000   0.08235   0.00000
   9        3PZ         0.00000   0.00000   0.00000   0.00000   0.06512
  10        4S         -0.01223  -0.02145   0.00000   0.00000   0.00000
  11        4PX         0.00000   0.00000   0.01545   0.00000   0.00000
  12        4PY         0.00000   0.00000   0.00000   0.01443   0.00000
  13        4PZ         0.00000   0.00000   0.00000   0.00000   0.02112
  14 2   H  1S         -0.00022  -0.00031   0.00176   0.00544   0.00000
  15        2S         -0.00165  -0.00315   0.00428   0.01309   0.00001
  16        3S          0.00004  -0.00007   0.00070   0.00191   0.00000
  17 3   H  1S         -0.00025  -0.00036   0.00782   0.00000   0.00001
  18        2S         -0.00173  -0.00332   0.01770   0.00000   0.00001
  19        3S          0.00005  -0.00007   0.00255  -0.00000   0.00000
  20 4   C  1S          0.00000   0.00000  -0.00002  -0.00006   0.00000
  21        2S          0.00000  -0.00000  -0.00002  -0.00005   0.00000
  22        2PX        -0.00002  -0.00002   0.00011   0.00084   0.00000
  23        2PY        -0.00006  -0.00005   0.00085   0.00195   0.00000
  24        2PZ        -0.00000  -0.00000  -0.00000  -0.00000   0.00041
  25        3S         -0.00058  -0.00098   0.00254   0.00758  -0.00000
  26        3PX        -0.00054  -0.00098   0.00020   0.00552   0.00000
  27        3PY        -0.00162  -0.00297   0.00554   0.01068   0.00000
  28        3PZ        -0.00000  -0.00000  -0.00000  -0.00000   0.00608
  29        4S          0.00034   0.00030   0.00096   0.00290  -0.00000
  30        4PX        -0.00018  -0.00045  -0.00071   0.00146   0.00000
  31        4PY        -0.00052  -0.00133   0.00147   0.00098   0.00000
  32        4PZ        -0.00000  -0.00000  -0.00000  -0.00000   0.00902
  33 5   H  1S          0.00000   0.00000  -0.00000  -0.00000   0.00000
  34        2S          0.00001   0.00002   0.00000  -0.00032   0.00000
  35        3S          0.00008   0.00013   0.00001  -0.00070  -0.00000
  36 6   H  1S          0.00000   0.00000  -0.00000  -0.00000   0.00000
  37        2S          0.00001   0.00002  -0.00023  -0.00007   0.00000
  38        3S          0.00007   0.00013  -0.00056  -0.00012  -0.00000
                           6         7         8         9        10
   6        3S          0.45243
   7        3PX         0.00000   0.20214
   8        3PY         0.00000   0.00000   0.19649
   9        3PZ         0.00000   0.00000   0.00000   0.16634
  10        4S          0.21260   0.00000   0.00000   0.00000   0.18393
  11        4PX         0.00000   0.07132   0.00000   0.00000   0.00000
  12        4PY         0.00000   0.00000   0.06455   0.00000   0.00000
  13        4PZ         0.00000   0.00000   0.00000   0.10073   0.00000
  14 2   H  1S          0.01573   0.01065   0.03186   0.00003   0.01829
  15        2S          0.04086   0.01953   0.05740   0.00003   0.04743
  16        3S          0.00284   0.00398   0.01028   0.00000   0.00873
  17 3   H  1S          0.01689   0.04407   0.00000   0.00003   0.01851
  18        2S          0.04249   0.07722   0.00000   0.00004   0.04682
  19        3S          0.00289   0.01387  -0.00000   0.00000   0.00778
  20 4   C  1S         -0.00059  -0.00057  -0.00171   0.00000   0.00032
  21        2S         -0.00099  -0.00105  -0.00314   0.00000   0.00029
  22        2PX         0.00240   0.00019   0.00547   0.00000   0.00079
  23        2PY         0.00726   0.00551   0.01061   0.00000   0.00239
  24        2PZ         0.00000  -0.00000  -0.00000   0.00610   0.00000
  25        3S          0.02163   0.01340   0.04012  -0.00000   0.00032
  26        3PX         0.01248  -0.00126   0.01845   0.00000   0.00397
  27        3PY         0.03777   0.01853   0.02858   0.00000   0.01204
  28        3PZ         0.00000  -0.00000  -0.00000   0.03514   0.00000
  29        4S          0.00064   0.00495   0.01499  -0.00000  -0.02044
  30        4PX         0.00632  -0.00400   0.00586   0.00000   0.00193
  31        4PY         0.01876   0.00590   0.00131   0.00000   0.00538
  32        4PZ         0.00000  -0.00000  -0.00000   0.04925   0.00000
  33 5   H  1S         -0.00006  -0.00000  -0.00019   0.00000  -0.00080
  34        2S         -0.00123   0.00006  -0.00325  -0.00000  -0.00322
  35        3S         -0.00199   0.00011  -0.00424  -0.00000  -0.00122
  36 6   H  1S         -0.00005  -0.00012  -0.00005   0.00000  -0.00078
  37        2S         -0.00115  -0.00253  -0.00051  -0.00000  -0.00323
  38        3S         -0.00190  -0.00351  -0.00055  -0.00000  -0.00136
                          11        12        13        14        15
  11        4PX         0.05998
  12        4PY         0.00000   0.05121
  13        4PZ         0.00000   0.00000   0.14287
  14 2   H  1S          0.00634   0.01744   0.00002   0.08068
  15        2S          0.01544   0.04093   0.00001   0.07722   0.15016
  16        3S          0.00526   0.01194  -0.00000   0.01374   0.04162
  17 3   H  1S          0.02356  -0.00000   0.00002  -0.00001  -0.00063
  18        2S          0.05498  -0.00000   0.00001  -0.00063  -0.00523
  19        3S          0.01648  -0.00000  -0.00000  -0.00197  -0.00783
  20 4   C  1S         -0.00019  -0.00058   0.00000   0.00000   0.00002
  21        2S         -0.00047  -0.00145   0.00000   0.00000   0.00003
  22        2PX        -0.00071   0.00138   0.00000  -0.00000   0.00000
  23        2PY         0.00139   0.00096   0.00000  -0.00000  -0.00036
  24        2PZ        -0.00000  -0.00000   0.00899   0.00000   0.00000
  25        3S          0.00652   0.02014  -0.00000  -0.00007  -0.00147
  26        3PX        -0.00418   0.00559   0.00000  -0.00000   0.00004
  27        3PY         0.00563   0.00129   0.00000  -0.00022  -0.00354
  28        3PZ        -0.00000  -0.00000   0.04890   0.00000   0.00000
  29        4S          0.00251   0.00832  -0.00000  -0.00104  -0.00442
  30        4PX        -0.00711   0.00317   0.00000   0.00001   0.00016
  31        4PY         0.00319  -0.00559   0.00000  -0.00243  -0.01030
  32        4PZ        -0.00000  -0.00000   0.08975   0.00000  -0.00000
  33 5   H  1S          0.00002  -0.00233   0.00000   0.00000   0.00000
  34        2S          0.00027  -0.00984  -0.00000   0.00000   0.00016
  35        3S          0.00029  -0.00728  -0.00000   0.00023   0.00146
  36 6   H  1S         -0.00175  -0.00048   0.00000  -0.00000  -0.00004
  37        2S         -0.00826  -0.00103  -0.00000  -0.00004  -0.00090
  38        3S         -0.00653  -0.00030  -0.00000  -0.00046  -0.00245
                          16        17        18        19        20
  16        3S          0.02118
  17 3   H  1S         -0.00200   0.08225
  18        2S         -0.00789   0.07755   0.14866
  19        3S         -0.00661   0.01349   0.04036   0.02022
  20 4   C  1S          0.00009   0.00000   0.00002   0.00009   0.65947
  21        2S          0.00016   0.00000   0.00003   0.00016   0.49332
  22        2PX         0.00001  -0.00000  -0.00028  -0.00059   0.00000
  23        2PY        -0.00074  -0.00000  -0.00008  -0.00013   0.00000
  24        2PZ        -0.00000   0.00000   0.00000  -0.00000   0.00000
  25        3S         -0.00244  -0.00007  -0.00152  -0.00246  -0.02939
  26        3PX         0.00006  -0.00016  -0.00290  -0.00366   0.00000
  27        3PY        -0.00446  -0.00007  -0.00066  -0.00068   0.00000
  28        3PZ        -0.00000   0.00000   0.00000  -0.00000   0.00000
  29        4S         -0.00228  -0.00105  -0.00434  -0.00210  -0.01232
  30        4PX         0.00017  -0.00186  -0.00870  -0.00673   0.00000
  31        4PY        -0.00758  -0.00058  -0.00143  -0.00054   0.00000
  32        4PZ        -0.00000   0.00000  -0.00000  -0.00000   0.00000
  33 5   H  1S          0.00023  -0.00000  -0.00004  -0.00043  -0.00022
  34        2S          0.00144  -0.00004  -0.00092  -0.00236  -0.00161
  35        3S          0.00246  -0.00046  -0.00244  -0.00285   0.00005
  36 6   H  1S         -0.00043   0.00000   0.00000   0.00022  -0.00020
  37        2S         -0.00238   0.00000   0.00015   0.00141  -0.00156
  38        3S         -0.00290   0.00023   0.00145   0.00242   0.00004
                          21        22        23        24        25
  21        2S          0.49209
  22        2PX         0.00000   0.08277
  23        2PY         0.00000   0.00000   0.08776
  24        2PZ         0.00000   0.00000   0.00000   0.06418
  25        3S         -0.06463   0.00000   0.00000   0.00000   0.45395
  26        3PX         0.00000   0.08098   0.00000   0.00000   0.00000
  27        3PY         0.00000   0.00000   0.08277   0.00000   0.00000
  28        3PZ         0.00000   0.00000   0.00000   0.06466   0.00000
  29        4S         -0.02166   0.00000   0.00000   0.00000   0.21565
  30        4PX         0.00000   0.01613   0.00000   0.00000   0.00000
  31        4PY         0.00000   0.00000   0.01479   0.00000   0.00000
  32        4PZ         0.00000   0.00000   0.00000   0.02112   0.00000
  33 5   H  1S         -0.00032   0.00154   0.00582   0.00001   0.01572
  34        2S         -0.00307   0.00388   0.01373   0.00001   0.03974
  35        3S         -0.00005   0.00068   0.00199   0.00000   0.00255
  36 6   H  1S         -0.00029   0.00689   0.00002   0.00001   0.01497
  37        2S         -0.00298   0.01728   0.00001   0.00001   0.03893
  38        3S         -0.00007   0.00270  -0.00001   0.00000   0.00265
                          26        27        28        29        30
  26        3PX         0.20049
  27        3PY         0.00000   0.19774
  28        3PZ         0.00000   0.00000   0.16458
  29        4S          0.00000   0.00000   0.00000   0.18598
  30        4PX         0.07482   0.00000   0.00000   0.00000   0.06644
  31        4PY         0.00000   0.06629   0.00000   0.00000   0.00000
  32        4PZ         0.00000   0.00000   0.10036   0.00000   0.00000
  33 5   H  1S          0.00912   0.03382   0.00004   0.01761   0.00578
  34        2S          0.01749   0.06009   0.00004   0.04397   0.01463
  35        3S          0.00383   0.01069   0.00000   0.00668   0.00531
  36 6   H  1S          0.04162   0.00009   0.00003   0.01754   0.02452
  37        2S          0.07708  -0.00001   0.00003   0.04475   0.05905
  38        3S          0.01480  -0.00009   0.00000   0.00754   0.01866
                          31        32        33        34        35
  31        4PY         0.05358
  32        4PZ         0.00000   0.14335
  33 5   H  1S          0.01863   0.00002   0.08132
  34        2S          0.04342   0.00001   0.07784   0.15180
  35        3S          0.01275  -0.00000   0.01417   0.04325   0.02260
  36 6   H  1S         -0.00004   0.00002  -0.00001  -0.00081  -0.00235
  37        2S         -0.00025   0.00001  -0.00081  -0.00671  -0.00964
  38        3S         -0.00020  -0.00000  -0.00239  -0.00970  -0.00834
                          36        37        38
  36 6   H  1S          0.08013
  37        2S          0.07748   0.15252
  38        3S          0.01427   0.04389   0.02308
     Gross orbital populations:
                           1
   1 1   C  1S          1.10436
   2        2S          0.88585
   3        2PX         0.22654
   4        2PY         0.23525
   5        2PZ         0.16619
   6        3S          0.79239
   7        3PX         0.56037
   8        3PY         0.55467
   9        3PZ         0.42280
  10        4S          0.50680
  11        4PX         0.25944
  12        4PY         0.21245
  13        4PZ         0.41239
  14 2   H  1S          0.27205
  15        2S          0.46790
  16        3S          0.08706
  17 3   H  1S          0.27689
  18        2S          0.46536
  19        3S          0.08298
  20 4   C  1S          1.10440
  21        2S          0.88584
  22        2PX         0.22241
  23        2PY         0.23636
  24        2PZ         0.16549
  25        3S          0.79279
  26        3PX         0.55289
  27        3PY         0.55721
  28        3PZ         0.41986
  29        4S          0.50599
  30        4PX         0.27469
  31        4PY         0.21563
  32        4PZ         0.41290
  33 5   H  1S          0.27407
  34        2S          0.46877
  35        3S          0.08773
  36 6   H  1S          0.27038
  37        2S          0.47034
  38        3S          0.09049
          Condensed to atoms (all electrons):
               1          2          3          4          5          6
     1  C    5.033823   0.386823   0.388050   0.601334  -0.035662  -0.034861
     2  H    0.386823   0.517197  -0.032791  -0.040602   0.005986  -0.009600
     3  H    0.388050  -0.032791   0.513941  -0.040298  -0.009552   0.005886
     4  C    0.601334  -0.040602  -0.040298   5.058175   0.384326   0.383531
     5  H   -0.035662   0.005986  -0.009552   0.384326   0.526225  -0.040761
     6  H   -0.034861  -0.009600   0.005886   0.383531  -0.040761   0.527016
 Mulliken charges:
               1
     1  C   -0.339508
     2  H    0.172986
     3  H    0.174764
     4  C   -0.346467
     5  H    0.169437
     6  H    0.168789
 Sum of Mulliken charges =  -0.00000
 Mulliken charges with hydrogens summed into heavy atoms:
               1
     1  C    0.008242
     4  C   -0.008242
 Electronic spatial extent (au):  <R**2>=             83.7849
 Charge=             -0.0000 electrons
 Dipole moment (field-independent basis, Debye):
    X=              0.0016    Y=              0.0284    Z=             -0.1287  Tot=              0.1318
 Quadrupole moment (field-independent basis, Debye-Ang):
   XX=            -12.2036   YY=            -12.2257   ZZ=            -15.6751
   XY=              0.0069   XZ=             -0.0021   YZ=             -0.0054
 Traceless Quadrupole moment (field-independent basis, Debye-Ang):
   XX=              1.1646   YY=              1.1424   ZZ=             -2.3070
   XY=              0.0069   XZ=             -0.0021   YZ=             -0.0054
 Octapole moment (field-independent basis, Debye-Ang**2):
  XXX=             -0.3605  YYY=             -0.0222  ZZZ=             -0.0719  XYY=              0.2153
  XXY=             -0.0103  XXZ=             -0.1707  XZZ=             -0.0927  YZZ=             -0.0657
  YYZ=             -0.2258  XYZ=             -0.0474
 Hexadecapole moment (field-independent basis, Debye-Ang**3):
 XXXX=            -34.3153 YYYY=            -55.2864 ZZZZ=            -17.8338 XXXY=             -7.2577
 XXXZ=              0.0180 YYYX=            -10.7292 YYYZ=              0.0226 ZZZX=              0.0270
 ZZZY=              0.0445 XXYY=            -16.2122 XXZZ=             -9.9344 YYZZ=            -13.6571
 XXYZ=              0.0071 YYXZ=             -0.0017 ZZXY=             -3.2062
 N-N= 3.304620668418D+01 E-N=-2.477980112833D+02  KE= 7.814630702864D+01
 Orbital energies and kinetic energies (alpha):
                                 1                 2
   1         O               -10.290041         15.976994
   2         O               -10.288862         15.981618
   3         O                -0.863501          1.536745
   4         O                -0.672229          1.271509
   5         O                -0.559237          0.941207
   6         O                -0.508891          1.283193
   7         O                -0.436725          1.043616
   8         O                -0.356616          1.038271
   9         V                 0.079329          1.182491
  10         V                 0.140779          0.589859
  11         V                 0.164674          0.594259
  12         V                 0.170096          0.680646
  13         V                 0.240764          0.583484
  14         V                 0.372548          0.851623
  15         V                 0.393452          0.933376
  16         V                 0.399155          0.785272
  17         V                 0.464627          1.190725
  18         V                 0.488032          1.423208
  19         V                 0.493934          1.302565
  20         V                 0.590876          1.652082
  21         V                 0.665557          1.572407
  22         V                 0.690576          2.147018
  23         V                 0.773124          2.442667
  24         V                 0.774673          2.301599
  25         V                 0.840429          1.082830
  26         V                 0.950892          3.416222
  27         V                 2.231711          3.926730
  28         V                 2.290774          4.027130
  29         V                 2.331974          4.304086
  30         V                 2.405472          4.513291
  31         V                 2.670934          6.300297
  32         V                 2.817185          6.304029
  33         V                 2.878939          6.140797
  34         V                 2.951775          6.225770
  35         V                 3.139446          6.820700
  36         V                 3.317755          6.403778
  37         V                23.352316         60.074898
  38         V                23.704600         60.202889
 Total kinetic energy from orbitals= 7.814630702864D+01
 Calling FoFJK, ICntrl=      2127 FMM=F ISym2X=0 I1Cent= 0 IOpClX= 0 NMat=1 NMatS=1 NMatT=0.
 -------------------------------------------------------------------
 Center     Atomic                   Forces (Hartrees/Bohr)
 Number     Number              X              Y              Z
 -------------------------------------------------------------------
      1        6           0.015064381    0.007572396   -0.005136400
      2        1          -0.011382168    0.008591202    0.002664805
      3        1           0.003533921   -0.005159471    0.002364160
      4        6           0.008870661    0.005747085   -0.005697529
      5        1           0.000580391   -0.010847653    0.002802175
      6        1          -0.016667186   -0.005903559    0.003002789
 -------------------------------------------------------------------
 Cartesian Forces:  Max     0.016667186 RMS     0.008019161

 GradGradGradGradGradGradGradGradGradGradGradGradGradGradGradGradGradGrad
 Berny optimization.
 Search for a local minimum.
 Step number   1 out of a maximum of    2
 All quantities printed in internal units (Hartrees-Bohrs-Radians)
 Second derivative matrix not updated -- first step.
 The second derivative matrix:
                          X1        Y1        Z1        X2        Y2
           X1           0.75426
           Y1           0.09724   0.84994
           Z1           0.00745   0.01141   0.16928
           X2          -0.16274   0.09440   0.00265   0.14019
           Y2           0.10022  -0.27786  -0.00947  -0.11347   0.26674
           Z2           0.00419  -0.01190  -0.05435  -0.00384   0.00980
           X3          -0.35074  -0.00002  -0.01036  -0.00008  -0.00003
           Y3          -0.00559  -0.10981  -0.00251   0.03214   0.01879
           Z3          -0.01325  -0.00242  -0.05564   0.00195   0.00073
           X4          -0.26603  -0.17704  -0.00109   0.02266   0.01327
           Y4          -0.17765  -0.47049  -0.00182  -0.01309  -0.00767
           Z4           0.00159   0.00287  -0.09343  -0.00077  -0.00106
           X5           0.02355  -0.01360   0.00083  -0.00001   0.00001
           Y5           0.01177  -0.00680   0.00113   0.00001  -0.00000
           Z5          -0.00063   0.00039   0.01733   0.00032  -0.00017
           X6           0.00170  -0.00098   0.00052  -0.00001   0.00001
           Y6          -0.02600   0.01502   0.00126   0.00001  -0.00000
           Z6           0.00065  -0.00035   0.01681  -0.00032   0.00017
                          Z2        X3        Y3        Z3        X4
           Z2           0.02828
           X3          -0.00037   0.35081
           Y3           0.00208   0.00006   0.07565
           Z3           0.01047   0.01129   0.00167   0.02928
           X4           0.00069   0.00004  -0.02663  -0.00067   0.71395
           Y4          -0.00037  -0.00002   0.01538   0.00041   0.11869
           Z4           0.01554  -0.00056  -0.00125   0.01595  -0.00680
           X5          -0.00034  -0.00001   0.00001   0.00034  -0.14806
           Y5           0.00021   0.00001  -0.00000  -0.00021   0.09448
           Z5           0.00916   0.00033  -0.00020  -0.00933  -0.00426
           X6          -0.00033  -0.00001   0.00001   0.00034  -0.32255
           Y6           0.00018   0.00001  -0.00000  -0.00018  -0.02276
           Z6          -0.00910  -0.00033   0.00020   0.00927   0.01214
                          Y4        Z4        X5        Y5        Z5
           Y4           0.86079
           Z4          -0.01316   0.17601
           X5           0.08616  -0.00282   0.12670
           Y5          -0.29326   0.01002  -0.10520   0.28379
           Z5           0.01241  -0.05737   0.00377  -0.01066   0.02996
           X6          -0.01408   0.00935  -0.00217  -0.00107   0.00048
           Y6          -0.10475   0.00259   0.03263   0.01628  -0.00176
           Z6           0.00254  -0.05669  -0.00179  -0.00048   0.01026
                          X6        Y6        Z6
           X6           0.32305
           Y6           0.01611   0.07346
           Z6          -0.01035  -0.00208   0.02945
 ITU=  0
     Eigenvalues ---    0.03694   0.04373   0.09077   0.10126   0.13483
     Eigenvalues ---    0.17455   0.26177   0.28973   0.52768   0.70144
     Eigenvalues ---    0.97192   1.55532
 Angle between quadratic step and forces=  35.27 degrees.
 Linear search not attempted -- first point.
 B after Tr=     0.006686    0.007008   -0.013265
         Rot=    1.000000   -0.000039    0.000020   -0.000120 Ang=  -0.01 deg.
 Variable       Old X    -DE/DX   Delta X   Delta X   Delta X     New X
                                 (Linear)    (Quad)   (Total)
    X1       -0.63561   0.01506   0.00000   0.02165   0.02860  -0.60701
    Y1       -1.09961   0.00757   0.00000   0.02324   0.03010  -1.06951
    Z1        0.01548  -0.00514   0.00000  -0.02791  -0.04128  -0.02580
    X2        0.41880  -0.01138   0.00000  -0.04145  -0.03408   0.38473
    Y2       -2.89577   0.00859   0.00000   0.02981   0.03691  -2.85886
    Z2       -0.05541   0.00266   0.00000   0.03450   0.02102  -0.03439
    X3       -2.68914   0.00353   0.00000   0.02981   0.03676  -2.65238
    Y3       -1.10051  -0.00516   0.00000  -0.02480  -0.01843  -1.11894
    Z3       -0.05652   0.00236   0.00000   0.03357   0.02011  -0.03641
    X4        0.63059   0.00887   0.00000   0.00601   0.01243   0.64302
    Y4        1.09243   0.00575   0.00000   0.00580   0.01296   1.10539
    Z4        0.01243  -0.00570   0.00000  -0.02699  -0.04014  -0.02771
    X5       -0.29995   0.00058   0.00000  -0.01437  -0.00838  -0.30833
    Y5        2.94944  -0.01085   0.00000  -0.03533  -0.02840   2.92104
    Z5       -0.06348   0.00280   0.00000   0.03365   0.02061  -0.04288
    X6        2.72528  -0.01667   0.00000  -0.04174  -0.03534   2.68995
    Y6        1.22753  -0.00590   0.00000  -0.04079  -0.03314   1.19439
    Z6       -0.06199   0.00300   0.00000   0.03275   0.01969  -0.04230
         Item               Value     Threshold  Converged?
 Maximum Force            0.016667     0.000450     NO 
 RMS     Force            0.008019     0.000300     NO 
 Maximum Displacement     0.041282     0.001800     NO 
 RMS     Displacement     0.028342     0.001200     NO 
 Predicted change in Energy=-1.761202D-03
 GradGradGradGradGradGradGradGradGradGradGradGradGradGradGradGradGradGrad

 Unable to Open any file for archive entry.
 1\1\GINC-BHD0006\Force\RwB97XD\6-311G\C2H4\BWEIGHT\11-Jan-2023\0\\# WB
 97XD/6-311G SCF=XQC FORCE nosym pop=full guess=read\\MD Step 1000\\0,1
 \C,-0.33634838,-0.58188693,0.00819262\H,0.22162139,-1.53237692,-0.0293
 2062\H,-1.42303228,-0.58236283,-0.02991032\C,0.33369329,0.5780912,0.00
 657758\H,-0.15872474,1.56077594,-0.03359339\H,1.44215822,0.64958123,-0
 .03280353\\Version=ES64L-G16RevC.01\HF=-78.5555061\RMSD=5.908e-09\RMSF
 =8.019e-03\Dipole=0.000645,0.0111599,-0.0506459\Quadrupole=0.8658362,0
 .8493669,-1.7152031,0.0051629,-0.0015347,-0.0040406\PG=C01 [X(C2H4)]\\
 @
 The archive entry for this job was punched.


 A MAN SHOULD NEVER BE ASHAMED TO OWN HE HAS BEEN IN THE WRONG
 WHICH IS BUT SAYING IN OTHER WORDS,
 THAT HE IS WISER TODAY THAN HE WAS YESTERDAY.

                          -- JONATHAN SWIFT
 Job cpu time:       0 days  0 hours  0 minutes 43.4 seconds.
 Elapsed time:       0 days  0 hours  0 minutes 18.0 seconds.
 File lengths (MBytes):  RWF=    272 Int=      0 D2E=      0 Chk=     32 Scr=     32
 Normal termination of Gaussian 16 at Wed Jan 11 18:38:43 2023.
