6
MD Step 0
C  -0.33763715 -0.58748864 0.00000000
H  0.19552659 -1.51519357 0.00000000
H  -1.40763715 -0.58748864 0.00000000
C  0.33763715 0.58748865 0.00000000
H  -0.19552659 1.51519357 0.00000000
H  1.40763715 0.58748865 0.00000000
6
MD Step 1
C  -0.33800540 -0.58783553 -0.00039429
H  0.19788685 -1.51298983 0.00234892
H  -1.40541754 -0.58521008 0.00235043
C  0.33721613 0.58704713 -0.00039466
H  -0.19318391 1.51768807 0.00235016
H  1.41011957 0.58990642 0.00235166
6
MD Step 2
C  -0.33831536 -0.58808368 -0.00078648
H  0.20025783 -1.51110719 0.00468531
H  -1.40353058 -0.58309300 0.00468841
C  0.33674972 0.58651590 -0.00078719
H  -0.19087004 1.52043774 0.00468766
H  1.41279889 0.59244416 0.00469057
6
MD Step 3
C  -0.33856518 -0.58823394 -0.00117818
H  0.20264783 -1.50954625 0.00701865
H  -1.40201091 -0.58113473 0.00702368
C  0.33624137 0.58589736 -0.00117912
H  -0.18856811 1.52342215 0.00702165
H  1.41562176 0.59510161 0.00702559
6
MD Step 4
C  -0.33874481 -0.58827927 -0.00156201
H  0.20500844 -1.50835394 0.00930493
H  -1.40093730 -0.57938514 0.00931266
C  0.33570378 0.58520384 -0.00156293
H  -0.18631262 1.52656197 0.00930753
H  1.41847846 0.59782404 0.00931173
6
MD Step 5
C  -0.33885720 -0.58822586 -0.00194269
H  0.20735991 -1.50749771 0.01157209
H  -1.40030493 -0.57782103 0.01158388
C  0.33513771 0.58443644 -0.00194318
H  -0.18406446 1.52984558 0.01157253
H  1.42133105 0.60062798 0.01157571
6
MD Step 6
C  -0.33890383 -0.58807858 -0.00232254
H  0.20970505 -1.50695242 0.01383368
H  -1.40011160 -0.57643262 0.01385152
C  0.33454637 0.58359947 -0.00232197
H  -0.18179775 1.53324348 0.01382927
H  1.42412798 0.60351481 0.01382959
6
MD Step 7
C  -0.33887920 -0.58783531 -0.00269583
H  0.21199620 -1.50673417 0.01605547
H  -1.40039093 -0.57525686 0.01608213
C  0.33394101 0.58270589 -0.00269336
H  -0.17953360 1.53667584 0.01604254
H  1.42677193 0.60643747 0.01603754
6
MD Step 8
C  -0.33878416 -0.58750023 -0.00306215
H  0.21421497 -1.50682118 0.01823491
H  -1.40113210 -0.57429789 0.01827390
C  0.33332741 0.58176389 -0.00305674
H  -0.17726128 1.54009326 0.01820875
H  1.42920125 0.60938019 0.01819534
6
MD Step 9
C  -0.33862517 -0.58708293 -0.00342560
H  0.21636779 -1.50715951 0.02039617
H  -1.40228511 -0.57353204 0.02045161
C  0.33270665 0.58077757 -0.00341596
H  -0.17494367 1.54347289 0.02035093
H  1.43138618 0.61235361 0.02032558
6
MD Step 10
C  -0.33839802 -0.58658217 -0.00377859
H  0.21839040 -1.50776006 0.02249405
H  -1.40385825 -0.57300379 0.02257081
C  0.33209124 0.57976294 -0.00376328
H  -0.17261367 1.54672321 0.02242291
H  1.43323327 0.61529880 0.02238147
6
MD Step 11
C  -0.33810898 -0.58600688 -0.00412299
H  0.22027394 -1.50857365 0.02453967
H  -1.40579262 -0.57270013 0.02464299
C  0.33148389 0.57872675 -0.00410041
H  -0.17024916 1.54981092 0.02443480
H  1.43471256 0.61821314 0.02437277
6
MD Step 12
C  -0.33776795 -0.58536938 -0.00446341
H  0.22202579 -1.50953183 0.02656063
H  -1.40800372 -0.57259041 0.02669578
C  0.33088420 0.57767300 -0.00443181
H  -0.16781321 1.55272188 0.02641320
H  1.43581817 0.62111060 0.02632606
6
MD Step 13
C  -0.33738133 -0.58467819 -0.00480022
H  0.22362826 -1.51058994 0.02855913
H  -1.41042570 -0.57266814 0.02873134
C  0.33029568 0.57660993 -0.00475772
H  -0.16529609 1.55541986 0.02835949
H  1.43652632 0.62397989 0.02824269
6
MD Step 14
C  -0.33694976 -0.58393588 -0.00512734
H  0.22502676 -1.51174047 0.03049953
H  -1.41302557 -0.57296344 0.03071416
C  0.32972785 0.57555197 -0.00507215
H  -0.16272797 1.55783475 0.03023752
H  1.43678325 0.62677210 0.03008625
6
MD Step 15
C  -0.33648108 -0.58315192 -0.00544545
H  0.22620784 -1.51293627 0.03238605
H  -1.41572688 -0.57346545 0.03264797
C  0.32918312 0.57450660 -0.00537574
H  -0.16010174 1.55994098 0.03205094
H  1.43658350 0.62947857 0.03186067
6
MD Step 16
C  -0.33597967 -0.58233212 -0.00575129
H  0.22713697 -1.51415398 0.03419999
H  -1.41847429 -0.57418495 0.03451370
C  0.32866730 0.57348482 -0.00566540
H  -0.15743571 1.56169536 0.03378084
H  1.43590742 0.63206826 0.03354712
6
MD Step 17
C  -0.33545295 -0.58148515 -0.00604446
H  0.22779865 -1.51535521 0.03593948
H  -1.42119543 -0.57511476 0.03630871
C  0.32818291 0.57249433 -0.00594086
H  -0.15473415 1.56307724 0.03542521
H  1.43476095 0.63452757 0.03514406
6
MD Step 18
C  -0.33491186 -0.58062302 -0.00632802
H  0.22820018 -1.51648374 0.03762304
H  -1.42379917 -0.57622634 0.03805007
C  0.32772858 0.57153894 -0.00620522
H  -0.15198397 1.56409230 0.03700240
H  1.43317910 0.63686397 0.03667092
6
MD Step 19
C  -0.33435577 -0.57974597 -0.00659324
H  0.22828282 -1.51755541 0.03920004
H  -1.42626667 -0.57755888 0.03968709
C  0.32731408 0.57063338 -0.00645029
H  -0.14924353 1.56468348 0.03846247
H  1.43113636 0.63901667 0.03807746
6
MD Step 20
C  -0.33379380 -0.57886391 -0.00684147
H  0.22804976 -1.51853068 0.04067898
H  -1.42852411 -0.57909176 0.04122679
C  0.32693874 0.56978188 -0.00667761
H  -0.14651537 1.56485925 0.03981425
H  1.42867486 0.64098486 0.03937366
6
MD Step 21
C  -0.33322994 -0.57798145 -0.00706900
H  0.22747813 -1.51940337 0.04203892
H  -1.43053237 -0.58083267 0.04264750
C  0.32660629 0.56899283 -0.00688397
H  -0.14383401 1.56460535 0.04103768
H  1.42581584 0.64273936 0.04053990
6
MD Step 22
C  -0.33267378 -0.57710877 -0.00727824
H  0.22658384 -1.52013613 0.04329460
H  -1.43222291 -0.58275310 0.04396212
C  0.32631397 0.56826789 -0.00707200
H  -0.14120138 1.56394974 0.04214814
H  1.42262409 0.64428767 0.04159309
6
MD Step 23
C  -0.33213362 -0.57625464 -0.00747072
H  0.22538098 -1.52070164 0.04445552
H  -1.43353975 -0.58482907 0.04517837
C  0.32605940 0.56760881 -0.00724350
H  -0.13862718 1.56292155 0.04315600
H  1.41916653 0.64563314 0.04254519
6
MD Step 24
C  -0.33160927 -0.57541919 -0.00763965
H  0.22383904 -1.52112558 0.04548289
H  -1.43448306 -0.58708390 0.04625738
C  0.32584785 0.56702455 -0.00739249
H  -0.13617125 1.56150814 0.04402414
H  1.41546853 0.64673214 0.04335911
6
MD Step 25
C  -0.33110658 -0.57460860 -0.00778513
H  0.22197058 -1.52139900 0.04637784
H  -1.43502150 -0.58950091 0.04719895
C  0.32567741 0.56651658 -0.00751951
H  -0.13385608 1.55974264 0.04475503
H  1.41160122 0.64758201 0.04403866
6
MD Step 26
C  -0.33063162 -0.57382916 -0.00790806
H  0.21979617 -1.52151333 0.04714626
H  -1.43512764 -0.59205835 0.04800749
C  0.32554498 0.56608472 -0.00762583
H  -0.13170143 1.55766855 0.04535594
H  1.40764549 0.64818603 0.04459261
6
MD Step 27
C  -0.33018988 -0.57308657 -0.00800948
H  0.21734022 -1.52146457 0.04779464
H  -1.43478253 -0.59473366 0.04868804
C  0.32544701 0.56572790 -0.00771288
H  -0.12972797 1.55533510 0.04583487
H  1.40368648 0.64854927 0.04503055
6
MD Step 28
C  -0.32978186 -0.57238145 -0.00808594
H  0.21460430 -1.52127965 0.04830345
H  -1.43400238 -0.59752998 0.04922093
C  0.32538406 0.56544856 -0.00777790
H  -0.12798322 1.55277007 0.04617424
H  1.39978567 0.64865202 0.04533535
6
MD Step 29
C  -0.32941153 -0.57171790 -0.00813838
H  0.21161808 -1.52096515 0.04867854
H  -1.43278741 -0.60042537 0.04961094
C  0.32535223 0.56524422 -0.00782221
H  -0.12649037 1.55003015 0.04638156
H  1.39603045 0.64850092 0.04551582
6
MD Step 30
C  -0.32908212 -0.57109929 -0.00816776
H  0.20841380 -1.52053238 0.04892571
H  -1.43114709 -0.60339807 0.04986296
C  0.32534757 0.56511173 -0.00784710
H  -0.12527284 1.54717477 0.04646429
H  1.39250707 0.64810358 0.04558063
6
MD Step 31
C  -0.32879546 -0.57052763 -0.00817440
H  0.20502235 -1.52000065 0.04904704
H  -1.42910377 -0.60643026 0.04997863
C  0.32536679 0.56504801 -0.00785327
H  -0.12435732 1.54426138 0.04642624
H  1.38929497 0.64746484 0.04553429
6
MD Step 32
C  -0.32855920 -0.57001084 -0.00816562
H  0.20151604 -1.51935389 0.04908418
H  -1.42664946 -0.60946533 0.04999741
C  0.32540011 0.56504293 -0.00784759
H  -0.12373040 1.54138722 0.04631021
H  1.38650757 0.64662974 0.04542199
6
MD Step 33
C  -0.32836701 -0.56954288 -0.00813480
H  0.19789014 -1.51865843 0.04899963
H  -1.42386411 -0.61252577 0.04988368
C  0.32545141 0.56509924 -0.00782441
H  -0.12345523 1.53856971 0.04608060
H  1.38417155 0.64556502 0.04520658
6
MD Step 34
C  -0.32822397 -0.56912938 -0.00808833
H  0.19421421 -1.51791048 0.04882925
H  -1.42076290 -0.61556189 0.04967187
C  0.32551263 0.56520728 -0.00778959
H  -0.12351998 1.53589713 0.04577426
H  1.38237710 0.64431110 0.04492640
6
MD Step 35
C  -0.32812079 -0.56876167 -0.00801808
H  0.19047709 -1.51719023 0.04852692
H  -1.41745053 -0.61860620 0.04931865
C  0.32559002 0.56537101 -0.00773602
H  -0.12399100 1.53337244 0.04534649
H  1.38112117 0.64282715 0.04453427
6
MD Step 36
C  -0.32805752 -0.56844069 -0.00792667
H  0.18672809 -1.51651900 0.04810695
H  -1.41397791 -0.62163187 0.04883846
C  0.32568025 0.56558433 -0.00766600
H  -0.12487107 1.53105418 0.04481231
H  1.38044855 0.64113310 0.04404507
6
MD Step 37
C  -0.32802673 -0.56816010 -0.00780936
H  0.18297540 -1.51595962 0.04754246
H  -1.41044234 -0.62465380 0.04820680
C  0.32578746 0.56584818 -0.00757538
H  -0.12619954 1.52895398 0.04414545
H  1.38034963 0.63920837 0.04343028
6
MD Step 38
C  -0.32803296 -0.56792584 -0.00767480
H  0.17930115 -1.51549953 0.04688150
H  -1.40686999 -0.62761283 0.04747102
C  0.32590383 0.56615117 -0.00747164
H  -0.12793636 1.52715158 0.04339415
H  1.38087602 0.63710784 0.04273873
6
MD Step 39
C  -0.32807130 -0.56773460 -0.00752204
H  0.17573262 -1.51517866 0.04611825
H  -1.40334370 -0.63050434 0.04662715
C  0.32603118 0.56649131 -0.00735379
H  -0.13008971 1.52566490 0.04255260
H  1.38201085 0.63483315 0.04196278
6
MD Step 40
C  -0.32814158 -0.56758810 -0.00735570
H  0.17232613 -1.51500386 0.04527778
H  -1.39991670 -0.63329359 0.04570099
C  0.32616676 0.56686185 -0.00722558
H  -0.13263119 1.52453407 0.04164567
H  1.38375379 0.63241742 0.04112657
6
MD Step 41
C  -0.32823495 -0.56747965 -0.00717146
H  0.16908577 -1.51502910 0.04433517
H  -1.39669219 -0.63599685 0.04467030
C  0.32631674 0.56726497 -0.00708288
H  -0.13557646 1.52373976 0.04064772
H  1.38604030 0.62984427 0.04020191
6
MD Step 42
C  -0.32834340 -0.56740362 -0.00696608
H  0.16601903 -1.51529814 0.04327172
H  -1.39376463 -0.63862487 0.04351886
C  0.32648665 0.56770230 -0.00692248
H  -0.13892909 1.52325963 0.03953907
H  1.38879980 0.62710433 0.03916684
6
MD Step 43
C  -0.32846602 -0.56736159 -0.00674380
H  0.16317181 -1.51580800 0.04211040
H  -1.39118180 -0.64114708 0.04227075
C  0.32667528 0.56816889 -0.00674775
H  -0.14264494 1.52310437 0.03834191
H  1.39199344 0.62423092 0.03804261
6
MD Step 44
C  -0.32860281 -0.56735613 -0.00650969
H  0.16059104 -1.51654550 0.04087878
H  -1.38898025 -0.64352867 0.04095457
C  0.32688079 0.56865945 -0.00656278
H  -0.14666954 1.52328082 0.03708318
H  1.39557834 0.62126295 0.03685542
6
MD Step 45
C  -0.32874918 -0.56738528 -0.00626376
H  0.15829127 -1.51752032 0.03957612
H  -1.38721735 -0.64576399 0.03957121
C  0.32710621 0.56917392 -0.00636718
H  -0.15097178 1.52375913 0.03576107
H  1.39947564 0.61821169 0.03560217
6
MD Step 46
C  -0.32889839 -0.56744493 -0.00600332
H  0.15626813 -1.51875087 0.03818708
H  -1.38595580 -0.64786273 0.03810704
C  0.32735694 0.56971511 -0.00615825
H  -0.15553075 1.52448752 0.03435880
H  1.40358645 0.61507450 0.03426472
6
MD Step 47
C  -0.32904647 -0.56753355 -0.00572814
H  0.15452645 -1.52023568 0.03670982
H  -1.38523345 -0.64982129 0.03656138
C  0.32763595 0.57028379 -0.00593548
H  -0.16030801 1.52542191 0.03287342
H  1.40782284 0.61186315 0.03283933
6
MD Step 48
C  -0.32919028 -0.56765021 -0.00543820
H  0.15306805 -1.52196557 0.03514395
H  -1.38507421 -0.65163492 0.03493461
C  0.32794566 0.57088063 -0.00569859
H  -0.16526056 1.52651512 0.03130357
H  1.41209772 0.60859165 0.03132415
6
MD Step 49
C  -0.32932388 -0.56779091 -0.00512981
H  0.15187003 -1.52394572 0.03346899
H  -1.38550915 -0.65331964 0.03320699
C  0.32829148 0.57150984 -0.00544418
H  -0.17036369 1.52769622 0.02962727
H  1.41630485 0.60525437 0.02969672
6
MD Step 50
C  -0.32945304 -0.56796277 -0.00481081
H  0.15096961 -1.52611083 0.03172830
H  -1.38649064 -0.65482656 0.03142154
C  0.32866762 0.57216461 -0.00517908
H  -0.17552621 1.52895738 0.02788849
H  1.42040643 0.60191077 0.02800145
6
MD Step 51
C  -0.32957162 -0.56816074 -0.00447579
H  0.15032616 -1.52846500 0.02989207
H  -1.38803236 -0.65618185 0.02954855
C  0.32908009 0.57285061 -0.00489845
H  -0.18073100 1.53021554 0.02605599
H  1.42429425 0.59854673 0.02620703
6
MD Step 52
C  -0.32968030 -0.56838605 -0.00412578
H  0.14993148 -1.53097160 0.02796639
H  -1.39009874 -0.65737542 0.02759366
C  0.32952836 0.57356711 -0.00460325
H  -0.18592470 1.53142469 0.02413563
H  1.42790254 0.59518459 0.02431972
6
MD Step 53
C  -0.32978652 -0.56864597 -0.00376815
H  0.14980951 -1.53355482 0.02599249
H  -1.39260682 -0.65836175 0.02559722
C  0.33000539 0.57430709 -0.00430014
H  -0.19101906 1.53257623 0.02216976
H  1.43120825 0.59188226 0.02238255
6
MD Step 54
C  -0.32988654 -0.56893640 -0.00339816
H  0.14991348 -1.53620483 0.02394448
H  -1.39553235 -0.65916469 0.02353268
C  0.33051496 0.57507472 -0.00398499
H  -0.19599626 1.53359560 0.02013156
H  1.43412690 0.58862954 0.02036912
6
MD Step 55
C  -0.32998235 -0.56925834 -0.00301654
H  0.15022492 -1.53887930 0.02182698
H  -1.39881174 -0.65977773 0.02140375
C  0.33105515 0.57586857 -0.00365861
H  -0.20080982 1.53444270 0.01802574
H  1.43661322 0.58544665 0.01828477
6
MD Step 56
C  -0.33007705 -0.56961339 -0.00262484
H  0.15072799 -1.54153066 0.01964917
H  -1.40237026 -0.66019064 0.01921865
C  0.33162275 0.57668597 -0.00332256
H  -0.20541160 1.53508626 0.01586187
H  1.43863531 0.58235793 0.01613969
6
MD Step 57
C  -0.33016742 -0.56999657 -0.00221788
H  0.15136754 -1.54414980 0.01738287
H  -1.40616664 -0.66043261 0.01694829
C  0.33222033 0.57753025 -0.00297238
H  -0.20979545 1.53546169 0.01361077
H  1.44013195 0.57934919 0.01390530
6
MD Step 58
C  -0.33026676 -0.57041864 -0.00180746
H  0.15218290 -1.54663246 0.01509440
H  -1.41006042 -0.66043719 0.01465814
C  0.33283404 0.57838794 -0.00261888
H  -0.21386240 1.53560616 0.01134111
H  1.44114815 0.57650106 0.01165082
6
MD Step 59
C  -0.33036737 -0.57086948 -0.00138371
H  0.15309086 -1.54899951 0.01272936
H  -1.41403367 -0.66026301 0.01229299
C  0.33346991 0.57926592 -0.00225335
H  -0.21764157 1.53543933 0.00899655
H  1.44161445 0.57377096 0.00932049
6
MD Step 60
C  -0.33048572 -0.57136229 -0.00096190
H  0.15414982 -1.55113178 0.01037365
H  -1.41792657 -0.65982655 0.00993820
C  0.33410989 0.58014637 -0.00188979
H  -0.22102318 1.53502985 0.00666573
H  1.44161429 0.57125716 0.00700322
6
MD Step 61
C  -0.33061997 -0.57189213 -0.00053865
H  0.15531334 -1.55301984 0.00800896
H  -1.42168871 -0.65915252 0.00757497
C  0.33475314 0.58102899 -0.00152527
H  -0.22400890 1.53434614 0.00432952
H  1.44113328 0.56895118 0.00468025
6
MD Step 62
C  -0.33077380 -0.57245926 -0.00011671
H  0.15657011 -1.55462382 0.00565103
H  -1.42523967 -0.65823246 0.00521874
C  0.33539277 0.58190714 -0.00116236
H  -0.22657059 1.53339746 0.00200397
H  1.44020039 0.56687761 0.00236779
6
MD Step 63
C  -0.33093517 -0.57304830 0.00031699
H  0.15782017 -1.55599884 0.00322670
H  -1.42859500 -0.65715036 0.00279607
C  0.33603658 0.58278902 -0.00078915
H  -0.22877612 1.53210883 -0.00038675
H  1.43876234 0.56496974 -0.00000972
6
MD Step 64
C  -0.33111607 -0.57366738 0.00075038
H  0.15910781 -1.55706074 0.00080441
H  -1.43163210 -0.65584709 0.00037548
C  0.33666819 0.58365809 -0.00041675
H  -0.23055412 1.53055579 -0.00277277
H  1.43691923 0.56330254 -0.00238262
6
MD Step 65
C  -0.33131843 -0.57431459 0.00118130
H  0.16042255 -1.55778728 -0.00160336
H  -1.43429231 -0.65432204 -0.00203038
C  0.33728042 0.58450700 -0.00004715
H  -0.23189553 1.52876331 -0.00514199
H  1.43472208 0.56189298 -0.00473894
6
MD Step 66
C  -0.33154302 -0.57498682 0.00160830
H  0.16175191 -1.55816548 -0.00398798
H  -1.43652889 -0.65258002 -0.00441264
C  0.33786663 0.58532874 0.00031836
H  -0.23280040 1.52675839 -0.00748639
H  1.43222500 0.56075257 -0.00707102
6
MD Step 67
C  -0.33179245 -0.57568281 0.00202744
H  0.16309947 -1.55817389 -0.00632705
H  -1.43828968 -0.65061311 -0.00674848
C  0.33841778 0.58611363 0.00067622
H  -0.23325975 1.52458782 -0.00978399
H  1.42950239 0.55990518 -0.00935730
6
MD Step 68
C  -0.33205796 -0.57639004 0.00244596
H  0.16440706 -1.55786092 -0.00866175
H  -1.43959581 -0.64847932 -0.00907878
C  0.33893556 0.58686264 0.00103338
H  -0.23333410 1.52223935 -0.01207800
H  1.42656918 0.55930900 -0.01164136
6
MD Step 69
C  -0.33234044 -0.57710559 0.00286073
H  0.16567848 -1.55722027 -0.01097408
H  -1.44041712 -0.64617747 -0.01138501
C  0.33941175 0.58756641 0.00138708
H  -0.23302846 1.51976590 -0.01435124
H  1.42350514 0.55898043 -0.01390664
6
MD Step 70
C  -0.33263813 -0.57782399 0.00327089
H  0.16690683 -1.55626389 -0.01325910
H  -1.44074537 -0.64372051 -0.01366170
C  0.33984050 0.58821765 0.00173673
H  -0.23236534 1.51721183 -0.01660002
H  1.42038020 0.55892132 -0.01615010
6
MD Step 71
C  -0.33294943 -0.57854005 0.00367497
H  0.16809123 -1.55500504 -0.01550841
H  -1.44057761 -0.64111857 -0.01589988
C  0.34021563 0.58880847 0.00208121
H  -0.23136765 1.51462908 -0.01881719
H  1.41726977 0.55913568 -0.01836530
6
MD Step 72
C  -0.33327300 -0.57924900 0.00407084
H  0.16923726 -1.55345756 -0.01770966
H  -1.43991565 -0.63837836 -0.01808660
C  0.34053065 0.58933029 0.00241873
H  -0.23005760 1.51207677 -0.02099174
H  1.41425357 0.55963021 -0.02054195
6
MD Step 73
C  -0.33360791 -0.57994672 0.00445556
H  0.17035776 -1.55163469 -0.01984568
H  -1.43876521 -0.63550220 -0.02020407
C  0.34077877 0.58977385 0.00274672
H  -0.22845532 1.50962123 -0.02310781
H  1.41141462 0.56041528 -0.02266494
6
MD Step 74
C  -0.33394965 -0.58062581 0.00482938
H  0.17144913 -1.54957242 -0.02191803
H  -1.43715957 -0.63251164 -0.02225347
C  0.34095693 0.59013331 0.00306571
H  -0.22660190 1.50731107 -0.02516860
H  1.40881346 0.56148131 -0.02473799
6
MD Step 75
C  -0.33429473 -0.58128018 0.00519123
H  0.17251798 -1.54730212 -0.02392034
H  -1.43513229 -0.62942041 -0.02422804
C  0.34106147 0.59040182 0.00337490
H  -0.22453165 1.50520304 -0.02716923
H  1.40651340 0.56282570 -0.02675664
6
MD Step 76
C  -0.33463787 -0.58190235 0.00554147
H  0.17356429 -1.54486656 -0.02585481
H  -1.43273341 -0.62625088 -0.02612984
C  0.34109095 0.59057445 0.00367492
H  -0.22228801 1.50334409 -0.02911344
H  1.40456202 0.56443633 -0.02872477
6
MD Step 77
C  -0.33497191 -0.58248339 0.00588209
H  0.17458031 -1.54232019 -0.02773312
H  -1.43002963 -0.62303488 -0.02797076
C  0.34104641 0.59064845 0.00396798
H  -0.21992350 1.50176921 -0.03101444
H  1.40298887 0.56629072 -0.03065531
6
MD Step 78
C  -0.33529425 -0.58301934 0.00621035
H  0.17558773 -1.53969059 -0.02953900
H  -1.42706566 -0.61977569 -0.02973445
C  0.34092507 0.59061705 0.00425147
H  -0.21746117 1.50053789 -0.03285696
H  1.40184206 0.56839377 -0.03253290
6
MD Step 79
C  -0.33560103 -0.58350547 0.00652465
H  0.17660288 -1.53701247 -0.03126258
H  -1.42389810 -0.61648265 -0.03141121
C  0.34072616 0.59047541 0.00452382
H  -0.21492833 1.49969799 -0.03463200
H  1.40115230 0.57074316 -0.03434817
6
MD Step 80
C  -0.33587999 -0.58392922 0.00683151
H  0.17759356 -1.53436987 -0.03294310
H  -1.42063740 -0.61321414 -0.03304188
C  0.34045815 0.59022796 0.00479186
H  -0.21239869 1.49924150 -0.03637988
H  1.40088896 0.57328659 -0.03613954
6
MD Step 81
C  -0.33613273 -0.58429233 0.00712397
H  0.17860965 -1.53176353 -0.03453812
H  -1.41731436 -0.60994550 -0.03458381
C  0.34011665 0.58986640 0.00504824
H  -0.20986003 1.49923517 -0.03805807
H  1.40109224 0.57605303 -0.03786435
6
MD Step 82
C  -0.33635462 -0.58459083 0.00740125
H  0.17966350 -1.52922999 -0.03604244
H  -1.41399900 -0.60668899 -0.03603271
C  0.33970440 0.58938992 0.00529194
H  -0.20733322 1.49969958 -0.03966122
H  1.40175266 0.57903331 -0.03951604
6
MD Step 83
C  -0.33653987 -0.58482011 0.00766391
H  0.18075880 -1.52681147 -0.03745886
H  -1.41076965 -0.60346420 -0.03739264
C  0.33922637 0.58880035 0.00552324
H  -0.20484234 1.50063773 -0.04119163
H  1.40284079 0.58220933 -0.04109531
6
MD Step 84
C  -0.33667469 -0.58496809 0.00792029
H  0.18184939 -1.52459591 -0.03883889
H  -1.40775201 -0.60033897 -0.03871850
C  0.33869638 0.58810906 0.00575096
H  -0.20245525 1.50199367 -0.04270020
H  1.40426738 0.58551327 -0.04264945
6
MD Step 85
C  -0.33676318 -0.58504082 0.00816227
H  0.18299025 -1.52256398 -0.04013138
H  -1.40496437 -0.59727707 -0.03995890
C  0.33811164 0.58731147 0.00596575
H  -0.20013172 1.50380462 -0.04413398
H  1.40603756 0.58897931 -0.04412560
6
MD Step 86
C  -0.33680082 -0.58503617 0.00839034
H  0.18418057 -1.52074592 -0.04133901
H  -1.40247380 -0.59429560 -0.04111840
C  0.33747887 0.58641341 0.00616768
H  -0.19788050 1.50604359 -0.04549378
H  1.40809410 0.59258668 -0.04552267
6
MD Step 87
C  -0.33679003 -0.58495912 0.00859918
H  0.18545431 -1.51912996 -0.04242744
H  -1.40030334 -0.59137382 -0.04216289
C  0.33679904 0.58541583 0.00635016
H  -0.19566859 1.50871103 -0.04674278
H  1.41041018 0.59635061 -0.04680373
6
MD Step 88
C  -0.33672739 -0.58480908 0.00878957
H  0.18680455 -1.51773788 -0.04340077
H  -1.39850675 -0.58852898 -0.04309825
C  0.33607992 0.58432744 0.00651337
H  -0.19349730 1.51175957 -0.04788246
H  1.41291475 0.60024663 -0.04796873
6
MD Step 89
C  -0.33660436 -0.58458040 0.00896775
H  0.18818615 -1.51662189 -0.04429881
H  -1.39716407 -0.58581344 -0.04396774
C  0.33533552 0.58316414 0.00666394
H  -0.19140001 1.51509804 -0.04894968
H  1.41549742 0.60421347 -0.04905137
6
MD Step 90
C  -0.33642525 -0.58428023 0.00912895
H  0.18962213 -1.51575746 -0.04509036
H  -1.39627288 -0.58320787 -0.04474010
C  0.33456804 0.58193095 0.00679568
H  -0.18933635 1.51869958 -0.04991004
H  1.41811765 0.60825991 -0.05001777
6
MD Step 91
C  -0.33618854 -0.58390985 0.00927462
H  0.19109229 -1.51515522 -0.04578482
H  -1.39585965 -0.58073299 -0.04542643
C  0.33378652 0.58064062 0.00690977
H  -0.18730448 1.52249131 -0.05076962
H  1.42069435 0.61235321 -0.05087275
6
MD Step 92
C  -0.33590042 -0.58347806 0.00940014
H  0.19261366 -1.51478061 -0.04635168
H  -1.39589871 -0.57836912 -0.04599549
C  0.33299329 0.57929997 0.00700010
H  -0.18526158 1.52643627 -0.05149475
H  1.42318805 0.61649971 -0.05158385
6
MD Step 93
C  -0.33555696 -0.58298330 0.00951093
H  0.19413481 -1.51466049 -0.04682682
H  -1.39641879 -0.57616229 -0.04648558
C  0.33220169 0.57792752 0.00707276
H  -0.18323042 1.53042880 -0.05211787
H  1.42549586 0.62063877 -0.05218149
6
MD Step 94
C  -0.33516490 -0.58243447 0.00960360
H  0.19565983 -1.51475937 -0.04718827
H  -1.39737877 -0.57410031 -0.04687380
C  0.33141519 0.57653254 0.00712331
H  -0.18117656 1.53442011 -0.05261413
H  1.42757722 0.62476713 -0.05264210
6
MD Step 95
C  -0.33472768 -0.58183683 0.00967861
H  0.19716575 -1.51506310 -0.04743957
H  -1.39875186 -0.57219582 -0.04716369
C  0.33064128 0.57512876 0.00715201
H  -0.17909187 1.53833665 -0.05298429
H  1.42937168 0.62885581 -0.05296666
6
MD Step 96
C  -0.33424779 -0.58119440 0.00973802
H  0.19861749 -1.51556484 -0.04759516
H  -1.40051192 -0.57047153 -0.04736985
C  0.32988898 0.57373177 0.00716123
H  -0.17698044 1.54209618 -0.05324009
H  1.43081460 0.63286510 -0.05316683
6
MD Step 97
C  -0.33372877 -0.58051196 0.00978355
H  0.19998072 -1.51625311 -0.04766791
H  -1.40262213 -0.56894779 -0.04750500
C  0.32916665 0.57235675 0.00715315
H  -0.17484678 1.54562147 -0.05339204
H  1.43185056 0.63675718 -0.05325327
6
MD Step 98
C  -0.33318023 -0.57980014 0.00981213
H  0.20125298 -1.51708170 -0.04763814
H  -1.40500552 -0.56761191 -0.04754738
C  0.32847677 0.57101317 0.00712401
H  -0.17266570 1.54887226 -0.05341916
H  1.43246481 0.64052721 -0.05320694
6
MD Step 99
C  -0.33260919 -0.57906671 0.00982347
H  0.20241345 -1.51802128 -0.04750484
H  -1.40759796 -0.56646876 -0.04749452
C  0.32782444 0.56971310 0.00707356
H  -0.17043305 1.55179532 -0.05331925
H  1.43263279 0.64415265 -0.05302689
6
MD Step 100
C  -0.33201977 -0.57831627 0.00982013
H  0.20342186 -1.51906151 -0.04728725
H  -1.41035136 -0.56554198 -0.04736506
C  0.32721764 0.56847134 0.00700542
H  -0.16816734 1.55432400 -0.05311021
H  1.43231915 0.64759198 -0.05273128
6
MD Step 101
C  -0.33142553 -0.57756290 0.00979653
H  0.20429488 -1.52013593 -0.04694817
H  -1.41315937 -0.56479873 -0.04711852
C  0.32665428 0.56729263 0.00691281
H  -0.16583478 1.55645450 -0.05275560
H  1.43155363 0.65086093 -0.05228662
6
MD Step 102
C  -0.33083303 -0.57681337 0.00975343
H  0.20500764 -1.52122153 -0.04649391
H  -1.41595857 -0.56424775 -0.04675974
C  0.32613900 0.56618801 0.00679703
H  -0.16344721 1.55814777 -0.05226173
H  1.43033238 0.65393361 -0.05170037
6
MD Step 103
C  -0.33024541 -0.57607093 0.00969453
H  0.20551705 -1.52231633 -0.04595124
H  -1.41870702 -0.56391644 -0.04631485
C  0.32567915 0.56517084 0.00666328
H  -0.16103931 1.55935290 -0.05165494
H  1.42864097 0.65676563 -0.05099915
6
MD Step 104
C  -0.32967384 -0.57534692 0.00961629
H  0.20583183 -1.52337042 -0.04529678
H  -1.42131570 -0.56378192 -0.04575798
C  0.32527303 0.56424518 0.00650753
H  -0.15859984 1.56007691 -0.05091363
H  1.42652388 0.65936410 -0.05016361
6
MD Step 105
C  -0.32912636 -0.57464948 0.00951774
H  0.20594626 -1.52435288 -0.04452435
H  -1.42371665 -0.56383690 -0.04508109
C  0.32492108 0.56341671 0.00632895
H  -0.15613730 1.56031861 -0.05003333
H  1.42401794 0.66172116 -0.04919091
6
MD Step 106
C  -0.32860165 -0.57397708 0.00940592
H  0.20580268 -1.52528973 -0.04368345
H  -1.42590173 -0.56412673 -0.04433382
C  0.32463230 0.56269890 0.00613702
H  -0.15371681 1.56003137 -0.04906303
H  1.42111474 0.66377624 -0.04812975
6
MD Step 107
C  -0.32811272 -0.57334290 0.00927464
H  0.20543652 -1.52612000 -0.04273220
H  -1.42777842 -0.56460658 -0.04347176
C  0.32439965 0.56208900 0.00592448
H  -0.15131747 1.55926713 -0.04796462
H  1.41790432 0.66556132 -0.04694448
6
MD Step 108
C  -0.32766740 -0.57275482 0.00912189
H  0.20485847 -1.52681359 -0.04165705
H  -1.42928895 -0.56525792 -0.04247989
C  0.32422007 0.56158749 0.00568929
H  -0.14894832 1.55805900 -0.04672748
H  1.41445723 0.66708275 -0.04562596
6
MD Step 109
C  -0.32726824 -0.57221526 0.00894988
H  0.20405413 -1.52737221 -0.04047336
H  -1.43041163 -0.56608899 -0.04137304
C  0.32409462 0.56119817 0.00543471
H  -0.14664856 1.55642050 -0.04536877
H  1.41082303 0.66832075 -0.04419197
6
MD Step 110
C  -0.32691923 -0.57172815 0.00875896
H  0.20302533 -1.52778838 -0.03918347
H  -1.43111999 -0.56709421 -0.04015287
C  0.32402152 0.56092132 0.00516162
H  -0.14444670 1.55438630 -0.04389345
H  1.40707046 0.66927079 -0.04264825
6
MD Step 111
C  -0.32662231 -0.57129532 0.00855066
H  0.20176942 -1.52806615 -0.03779779
H  -1.43140380 -0.56827460 -0.03882949
C  0.32399971 0.56075715 0.00487238
H  -0.14238062 1.55199121 -0.04231421
H  1.40326594 0.66992276 -0.04100796
6
MD Step 112
C  -0.32638290 -0.57092222 0.00832274
H  0.20031275 -1.52818776 -0.03630061
H  -1.43123569 -0.56960485 -0.03738663
C  0.32402319 0.56070028 0.00456462
H  -0.14046424 1.54930297 -0.04061905
H  1.39950547 0.67029457 -0.03925980
6
MD Step 113
C  -0.32620038 -0.57060809 0.00807773
H  0.19865296 -1.52817106 -0.03470883
H  -1.43062911 -0.57109017 -0.03584132
C  0.32409097 0.56074935 0.00424180
H  -0.13874380 1.54636413 -0.03882698
H  1.39585581 0.67037421 -0.03742279
6
MD Step 114
C  -0.32607601 -0.57035416 0.00781581
H  0.19680684 -1.52802162 -0.03302302
H  -1.42959023 -0.57271909 -0.03419429
C  0.32419896 0.56089916 0.00390446
H  -0.13725013 1.54323889 -0.03694145
H  1.39240050 0.67016779 -0.03550035
6
MD Step 115
C  -0.32601102 -0.57016171 0.00753644
H  0.19479915 -1.52774356 -0.03123875
H  -1.42812901 -0.57447444 -0.03244133
C  0.32434200 0.56114267 0.00355216
H  -0.13600901 1.54000092 -0.03496105
H  1.38922693 0.66968822 -0.03349090
6
MD Step 116
C  -0.32600155 -0.57002689 0.00724309
H  0.19263094 -1.52737066 -0.02937841
H  -1.42629044 -0.57636440 -0.03060549
C  0.32451933 0.56147626 0.00318922
H  -0.13507139 1.53670092 -0.03290989
H  1.38639308 0.66892363 -0.03141788
6
MD Step 117
C  -0.32604258 -0.56994472 0.00693968
H  0.19030317 -1.52694210 -0.02746699
H  -1.42413008 -0.57839902 -0.02871256
C  0.32473062 0.56189599 0.00282034
H  -0.13448922 1.53338889 -0.03081430
H  1.38394946 0.66786110 -0.02930679
6
MD Step 118
C  -0.32613322 -0.56991462 0.00662558
H  0.18784854 -1.52647006 -0.02549944
H  -1.42168132 -0.58055855 -0.02675815
C  0.32497064 0.56239242 0.00244485
H  -0.13428312 1.53014461 -0.02867168
H  1.38196926 0.66651873 -0.02715426
6
MD Step 119
C  -0.32627022 -0.56993375 0.00630178
H  0.18529119 -1.52597902 -0.02348122
H  -1.41899472 -0.58283300 -0.02474857
C  0.32523613 0.56295747 0.00206388
H  -0.13448084 1.52703612 -0.02648917
H  1.38050662 0.66490542 -0.02496643
6
MD Step 120
C  -0.32645337 -0.57000254 0.00596577
H  0.18267902 -1.52547274 -0.02139516
H  -1.41610470 -0.58518992 -0.02266745
C  0.32552041 0.56357916 0.00167451
H  -0.13508427 1.52415035 -0.02425179
H  1.37962714 0.66305341 -0.02272738
6
MD Step 121
C  -0.32667555 -0.57011451 0.00562107
H  0.18002221 -1.52499464 -0.01926323
H  -1.41308992 -0.58763487 -0.02053776
C  0.32582385 0.56425199 0.00128067
H  -0.13612873 1.52153044 -0.02198195
H  1.37934533 0.66095695 -0.02045835
6
MD Step 122
C  -0.32693498 -0.57026888 0.00526561
H  0.17736723 -1.52455300 -0.01707131
H  -1.40999775 -0.59013799 -0.01834625
C  0.32614125 0.56496479 0.00087988
H  -0.13760883 1.51924798 -0.01966679
H  1.37969749 0.65864669 -0.01814552
6
MD Step 123
C  -0.32722429 -0.57045933 0.00490230
H  0.17472908 -1.52418743 -0.01483712
H  -1.40691039 -0.59270059 -0.01611156
C  0.32647334 0.56571206 0.00047519
H  -0.13954414 1.51733439 -0.01732401
H  1.38067381 0.65612226 -0.01580559
6
MD Step 124
C  -0.32753538 -0.57067899 0.00453442
H  0.17211990 -1.52393915 -0.01258088
H  -1.40391425 -0.59532651 -0.01385473
C  0.32682181 0.56648933 0.00007001
H  -0.14194991 1.51580843 -0.01497344
H  1.38224724 0.65338132 -0.01345757
6
MD Step 125
C  -0.32786742 -0.57092849 0.00415808
H  0.16959582 -1.52380294 -0.01027756
H  -1.40105070 -0.59797514 -0.01155136
C  0.32718123 0.56728538 -0.00034004
H  -0.14478968 1.51472252 -0.01259051