 Entering Gaussian System, Link 0=g16
 Initial command:
 /software/gaussian/g16-c01/avx2/g16/l1.exe "/gpfs/fs2/scratch/bweight/software/many_molecule_many_mode_NAMD/src/NAMD/TEST_NVT/TRAJ/traj-33/G16/GS_NEW/Gau-22755.inp" -scrdir="/gpfs/fs2/scratch/bweight/software/many_molecule_many_mode_NAMD/src/NAMD/TEST_NVT/TRAJ/traj-33/G16/GS_NEW/"
 Entering Link 1 = /software/gaussian/g16-c01/avx2/g16/l1.exe PID=     22756.
  
 Copyright (c) 1988-2019, Gaussian, Inc.  All Rights Reserved.
  
 This is part of the Gaussian(R) 16 program.  It is based on
 the Gaussian(R) 09 system (copyright 2009, Gaussian, Inc.),
 the Gaussian(R) 03 system (copyright 2003, Gaussian, Inc.),
 the Gaussian(R) 98 system (copyright 1998, Gaussian, Inc.),
 the Gaussian(R) 94 system (copyright 1995, Gaussian, Inc.),
 the Gaussian 92(TM) system (copyright 1992, Gaussian, Inc.),
 the Gaussian 90(TM) system (copyright 1990, Gaussian, Inc.),
 the Gaussian 88(TM) system (copyright 1988, Gaussian, Inc.),
 the Gaussian 86(TM) system (copyright 1986, Carnegie Mellon
 University), and the Gaussian 82(TM) system (copyright 1983,
 Carnegie Mellon University). Gaussian is a federally registered
 trademark of Gaussian, Inc.
  
 This software contains proprietary and confidential information,
 including trade secrets, belonging to Gaussian, Inc.
  
 This software is provided under written license and may be
 used, copied, transmitted, or stored only in accord with that
 written license.
  
 The following legend is applicable only to US Government
 contracts under FAR:
  
                    RESTRICTED RIGHTS LEGEND
  
 Use, reproduction and disclosure by the US Government is
 subject to restrictions as set forth in subparagraphs (a)
 and (c) of the Commercial Computer Software - Restricted
 Rights clause in FAR 52.227-19.
  
 Gaussian, Inc.
 340 Quinnipiac St., Bldg. 40, Wallingford CT 06492
  
  
 ---------------------------------------------------------------
 Warning -- This program may not be used in any manner that
 competes with the business of Gaussian, Inc. or will provide
 assistance to any competitor of Gaussian, Inc.  The licensee
 of this program is prohibited from giving any competitor of
 Gaussian, Inc. access to this program.  By using this program,
 the user acknowledges that Gaussian, Inc. is engaged in the
 business of creating and licensing software in the field of
 computational chemistry and represents and warrants to the
 licensee that it is not a competitor of Gaussian, Inc. and that
 it will not use this program in any manner prohibited above.
 ---------------------------------------------------------------
  

 Cite this work as:
 Gaussian 16, Revision C.01,
 M. J. Frisch, G. W. Trucks, H. B. Schlegel, G. E. Scuseria, 
 M. A. Robb, J. R. Cheeseman, G. Scalmani, V. Barone, 
 G. A. Petersson, H. Nakatsuji, X. Li, M. Caricato, A. V. Marenich, 
 J. Bloino, B. G. Janesko, R. Gomperts, B. Mennucci, H. P. Hratchian, 
 J. V. Ortiz, A. F. Izmaylov, J. L. Sonnenberg, D. Williams-Young, 
 F. Ding, F. Lipparini, F. Egidi, J. Goings, B. Peng, A. Petrone, 
 T. Henderson, D. Ranasinghe, V. G. Zakrzewski, J. Gao, N. Rega, 
 G. Zheng, W. Liang, M. Hada, M. Ehara, K. Toyota, R. Fukuda, 
 J. Hasegawa, M. Ishida, T. Nakajima, Y. Honda, O. Kitao, H. Nakai, 
 T. Vreven, K. Throssell, J. A. Montgomery, Jr., J. E. Peralta, 
 F. Ogliaro, M. J. Bearpark, J. J. Heyd, E. N. Brothers, K. N. Kudin, 
 V. N. Staroverov, T. A. Keith, R. Kobayashi, J. Normand, 
 K. Raghavachari, A. P. Rendell, J. C. Burant, S. S. Iyengar, 
 J. Tomasi, M. Cossi, J. M. Millam, M. Klene, C. Adamo, R. Cammi, 
 J. W. Ochterski, R. L. Martin, K. Morokuma, O. Farkas, 
 J. B. Foresman, and D. J. Fox, Gaussian, Inc., Wallingford CT, 2019.
 
 ******************************************
 Gaussian 16:  ES64L-G16RevC.01  3-Jul-2019
                11-Jan-2023 
 ******************************************
 %oldchk=../GS_OLD/geometry.chk
 %chk=geometry.chk
 %nprocshared=4
 Will use up to    4 processors via shared memory.
 %mem=5GB
 Copying data from "../GS_OLD/geometry.chk" to current chk file "geometry.chk"
 IOpt=  2 FromEx=T IUOpen= 4 IOptOp= 5 NList=   0 IFRang= 0 IUIn= 4 IUOut= 2.
 -------------------------------------------------------
 # WB97XD/6-311G SCF=XQC FORCE nosym pop=full guess=read
 -------------------------------------------------------
 1/10=7,30=1,38=1/1,3;
 2/12=2,15=1,17=6,18=5,40=1/2;
 3/5=4,6=6,11=2,25=1,30=1,71=1,74=-58,116=-2/1,2,3;
 4/5=1/1;
 5/5=2,8=3,13=1,38=6/2,8;
 6/7=3,28=1/1;
 7/29=1,30=1/1,2,3,16;
 1/10=7,30=1/3;
 99//99;
 ------------
 MD Step 1000
 ------------
 Symbolic Z-matrix:
 Charge =  0 Multiplicity = 1
 C                    -0.33557  -0.58155   0.00527 
 H                     0.20934  -1.52822  -0.01527 
 H                    -1.42083  -0.5901   -0.01638 
 C                     0.33387   0.57785   0.00388 
 H                    -0.17065   1.56272  -0.01877 
 H                     1.44344   0.6406   -0.01767 
 

 GradGradGradGradGradGradGradGradGradGradGradGradGradGradGradGradGradGrad
 Berny optimization.
 Initialization pass.
 Trust Radius=3.00D-01 FncErr=1.00D-07 GrdErr=1.00D-07 EigMax=2.50D+02 EigMin=1.00D-04
 Number of steps in this run=      2 maximum allowed number of steps=      2.
 GradGradGradGradGradGradGradGradGradGradGradGradGradGradGradGradGradGrad

                          Input orientation:                          
 ---------------------------------------------------------------------
 Center     Atomic      Atomic             Coordinates (Angstroms)
 Number     Number       Type             X           Y           Z
 ---------------------------------------------------------------------
      1          6           0       -0.335572   -0.581545    0.005274
      2          1           0        0.209338   -1.528221   -0.015266
      3          1           0       -1.420835   -0.590097   -0.016382
      4          6           0        0.333870    0.577855    0.003882
      5          1           0       -0.170648    1.562720   -0.018767
      6          1           0        1.443445    0.640602   -0.017667
 ---------------------------------------------------------------------
                    Distance matrix (angstroms):
                    1          2          3          4          5
     1  C    0.000000
     2  H    1.092495   0.000000
     3  H    1.085512   1.880835   0.000000
     4  C    1.338792   2.109841   2.107963   0.000000
     5  H    2.150733   3.114212   2.489497   1.106803   0.000000
     6  H    2.158488   2.495360   3.117486   1.111557   1.858924
                    6
     6  H    0.000000
 Symmetry turned off by external request.
 Stoichiometry    C2H4
 Framework group  C1[X(C2H4)]
 Deg. of freedom    12
 Full point group                 C1      NOp   1
 Rotational constants (GHZ):         143.3479767          29.6946136          24.6027772
 Standard basis: 6-311G (5D, 7F)
    38 basis functions,    72 primitive gaussians,    38 cartesian basis functions
     8 alpha electrons        8 beta electrons
       nuclear repulsion energy        33.0744827372 Hartrees.
 NAtoms=    6 NActive=    6 NUniq=    6 SFac= 1.00D+00 NAtFMM=   60 NAOKFM=F Big=F
 Integral buffers will be    131072 words long.
 Raffenetti 2 integral format.
 Two-electron integral symmetry is turned off.
 Nuclear repulsion after empirical dispersion term =       33.0736404952 Hartrees.
 One-electron integrals computed using PRISM.
 NBasis=    38 RedAO= T EigKep=  6.44D-03  NBF=    38
 NBsUse=    38 1.00D-06 EigRej= -1.00D+00 NBFU=    38
 Initial guess from the checkpoint file:  "geometry.chk"
 B after Tr=    -0.000264   -0.000352   -0.000753
         Rot=    1.000000    0.000003   -0.000001    0.000004 Ang=   0.00 deg.
 Keep R1 ints in memory in canonical form, NReq=4036876.
 Requested convergence on RMS density matrix=1.00D-08 within  32 cycles.
 Requested convergence on MAX density matrix=1.00D-06.
 Requested convergence on             energy=1.00D-06.
 No special actions if energy rises.
 SCF Done:  E(RwB97XD) =  -78.5560924912     A.U. after    8 cycles
            NFock=  8  Conv=0.65D-08     -V/T= 2.0051
 QCSCF skips out because SCF is already converged.

 **********************************************************************

            Population analysis using the SCF Density.

 **********************************************************************

 Alpha  occ. eigenvalues --  -10.29054 -10.28741  -0.86372  -0.67227  -0.55968
 Alpha  occ. eigenvalues --   -0.50904  -0.43718  -0.35669
 Alpha virt. eigenvalues --    0.07983   0.14103   0.16490   0.17045   0.24082
 Alpha virt. eigenvalues --    0.37509   0.39405   0.39673   0.46448   0.48841
 Alpha virt. eigenvalues --    0.49390   0.59105   0.66584   0.69191   0.77257
 Alpha virt. eigenvalues --    0.77624   0.84481   0.95157   2.23147   2.29057
 Alpha virt. eigenvalues --    2.33271   2.40792   2.67111   2.81821   2.87722
 Alpha virt. eigenvalues --    2.95255   3.13946   3.32149  23.35290  23.70575
     Molecular Orbital Coefficients:
                           1         2         3         4         5
                           O         O         O         O         O
     Eigenvalues --   -10.29054 -10.28741  -0.86372  -0.67227  -0.55968
   1 1   C  1S          0.07933   0.55778  -0.08847   0.06670  -0.00028
   2        2S          0.06549   0.45905  -0.13983   0.10684  -0.00047
   3        2PX         0.00016  -0.00001   0.02598   0.03682   0.13618
   4        2PY         0.00028  -0.00001   0.04586   0.06184  -0.07569
   5        2PZ         0.00000  -0.00000  -0.00090   0.00132   0.00014
   6        3S          0.00119   0.01459   0.37497  -0.29161   0.00131
   7        3PX        -0.00062   0.00040   0.03417   0.05894   0.21327
   8        3PY        -0.00107   0.00072   0.06012   0.09966  -0.11889
   9        3PZ        -0.00001  -0.00002  -0.00149   0.00234   0.00021
  10        4S          0.00387  -0.01453   0.19166  -0.22646   0.00120
  11        4PX         0.00154  -0.00147   0.00477   0.02380   0.11079
  12        4PY         0.00268  -0.00254   0.00853   0.04114  -0.06233
  13        4PZ        -0.00000   0.00006  -0.00052   0.00117   0.00011
  14 2   H  1S         -0.00005  -0.00007   0.05303  -0.08895   0.10272
  15        2S         -0.00030   0.00009   0.05408  -0.10659   0.12949
  16        3S          0.00076   0.00173  -0.00163  -0.01544   0.04175
  17 3   H  1S         -0.00005  -0.00007   0.05387  -0.09103  -0.10414
  18        2S         -0.00031   0.00008   0.05460  -0.10864  -0.13072
  19        3S          0.00077   0.00175  -0.00166  -0.01600  -0.04219
  20 4   C  1S          0.55779  -0.07952  -0.08673  -0.06859  -0.00012
  21        2S          0.45909  -0.06524  -0.13695  -0.10998  -0.00019
  22        2PX        -0.00001  -0.00016  -0.02748   0.03694   0.11967
  23        2PY        -0.00002  -0.00029  -0.04682   0.06509  -0.07197
  24        2PZ        -0.00000   0.00000  -0.00070  -0.00139   0.00014
  25        3S          0.01418  -0.00291   0.36698   0.30054   0.00051
  26        3PX        -0.00024   0.00072  -0.03470   0.05988   0.18741
  27        3PY        -0.00039   0.00124  -0.05894   0.10521  -0.11210
  28        3PZ        -0.00002  -0.00000  -0.00122  -0.00250   0.00021
  29        4S         -0.01260   0.00786   0.18897   0.23779  -0.00011
  30        4PX         0.00097  -0.00187  -0.00548   0.02594   0.10265
  31        4PY         0.00164  -0.00326  -0.00925   0.04469  -0.06093
  32        4PZ         0.00005  -0.00001  -0.00050  -0.00128   0.00011
  33 5   H  1S         -0.00006  -0.00004   0.04966   0.09242  -0.08963
  34        2S         -0.00001  -0.00032   0.05093   0.11077  -0.11319
  35        3S          0.00179   0.00022  -0.00115   0.01651  -0.03627
  36 6   H  1S         -0.00005  -0.00004   0.04892   0.09160   0.08724
  37        2S         -0.00002  -0.00032   0.05052   0.11004   0.11036
  38        3S          0.00176   0.00022  -0.00122   0.01621   0.03555
                           6         7         8         9        10
                           O         O         O         V         V
     Eigenvalues --    -0.50904  -0.43718  -0.35669   0.07983   0.14103
   1 1   C  1S         -0.00432   0.00003  -0.00067   0.00181  -0.03266
   2        2S         -0.00657   0.00006  -0.00108   0.00301  -0.05237
   3        2PX         0.09558  -0.11183  -0.00231   0.00101  -0.03316
   4        2PY         0.16701   0.06637  -0.00382   0.00156  -0.06252
   5        2PZ         0.00339  -0.00004   0.17934  -0.18907  -0.00151
   6        3S          0.02380   0.00001   0.00316  -0.00912   0.11361
   7        3PX         0.13932  -0.17812  -0.00327   0.00153  -0.03987
   8        3PY         0.24415   0.10602  -0.00538   0.00235  -0.07705
   9        3PZ         0.00538  -0.00004   0.28844  -0.27821  -0.00243
  10        4S         -0.04811  -0.00181   0.00462  -0.00988   1.20389
  11        4PX         0.07070  -0.11066  -0.00267   0.00849  -0.20419
  12        4PY         0.12432   0.06601  -0.00439   0.01394  -0.37785
  13        4PZ         0.00307  -0.00001   0.26735  -0.69519  -0.00899
  14 2   H  1S         -0.07932  -0.11544   0.00010   0.00283  -0.01496
  15        2S         -0.10936  -0.17783   0.00137   0.00447  -0.04357
  16        3S         -0.04092  -0.08221   0.00081   0.01157  -0.80703
  17 3   H  1S         -0.07937   0.11364   0.00007   0.00284  -0.01300
  18        2S         -0.10900   0.17459   0.00133   0.00450  -0.03926
  19        3S         -0.04057   0.08050   0.00079   0.01148  -0.77699
  20 4   C  1S         -0.00772  -0.00031  -0.00056  -0.00180  -0.03699
  21        2S         -0.01205  -0.00051  -0.00091  -0.00297  -0.05943
  22        2PX        -0.09725   0.12421   0.00224   0.00112   0.03896
  23        2PY        -0.16358  -0.07321   0.00417   0.00215   0.06325
  24        2PZ         0.00368   0.00015   0.17920   0.18957  -0.00219
  25        3S          0.03944   0.00147   0.00269   0.00892   0.13148
  26        3PX        -0.14358   0.19897   0.00313   0.00172   0.04713
  27        3PY        -0.24048  -0.11672   0.00587   0.00328   0.07533
  28        3PZ         0.00581   0.00024   0.28682   0.27792  -0.00331
  29        4S         -0.03310   0.00161   0.00450   0.01037   1.26436
  30        4PX        -0.07458   0.12653   0.00242   0.00879   0.25313
  31        4PY        -0.12406  -0.07401   0.00465   0.01591   0.41814
  32        4PZ         0.00335   0.00015   0.26742   0.69634  -0.01280
  33 5   H  1S         -0.07577  -0.12454   0.00015  -0.00273  -0.01414
  34        2S         -0.10397  -0.19414   0.00142  -0.00452  -0.04114
  35        3S         -0.03891  -0.09098   0.00080  -0.01195  -0.84926
  36 6   H  1S         -0.07978   0.12363   0.00011  -0.00274  -0.01585
  37        2S         -0.10964   0.19339   0.00137  -0.00459  -0.04565
  38        3S         -0.04106   0.09066   0.00076  -0.01217  -0.88091
                          11        12        13        14        15
                           V         V         V         V         V
     Eigenvalues --     0.16490   0.17045   0.24082   0.37509   0.39405
   1 1   C  1S          0.00085  -0.04572   0.00007   0.01111   0.00063
   2        2S          0.00138  -0.07450   0.00010   0.01570   0.00097
   3        2PX         0.09616  -0.02007   0.10019  -0.03794  -0.02334
   4        2PY        -0.05429  -0.03822  -0.05734  -0.06784   0.01098
   5        2PZ         0.00012  -0.00445   0.00006  -0.00314  -0.00011
   6        3S         -0.00313   0.16779   0.00023   0.02880   0.00089
   7        3PX         0.13760  -0.01172   0.10656  -0.05172  -0.10486
   8        3PY        -0.07848  -0.02542  -0.06148  -0.09653   0.05307
   9        3PZ         0.00017  -0.00618   0.00005  -0.00625  -0.00016
  10        4S         -0.03328   1.45653  -0.01699  -2.76991  -0.14775
  11        4PX         0.57347  -0.11532   1.16938  -1.58987  -0.53538
  12        4PY        -0.31740  -0.21564  -0.67296  -2.77204   0.18374
  13        4PZ         0.00080  -0.02923   0.00086  -0.02810  -0.00147
  14 2   H  1S         -0.02899  -0.02508   0.01364  -0.05343   0.07634
  15        2S         -0.07918  -0.01808  -0.02420  -0.61652   0.77872
  16        3S         -1.03729  -1.02864  -1.55923  -0.35908  -0.31604
  17 3   H  1S          0.02881  -0.02461  -0.01480  -0.04809  -0.07682
  18        2S          0.07879  -0.01839   0.02036  -0.57208  -0.77383
  19        3S          1.08179  -1.01471   1.58026  -0.40730   0.26603
  20 4   C  1S          0.00032   0.04211  -0.00010  -0.01976  -0.00001
  21        2S          0.00049   0.06856  -0.00017  -0.03220   0.00010
  22        2PX         0.10240  -0.02163  -0.09980  -0.04218  -0.03106
  23        2PY        -0.06004  -0.03720   0.05720  -0.07540   0.01395
  24        2PZ         0.00008   0.00435  -0.00005   0.00249   0.00018
  25        3S         -0.00077  -0.15266   0.00030   0.03732  -0.00202
  26        3PX         0.14673  -0.01593  -0.11248  -0.09285  -0.10999
  27        3PY        -0.08575  -0.02702   0.06372  -0.16842   0.05761
  28        3PZ         0.00011   0.00598  -0.00005   0.00332   0.00037
  29        4S         -0.02185  -1.32455   0.01099   3.38010   0.11260
  30        4PX         0.55078  -0.11031  -1.12910  -1.25588  -0.53501
  31        4PY        -0.32443  -0.19249   0.64942  -2.20172   0.13524
  32        4PZ         0.00046   0.02827  -0.00083   0.02562   0.00139
  33 5   H  1S          0.03075   0.02527   0.00650   0.01403  -0.08042
  34        2S          0.06806   0.02152  -0.03534   0.11044  -0.79581
  35        3S          1.06131   0.93547  -1.51640   0.46000   0.46213
  36 6   H  1S         -0.03122   0.02532  -0.00582   0.00928   0.08679
  37        2S         -0.06895   0.02053   0.03573   0.07149   0.88133
  38        3S         -1.03320   0.92978   1.50461   0.47649  -0.44509
                          16        17        18        19        20
                           V         V         V         V         V
     Eigenvalues --     0.39673   0.46448   0.48841   0.49390   0.59105
   1 1   C  1S         -0.01679   0.01300  -0.04661   0.00000  -0.00038
   2        2S         -0.02982   0.02981  -0.07793   0.00019  -0.00068
   3        2PX         0.02355  -0.06192   0.01171   0.00075   0.00141
   4        2PY         0.04311  -0.10692   0.01657   0.00104   0.00208
   5        2PZ        -0.00002  -0.00033   0.00269  -0.15176  -0.19254
   6        3S          0.07461  -0.33769   0.09017  -0.00693  -0.00030
   7        3PX         0.09700  -0.24294  -0.03322   0.00051   0.00472
   8        3PY         0.18001  -0.41862  -0.06544  -0.00008   0.00698
   9        3PZ        -0.00303  -0.00282   0.01237  -0.62836  -0.68517
  10        4S          2.38063   0.02379   3.18982   0.04771   0.04640
  11        4PX         0.10716   0.20307   0.80794   0.01563   0.01441
  12        4PY         0.20835   0.37808   1.40290   0.02874   0.02554
  13        4PZ        -0.00262   0.00053  -0.05672   0.68623   1.24077
  14 2   H  1S         -0.02951  -0.03377  -0.07680  -0.00141  -0.00113
  15        2S         -0.57355  -0.31880  -0.92485  -0.01276  -0.00828
  16        3S          0.26264   0.05544   0.63473   0.01724   0.01559
  17 3   H  1S         -0.03528  -0.03584  -0.07509  -0.00139  -0.00109
  18        2S         -0.62365  -0.34353  -0.90603  -0.01277  -0.00739
  19        3S          0.27462   0.06023   0.61287   0.01689   0.01538
  20 4   C  1S         -0.00309  -0.00327   0.05095   0.00180   0.00047
  21        2S         -0.00859   0.00219   0.08864   0.00327   0.00088
  22        2PX         0.00604   0.05402   0.02834  -0.00004   0.00136
  23        2PY         0.01253   0.09409   0.05062  -0.00022   0.00269
  24        2PZ        -0.00233  -0.00109   0.00267  -0.15294   0.19215
  25        3S          0.08153  -0.28469  -0.23270  -0.01326  -0.00161
  26        3PX        -0.04760   0.23422   0.05660  -0.00009   0.00476
  27        3PY        -0.07420   0.40975   0.10004  -0.00086   0.00931
  28        3PZ        -0.00678  -0.00456   0.00950  -0.63203   0.68197
  29        4S         -0.54182   0.84197  -3.08827  -0.05993  -0.04155
  30        4PX         1.12422  -0.38774   0.64678   0.00812   0.01442
  31        4PY         2.02316  -0.65357   1.09843   0.01381   0.02407
  32        4PZ        -0.02139  -0.01077   0.02675   0.69347  -1.23707
  33 5   H  1S         -0.04985  -0.06361   0.06318   0.00124   0.00107
  34        2S         -0.84784  -0.64655   0.78814   0.01924   0.00455
  35        3S         -0.12604   0.28657  -0.55978  -0.00432  -0.01539
  36 6   H  1S         -0.04341  -0.06252   0.06319   0.00126   0.00109
  37        2S         -0.77600  -0.62999   0.78054   0.01896   0.00488
  38        3S         -0.15205   0.29554  -0.57168  -0.00475  -0.01550
                          21        22        23        24        25
                           V         V         V         V         V
     Eigenvalues --     0.66584   0.69191   0.77257   0.77624   0.84481
   1 1   C  1S          0.00038  -0.00033   0.04796   0.07548   0.00070
   2        2S          0.00078  -0.00075   0.10110   0.16090   0.00156
   3        2PX        -0.12514   0.20354  -0.03126   0.11062  -0.00816
   4        2PY         0.07274  -0.12002  -0.05420   0.18514   0.00846
   5        2PZ        -0.00008   0.00017   0.00029   0.00324   0.00005
   6        3S         -0.00608   0.00975  -0.66698  -1.38025  -0.01443
   7        3PX        -0.59147   0.72206  -0.19635   0.42591  -0.22049
   8        3PY         0.34184  -0.42542  -0.34098   0.70772   0.14076
   9        3PZ        -0.00041   0.00063   0.00116   0.01132   0.00014
  10        4S          0.01069  -0.04783   0.60192   2.48905  -0.04237
  11        4PX         1.09215  -0.85786   0.17435  -0.68963   4.48727
  12        4PY        -0.63296   0.50353   0.28632  -1.04139  -2.58396
  13        4PZ         0.00066  -0.00009   0.00801  -0.03610   0.00339
  14 2   H  1S          0.02080  -0.05929   0.00900   0.03285  -0.02780
  15        2S          0.10192  -0.63404   0.08098   0.09354  -1.57202
  16        3S         -1.00844   1.14677  -0.03022  -1.14175  -1.22318
  17 3   H  1S         -0.02041   0.05902   0.00887   0.03332   0.02978
  18        2S         -0.10875   0.65325   0.08576   0.08091   1.59767
  19        3S          1.00243  -1.12899  -0.02631  -1.22008   1.22717
  20 4   C  1S          0.00057  -0.00039   0.08230   0.03511   0.00060
  21        2S          0.00114  -0.00076   0.17524   0.07399   0.00128
  22        2PX        -0.15829  -0.17895  -0.10063   0.04867   0.00886
  23        2PY         0.09085   0.10118  -0.17770   0.08731  -0.00213
  24        2PZ        -0.00010  -0.00017   0.00348  -0.00057  -0.00006
  25        3S         -0.00801   0.00181  -1.47241  -0.44678  -0.00938
  26        3PX        -0.70500  -0.59930  -0.37175   0.26504   0.23410
  27        3PY         0.40583   0.33747  -0.65770   0.47310  -0.11784
  28        3PZ        -0.00048  -0.00057   0.01230  -0.00224  -0.00011
  29        4S          0.00697   0.02680   2.66075   0.26403   0.02625
  30        4PX         1.27865   0.71053   0.56360  -0.26636  -4.23438
  31        4PY        -0.73314  -0.40555   1.02026  -0.59082   2.39900
  32        4PZ         0.00086   0.00016  -0.03599   0.01535  -0.00285
  33 5   H  1S         -0.02793  -0.05409   0.03445   0.00424  -0.02371
  34        2S         -0.17413  -0.54671   0.07261   0.06653  -1.43643
  35        3S          1.14670   0.94864  -1.15127   0.22212  -1.11092
  36 6   H  1S          0.02815   0.05388   0.03423   0.00470   0.02430
  37        2S          0.17124   0.52822   0.07118   0.03600   1.43343
  38        3S         -1.14711  -0.95183  -1.12272   0.18439   1.11627
                          26        27        28        29        30
                           V         V         V         V         V
     Eigenvalues --     0.95157   2.23147   2.29057   2.33271   2.40792
   1 1   C  1S          0.09564  -0.01069  -0.01455   0.00011  -0.00029
   2        2S          0.19871   0.00049  -0.01495   0.00042  -0.00026
   3        2PX        -0.09111  -0.08600  -0.13252   0.33484  -0.41399
   4        2PY        -0.15781  -0.15720  -0.22582  -0.19238   0.23704
   5        2PZ         0.00016  -0.00914  -0.01200   0.00006  -0.00051
   6        3S         -1.53949  -0.18234  -0.03203  -0.00164  -0.00340
   7        3PX        -0.23111   0.08667   0.21087  -0.39854   0.57573
   8        3PY        -0.39610   0.16702   0.36858   0.23060  -0.33195
   9        3PZ        -0.00161   0.00915   0.01493  -0.00003   0.00062
  10        4S          5.71909  -0.12831  -0.89599  -0.00629  -0.02006
  11        4PX         1.17848   0.04879  -0.19480  -0.02399   0.98191
  12        4PY         1.99542   0.06761  -0.34867   0.00687  -0.55570
  13        4PZ        -0.01299   0.00239   0.00563  -0.00008   0.00100
  14 2   H  1S          0.01542  -0.72427  -0.77295  -0.69708   0.67052
  15        2S         -0.28434   1.03301   1.16280   1.06358  -1.49033
  16        3S         -0.09236  -0.30677  -0.45753  -0.46355   0.37249
  17 3   H  1S          0.01561  -0.71734  -0.78024   0.68147  -0.68582
  18        2S         -0.26947   1.02432   1.17459  -1.04238   1.52087
  19        3S         -0.08370  -0.29089  -0.45533   0.45171  -0.36868
  20 4   C  1S         -0.09417  -0.01005   0.01237   0.00031   0.00012
  21        2S         -0.19538   0.00071   0.01207   0.00037   0.00025
  22        2PX        -0.09211   0.12715  -0.12581   0.31525   0.41367
  23        2PY        -0.15900   0.22381  -0.21070  -0.18226  -0.23564
  24        2PZ         0.00024  -0.00973   0.01212   0.00035   0.00024
  25        3S          1.51157  -0.17076   0.02312   0.00043  -0.00068
  26        3PX        -0.22695  -0.15987   0.21305  -0.39449  -0.57968
  27        3PY        -0.39449  -0.27956   0.35499   0.22707   0.33027
  28        3PZ         0.00249   0.01045  -0.01547  -0.00041  -0.00037
  29        4S         -5.69550  -0.15098   0.88665   0.01459   0.00671
  30        4PX         1.12599  -0.01753  -0.19574   0.08234  -0.88308
  31        4PY         1.97999  -0.03311  -0.32773  -0.04951   0.50617
  32        4PZ         0.00812   0.00282  -0.00422  -0.00003  -0.00083
  33 5   H  1S         -0.01778  -0.77618   0.69438   0.71982   0.66808
  34        2S          0.29285   1.12282  -1.05543  -1.05758  -1.43992
  35        3S          0.06797  -0.35128   0.41475   0.51609   0.41090
  36 6   H  1S         -0.01788  -0.76935   0.71520  -0.70359  -0.66990
  37        2S          0.30393   1.11169  -1.08445   1.03138   1.43962
  38        3S          0.06850  -0.34832   0.43464  -0.50913  -0.41405
                          31        32        33        34        35
                           V         V         V         V         V
     Eigenvalues --     2.67111   2.81821   2.87722   2.95255   3.13946
   1 1   C  1S          0.00034   0.00172  -0.01329  -0.00008  -0.00956
   2        2S          0.00028   0.00504  -0.04444  -0.00037  -0.02907
   3        2PX         0.00366   0.04979  -0.46819  -0.73823   0.45447
   4        2PY         0.00521   0.08679  -0.83952   0.41051   0.79934
   5        2PZ        -0.92319  -0.93658  -0.09595  -0.00105   0.00469
   6        3S         -0.00117  -0.04184   0.39121   0.00433   0.24322
   7        3PX        -0.00283  -0.08667   0.83413   0.89095  -0.44423
   8        3PY        -0.00384  -0.15038   1.47428  -0.48404  -0.78310
   9        3PZ         0.93803   1.14460   0.12024   0.00136  -0.00615
  10        4S          0.00888   0.09648  -0.87443  -0.01422  -0.47054
  11        4PX        -0.00122   0.07016  -0.71804  -0.67288   0.23017
  12        4PY        -0.00185   0.12211  -1.26972   0.35828   0.40589
  13        4PZ        -0.33721  -0.62019  -0.07588  -0.00105   0.00395
  14 2   H  1S          0.00804  -0.01425   0.26469  -0.37778  -0.22156
  15        2S         -0.00919   0.00912  -0.22114   0.38704   0.16756
  16        3S         -0.00201   0.02845  -0.30277   0.27633   0.06934
  17 3   H  1S          0.00814  -0.01385   0.25536   0.38210  -0.21768
  18        2S         -0.00949   0.00835  -0.20643  -0.38766   0.16387
  19        3S         -0.00221   0.02854  -0.30132  -0.28992   0.07201
  20 4   C  1S          0.00034  -0.00171   0.01381   0.00043  -0.00754
  21        2S          0.00032  -0.00528   0.04793   0.00108  -0.02360
  22        2PX        -0.00474   0.04509  -0.41655  -0.79794  -0.49876
  23        2PY        -0.00917   0.08116  -0.74767   0.44524  -0.87863
  24        2PZ        -0.92633   0.93302   0.09825   0.00006   0.00862
  25        3S         -0.00180   0.04510  -0.42879  -0.00881   0.20290
  26        3PX         0.00486  -0.08176   0.77949   0.95179   0.52840
  27        3PY         0.00928  -0.14549   1.38363  -0.52181   0.93638
  28        3PZ         0.94225  -1.14108  -0.12382  -0.00011  -0.01077
  29        4S          0.01035  -0.09867   0.90559   0.02435  -0.38727
  30        4PX        -0.00037   0.06922  -0.71034  -0.69975  -0.31529
  31        4PY        -0.00133   0.12212  -1.24937   0.37634  -0.56059
  32        4PZ        -0.33944   0.61862   0.07887   0.00006   0.00821
  33 5   H  1S          0.00782   0.01840  -0.29038   0.41777  -0.25486
  34        2S         -0.00955  -0.01468   0.26163  -0.43151   0.19899
  35        3S         -0.00093  -0.02662   0.28535  -0.24480   0.11497
  36 6   H  1S          0.00793   0.01856  -0.28709  -0.42570  -0.24807
  37        2S         -0.00993  -0.01514   0.26206   0.43849   0.19382
  38        3S         -0.00077  -0.02551   0.27252   0.24893   0.11267
                          36        37        38
                           V         V         V
     Eigenvalues --     3.32149  23.35290  23.70575
   1 1   C  1S         -0.00030  -1.41364  -1.45263
   2        2S         -0.00049   1.50763   1.57080
   3        2PX         0.77820  -0.00660   0.01210
   4        2PY        -0.43880  -0.01105   0.02114
   5        2PZ         0.00072  -0.00037  -0.00017
   6        3S          0.00137  -0.29585  -0.39922
   7        3PX        -1.11285   0.02418  -0.05543
   8        3PY         0.62698   0.04084  -0.09636
   9        3PZ        -0.00106   0.00104   0.00052
  10        4S         -0.01604   0.27239   0.76859
  11        4PX         1.96255  -0.02644   0.13209
  12        4PY        -1.11088  -0.04556   0.22880
  13        4PZ         0.00181  -0.00174  -0.00210
  14 2   H  1S          0.55904   0.01392   0.00756
  15        2S         -0.87198   0.00738  -0.01495
  16        3S         -0.47156  -0.08477  -0.03977
  17 3   H  1S         -0.56658   0.01493   0.00826
  18        2S          0.88286   0.00728  -0.01517
  19        3S          0.48649  -0.08586  -0.04012
  20 4   C  1S          0.00008  -1.44786   1.41837
  21        2S         -0.00005   1.54427  -1.53390
  22        2PX        -0.71693   0.00604   0.01265
  23        2PY         0.40716   0.01071   0.02159
  24        2PZ        -0.00056  -0.00037   0.00009
  25        3S          0.00189  -0.30350   0.39036
  26        3PX         1.02138  -0.02209  -0.05643
  27        3PY        -0.58508  -0.03893  -0.09704
  28        3PZ         0.00083   0.00107  -0.00022
  29        4S         -0.00436   0.28195  -0.75914
  30        4PX        -1.80948   0.02265   0.13169
  31        4PY         1.03991   0.04120   0.22682
  32        4PZ        -0.00146  -0.00174   0.00145
  33 5   H  1S          0.49138   0.01280  -0.00460
  34        2S         -0.77003   0.00821   0.01365
  35        3S         -0.42926  -0.08275   0.03758
  36 6   H  1S         -0.48994   0.01207  -0.00386
  37        2S          0.76922   0.00910   0.01306
  38        3S          0.42676  -0.08177   0.03681
     Density Matrix:
                           1         2         3         4         5
   1 1   C  1S          0.65941
   2        2S          0.56153   0.49205
   3        2PX        -0.00058  -0.00078   0.08444
   4        2PY        -0.00123  -0.00169   0.00342   0.08794
   5        2PZ         0.00006   0.00009  -0.00008  -0.00018   0.06436
   6        3S         -0.08899  -0.15394   0.00290   0.00606  -0.00014
   7        3PX         0.00084   0.00128   0.13069   0.00106  -0.00006
   8        3PY         0.00126   0.00193   0.00106   0.13150  -0.00016
   9        3PZ         0.00012   0.00020  -0.00014  -0.00029   0.10350
  10        4S         -0.07932  -0.11421  -0.01520  -0.02695   0.00039
  11        4PX         0.00026   0.00156   0.07045  -0.00444  -0.00038
  12        4PY         0.00054   0.00287  -0.00448   0.06563  -0.00066
  13        4PZ        -0.00007  -0.00017  -0.00056  -0.00094   0.09592
  14 2   H  1S         -0.02071  -0.03297   0.03484  -0.06351  -0.00079
  15        2S         -0.02287  -0.03656   0.04909  -0.08797  -0.00058
  16        3S          0.00060  -0.00067   0.02071  -0.03297  -0.00001
  17 3   H  1S         -0.02102  -0.03344  -0.07286  -0.00198  -0.00089
  18        2S         -0.02309  -0.03688  -0.10066  -0.00188  -0.00070
  19        3S          0.00061  -0.00067  -0.03852   0.00138  -0.00005
  20 4   C  1S          0.00605   0.00975  -0.01081  -0.01872  -0.00028
  21        2S          0.00972   0.01519  -0.01730  -0.02996  -0.00045
  22        2PX         0.01038   0.01660  -0.01249  -0.03208   0.00031
  23        2PY         0.01809   0.02894  -0.03216  -0.04974   0.00062
  24        2PZ        -0.00033  -0.00054  -0.00026  -0.00038   0.06430
  25        3S         -0.02619  -0.03975   0.04854   0.08411   0.00137
  26        3PX         0.01603   0.02485  -0.01831  -0.04572   0.00040
  27        3PY         0.02791   0.04329  -0.04573  -0.07129   0.00083
  28        3PZ        -0.00056  -0.00090  -0.00046  -0.00067   0.10291
  29        4S          0.00534   0.00396   0.02059   0.03588   0.00168
  30        4PX         0.00308   0.00638  -0.01298  -0.02097   0.00046
  31        4PY         0.00532   0.01103  -0.02097  -0.03740   0.00095
  32        4PZ        -0.00047  -0.00076  -0.00072  -0.00113   0.09594
  33 5   H  1S          0.00418   0.00688  -0.00165  -0.01229  -0.00032
  34        2S          0.00636   0.01058   0.00352  -0.02500  -0.00002
  35        3S          0.00328   0.00482   0.00419  -0.01765   0.00006
  36 6   H  1S          0.00416   0.00683  -0.00985  -0.00763  -0.00033
  37        2S          0.00628   0.01045  -0.02343  -0.00942  -0.00004
  38        3S          0.00324   0.00475  -0.01732  -0.00518   0.00004
                           6         7         8         9        10
   6        3S          0.45287
   7        3PX        -0.00157   0.20255
   8        3PY        -0.00174  -0.00456   0.19712
   9        3PZ        -0.00040  -0.00011  -0.00025   0.16647
  10        4S          0.27314  -0.02589  -0.04633   0.00052   0.18118
  11        4PX        -0.00670   0.10952  -0.00995  -0.00062  -0.01505
  12        4PY        -0.01194  -0.01000   0.09878  -0.00106  -0.02766
  13        4PZ         0.00077  -0.00074  -0.00123   0.15427   0.00144
  14 2   H  1S          0.08814   0.05598  -0.09899  -0.00132   0.06892
  15        2S          0.09786   0.07923  -0.13665  -0.00098   0.08049
  16        3S          0.00600   0.03376  -0.05062  -0.00001   0.01067
  17 3   H  1S          0.08944  -0.11407  -0.00157  -0.00146   0.06886
  18        2S          0.09879  -0.15741  -0.00022  -0.00115   0.07968
  19        3S          0.00611  -0.05998   0.00389  -0.00007   0.01008
  20 4   C  1S         -0.02640  -0.01686  -0.02921  -0.00047   0.00519
  21        2S         -0.03996  -0.02620  -0.04540  -0.00077   0.00392
  22        2PX        -0.04646  -0.01784  -0.04557   0.00054  -0.01805
  23        2PY        -0.08103  -0.04575  -0.07099   0.00106  -0.03155
  24        2PZ         0.00159  -0.00036  -0.00049   0.10341   0.00166
  25        3S          0.10178   0.07116   0.12341   0.00229   0.00097
  26        3PX        -0.06724  -0.02628  -0.06475   0.00070  -0.02687
  27        3PY        -0.11723  -0.06490  -0.10170   0.00143  -0.04694
  28        3PZ         0.00264  -0.00063  -0.00089   0.16551   0.00276
  29        4S          0.00169   0.03109   0.05431   0.00279  -0.03237
  30        4PX        -0.02256  -0.01941  -0.02952   0.00076  -0.00680
  31        4PY        -0.03913  -0.02959  -0.05405   0.00156  -0.01158
  32        4PZ         0.00222  -0.00101  -0.00155   0.15430   0.00254
  33 5   H  1S         -0.02050  -0.00069  -0.01770  -0.00047  -0.01530
  34        2S         -0.03165   0.00844  -0.03683   0.00003  -0.02019
  35        3S         -0.01243   0.00796  -0.02653   0.00011  -0.00392
  36 6   H  1S         -0.02030  -0.01492  -0.00935  -0.00049  -0.01530
  37        2S         -0.03121  -0.03595  -0.01078   0.00000  -0.02034
  38        3S         -0.01221  -0.02675  -0.00621   0.00009  -0.00409
                          11        12        13        14        15
  11        4PX         0.06024
  12        4PY        -0.00876   0.05099
  13        4PZ        -0.00092  -0.00151   0.14297
  14 2   H  1S          0.03337  -0.05418  -0.00067   0.08179
  15        2S          0.04802  -0.07467  -0.00022   0.10971   0.14927
  16        3S          0.02090  -0.02754   0.00016   0.03663   0.05212
  17 3   H  1S         -0.06327   0.00168  -0.00074  -0.01313  -0.02479
  18        2S         -0.08768   0.00422  -0.00030  -0.02476  -0.04304
  19        3S         -0.03368   0.00444   0.00013  -0.01815  -0.02745
  20 4   C  1S         -0.00318  -0.00567  -0.00043   0.00423   0.00665
  21        2S         -0.00656  -0.01162  -0.00068   0.00700   0.01111
  22        2PX        -0.01324  -0.02015   0.00074   0.00185  -0.00275
  23        2PY        -0.02024  -0.03684   0.00141   0.01152   0.02425
  24        2PZ        -0.00051  -0.00078   0.09584  -0.00038  -0.00011
  25        3S          0.02321   0.04099   0.00200  -0.02104  -0.03339
  26        3PX        -0.02031  -0.02849   0.00100   0.00101  -0.00733
  27        3PY        -0.02860  -0.05364   0.00195   0.01710   0.03629
  28        3PZ        -0.00085  -0.00130   0.15339  -0.00056  -0.00012
  29        4S          0.00797   0.01464   0.00256  -0.01740  -0.02359
  30        4PX        -0.01463  -0.01260   0.00092  -0.00149  -0.00822
  31        4PY        -0.01263  -0.02952   0.00183   0.01532   0.02716
  32        4PZ        -0.00103  -0.00162   0.14301  -0.00032   0.00019
  33 5   H  1S          0.00186  -0.01566  -0.00024   0.01119   0.02332
  34        2S          0.00894  -0.02740   0.00030   0.02376   0.04437
  35        3S          0.00738  -0.01582   0.00022   0.01667   0.02783
  36 6   H  1S         -0.01448  -0.00602  -0.00025  -0.00907  -0.01816
  37        2S         -0.02814  -0.00558   0.00028  -0.01880  -0.03421
  38        3S         -0.01723  -0.00136   0.00020  -0.01013  -0.01764
                          16        17        18        19        20
  16        3S          0.02084
  17 3   H  1S         -0.01825   0.08250
  18        2S         -0.02752   0.10987   0.14847
  19        3S         -0.01293   0.03626   0.05128   0.02034
  20 4   C  1S          0.00365   0.00428   0.00668   0.00365   0.65947
  21        2S          0.00537   0.00707   0.01114   0.00536   0.56155
  22        2PX        -0.00352   0.00905   0.02226   0.01670   0.00110
  23        2PY         0.01756   0.00742   0.00967   0.00564   0.00180
  24        2PZ         0.00002  -0.00038  -0.00008   0.00005   0.00005
  25        3S         -0.01389  -0.02122  -0.03345  -0.01383  -0.08922
  26        3PX        -0.00705   0.01434   0.03499   0.02607  -0.00053
  27        3PY         0.02647   0.00949   0.01169   0.00702  -0.00104
  28        3PZ         0.00005  -0.00055  -0.00007   0.00009   0.00012
  29        4S         -0.00551  -0.01729  -0.02320  -0.00527  -0.08020
  30        4PX        -0.00691   0.01390   0.02737   0.01695  -0.00018
  31        4PY         0.01588   0.00643   0.00642   0.00189  -0.00021
  32        4PZ         0.00019  -0.00031   0.00023   0.00021  -0.00003
  33 5   H  1S          0.01618  -0.00908  -0.01819  -0.00946  -0.02008
  34        2S          0.02740  -0.01873  -0.03404  -0.01698  -0.02223
  35        3S          0.01461  -0.01008  -0.01752  -0.00895   0.00056
  36 6   H  1S         -0.00950   0.01118   0.02319   0.01592  -0.01997
  37        2S         -0.01717   0.02378   0.04419   0.02703  -0.02228
  38        3S         -0.00907   0.01664   0.02766   0.01442   0.00049
                          21        22        23        24        25
  21        2S          0.49204
  22        2PX         0.00158   0.08266
  23        2PY         0.00256   0.00381   0.08749
  24        2PZ         0.00008   0.00009   0.00013   0.06426
  25        3S         -0.15418  -0.00514  -0.00841  -0.00009   0.45355
  26        3PX        -0.00080   0.12855   0.00193   0.00006  -0.00001
  27        3PY        -0.00158   0.00199   0.13116   0.00006   0.00057
  28        3PZ         0.00020   0.00015   0.00021   0.10285  -0.00039
  29        4S         -0.11587   0.01401   0.02390   0.00044   0.27865
  30        4PX        -0.00144   0.07273  -0.00499   0.00032   0.00621
  31        4PY        -0.00229  -0.00501   0.06692   0.00060   0.01010
  32        4PZ        -0.00011   0.00054   0.00097   0.09588   0.00057
  33 5   H  1S         -0.03199  -0.03355   0.06331  -0.00089   0.08557
  34        2S         -0.03554  -0.04970   0.08839  -0.00073   0.09509
  35        3S         -0.00066  -0.02243   0.03353  -0.00008   0.00576
  36 6   H  1S         -0.03183   0.07119   0.00279  -0.00081   0.08513
  37        2S         -0.03561   0.10114   0.00127  -0.00060   0.09527
  38        3S         -0.00076   0.04028  -0.00273  -0.00003   0.00596
                          26        27        28        29        30
  26        3PX         0.20025
  27        3PY        -0.00268   0.19720
  28        3PZ         0.00008   0.00009   0.16461
  29        4S          0.02552   0.04341   0.00055   0.18719
  30        4PX         0.11374  -0.01055   0.00051   0.01555   0.06564
  31        4PY        -0.01065   0.10115   0.00096   0.02570  -0.01027
  32        4PZ         0.00069   0.00126   0.15345   0.00138   0.00079
  33 5   H  1S         -0.05378   0.09921  -0.00148   0.06736  -0.03437
  34        2S         -0.08009   0.13802  -0.00121   0.07822  -0.05166
  35        3S         -0.03656   0.05170  -0.00013   0.00968  -0.02379
  36 6   H  1S          0.11238   0.00346  -0.00135   0.06772   0.06531
  37        2S          0.15948   0.00006  -0.00102   0.07929   0.09311
  38        3S          0.06322  -0.00582  -0.00006   0.01021   0.03723
                          31        32        33        34        35
  31        4PY         0.05340
  32        4PZ         0.00151   0.14306
  33 5   H  1S          0.05550  -0.00077   0.08059
  34        2S          0.07730  -0.00036   0.10994   0.15236
  35        3S          0.02905   0.00009   0.03800   0.05517   0.02277
  36 6   H  1S         -0.00185  -0.00070  -0.01255  -0.02589  -0.01970
  37        2S         -0.00595  -0.00025  -0.02598  -0.04775  -0.03114
  38        3S         -0.00608   0.00013  -0.01986  -0.03125  -0.01534
                          36        37        38
  36 6   H  1S          0.08009
  37        2S          0.10967   0.15252
  38        3S          0.03802   0.05536   0.02288
    Full Mulliken population analysis:
                           1         2         3         4         5
   1 1   C  1S          0.65941
   2        2S          0.49328   0.49205
   3        2PX         0.00000   0.00000   0.08444
   4        2PY         0.00000   0.00000   0.00000   0.08794
   5        2PZ         0.00000   0.00000   0.00000   0.00000   0.06436
   6        3S         -0.02929  -0.06447   0.00000   0.00000   0.00000
   7        3PX         0.00000   0.00000   0.08222   0.00000   0.00000
   8        3PY         0.00000   0.00000   0.00000   0.08273   0.00000
   9        3PZ         0.00000   0.00000   0.00000   0.00000   0.06512
  10        4S         -0.01220  -0.02137   0.00000   0.00000   0.00000
  11        4PX         0.00000   0.00000   0.01552   0.00000   0.00000
  12        4PY         0.00000   0.00000   0.00000   0.01445   0.00000
  13        4PZ         0.00000   0.00000   0.00000   0.00000   0.02112
  14 2   H  1S         -0.00024  -0.00034   0.00183   0.00580   0.00000
  15        2S         -0.00169  -0.00323   0.00429   0.01335   0.00000
  16        3S          0.00005  -0.00006   0.00069   0.00190   0.00000
  17 3   H  1S         -0.00025  -0.00037   0.00791   0.00000   0.00000
  18        2S         -0.00173  -0.00331   0.01777   0.00000   0.00000
  19        3S          0.00005  -0.00006   0.00256  -0.00000   0.00000
  20 4   C  1S          0.00000   0.00000  -0.00002  -0.00006   0.00000
  21        2S          0.00000  -0.00000  -0.00002  -0.00005   0.00000
  22        2PX        -0.00002  -0.00002   0.00011   0.00085   0.00000
  23        2PY        -0.00006  -0.00005   0.00085   0.00196   0.00000
  24        2PZ        -0.00000  -0.00000  -0.00000  -0.00000   0.00041
  25        3S         -0.00059  -0.00099   0.00253   0.00759  -0.00000
  26        3PX        -0.00054  -0.00099   0.00019   0.00552   0.00000
  27        3PY        -0.00163  -0.00299   0.00552   0.01069   0.00000
  28        3PZ        -0.00000  -0.00000  -0.00000  -0.00000   0.00609
  29        4S          0.00034   0.00030   0.00093   0.00282  -0.00000
  30        4PX        -0.00018  -0.00045  -0.00070   0.00145   0.00000
  31        4PY        -0.00054  -0.00136   0.00145   0.00097   0.00000
  32        4PZ        -0.00000  -0.00000  -0.00000  -0.00000   0.00902
  33 5   H  1S          0.00000   0.00000  -0.00000  -0.00000   0.00000
  34        2S          0.00001   0.00002   0.00000  -0.00032   0.00000
  35        3S          0.00008   0.00013   0.00001  -0.00071  -0.00000
  36 6   H  1S          0.00000   0.00000  -0.00000  -0.00000   0.00000
  37        2S          0.00001   0.00002  -0.00024  -0.00007   0.00000
  38        3S          0.00007   0.00013  -0.00057  -0.00012  -0.00000
                           6         7         8         9        10
   6        3S          0.45287
   7        3PX         0.00000   0.20255
   8        3PY         0.00000   0.00000   0.19712
   9        3PZ         0.00000   0.00000   0.00000   0.16647
  10        4S          0.21160   0.00000   0.00000   0.00000   0.18118
  11        4PX         0.00000   0.07157   0.00000   0.00000   0.00000
  12        4PY         0.00000   0.00000   0.06455   0.00000   0.00000
  13        4PZ         0.00000   0.00000   0.00000   0.10081   0.00000
  14 2   H  1S          0.01638   0.01073   0.03295   0.00001   0.01831
  15        2S          0.04147   0.01936   0.05800   0.00001   0.04656
  16        3S          0.00277   0.00391   0.01020   0.00000   0.00807
  17 3   H  1S          0.01694   0.04437   0.00000   0.00001   0.01842
  18        2S          0.04231   0.07740   0.00000   0.00001   0.04634
  19        3S          0.00283   0.01392  -0.00001   0.00000   0.00765
  20 4   C  1S         -0.00059  -0.00057  -0.00171   0.00000   0.00033
  21        2S         -0.00099  -0.00105  -0.00314   0.00000   0.00030
  22        2PX         0.00242   0.00019   0.00550   0.00000   0.00082
  23        2PY         0.00731   0.00552   0.01064   0.00000   0.00248
  24        2PZ         0.00000  -0.00000  -0.00000   0.00612   0.00000
  25        3S          0.02166   0.01332   0.04001  -0.00000   0.00037
  26        3PX         0.01259  -0.00127   0.01847   0.00000   0.00414
  27        3PY         0.03801   0.01851   0.02859   0.00000   0.01253
  28        3PZ         0.00000  -0.00000  -0.00000   0.03523   0.00000
  29        4S          0.00064   0.00479   0.01450  -0.00000  -0.02031
  30        4PX         0.00634  -0.00398   0.00585   0.00000   0.00206
  31        4PY         0.01903   0.00586   0.00128   0.00000   0.00607
  32        4PZ         0.00000  -0.00000  -0.00000   0.04927   0.00000
  33 5   H  1S         -0.00006  -0.00000  -0.00019   0.00000  -0.00082
  34        2S         -0.00123   0.00006  -0.00326  -0.00000  -0.00340
  35        3S         -0.00203   0.00010  -0.00428  -0.00000  -0.00142
  36 6   H  1S         -0.00005  -0.00013  -0.00006   0.00000  -0.00081
  37        2S         -0.00119  -0.00258  -0.00053  -0.00000  -0.00339
  38        3S         -0.00198  -0.00355  -0.00057  -0.00000  -0.00147
                          11        12        13        14        15
  11        4PX         0.06024
  12        4PY         0.00000   0.05099
  13        4PZ         0.00000   0.00000   0.14297
  14 2   H  1S          0.00623   0.01759   0.00000   0.08179
  15        2S          0.01509   0.04075   0.00000   0.07750   0.14927
  16        3S          0.00514   0.01176  -0.00000   0.01369   0.04112
  17 3   H  1S          0.02371  -0.00000   0.00001  -0.00001  -0.00067
  18        2S          0.05516  -0.00002   0.00000  -0.00067  -0.00550
  19        3S          0.01655  -0.00002  -0.00000  -0.00205  -0.00807
  20 4   C  1S         -0.00019  -0.00057   0.00000   0.00000   0.00002
  21        2S         -0.00047  -0.00143   0.00000   0.00000   0.00003
  22        2PX        -0.00071   0.00140   0.00000  -0.00000   0.00000
  23        2PY         0.00140   0.00096   0.00000  -0.00000  -0.00036
  24        2PZ        -0.00000  -0.00000   0.00901   0.00000   0.00000
  25        3S          0.00652   0.01994  -0.00000  -0.00007  -0.00147
  26        3PX        -0.00416   0.00564   0.00000  -0.00000   0.00004
  27        3PY         0.00566   0.00127   0.00000  -0.00023  -0.00356
  28        3PZ        -0.00000  -0.00000   0.04898   0.00000   0.00000
  29        4S          0.00242   0.00768  -0.00000  -0.00102  -0.00423
  30        4PX        -0.00704   0.00319   0.00000   0.00001   0.00018
  31        4PY         0.00320  -0.00558   0.00000  -0.00243  -0.01023
  32        4PZ        -0.00000  -0.00000   0.08975   0.00000  -0.00000
  33 5   H  1S          0.00002  -0.00233   0.00000   0.00000   0.00000
  34        2S          0.00025  -0.00987  -0.00000   0.00000   0.00016
  35        3S          0.00026  -0.00732  -0.00000   0.00023   0.00147
  36 6   H  1S         -0.00176  -0.00050   0.00000  -0.00000  -0.00004
  37        2S         -0.00831  -0.00113  -0.00000  -0.00004  -0.00091
  38        3S         -0.00656  -0.00036  -0.00000  -0.00046  -0.00245
                          16        17        18        19        20
  16        3S          0.02084
  17 3   H  1S         -0.00206   0.08250
  18        2S         -0.00809   0.07761   0.14847
  19        3S         -0.00676   0.01355   0.04046   0.02034
  20 4   C  1S          0.00009   0.00000   0.00002   0.00009   0.65947
  21        2S          0.00016   0.00000   0.00003   0.00016   0.49329
  22        2PX         0.00001  -0.00000  -0.00028  -0.00058   0.00000
  23        2PY        -0.00074  -0.00000  -0.00008  -0.00013   0.00000
  24        2PZ        -0.00000   0.00000   0.00000  -0.00000   0.00000
  25        3S         -0.00239  -0.00007  -0.00148  -0.00239  -0.02937
  26        3PX         0.00007  -0.00016  -0.00287  -0.00364   0.00000
  27        3PY        -0.00443  -0.00007  -0.00064  -0.00065   0.00000
  28        3PZ        -0.00000   0.00000   0.00000  -0.00000   0.00000
  29        4S         -0.00207  -0.00101  -0.00417  -0.00198  -0.01233
  30        4PX         0.00019  -0.00184  -0.00861  -0.00667   0.00000
  31        4PY        -0.00749  -0.00057  -0.00134  -0.00050   0.00000
  32        4PZ        -0.00000   0.00000  -0.00000  -0.00000   0.00000
  33 5   H  1S          0.00023  -0.00000  -0.00004  -0.00043  -0.00021
  34        2S          0.00144  -0.00004  -0.00092  -0.00238  -0.00158
  35        3S          0.00247  -0.00046  -0.00245  -0.00287   0.00004
  36 6   H  1S         -0.00043   0.00000   0.00000   0.00022  -0.00021
  37        2S         -0.00239   0.00000   0.00015   0.00142  -0.00157
  38        3S         -0.00289   0.00023   0.00145   0.00242   0.00004
                          21        22        23        24        25
  21        2S          0.49204
  22        2PX         0.00000   0.08266
  23        2PY         0.00000   0.00000   0.08749
  24        2PZ         0.00000   0.00000   0.00000   0.06426
  25        3S         -0.06457   0.00000   0.00000   0.00000   0.45355
  26        3PX         0.00000   0.08087   0.00000   0.00000   0.00000
  27        3PY         0.00000   0.00000   0.08252   0.00000   0.00000
  28        3PZ         0.00000   0.00000   0.00000   0.06470   0.00000
  29        4S         -0.02168   0.00000   0.00000   0.00000   0.21587
  30        4PX         0.00000   0.01602   0.00000   0.00000   0.00000
  31        4PY         0.00000   0.00000   0.01474   0.00000   0.00000
  32        4PZ         0.00000   0.00000   0.00000   0.02111   0.00000
  33 5   H  1S         -0.00030   0.00151   0.00557   0.00000   0.01530
  34        2S         -0.00303   0.00390   0.01354   0.00000   0.03942
  35        3S         -0.00006   0.00068   0.00199   0.00000   0.00264
  36 6   H  1S         -0.00029   0.00688   0.00002   0.00000   0.01502
  37        2S         -0.00300   0.01727   0.00001   0.00000   0.03921
  38        3S         -0.00007   0.00269  -0.00001   0.00000   0.00272
                          26        27        28        29        30
  26        3PX         0.20025
  27        3PY         0.00000   0.19720
  28        3PZ         0.00000   0.00000   0.16461
  29        4S          0.00000   0.00000   0.00000   0.18719
  30        4PX         0.07432   0.00000   0.00000   0.00000   0.06564
  31        4PY         0.00000   0.06609   0.00000   0.00000   0.00000
  32        4PZ         0.00000   0.00000   0.10027   0.00000   0.00000
  33 5   H  1S          0.00917   0.03303   0.00001   0.01764   0.00586
  34        2S          0.01772   0.05963   0.00001   0.04474   0.01486
  35        3S          0.00389   0.01073   0.00000   0.00727   0.00538
  36 6   H  1S          0.04161   0.00007   0.00001   0.01764   0.02436
  37        2S          0.07705   0.00000   0.00001   0.04518   0.05867
  38        3S          0.01474  -0.00008   0.00000   0.00765   0.01847
                          31        32        33        34        35
  31        4PY         0.05340
  32        4PZ         0.00000   0.14306
  33 5   H  1S          0.01847   0.00001   0.08059
  34        2S          0.04340   0.00000   0.07766   0.15236
  35        3S          0.01282  -0.00000   0.01420   0.04353   0.02277
  36 6   H  1S         -0.00004   0.00001  -0.00001  -0.00076  -0.00228
  37        2S         -0.00021   0.00000  -0.00076  -0.00639  -0.00937
  38        3S         -0.00017  -0.00000  -0.00230  -0.00940  -0.00814
                          36        37        38
  36 6   H  1S          0.08009
  37        2S          0.07747   0.15252
  38        3S          0.01421   0.04368   0.02288
     Gross orbital populations:
                           1
   1 1   C  1S          1.10435
   2        2S          0.88586
   3        2PX         0.22728
   4        2PY         0.23670
   5        2PZ         0.16613
   6        3S          0.79329
   7        3PX         0.56125
   8        3PY         0.55666
   9        3PZ         0.42305
  10        4S          0.50205
  11        4PX         0.25973
  12        4PY         0.21104
  13        4PZ         0.41265
  14 2   H  1S          0.27550
  15        2S          0.46625
  16        3S          0.08501
  17 3   H  1S          0.27768
  18        2S          0.46497
  19        3S          0.08302
  20 4   C  1S          1.10441
  21        2S          0.88584
  22        2PX         0.22217
  23        2PY         0.23557
  24        2PZ         0.16563
  25        3S          0.79226
  26        3PX         0.55266
  27        3PY         0.55579
  28        3PZ         0.41993
  29        4S          0.50877
  30        4PX         0.27339
  31        4PY         0.21634
  32        4PZ         0.41249
  33 5   H  1S          0.27180
  34        2S          0.47011
  35        3S          0.08930
  36 6   H  1S          0.27024
  37        2S          0.47060
  38        3S          0.09024
          Condensed to atoms (all electrons):
               1          2          3          4          5          6
     1  C    5.033838   0.387648   0.388168   0.602347  -0.036300  -0.035675
     2  H    0.387648   0.516512  -0.033876  -0.039904   0.006002  -0.009619
     3  H    0.388168  -0.033876   0.514545  -0.039462  -0.009610   0.005905
     4  C    0.602347  -0.039904  -0.039462   5.054529   0.384048   0.383696
     5  H   -0.036300   0.006002  -0.009610   0.384048   0.526486  -0.039416
     6  H   -0.035675  -0.009619   0.005905   0.383696  -0.039416   0.526188
 Mulliken charges:
               1
     1  C   -0.340027
     2  H    0.173237
     3  H    0.174331
     4  C   -0.345255
     5  H    0.168791
     6  H    0.168922
 Sum of Mulliken charges =   0.00000
 Mulliken charges with hydrogens summed into heavy atoms:
               1
     1  C    0.007542
     4  C   -0.007542
 Electronic spatial extent (au):  <R**2>=             83.6902
 Charge=              0.0000 electrons
 Dipole moment (field-independent basis, Debye):
    X=              0.0001    Y=              0.0111    Z=             -0.0717  Tot=              0.0725
 Quadrupole moment (field-independent basis, Debye-Ang):
   XX=            -12.1962   YY=            -12.2195   ZZ=            -15.6704
   XY=              0.0059   XZ=              0.0001   YZ=             -0.0037
 Traceless Quadrupole moment (field-independent basis, Debye-Ang):
   XX=              1.1658   YY=              1.1425   ZZ=             -2.3084
   XY=              0.0059   XZ=              0.0001   YZ=             -0.0037
 Octapole moment (field-independent basis, Debye-Ang**2):
  XXX=             -0.2696  YYY=             -0.0998  ZZZ=             -0.0620  XYY=              0.1261
  XXY=             -0.0327  XXZ=             -0.1008  XZZ=             -0.0805  YZZ=             -0.0908
  YYZ=             -0.1310  XYZ=             -0.0264
 Hexadecapole moment (field-independent basis, Debye-Ang**3):
 XXXX=            -34.2505 YYYY=            -55.1790 ZZZZ=            -17.8062 XXXY=             -7.2425
 XXXZ=              0.0115 YYYX=            -10.7178 YYYZ=              0.0179 ZZZX=              0.0156
 ZZZY=              0.0332 XXYY=            -16.1911 XXZZ=             -9.9230 YYZZ=            -13.6354
 XXYZ=              0.0074 YYXZ=              0.0024 ZZXY=             -3.2016
 N-N= 3.307364049523D+01 E-N=-2.478611034384D+02  KE= 7.815549462704D+01
 Orbital energies and kinetic energies (alpha):
                                 1                 2
   1         O               -10.290538         15.978887
   2         O               -10.287408         15.979412
   3         O                -0.863717          1.537606
   4         O                -0.672270          1.272528
   5         O                -0.559685          0.942075
   6         O                -0.509040          1.284707
   7         O                -0.437180          1.044435
   8         O                -0.356695          1.038097
   9         V                 0.079830          1.182006
  10         V                 0.141033          0.588940
  11         V                 0.164900          0.593592
  12         V                 0.170445          0.678571
  13         V                 0.240815          0.581801
  14         V                 0.375087          0.857721
  15         V                 0.394045          0.935127
  16         V                 0.396728          0.774225
  17         V                 0.464485          1.193234
  18         V                 0.488410          1.423268
  19         V                 0.493899          1.301914
  20         V                 0.591050          1.651955
  21         V                 0.665843          1.574697
  22         V                 0.691913          2.146502
  23         V                 0.772572          2.406649
  24         V                 0.776239          2.338807
  25         V                 0.844805          1.086806
  26         V                 0.951566          3.421337
  27         V                 2.231475          3.923259
  28         V                 2.290567          4.029480
  29         V                 2.332710          4.304212
  30         V                 2.407922          4.524480
  31         V                 2.671105          6.300866
  32         V                 2.818211          6.307456
  33         V                 2.877219          6.136074
  34         V                 2.952547          6.225715
  35         V                 3.139463          6.821696
  36         V                 3.321493          6.401964
  37         V                23.352905         60.074824
  38         V                23.705745         60.203470
 Total kinetic energy from orbitals= 7.815549462704D+01
 Calling FoFJK, ICntrl=      2127 FMM=F ISym2X=0 I1Cent= 0 IOpClX= 0 NMat=1 NMatS=1 NMatT=0.
 -------------------------------------------------------------------
 Center     Atomic                   Forces (Hartrees/Bohr)
 Number     Number              X              Y              Z
 -------------------------------------------------------------------
      1        6           0.011526735    0.010499877   -0.002825596
      2        1          -0.007030584    0.003643564    0.001408097
      3        1           0.002273844   -0.003883728    0.001335037
      4        6           0.006351531    0.008186404   -0.003164178
      5        1           0.004039734   -0.014141762    0.001605991
      6        1          -0.017161259   -0.004304354    0.001640649
 -------------------------------------------------------------------
 Cartesian Forces:  Max     0.017161259 RMS     0.007415478

 GradGradGradGradGradGradGradGradGradGradGradGradGradGradGradGradGradGrad
 Berny optimization.
 Search for a local minimum.
 Step number   1 out of a maximum of    2
 All quantities printed in internal units (Hartrees-Bohrs-Radians)
 Second derivative matrix not updated -- first step.
 The second derivative matrix:
                          X1        Y1        Z1        X2        Y2
           X1           0.76000
           Y1           0.09669   0.86313
           Z1           0.00418   0.00634   0.17177
           X2          -0.16498   0.09735   0.00151   0.14227
           Y2           0.10372  -0.28908  -0.00542  -0.11679   0.27791
           Z2           0.00239  -0.00681  -0.05549  -0.00217   0.00562
           X3          -0.35315  -0.00189  -0.00592  -0.00028  -0.00016
           Y3          -0.00819  -0.11024  -0.00141   0.03272   0.01881
           Z3          -0.00757  -0.00136  -0.05615   0.00109   0.00040
           X4          -0.26666  -0.17784  -0.00052   0.02299   0.01323
           Y4          -0.17812  -0.47196  -0.00083  -0.01328  -0.00764
           Z4           0.00098   0.00180  -0.09400  -0.00043  -0.00060
           X5           0.02331  -0.01346   0.00046  -0.00000   0.00000
           Y5           0.01193  -0.00689   0.00063   0.00000  -0.00000
           Z5          -0.00038   0.00024   0.01705   0.00018  -0.00009
           X6           0.00148  -0.00085   0.00029  -0.00000   0.00000
           Y6          -0.02603   0.01503   0.00069   0.00000  -0.00000
           Z6           0.00039  -0.00021   0.01683  -0.00018   0.00009
                          Z2        X3        Y3        Z3        X4
           Z2           0.02882
           X3          -0.00022   0.35322
           Y3           0.00117   0.00217   0.07602
           Z3           0.01061   0.00646   0.00095   0.02935
           X4           0.00036   0.00022  -0.02670  -0.00035   0.71435
           Y4          -0.00019  -0.00013   0.01541   0.00022   0.11883
           Z4           0.01606  -0.00032  -0.00071   0.01619  -0.00380
           X5          -0.00018  -0.00000   0.00000   0.00019  -0.14783
           Y5           0.00012   0.00000  -0.00000  -0.00012   0.09296
           Z5           0.00923   0.00019  -0.00012  -0.00932  -0.00234
           X6          -0.00018  -0.00000   0.00000   0.00019  -0.32307
           Y6           0.00010   0.00000  -0.00000  -0.00010  -0.02049
           Z6          -0.00923  -0.00019   0.00012   0.00932   0.00666
                          Y4        Z4        X5        Y5        Z5
           Y4           0.85472
           Z4          -0.00740   0.17435
           X5           0.08507  -0.00155   0.12638
           Y5          -0.28567   0.00548  -0.10396   0.27602
           Z5           0.00679  -0.05637   0.00210  -0.00583   0.02919
           X6          -0.01239   0.00513  -0.00185  -0.00094   0.00025
           Y6          -0.10486   0.00143   0.03234   0.01654  -0.00098
           Z6           0.00141  -0.05623  -0.00101  -0.00028   0.01023
                          X6        Y6        Z6
           X6           0.32345
           Y6           0.01418   0.07329
           Z6          -0.00567  -0.00114   0.02908
 ITU=  0
     Eigenvalues ---    0.03713   0.04386   0.09341   0.09954   0.13504
     Eigenvalues ---    0.17528   0.26344   0.29058   0.52987   0.70343
     Eigenvalues ---    0.97797   1.56040
 Angle between quadratic step and forces=  31.01 degrees.
 Linear search not attempted -- first point.
 B after Tr=     0.004899    0.006588   -0.007348
         Rot=    1.000000   -0.000019    0.000010   -0.000105 Ang=  -0.01 deg.
 Variable       Old X    -DE/DX   Delta X   Delta X   Delta X     New X
                                 (Linear)    (Quad)   (Total)
    X1       -0.63414   0.01153   0.00000   0.01732   0.02244  -0.61170
    Y1       -1.09896   0.01050   0.00000   0.02182   0.02828  -1.07068
    Z1        0.00997  -0.00283   0.00000  -0.01544  -0.02284  -0.01288
    X2        0.39559  -0.00703   0.00000  -0.02556  -0.02006   0.37553
    Y2       -2.88792   0.00364   0.00000   0.01876   0.02542  -2.86250
    Z2       -0.02885   0.00141   0.00000   0.01898   0.01153  -0.01732
    X3       -2.68499   0.00227   0.00000   0.02333   0.02847  -2.65652
    Y3       -1.11512  -0.00388   0.00000  -0.01291  -0.00688  -1.12200
    Z3       -0.03096   0.00134   0.00000   0.01864   0.01120  -0.01976
    X4        0.63092   0.00635   0.00000   0.00295   0.00762   0.63854
    Y4        1.09199   0.00819   0.00000   0.00546   0.01219   1.10417
    Z4        0.00734  -0.00316   0.00000  -0.01497  -0.02226  -0.01493
    X5       -0.32248   0.00404   0.00000   0.00083   0.00512  -0.31736
    Y5        2.95311  -0.01414   0.00000  -0.04417  -0.03765   2.91546
    Z5       -0.03546   0.00161   0.00000   0.01862   0.01137  -0.02409
    X6        2.72772  -0.01716   0.00000  -0.04824  -0.04359   2.68412
    Y6        1.21056  -0.00430   0.00000  -0.02851  -0.02136   1.18921
    Z6       -0.03339   0.00164   0.00000   0.01825   0.01100  -0.02239
         Item               Value     Threshold  Converged?
 Maximum Force            0.017161     0.000450     NO 
 RMS     Force            0.007415     0.000300     NO 
 Maximum Displacement     0.043591     0.001800     NO 
 RMS     Displacement     0.022039     0.001200     NO 
 Predicted change in Energy=-1.312247D-03
 GradGradGradGradGradGradGradGradGradGradGradGradGradGradGradGradGradGrad

 Unable to Open any file for archive entry.
 1\1\GINC-BHD0006\Force\RwB97XD\6-311G\C2H4\BWEIGHT\11-Jan-2023\0\\# WB
 97XD/6-311G SCF=XQC FORCE nosym pop=full guess=read\\MD Step 1000\\0,1
 \C,-0.33557249,-0.58154509,0.00527362\H,0.20933779,-1.52822101,-0.0152
 6577\H,-1.42083474,-0.59009698,-0.0163822\C,0.33386998,0.57785456,0.00
 388181\H,-0.17064836,1.56272016,-0.01876656\H,1.44344484,0.64060199,-0
 .01766664\\Version=ES64L-G16RevC.01\HF=-78.5560925\RMSD=6.454e-09\RMSF
 =7.415e-03\Dipole=0.0000375,0.0043829,-0.0282018\Quadrupole=0.8667569,
 0.8494486,-1.7162056,0.0043505,0.000098,-0.0027377\PG=C01 [X(C2H4)]\\@
 The archive entry for this job was punched.


 The cat could very well be man's best friend
 but would never stoop to admitting it.
                               -- Doug Larson
 Job cpu time:       0 days  0 hours  0 minutes 15.8 seconds.
 Elapsed time:       0 days  0 hours  0 minutes  5.4 seconds.
 File lengths (MBytes):  RWF=    272 Int=      0 D2E=      0 Chk=     32 Scr=     32
 Normal termination of Gaussian 16 at Wed Jan 11 18:48:55 2023.
