 Entering Gaussian System, Link 0=g16
 Initial command:
 /software/gaussian/g16-c01/avx2/g16/l1.exe "/gpfs/fs2/scratch/bweight/software/many_molecule_many_mode_NAMD/src/NAMD/TESTING/G16/TD_NEW_S1/Gau-29570.inp" -scrdir="/gpfs/fs2/scratch/bweight/software/many_molecule_many_mode_NAMD/src/NAMD/TESTING/G16/TD_NEW_S1/"
 Entering Link 1 = /software/gaussian/g16-c01/avx2/g16/l1.exe PID=     29571.
  
 Copyright (c) 1988-2019, Gaussian, Inc.  All Rights Reserved.
  
 This is part of the Gaussian(R) 16 program.  It is based on
 the Gaussian(R) 09 system (copyright 2009, Gaussian, Inc.),
 the Gaussian(R) 03 system (copyright 2003, Gaussian, Inc.),
 the Gaussian(R) 98 system (copyright 1998, Gaussian, Inc.),
 the Gaussian(R) 94 system (copyright 1995, Gaussian, Inc.),
 the Gaussian 92(TM) system (copyright 1992, Gaussian, Inc.),
 the Gaussian 90(TM) system (copyright 1990, Gaussian, Inc.),
 the Gaussian 88(TM) system (copyright 1988, Gaussian, Inc.),
 the Gaussian 86(TM) system (copyright 1986, Carnegie Mellon
 University), and the Gaussian 82(TM) system (copyright 1983,
 Carnegie Mellon University). Gaussian is a federally registered
 trademark of Gaussian, Inc.
  
 This software contains proprietary and confidential information,
 including trade secrets, belonging to Gaussian, Inc.
  
 This software is provided under written license and may be
 used, copied, transmitted, or stored only in accord with that
 written license.
  
 The following legend is applicable only to US Government
 contracts under FAR:
  
                    RESTRICTED RIGHTS LEGEND
  
 Use, reproduction and disclosure by the US Government is
 subject to restrictions as set forth in subparagraphs (a)
 and (c) of the Commercial Computer Software - Restricted
 Rights clause in FAR 52.227-19.
  
 Gaussian, Inc.
 340 Quinnipiac St., Bldg. 40, Wallingford CT 06492
  
  
 ---------------------------------------------------------------
 Warning -- This program may not be used in any manner that
 competes with the business of Gaussian, Inc. or will provide
 assistance to any competitor of Gaussian, Inc.  The licensee
 of this program is prohibited from giving any competitor of
 Gaussian, Inc. access to this program.  By using this program,
 the user acknowledges that Gaussian, Inc. is engaged in the
 business of creating and licensing software in the field of
 computational chemistry and represents and warrants to the
 licensee that it is not a competitor of Gaussian, Inc. and that
 it will not use this program in any manner prohibited above.
 ---------------------------------------------------------------
  

 Cite this work as:
 Gaussian 16, Revision C.01,
 M. J. Frisch, G. W. Trucks, H. B. Schlegel, G. E. Scuseria, 
 M. A. Robb, J. R. Cheeseman, G. Scalmani, V. Barone, 
 G. A. Petersson, H. Nakatsuji, X. Li, M. Caricato, A. V. Marenich, 
 J. Bloino, B. G. Janesko, R. Gomperts, B. Mennucci, H. P. Hratchian, 
 J. V. Ortiz, A. F. Izmaylov, J. L. Sonnenberg, D. Williams-Young, 
 F. Ding, F. Lipparini, F. Egidi, J. Goings, B. Peng, A. Petrone, 
 T. Henderson, D. Ranasinghe, V. G. Zakrzewski, J. Gao, N. Rega, 
 G. Zheng, W. Liang, M. Hada, M. Ehara, K. Toyota, R. Fukuda, 
 J. Hasegawa, M. Ishida, T. Nakajima, Y. Honda, O. Kitao, H. Nakai, 
 T. Vreven, K. Throssell, J. A. Montgomery, Jr., J. E. Peralta, 
 F. Ogliaro, M. J. Bearpark, J. J. Heyd, E. N. Brothers, K. N. Kudin, 
 V. N. Staroverov, T. A. Keith, R. Kobayashi, J. Normand, 
 K. Raghavachari, A. P. Rendell, J. C. Burant, S. S. Iyengar, 
 J. Tomasi, M. Cossi, J. M. Millam, M. Klene, C. Adamo, R. Cammi, 
 J. W. Ochterski, R. L. Martin, K. Morokuma, O. Farkas, 
 J. B. Foresman, and D. J. Fox, Gaussian, Inc., Wallingford CT, 2019.
 
 ******************************************
 Gaussian 16:  ES64L-G16RevC.01  3-Jul-2019
                30-Dec-2022 
 ******************************************
 %oldchk=../GS_NEW/geometry.chk
 %chk=geometry.chk
 %nprocshared=1
 Will use up to    1 processors via shared memory.
 %mem=5GB
 Copying data from "../GS_NEW/geometry.chk" to current chk file "geometry.chk"
 IOpt=  2 FromEx=T IUOpen= 4 IOptOp= 5 NList=   0 IFRang= 0 IUIn= 4 IUOut= 2.
 ----------------------------------------------------------------------
 # BLYP/STO-3G SCF=XQC TD=(singlets,nstates=2,root=1) FORCE nosym pop=f
 ull guess=read
 ----------------------------------------------------------------------
 1/10=7,30=1,38=1/1,3;
 2/12=2,15=1,17=6,18=5,40=1/2;
 3/6=3,11=9,25=1,30=1,71=1,74=402,116=-2/1,2,3,8;
 4/5=1/1;
 5/5=2,8=3,13=1,38=6/2,8;
 8/6=1,10=1,107=1,108=2/1;
 9/8=1,15=2,41=2,42=1,48=1,70=2/14;
 10/5=4,28=1,31=1/2;
 6/7=3,18=1/1;
 7/12=6,13=5,14=1,29=1,30=1/1,2,3,16;
 1/10=7,30=1/3;
 99//99;
 -----------
 MD Step 708
 -----------
 Symbolic Z-matrix:
 Charge =  0 Multiplicity = 1
 C                     4.26557   5.30855   5.25616 
 C                     5.73827   5.33098   5.30057 
 C                     6.33678   6.65009   5.34351 
 C                     5.70165   7.90267   5.34255 
 C                     4.23709   7.80508   5.26916 
 C                     3.51813   6.57229   5.33195 
 H                     3.67836   4.38456   5.36331 
 H                     6.34079   4.63164   4.75738 
 H                     6.26816   8.82936   5.08618 
 H                     3.63718   8.68808   4.95626 
 N                     7.8568    6.53356   5.15679 
 H                     8.34468   6.03473   6.01025 
 H                     8.30343   6.00704   4.29001 
 N                     2.03181   6.67046   5.06414 
 H                     1.46741   5.76261   4.83836 
 H                     1.56143   7.06356   6.05565 
 

 GradGradGradGradGradGradGradGradGradGradGradGradGradGradGradGradGradGrad
 Berny optimization.
 Initialization pass.
 Trust Radius=3.00D-01 FncErr=1.00D-07 GrdErr=1.00D-07 EigMax=2.50D+02 EigMin=1.00D-04
 Number of steps in this run=      2 maximum allowed number of steps=      2.
 GradGradGradGradGradGradGradGradGradGradGradGradGradGradGradGradGradGrad

                          Input orientation:                          
 ---------------------------------------------------------------------
 Center     Atomic      Atomic             Coordinates (Angstroms)
 Number     Number       Type             X           Y           Z
 ---------------------------------------------------------------------
      1          6           0        4.265572    5.308552    5.256161
      2          6           0        5.738271    5.330982    5.300567
      3          6           0        6.336781    6.650087    5.343512
      4          6           0        5.701647    7.902667    5.342549
      5          6           0        4.237094    7.805077    5.269163
      6          6           0        3.518133    6.572288    5.331945
      7          1           0        3.678361    4.384557    5.363312
      8          1           0        6.340791    4.631636    4.757382
      9          1           0        6.268158    8.829361    5.086176
     10          1           0        3.637177    8.688080    4.956256
     11          7           0        7.856800    6.533562    5.156792
     12          1           0        8.344684    6.034726    6.010248
     13          1           0        8.303433    6.007041    4.290010
     14          7           0        2.031805    6.670455    5.064137
     15          1           0        1.467413    5.762606    4.838364
     16          1           0        1.561427    7.063564    6.055648
 ---------------------------------------------------------------------
                    Distance matrix (angstroms):
                    1          2          3          4          5
     1  C    0.000000
     2  C    1.473539   0.000000
     3  C    2.469262   1.449171   0.000000
     4  C    2.966345   2.572288   1.404405   0.000000
     5  C    2.496722   2.894074   2.397544   1.469633   0.000000
     6  C    1.470182   2.543784   2.819745   2.556902   1.428501
     7  H    1.100029   2.267793   3.492880   4.058474   3.467132
     8  H    2.239092   1.071058   2.101834   3.383869   3.841639
     9  H    4.054053   3.544771   2.195488   1.115986   2.282074
    10  H    3.450512   3.975330   3.404592   2.242349   1.112432
    11  N    3.795714   2.440294   1.535871   2.560007   3.838182
    12  H    4.211310   2.791467   2.203379   3.304643   4.533833
    13  H    4.210185   2.838721   2.321873   3.386817   4.552668
    14  N    2.623236   3.948161   4.314080   3.881185   2.488514
    15  H    2.865381   4.317425   4.975293   4.771037   3.468200
    16  H    3.321391   4.584540   4.845834   4.284159   2.885757
                    6          7          8          9         10
     6  C    0.000000
     7  H    2.193815   0.000000
     8  H    3.473277   2.741666   0.000000
     9  H    3.566149   5.151712   4.211208   0.000000
    10  H    2.152182   4.322927   4.878916   2.637973   0.000000
    11  N    4.342373   4.703214   2.464778   2.792752   4.742086
    12  H    4.903535   4.991608   2.748440   3.602201   5.505615
    13  H    4.929931   5.017541   2.441748   3.569554   5.422711
    14  N    1.513450   2.833016   4.776845   4.754792   2.580633
    15  H    2.259350   2.657608   5.003545   5.702065   3.644197
    16  H    2.143314   3.483937   5.517435   5.119690   2.855950
                   11         12         13         14         15
    11  N    0.000000
    12  H    1.102386   0.000000
    13  H    1.108159   1.720955   0.000000
    14  N    5.827340   6.414960   6.353952   0.000000
    15  H    6.443604   6.981706   6.862332   1.092567   0.000000
    16  H    6.381266   6.860986   7.048997   1.165711   1.784128
                   16
    16  H    0.000000
 Symmetry turned off by external request.
 Stoichiometry    C6H8N2
 Framework group  C1[X(C6H8N2)]
 Deg. of freedom    42
 Full point group                 C1      NOp   1
 Rotational constants (GHZ):           5.0242911           1.3704212           1.0934924
 Standard basis: STO-3G (5D, 7F)
    48 basis functions,   144 primitive gaussians,    48 cartesian basis functions
    29 alpha electrons       29 beta electrons
       nuclear repulsion energy       330.4123589913 Hartrees.
 NAtoms=   16 NActive=   16 NUniq=   16 SFac= 1.00D+00 NAtFMM=   60 NAOKFM=F Big=F
 Integral buffers will be    131072 words long.
 Regular integral format.
 Two-electron integral symmetry is turned off.
 One-electron integrals computed using PRISM.
 NBasis=    48 RedAO= T EigKep=  1.99D-01  NBF=    48
 NBsUse=    48 1.00D-06 EigRej= -1.00D+00 NBFU=    48
 Initial guess from the checkpoint file:  "geometry.chk"
 B after Tr=     0.000000    0.000000    0.000000
         Rot=    1.000000    0.000000    0.000000    0.000000 Ang=   0.00 deg.
 Keep J ints in memory in canonical form, NReq=1566317.
 Requested convergence on RMS density matrix=1.00D-08 within  32 cycles.
 Requested convergence on MAX density matrix=1.00D-06.
 Requested convergence on             energy=1.00D-06.
 No special actions if energy rises.
 SCF Done:  E(RB-LYP) =  -338.378486698     A.U. after    1 cycles
            NFock=  1  Conv=0.78D-08     -V/T= 2.0181
 QCSCF skips out because SCF is already converged.
 DoSCS=F DFT=T ScalE2(SS,OS)=  1.000000  1.000000
 ExpMin= 1.69D-01 ExpMax= 9.91D+01 ExpMxC= 9.91D+01 IAcc=3 IRadAn=         5 AccDes= 0.00D+00
 HarFok:  IExCor=  205 AccDes= 0.00D+00 IRadAn=         5 IDoV=-2 UseB2=F ITyADJ=14
 ICtDFT= 12500011 ScaDFX=  1.000000  1.000000  1.000000  1.000000
 Range of M.O.s used for correlation:     9    48
 NBasis=    48 NAE=    29 NBE=    29 NFC=     8 NFV=     0
 NROrb=     40 NOA=    21 NOB=    21 NVA=    19 NVB=    19

 **** Warning!!: The smallest alpha delta epsilon is  0.82429753D-01

 Keep J ints in memory in canonical form, NReq=1718736.
     8 initial guesses have been made.
 Convergence on wavefunction:    0.000001000000000
 Iteration     1 Dimension     8 NMult     0 NNew      8
 CISAX will form     8 AO SS matrices at one time.
 Iteration     2 Dimension    16 NMult     8 NNew      8
 Iteration     3 Dimension    18 NMult    16 NNew      2
 Iteration     4 Dimension    20 NMult    18 NNew      2
 Iteration     5 Dimension    22 NMult    20 NNew      2
 Iteration     6 Dimension    24 NMult    22 NNew      2
 Iteration     7 Dimension    26 NMult    24 NNew      2
 Iteration     8 Dimension    28 NMult    26 NNew      2
 Iteration     9 Dimension    30 NMult    28 NNew      2
 Iteration    10 Dimension    32 NMult    30 NNew      2
 ***********************************************************************
 Excited states from <AA,BB:AA,BB> singles matrix:
 ***********************************************************************
 
 Ground to excited state transition densities written to RWF  633
 Ground to excited state transition electric dipole moments (Au):
       state          X           Y           Z        Dip. S.      Osc.
         1         0.0724      0.0015     -0.0647      0.0094      0.0005
         2        -0.0536     -0.0027     -0.0243      0.0035      0.0002
 Ground to excited state transition velocity dipole moments (Au):
       state          X           Y           Z        Dip. S.      Osc.
         1         0.0010      0.0004      0.0200      0.0004      0.0032
         2         0.0106      0.0097      0.0050      0.0002      0.0015
 Ground to excited state transition magnetic dipole moments (Au):
       state          X           Y           Z
         1         0.2494     -0.3299     -0.0445
         2        -0.1805      0.1202      0.0556
 Ground to excited state transition velocity quadrupole moments (Au):
       state          XX          YY          ZZ          XY          XZ          YZ
         1         0.0574      0.0486      0.4013      0.0255      0.1823      0.2219
         2         0.2540      0.2273      0.0964      0.2579      0.1721      0.1706
 <0|del|b> * <b|rxdel|0> + <0|del|b> * <b|delr+rdel|0>
 Rotatory Strengths (R) in cgs (10**-40 erg-esu-cm/Gauss)
       state          XX          YY          ZZ    R(velocity)    E-M Angle
         1        -2.4086     -3.8311     -0.1089     -2.1162       95.18
         2         3.6399     -3.8068     -2.9359     -1.0343       97.72
 1/2[<0|r|b>*<b|rxdel|0> + (<0|rxdel|b>*<b|r|0>)*]
 Rotatory Strengths (R) in cgs (10**-40 erg-esu-cm/Gauss)
       state          XX          YY          ZZ     R(length)
         1       -12.7607      0.3495     -2.0391     -4.8168
         2        -6.8425      0.2267      0.9562     -1.8865
  1/2[<0|del|b>*<b|r|0> + (<0|r|b>*<b|del|0>)*] (Au)
       state          X           Y           Z        Dip. S.   Osc.(frdel)
         1         0.0001      0.0000     -0.0013      0.0012      0.0008
         2        -0.0006     -0.0000     -0.0001      0.0007      0.0005

 Excitation energies and oscillator strengths:
 
 Excited state symmetry could not be determined.
 Excited State   1:      Singlet-?Sym    2.2750 eV  544.97 nm  f=0.0005  <S**2>=0.000
      29 -> 30         0.70696
 This state for optimization and/or second-order correction.
 Total Energy, E(TD-HF/TD-DFT) =  -338.294880280    
 Copying the excited state density for this state as the 1-particle RhoCI density.
 
 Excited state symmetry could not be determined.
 Excited State   2:      Singlet-?Sym    2.8426 eV  436.16 nm  f=0.0002  <S**2>=0.000
      29 -> 31         0.70700
 SavETr:  write IOETrn=   770 NScale= 10 NData=  16 NLR=1 NState=    2 LETran=      46.
          IDoAtm=1111111111111111
          Differentiating once with respect to electric field.
                with respect to dipole field.
          Differentiating once with respect to nuclear coordinates.
 Keep J ints in memory in canonical form, NReq=1578305.
          There are     1 degrees of freedom in the 1st order CPHF.  IDoFFX=0 NUNeed=     1.
 LinEq1:  Iter=  0 NonCon=     1 RMS=1.12D-01 Max=8.54D-01 NDo=     1
 AX will form     1 AO Fock derivatives at one time.
 LinEq1:  Iter=  1 NonCon=     1 RMS=6.74D-02 Max=7.32D-01 NDo=     1
 LinEq1:  Iter=  2 NonCon=     1 RMS=6.62D-02 Max=6.75D-01 NDo=     1
 LinEq1:  Iter=  3 NonCon=     1 RMS=3.12D-02 Max=2.66D-01 NDo=     1
 LinEq1:  Iter=  4 NonCon=     1 RMS=2.33D-02 Max=2.84D-01 NDo=     1
 LinEq1:  Iter=  5 NonCon=     1 RMS=1.34D-02 Max=1.19D-01 NDo=     1
 LinEq1:  Iter=  6 NonCon=     1 RMS=9.74D-03 Max=6.13D-02 NDo=     1
 LinEq1:  Iter=  7 NonCon=     1 RMS=4.73D-03 Max=4.42D-02 NDo=     1
 LinEq1:  Iter=  8 NonCon=     1 RMS=5.50D-03 Max=6.04D-02 NDo=     1
 LinEq1:  Iter=  9 NonCon=     1 RMS=1.35D-03 Max=1.44D-02 NDo=     1
 LinEq1:  Iter= 10 NonCon=     1 RMS=9.38D-04 Max=6.29D-03 NDo=     1
 LinEq1:  Iter= 11 NonCon=     1 RMS=2.46D-04 Max=1.92D-03 NDo=     1
 LinEq1:  Iter= 12 NonCon=     1 RMS=1.97D-04 Max=1.62D-03 NDo=     1
 LinEq1:  Iter= 13 NonCon=     1 RMS=4.30D-05 Max=2.10D-04 NDo=     1
 LinEq1:  Iter= 14 NonCon=     1 RMS=6.71D-06 Max=3.77D-05 NDo=     1
 LinEq1:  Iter= 15 NonCon=     1 RMS=8.10D-07 Max=3.74D-06 NDo=     1
 LinEq1:  Iter= 16 NonCon=     1 RMS=9.90D-08 Max=4.56D-07 NDo=     1
 LinEq1:  Iter= 17 NonCon=     1 RMS=1.47D-08 Max=8.62D-08 NDo=     1
 LinEq1:  Iter= 18 NonCon=     1 RMS=2.42D-09 Max=1.25D-08 NDo=     1
 LinEq1:  Iter= 19 NonCon=     1 RMS=2.60D-10 Max=1.15D-09 NDo=     1
 LinEq1:  Iter= 20 NonCon=     0 RMS=3.15D-11 Max=1.17D-10 NDo=     1
 Linear equations converged to 1.000D-10 1.000D-09 after    20 iterations.
 End of Minotr F.D. properties file   721 does not exist.
 End of Minotr F.D. properties file   722 does not exist.
 End of Minotr F.D. properties file   788 does not exist.

 **********************************************************************

            Population analysis using the SCF Density.

 **********************************************************************

 Alpha  occ. eigenvalues --  -13.83238 -13.76849  -9.77308  -9.76472  -9.74651
 Alpha  occ. eigenvalues --   -9.73960  -9.73665  -9.73225  -0.73793  -0.71089
 Alpha  occ. eigenvalues --   -0.65401  -0.60431  -0.56822  -0.49501  -0.45309
 Alpha  occ. eigenvalues --   -0.39214  -0.36300  -0.35498  -0.32248  -0.31690
 Alpha  occ. eigenvalues --   -0.31386  -0.30917  -0.25558  -0.24760  -0.23048
 Alpha  occ. eigenvalues --   -0.15838  -0.13903  -0.09061  -0.04363
 Alpha virt. eigenvalues --    0.03880   0.06037   0.15781   0.20580   0.22415
 Alpha virt. eigenvalues --    0.26657   0.30547   0.32760   0.35026   0.35733
 Alpha virt. eigenvalues --    0.36907   0.38297   0.41033   0.45121   0.48583
 Alpha virt. eigenvalues --    0.50258   0.55496   0.63456   0.66247
     Molecular Orbital Coefficients:
                           1         2         3         4         5
                           O         O         O         O         O
     Eigenvalues --   -13.83238 -13.76849  -9.77308  -9.76472  -9.74651
   1 1   C  1S         -0.00002   0.00001  -0.01401  -0.00089  -0.00133
   2        2S          0.00020  -0.00009  -0.00922   0.00036  -0.00021
   3        2PX        -0.00044  -0.00008   0.00313   0.00018  -0.00006
   4        2PY        -0.00009  -0.00008  -0.00548  -0.00009  -0.00010
   5        2PZ        -0.00009  -0.00001  -0.00022   0.00001  -0.00001
   6 2   C  1S          0.00000  -0.00000   0.00001  -0.01513   0.00008
   7        2S          0.00004   0.00043   0.00044  -0.00961   0.00007
   8        2PX        -0.00001   0.00017  -0.00018  -0.00239  -0.00027
   9        2PY        -0.00005   0.00008   0.00018  -0.00597   0.00007
  10        2PZ        -0.00001  -0.00005  -0.00003  -0.00009  -0.00002
  11 3   C  1S          0.00001   0.00058  -0.00411   0.99002   0.02553
  12        2S         -0.00002  -0.00550  -0.00043   0.04359  -0.00889
  13        2PX         0.00006  -0.00524   0.00027  -0.00154   0.00298
  14        2PY        -0.00000   0.00066  -0.00002   0.00020  -0.00607
  15        2PZ        -0.00000   0.00073  -0.00001  -0.00060   0.00012
  16 4   C  1S          0.00000  -0.00001   0.00043  -0.02421   0.98698
  17        2S          0.00001   0.00018   0.00052  -0.01066   0.04494
  18        2PX         0.00001   0.00035  -0.00018  -0.00289  -0.00079
  19        2PY         0.00003   0.00020  -0.00027   0.00594  -0.00221
  20        2PZ        -0.00001  -0.00009  -0.00003   0.00010  -0.00137
  21 5   C  1S         -0.00001   0.00001  -0.01409  -0.00170  -0.07675
  22        2S          0.00031  -0.00002  -0.01014   0.00030  -0.01212
  23        2PX        -0.00036  -0.00003   0.00327   0.00016  -0.00636
  24        2PY         0.00015   0.00008   0.00580   0.00029  -0.00024
  25        2PZ        -0.00006  -0.00001  -0.00016   0.00000  -0.00015
  26 6   C  1S          0.00058   0.00000   0.99027   0.00416  -0.00160
  27        2S         -0.00577   0.00001   0.04314   0.00010   0.00095
  28        2PX         0.00542  -0.00004   0.00183  -0.00028   0.00052
  29        2PY        -0.00016   0.00000   0.00084   0.00004   0.00041
  30        2PZ         0.00101  -0.00001  -0.00134  -0.00002  -0.00004
  31 7   H  1S         -0.00004  -0.00002   0.00018  -0.00012  -0.00000
  32 8   H  1S         -0.00002  -0.00017  -0.00005   0.00020  -0.00002
  33 9   H  1S         -0.00001  -0.00026  -0.00004   0.00030  -0.00913
  34 10  H  1S         -0.00033  -0.00002   0.00024  -0.00015   0.00086
  35 11  N  1S         -0.00002   0.99243   0.00000   0.00084   0.00000
  36        2S         -0.00001   0.03496  -0.00001  -0.00608   0.00016
  37        2PX         0.00001  -0.00079   0.00001   0.00500  -0.00007
  38        2PY        -0.00000  -0.00376  -0.00000  -0.00065   0.00011
  39        2PZ        -0.00000   0.00043  -0.00000  -0.00051  -0.00000
  40 12  H  1S          0.00000  -0.00751   0.00000  -0.00051  -0.00004
  41 13  H  1S          0.00000  -0.00739   0.00000  -0.00032  -0.00002
  42 14  N  1S          0.99246   0.00003   0.00083   0.00001   0.00001
  43        2S          0.03472  -0.00001  -0.00625  -0.00009  -0.00005
  44        2PX         0.00063  -0.00001  -0.00507  -0.00007  -0.00004
  45        2PY        -0.00284   0.00000   0.00035   0.00001  -0.00006
  46        2PZ         0.00298  -0.00000  -0.00058  -0.00002   0.00000
  47 15  H  1S         -0.00767  -0.00000  -0.00029   0.00000  -0.00001
  48 16  H  1S         -0.00671  -0.00000  -0.00073  -0.00000  -0.00001
                           6         7         8         9        10
                           O         O         O         O         O
     Eigenvalues --    -9.73960  -9.73665  -9.73225  -0.73793  -0.71089
   1 1   C  1S         -0.00906   0.98265   0.12287  -0.05875  -0.02417
   2        2S         -0.00022   0.04436  -0.00310   0.15088   0.06223
   3        2PX         0.00002   0.00074  -0.00632  -0.01637   0.03874
   4        2PY        -0.00003   0.00073  -0.00014   0.03941   0.00402
   5        2PZ         0.00002   0.00099   0.00015   0.00389   0.00191
   6 2   C  1S         -0.00273  -0.12133   0.98277  -0.04016  -0.07746
   7        2S         -0.00011  -0.01385   0.04322   0.10243   0.19884
   8        2PX         0.00005   0.00622   0.00069  -0.01054   0.02799
   9        2PY        -0.00014  -0.00022   0.00175   0.02212   0.05118
  10        2PZ         0.00001   0.00045  -0.00273  -0.00470  -0.01104
  11 3   C  1S          0.00369  -0.00112   0.01672  -0.04876  -0.13137
  12        2S         -0.00042   0.00128  -0.00846   0.12352   0.34051
  13        2PX         0.00036  -0.00032   0.00278  -0.01073   0.02857
  14        2PY        -0.00037  -0.00085   0.00598  -0.00169  -0.01485
  15        2PZ         0.00003  -0.00005   0.00038  -0.00281  -0.01074
  16 4   C  1S          0.07828   0.00208   0.00000  -0.04121  -0.07064
  17        2S         -0.00500  -0.00005   0.00007   0.10580   0.18305
  18        2PX         0.00616   0.00017  -0.00027  -0.01455   0.01824
  19        2PY         0.00041   0.00012  -0.00012  -0.02624  -0.05621
  20        2PZ         0.00025   0.00001  -0.00002  -0.00280  -0.00475
  21 5   C  1S          0.98728   0.00836   0.00380  -0.06509  -0.02397
  22        2S          0.04330   0.00049   0.00000   0.16447   0.06100
  23        2PX        -0.00061   0.00007  -0.00011  -0.01727   0.03975
  24        2PY        -0.00114  -0.00005   0.00013  -0.04367  -0.00246
  25        2PZ        -0.00071  -0.00000  -0.00001   0.00114   0.00151
  26 6   C  1S          0.01547   0.01563   0.00205  -0.12327   0.01807
  27        2S         -0.00866  -0.00815  -0.00077   0.31743  -0.04722
  28        2PX        -0.00330  -0.00329  -0.00024  -0.04950   0.06440
  29        2PY        -0.00566   0.00541   0.00065   0.00787  -0.00071
  30        2PZ         0.00033   0.00027   0.00001  -0.01470   0.00477
  31 7   H  1S         -0.00003  -0.00946  -0.00114   0.03102   0.00771
  32 8   H  1S         -0.00003   0.00126  -0.01001   0.02090   0.05205
  33 9   H  1S         -0.00063  -0.00006  -0.00001   0.01702   0.03479
  34 10  H  1S         -0.00935  -0.00016  -0.00008   0.03262   0.00662
  35 11  N  1S          0.00002   0.00002   0.00002  -0.03293  -0.14444
  36        2S         -0.00010  -0.00013   0.00018   0.10835   0.48062
  37        2PX         0.00008   0.00010  -0.00006  -0.01778  -0.05724
  38        2PY        -0.00005   0.00005   0.00005  -0.01754  -0.08297
  39        2PZ        -0.00002  -0.00002   0.00002   0.00284   0.01081
  40 12  H  1S         -0.00001   0.00000  -0.00015   0.01967   0.09457
  41 13  H  1S         -0.00001  -0.00002   0.00009   0.01917   0.09290
  42 14  N  1S          0.00000  -0.00001   0.00001  -0.17088   0.08639
  43        2S          0.00024   0.00018  -0.00000   0.57756  -0.29558
  44        2PX         0.00008   0.00005  -0.00003   0.04534  -0.00756
  45        2PY         0.00004  -0.00023   0.00000  -0.07756   0.04179
  46        2PZ         0.00001   0.00000  -0.00000   0.08403  -0.04278
  47 15  H  1S         -0.00008  -0.00010  -0.00004   0.11486  -0.06475
  48 16  H  1S         -0.00007  -0.00002  -0.00000   0.09871  -0.05454
                          11        12        13        14        15
                           O         O         O         O         O
     Eigenvalues --    -0.65401  -0.60431  -0.56822  -0.49501  -0.45309
   1 1   C  1S          0.07702  -0.13855  -0.05005  -0.11218   0.05153
   2        2S         -0.20516   0.38451   0.14401   0.33597  -0.16100
   3        2PX        -0.02006   0.04448  -0.08988  -0.14219  -0.08578
   4        2PY        -0.03749  -0.00745   0.05387  -0.01959   0.16686
   5        2PZ        -0.00638   0.00994   0.00658   0.01948   0.00194
   6 2   C  1S          0.05028  -0.13019   0.08063   0.10456   0.04738
   7        2S         -0.13469   0.35807  -0.22933  -0.30761  -0.14691
   8        2PX         0.05686  -0.05653  -0.05452  -0.13655   0.07967
   9        2PY        -0.01982  -0.01261  -0.05001  -0.00455   0.17016
  10        2PZ         0.00440  -0.02776   0.01685   0.04759   0.04358
  11 3   C  1S          0.01598   0.01479   0.10708   0.00007  -0.11198
  12        2S         -0.03820  -0.04027  -0.30154   0.00017   0.35008
  13        2PX         0.12550  -0.00232   0.09057   0.00894  -0.00457
  14        2PY        -0.03399  -0.14756  -0.01502   0.21417   0.01412
  15        2PZ        -0.00657  -0.00263   0.00024   0.00974   0.01112
  16 4   C  1S          0.08486   0.12557   0.07656  -0.08678   0.05225
  17        2S         -0.22459  -0.34570  -0.21517   0.25353  -0.16591
  18        2PX         0.05612   0.03479  -0.08211   0.10950   0.13698
  19        2PY         0.03188   0.00784   0.06347  -0.00439  -0.19041
  20        2PZ         0.00612   0.01295   0.00484  -0.00909   0.02749
  21 5   C  1S          0.10160   0.10234  -0.08685   0.09123   0.06625
  22        2S         -0.26931  -0.28203   0.24603  -0.27021  -0.20895
  23        2PX        -0.03503  -0.05394  -0.10313   0.12074  -0.10936
  24        2PY         0.03861  -0.02543  -0.06341  -0.00160  -0.19129
  25        2PZ        -0.00220   0.00151  -0.00322   0.01196   0.02068
  26 6   C  1S          0.05960  -0.01548  -0.11914  -0.00232  -0.10160
  27        2S         -0.16170   0.04407   0.34355   0.00893   0.32131
  28        2PX        -0.11257   0.01962   0.08127   0.01266  -0.00810
  29        2PY        -0.01457  -0.12545   0.03540  -0.22847   0.00543
  30        2PZ         0.00053  -0.00165  -0.00819   0.00076  -0.00764
  31 7   H  1S         -0.04135   0.10957   0.04393   0.17446  -0.12311
  32 8   H  1S         -0.01761   0.10905  -0.07178  -0.17071  -0.12192
  33 9   H  1S         -0.04185  -0.09271  -0.06059   0.11797  -0.11823
  34 10  H  1S         -0.05253  -0.07789   0.07384  -0.13003  -0.13541
  35 11  N  1S         -0.13292   0.01454  -0.08401  -0.02072   0.02454
  36        2S          0.45462  -0.05126   0.30157   0.07700  -0.09346
  37        2PX        -0.00316   0.00254   0.07207   0.01574  -0.12986
  38        2PY        -0.09223  -0.00736  -0.08107   0.02185   0.06822
  39        2PZ         0.00588  -0.00211  -0.00340   0.00381   0.02496
  40 12  H  1S          0.10775  -0.00941   0.09936   0.01969  -0.06927
  41 13  H  1S          0.10773  -0.00832   0.10323   0.01552  -0.09406
  42 14  N  1S         -0.08430   0.01251   0.06579   0.00583   0.02030
  43        2S          0.29702  -0.04439  -0.24403  -0.02108  -0.07978
  44        2PX        -0.03261   0.00608   0.10571  -0.01568   0.15844
  45        2PY        -0.04921  -0.01229   0.05898  -0.06773   0.04632
  46        2PZ         0.04232  -0.00965  -0.03233  -0.02069  -0.00105
  47 15  H  1S          0.08214  -0.00453  -0.10659   0.03847  -0.10783
  48 16  H  1S          0.06499  -0.01649  -0.07247  -0.02890  -0.05189
                          16        17        18        19        20
                           O         O         O         O         O
     Eigenvalues --    -0.39214  -0.36300  -0.35498  -0.32248  -0.31690
   1 1   C  1S          0.00596  -0.04306  -0.02656  -0.01039  -0.01726
   2        2S         -0.01337   0.14844   0.09194   0.03485   0.05848
   3        2PX        -0.10484  -0.11312   0.18847   0.08926   0.27719
   4        2PY        -0.13649  -0.21571  -0.12089   0.20012   0.04980
   5        2PZ        -0.01807   0.03304   0.05026   0.04611  -0.04381
   6 2   C  1S         -0.01506   0.04394  -0.00357  -0.02316  -0.00841
   7        2S          0.05487  -0.14594   0.01246   0.07985   0.03202
   8        2PX         0.13520  -0.00098  -0.21796  -0.06720  -0.25467
   9        2PY        -0.16285   0.10186  -0.01412   0.15452  -0.09491
  10        2PZ        -0.07164   0.08416   0.05820   0.13076  -0.02891
  11 3   C  1S         -0.00505  -0.08185   0.00076   0.01398   0.00586
  12        2S          0.02194   0.29012  -0.00539  -0.03958  -0.01389
  13        2PX         0.17126   0.13519  -0.07504   0.07763   0.11952
  14        2PY         0.03926  -0.03669   0.13788  -0.19276   0.19846
  15        2PZ        -0.03491   0.03768   0.04296   0.14792  -0.05722
  16 4   C  1S         -0.02807   0.06278  -0.00367   0.00079   0.02218
  17        2S          0.10100  -0.21052   0.00674   0.00687  -0.07987
  18        2PX         0.20131  -0.02835   0.07509   0.03748   0.30988
  19        2PY         0.18595  -0.10922  -0.10556   0.29271   0.03993
  20        2PZ        -0.04323   0.02914   0.03614   0.01385  -0.05448
  21 5   C  1S          0.02951  -0.06155   0.01416   0.01546  -0.00056
  22        2S         -0.09154   0.21100  -0.05187  -0.05136  -0.00181
  23        2PX        -0.14822  -0.13266  -0.07148  -0.01715  -0.29686
  24        2PY         0.10748   0.18781  -0.05731   0.10469  -0.09476
  25        2PZ        -0.03648  -0.04259   0.05209   0.00312  -0.06841
  26 6   C  1S         -0.04057   0.06202   0.02757  -0.01063  -0.00164
  27        2S          0.14840  -0.21876  -0.09505   0.03893  -0.00647
  28        2PX        -0.24387  -0.00312  -0.03394   0.04226   0.16690
  29        2PY         0.02524   0.03054   0.18243  -0.09927   0.19070
  30        2PZ        -0.02690   0.00800   0.11906   0.03473  -0.07883
  31 7   H  1S          0.10469   0.26474   0.04302  -0.17275  -0.13941
  32 8   H  1S          0.17900  -0.17157  -0.10841  -0.15533  -0.04414
  33 9   H  1S          0.21910  -0.18396  -0.03886   0.22404   0.13429
  34 10  H  1S          0.07776   0.26490  -0.02805   0.05392   0.08285
  35 11  N  1S          0.01236   0.00135  -0.00989   0.00092  -0.01679
  36        2S         -0.04977  -0.00377   0.03890  -0.00394   0.06925
  37        2PX        -0.13082  -0.22318   0.08361  -0.02016  -0.08291
  38        2PY         0.06426   0.08711   0.00502  -0.00211   0.10407
  39        2PZ         0.00424   0.10418   0.01702   0.38075  -0.06223
  40 12  H  1S         -0.07373  -0.04636   0.05285   0.25646  -0.09051
  41 13  H  1S         -0.07296  -0.17698   0.02657  -0.29081   0.00247
  42 14  N  1S          0.00924   0.00358  -0.00921   0.00190  -0.00190
  43        2S         -0.03878  -0.01710   0.04123  -0.00636   0.00401
  44        2PX         0.28970  -0.11844  -0.01520  -0.03039  -0.15560
  45        2PY         0.12415  -0.02323   0.34540   0.02327  -0.10189
  46        2PZ         0.04150  -0.02152   0.31554   0.04986  -0.17684
  47 15  H  1S         -0.21559   0.08076  -0.29106  -0.02619   0.20530
  48 16  H  1S         -0.03822   0.01699   0.34764   0.05555  -0.10706
                          21        22        23        24        25
                           O         O         O         O         O
     Eigenvalues --    -0.31386  -0.30917  -0.25558  -0.24760  -0.23048
   1 1   C  1S          0.02145   0.00233   0.02438   0.00949   0.00728
   2        2S         -0.07397  -0.00773  -0.08615  -0.03475  -0.02831
   3        2PX         0.00916   0.16396  -0.03283  -0.25637   0.05054
   4        2PY        -0.16646  -0.07154  -0.27468   0.07251   0.12017
   5        2PZ        -0.01762  -0.02405   0.15054   0.00920   0.25532
   6 2   C  1S         -0.00506  -0.02555  -0.01456   0.00222  -0.02151
   7        2S          0.02234   0.08896   0.05135  -0.00631   0.08659
   8        2PX         0.03595  -0.19426   0.08620   0.23394  -0.03046
   9        2PY        -0.25752   0.15806   0.16922   0.05717  -0.17826
  10        2PZ        -0.03201   0.08624   0.20316  -0.03183   0.18184
  11 3   C  1S          0.01537  -0.01439  -0.00423  -0.02149   0.00235
  12        2S         -0.06034   0.03971   0.01424   0.05045  -0.00437
  13        2PX        -0.00845  -0.24385  -0.06076  -0.29421   0.06601
  14        2PY         0.20152   0.01133  -0.24574   0.06649   0.15116
  15        2PZ         0.14660   0.04819   0.11409   0.05011   0.24473
  16 4   C  1S         -0.01841  -0.00560  -0.00622   0.00264  -0.00656
  17        2S          0.05920   0.01407   0.03533  -0.01443   0.02310
  18        2PX        -0.00366   0.01252   0.05895   0.31377   0.03934
  19        2PY        -0.19144  -0.09176   0.20555  -0.09459  -0.05092
  20        2PZ         0.09482   0.00021   0.08517  -0.00618   0.31385
  21 5   C  1S         -0.00963   0.02064  -0.00638   0.01786  -0.00218
  22        2S          0.03012  -0.06947   0.01793  -0.06352   0.01754
  23        2PX         0.02076  -0.04775  -0.09309  -0.31244  -0.05043
  24        2PY        -0.17940   0.18912  -0.25343   0.08176   0.20126
  25        2PZ         0.05961  -0.09297   0.17498  -0.07247   0.29125
  26 6   C  1S         -0.00754   0.02463  -0.00913  -0.00904  -0.02033
  27        2S          0.02709  -0.06964   0.02924   0.01719   0.08570
  28        2PX        -0.02160  -0.31609   0.01191   0.12890  -0.07965
  29        2PY         0.14858   0.00599   0.31629  -0.07670  -0.15199
  30        2PZ        -0.02462  -0.14327   0.12807   0.03404   0.33105
  31 7   H  1S          0.08418  -0.02863   0.25119   0.06814  -0.15915
  32 8   H  1S          0.19177  -0.19190  -0.14610   0.12987   0.09288
  33 9   H  1S         -0.12940  -0.05431   0.22424   0.08187  -0.09364
  34 10  H  1S         -0.13639   0.14412  -0.20727   0.23895   0.12890
  35 11  N  1S          0.00102   0.00521   0.01553   0.04008  -0.00641
  36        2S         -0.00648  -0.02486  -0.06692  -0.18077   0.02772
  37        2PX         0.08458   0.21956   0.05630   0.33549  -0.02677
  38        2PY         0.00511  -0.06794  -0.08178  -0.12523   0.05109
  39        2PZ         0.38184  -0.01105  -0.09909   0.02999  -0.11875
  40 12  H  1S          0.30788   0.09851  -0.04939   0.17910  -0.12869
  41 13  H  1S         -0.24585   0.10204   0.11180   0.11620   0.10223
  42 14  N  1S         -0.00418  -0.02498   0.00242   0.02740   0.01798
  43        2S          0.01561   0.10757  -0.01477  -0.12447  -0.07796
  44        2PX         0.04915   0.35093  -0.01717  -0.20771   0.05425
  45        2PY        -0.08330  -0.05886  -0.06984   0.00049  -0.16383
  46        2PZ        -0.11906  -0.17802  -0.09843   0.05157   0.05013
  47 15  H  1S          0.08165  -0.04853   0.11970   0.06884   0.06142
  48 16  H  1S         -0.13637  -0.26389  -0.11672   0.10641  -0.08245
                          26        27        28        29        30
                           O         O         O         O         V
     Eigenvalues --    -0.15838  -0.13903  -0.09061  -0.04363   0.03880
   1 1   C  1S         -0.01828   0.01805   0.01406   0.01799  -0.00938
   2        2S          0.07502  -0.07362  -0.05932  -0.08083   0.05337
   3        2PX        -0.06641  -0.02157   0.05147  -0.09177  -0.07660
   4        2PY         0.06268   0.01670  -0.08616  -0.00220  -0.00233
   5        2PZ        -0.21194   0.44647  -0.27845  -0.01479  -0.53487
   6 2   C  1S         -0.00004  -0.02812  -0.01187  -0.03331  -0.03665
   7        2S          0.00408   0.12383   0.05412   0.14432   0.19233
   8        2PX         0.07838   0.08594  -0.02336   0.08329   0.10515
   9        2PY        -0.06433  -0.20365  -0.03363   0.10518  -0.19904
  10        2PZ         0.15431   0.48952   0.10082   0.00898   0.54571
  11 3   C  1S         -0.00011   0.01014  -0.00236   0.01348  -0.00302
  12        2S          0.00601  -0.04017   0.01417  -0.05174   0.01128
  13        2PX         0.07043   0.03922   0.03577  -0.11993   0.00824
  14        2PY        -0.00879   0.05408  -0.02247  -0.02015   0.04551
  15        2PZ         0.43564   0.08139   0.27019   0.02019  -0.12511
  16 4   C  1S         -0.01325   0.00263   0.00152   0.01936   0.00988
  17        2S          0.05895  -0.01566  -0.00489  -0.08939  -0.05186
  18        2PX         0.00317  -0.02129   0.00740  -0.04657   0.01314
  19        2PY         0.05172  -0.08444   0.01829   0.06406  -0.08846
  20        2PZ         0.38027  -0.36324   0.04662   0.00332  -0.43129
  21 5   C  1S          0.00634   0.00364  -0.01354  -0.00507  -0.01492
  22        2S         -0.02843  -0.02119   0.05679   0.02354   0.07663
  23        2PX         0.02624   0.08682   0.00271   0.01619  -0.05616
  24        2PY        -0.00873  -0.08029  -0.10219  -0.00697   0.11147
  25        2PZ        -0.06178  -0.42996  -0.26165   0.01301   0.54580
  26 6   C  1S          0.01871  -0.00633  -0.01328   0.00062  -0.00210
  27        2S         -0.08084   0.02487   0.04957  -0.00396   0.01052
  28        2PX         0.13045   0.04749  -0.07299   0.00027  -0.01952
  29        2PY        -0.02712  -0.04359   0.03101   0.00307  -0.03837
  30        2PZ        -0.43550  -0.06141  -0.19588  -0.01999  -0.06283
  31 7   H  1S         -0.01459  -0.02040   0.00138   0.05658  -0.08636
  32 8   H  1S          0.03079   0.03539  -0.04861   0.01342  -0.13717
  33 9   H  1S         -0.01131  -0.01929   0.01633   0.03662   0.00802
  34 10  H  1S          0.00051   0.00321  -0.03431  -0.01895  -0.04436
  35 11  N  1S          0.00327  -0.00050   0.00006  -0.07923   0.00839
  36        2S         -0.01463   0.00218  -0.00051   0.37426  -0.04479
  37        2PX        -0.02392  -0.00813  -0.00648   0.35030   0.02744
  38        2PY        -0.01288   0.01375   0.00154   0.83826  -0.01380
  39        2PZ        -0.09182  -0.02799  -0.03238  -0.02232  -0.02272
  40 12  H  1S         -0.12776  -0.02921  -0.06624  -0.09758   0.04525
  41 13  H  1S          0.12140   0.02497   0.06230  -0.11142  -0.00549
  42 14  N  1S         -0.03938  -0.01063   0.08154   0.00108   0.00721
  43        2S          0.18112   0.05121  -0.39213  -0.00597  -0.04125
  44        2PX        -0.08694  -0.01498   0.10297  -0.00737  -0.03468
  45        2PY         0.30083   0.06113  -0.49234   0.00904   0.01935
  46        2PZ        -0.21615  -0.04433   0.54382  -0.00375  -0.03351
  47 15  H  1S         -0.11524  -0.03236   0.11685  -0.00104   0.00207
  48 16  H  1S          0.07223   0.00739   0.14983   0.00880   0.04182
                          31        32        33        34        35
                           V         V         V         V         V
     Eigenvalues --     0.06037   0.15781   0.20580   0.22415   0.26657
   1 1   C  1S         -0.01059  -0.00896  -0.02329   0.02171   0.01888
   2        2S          0.05424   0.03518   0.11676  -0.11899  -0.11043
   3        2PX         0.02514   0.04734   0.02862  -0.08966   0.09900
   4        2PY        -0.02956   0.08857   0.07774   0.05312  -0.09558
   5        2PZ        -0.36874   0.40651  -0.08351  -0.02327  -0.13244
   6 2   C  1S          0.02204   0.04337   0.01276   0.00351  -0.00089
   7        2S         -0.11063  -0.23857  -0.06545  -0.02940   0.00844
   8        2PX        -0.04050  -0.08163   0.13769  -0.08956   0.06416
   9        2PY         0.03909   0.13368   0.02084  -0.00240  -0.03684
  10        2PZ        -0.20517  -0.30936   0.09024   0.02826   0.03363
  11 3   C  1S         -0.02037  -0.02808   0.00716   0.09035   0.00038
  12        2S          0.10165   0.14287  -0.04317  -0.46532  -0.00565
  13        2PX         0.05489   0.05445   0.05391  -0.59580   0.04954
  14        2PY        -0.01972   0.03540   0.00498  -0.06456  -0.03742
  15        2PZ         0.61987   0.43247  -0.07723   0.14743  -0.06054
  16 4   C  1S          0.01880   0.04687   0.02657  -0.00541   0.03690
  17        2S         -0.09594  -0.25059  -0.14304   0.01237  -0.20897
  18        2PX        -0.05363  -0.00293   0.14371  -0.07843   0.12697
  19        2PY        -0.03090  -0.04728  -0.05118  -0.23773  -0.09151
  20        2PZ        -0.41090  -0.48719   0.07231  -0.04353   0.10485
  21 5   C  1S          0.00744  -0.03686  -0.02998   0.03306  -0.01530
  22        2S         -0.03891   0.19301   0.15273  -0.18155   0.08017
  23        2PX         0.08306  -0.02671   0.06905  -0.11431   0.17267
  24        2PY        -0.00630   0.06845  -0.14599  -0.11280  -0.22430
  25        2PZ        -0.21817   0.49618   0.00265   0.07605  -0.06807
  26 6   C  1S         -0.01716   0.04939   0.09051   0.01814   0.04299
  27        2S          0.09467  -0.25855  -0.47531  -0.10177  -0.22166
  28        2PX        -0.06044   0.12562   0.40199   0.01912   0.31270
  29        2PY         0.02001  -0.00275  -0.03054  -0.03380  -0.17254
  30        2PZ         0.59836  -0.45822   0.08644  -0.00930   0.27234
  31 7   H  1S         -0.02660   0.07659   0.07264   0.08178   0.06826
  32 8   H  1S          0.04687   0.21597   0.02208   0.15471  -0.07081
  33 9   H  1S          0.05028   0.12988   0.08746   0.29079   0.16933
  34 10  H  1S          0.01583  -0.08164   0.13289   0.19533   0.25104
  35 11  N  1S          0.00572   0.01852   0.01062  -0.16390   0.01300
  36        2S         -0.03193  -0.10619  -0.06160   0.97638  -0.07790
  37        2PX         0.01747   0.02162   0.02090  -0.28884   0.01360
  38        2PY         0.01885   0.02519   0.02135  -0.30566   0.02873
  39        2PZ         0.02784   0.09060  -0.01791  -0.05544  -0.03157
  40 12  H  1S         -0.12752  -0.07929   0.05215  -0.44407   0.07223
  41 13  H  1S          0.14977   0.18639   0.00967  -0.59739   0.01718
  42 14  N  1S         -0.02016  -0.01197  -0.16348  -0.00695  -0.01762
  43        2S          0.10556   0.07315   0.98507   0.04330   0.11167
  44        2PX        -0.07443   0.17890   0.02028   0.03794   0.41516
  45        2PY         0.14555  -0.16627  -0.21332  -0.02294  -0.50009
  46        2PZ        -0.11981   0.03951   0.46996   0.00876  -0.57575
  47 15  H  1S          0.01750  -0.10792  -0.56507  -0.02817  -0.44669
  48 16  H  1S         -0.17856   0.15127  -0.71822  -0.00147   0.73636
                          36        37        38        39        40
                           V         V         V         V         V
     Eigenvalues --     0.30547   0.32760   0.35026   0.35733   0.36907
   1 1   C  1S         -0.04043   0.05626   0.04673  -0.06109  -0.19142
   2        2S          0.22329  -0.32626  -0.27307   0.37044   1.14976
   3        2PX         0.10753  -0.05625   0.01123   0.02574  -0.19816
   4        2PY         0.40974  -0.10119  -0.09486  -0.33323  -0.13974
   5        2PZ        -0.09448  -0.02088  -0.01547   0.10976   0.04549
   6 2   C  1S          0.03042   0.02100  -0.02334   0.02909   0.09435
   7        2S         -0.17895  -0.12727   0.13897  -0.15298  -0.55731
   8        2PX         0.18155  -0.30583  -0.06426   0.16592   0.20224
   9        2PY         0.20729  -0.15565  -0.15363  -0.36011   0.03301
  10        2PZ         0.17400   0.04809   0.00767  -0.19369   0.14817
  11 3   C  1S          0.04029  -0.03284  -0.01211  -0.08904   0.00046
  12        2S         -0.23146   0.21036   0.06853   0.49952  -0.00325
  13        2PX         0.05724  -0.31892   0.01991   0.21323  -0.20943
  14        2PY         0.08609  -0.01668  -0.05864  -0.19508  -0.14174
  15        2PZ        -0.03820   0.00123  -0.21529   0.02314  -0.09371
  16 4   C  1S         -0.01321   0.10049   0.03208   0.07846  -0.01571
  17        2S          0.07342  -0.60186  -0.19468  -0.46221   0.09677
  18        2PX         0.02834  -0.30820  -0.03939   0.03317  -0.22314
  19        2PY        -0.03243  -0.19353  -0.14183  -0.21303  -0.10613
  20        2PZ         0.01187   0.12318   0.11529   0.06858   0.07922
  21 5   C  1S          0.03846   0.02202   0.02441  -0.03232  -0.02016
  22        2S         -0.22916  -0.13333  -0.14719   0.18436   0.11664
  23        2PX         0.12916   0.11577   0.17319   0.23683  -0.34834
  24        2PY        -0.03729  -0.17432  -0.17767  -0.17227  -0.09299
  25        2PZ        -0.00166   0.05592   0.06553   0.05961  -0.10512
  26 6   C  1S          0.08780  -0.03238  -0.02281   0.01821   0.09382
  27        2S         -0.48807   0.18091   0.13036  -0.09955  -0.55077
  28        2PX         0.30063  -0.07363   0.06495   0.04946  -0.25465
  29        2PY         0.28999  -0.17680  -0.15896  -0.17489   0.22857
  30        2PZ         0.13553  -0.05802  -0.03138  -0.04498   0.07998
  31 7   H  1S          0.28003   0.05256   0.06654  -0.48516  -0.81556
  32 8   H  1S          0.24297   0.13970  -0.16968  -0.31951   0.28460
  33 9   H  1S         -0.03965   0.66982   0.25794   0.41601   0.16319
  34 10  H  1S          0.21567   0.28159   0.32454   0.16335  -0.20380
  35 11  N  1S          0.01277   0.06107  -0.00640  -0.00692   0.00447
  36        2S         -0.08060  -0.39107   0.04294   0.05787  -0.03344
  37        2PX        -0.11595  -0.50038   0.12747   0.51538  -0.17374
  38        2PY         0.07547   0.32736  -0.04292  -0.19584   0.14557
  39        2PZ        -0.02222  -0.18107   0.87662  -0.32868   0.25454
  40 12  H  1S          0.12591   0.63359  -0.74460  -0.04503  -0.06510
  41 13  H  1S          0.06737   0.30016   0.60468  -0.48792   0.28324
  42 14  N  1S          0.01954   0.01297   0.00795   0.01424  -0.00281
  43        2S         -0.14117  -0.08024  -0.05200  -0.09889   0.01722
  44        2PX         0.72802  -0.11006   0.03820   0.20139   0.03796
  45        2PY         0.36554   0.13209   0.14573   0.26480  -0.12797
  46        2PZ         0.15527   0.07240   0.07691   0.12812  -0.07706
  47 15  H  1S          0.72737   0.09391   0.15587   0.36019  -0.06933
  48 16  H  1S          0.04262  -0.10241  -0.06793  -0.06803   0.08760
                          41        42        43        44        45
                           V         V         V         V         V
     Eigenvalues --     0.38297   0.41033   0.45121   0.48583   0.50258
   1 1   C  1S          0.02192   0.02050  -0.03804  -0.00864   0.03201
   2        2S         -0.13198  -0.13634   0.23290   0.04787  -0.20452
   3        2PX        -0.35456   0.13877   0.60589  -0.36283  -0.41067
   4        2PY         0.19713   0.19806  -0.05601   0.66937  -0.33757
   5        2PZ        -0.02404  -0.12016  -0.03640  -0.00797  -0.05758
   6 2   C  1S         -0.09519   0.10748   0.07906  -0.04651   0.03315
   7        2S          0.57274  -0.66050  -0.50707   0.29490  -0.22874
   8        2PX        -0.14198  -0.28504   0.31685  -0.25733  -0.71086
   9        2PY         0.21048  -0.15450   0.61424   0.03347   0.32155
  10        2PZ        -0.02286   0.29164   0.28330   0.02016   0.27728
  11 3   C  1S          0.06115  -0.15387   0.05890  -0.02734  -0.03420
  12        2S         -0.37458   0.93900  -0.40199   0.15457   0.22415
  13        2PX         0.05788  -0.22601   0.28844   0.51879   0.03348
  14        2PY         0.23149   0.15937   0.06650   0.14453  -0.06649
  15        2PZ        -0.01516  -0.16918  -0.07491  -0.03934  -0.04261
  16 4   C  1S          0.09302   0.10944   0.03708  -0.01143  -0.01276
  17        2S         -0.55487  -0.66962  -0.23380   0.06828   0.08948
  18        2PX         0.43744  -0.25836   0.25735  -0.54898   0.31550
  19        2PY        -0.22301   0.32520  -0.38196  -0.16501   0.48444
  20        2PZ         0.13021   0.14582   0.07603   0.03835  -0.08577
  21 5   C  1S         -0.19794  -0.02981  -0.00860   0.04664  -0.02966
  22        2S          1.19906   0.17977   0.05326  -0.30601   0.19712
  23        2PX         0.07384  -0.03671   0.46165  -0.23158   0.16474
  24        2PY         0.04343   0.46903  -0.00052  -0.46319  -0.55419
  25        2PZ        -0.15301  -0.18748   0.06459   0.03564   0.11985
  26 6   C  1S          0.08987  -0.01738  -0.06911   0.07932   0.03202
  27        2S         -0.53340   0.12222   0.41915  -0.52939  -0.20920
  28        2PX        -0.30732   0.17262  -0.40187  -0.51369  -0.06633
  29        2PY        -0.23483   0.15275   0.01307   0.28439  -0.32133
  30        2PZ         0.09637   0.08933  -0.08980   0.02851   0.00316
  31 7   H  1S          0.03843   0.28338   0.12607   0.28255  -0.32000
  32 8   H  1S         -0.10167   0.53278   0.56830   0.02336   0.71690
  33 9   H  1S          0.28724   0.23346   0.26563   0.29772  -0.48590
  34 10  H  1S         -0.64234  -0.49627   0.19858   0.32226   0.36414
  35 11  N  1S         -0.00705  -0.00921  -0.00199   0.02162  -0.00000
  36        2S          0.04474   0.06844   0.01897  -0.13144   0.00079
  37        2PX        -0.11163   0.30112   0.11526   0.35941   0.11240
  38        2PY        -0.05283  -0.16744  -0.04328  -0.12413  -0.04957
  39        2PZ         0.05783   0.05814  -0.01356  -0.09041  -0.02995
  40 12  H  1S         -0.02503  -0.22039  -0.05861  -0.05429  -0.03066
  41 13  H  1S          0.04856  -0.15535  -0.09676  -0.14549  -0.09252
  42 14  N  1S          0.00682  -0.00937   0.03156   0.00706   0.00118
  43        2S         -0.05149   0.05879  -0.19871  -0.04058  -0.00959
  44        2PX         0.08375   0.05983  -0.37692  -0.17798   0.05975
  45        2PY         0.14546  -0.05700  -0.03065  -0.14279   0.10790
  46        2PZ        -0.01894  -0.03482  -0.05944  -0.07725   0.03088
  47 15  H  1S          0.12866  -0.04533  -0.09933  -0.16555   0.08786
  48 16  H  1S          0.01599   0.03863  -0.01503   0.02846  -0.02287
                          46        47        48
                           V         V         V
     Eigenvalues --     0.55496   0.63456   0.66247
   1 1   C  1S         -0.03716   0.03993  -0.04105
   2        2S          0.26116  -0.26572   0.27847
   3        2PX        -0.56298   0.15585   0.45017
   4        2PY        -0.19684  -0.56008   0.23387
   5        2PZ         0.06058  -0.03650   0.02634
   6 2   C  1S         -0.09231  -0.05833   0.01091
   7        2S          0.61474   0.38907  -0.05309
   8        2PX         0.04182   0.18006   0.61561
   9        2PY         0.28895   0.62645  -0.15407
  10        2PZ        -0.05714   0.06954  -0.09980
  11 3   C  1S          0.00453   0.03094  -0.05611
  12        2S         -0.01647  -0.21384   0.42435
  13        2PX        -0.09032   0.29052  -0.49380
  14        2PY         0.72382   0.72195   0.63760
  15        2PZ         0.02533  -0.00299   0.04325
  16 4   C  1S          0.09226  -0.00711   0.07341
  17        2S         -0.63033   0.03004  -0.51563
  18        2PX        -0.01910  -0.71429  -0.04948
  19        2PY         0.26610   0.00764   0.81274
  20        2PZ         0.01796   0.01551  -0.05845
  21 5   C  1S          0.06495   0.01687  -0.04972
  22        2S         -0.44654  -0.11117   0.34754
  23        2PX         0.65378  -0.66141   0.05476
  24        2PY         0.28826  -0.04840  -0.60147
  25        2PZ         0.03186  -0.05944   0.08590
  26 6   C  1S         -0.04841  -0.01523   0.05092
  27        2S          0.32577   0.10551  -0.35830
  28        2PX         0.18291   0.35623  -0.46509
  29        2PY         0.73899  -0.58014  -0.29940
  30        2PZ        -0.04170   0.02444  -0.00937
  31 7   H  1S         -0.42726  -0.16868   0.18200
  32 8   H  1S         -0.12836   0.11087  -0.31323
  33 9   H  1S          0.07776   0.22458  -0.25852
  34 10  H  1S          0.25346  -0.18152   0.22475
  35 11  N  1S         -0.01114   0.00278  -0.01594
  36        2S          0.07580  -0.01442   0.10877
  37        2PX        -0.06789   0.07231  -0.13403
  38        2PY        -0.11837  -0.10743  -0.05423
  39        2PZ         0.00875  -0.02277   0.03096
  40 12  H  1S         -0.02776  -0.02794  -0.01640
  41 13  H  1S         -0.02495  -0.05750   0.01639
  42 14  N  1S         -0.00240  -0.01292   0.01444
  43        2S          0.01732   0.08639  -0.09787
  44        2PX        -0.04241   0.16396  -0.10029
  45        2PY        -0.14208   0.10696   0.04793
  46        2PZ        -0.00830   0.05067  -0.02650
  47 15  H  1S         -0.07803   0.08854   0.00836
  48 16  H  1S          0.01717  -0.01867  -0.00192
     Density Matrix:
                           1         2         3         4         5
   1 1   C  1S          2.06657
   2        2S         -0.21763   0.89907
   3        2PX        -0.00122   0.00974   0.59247
   4        2PY         0.00478  -0.01327   0.01126   0.59221
   5        2PZ         0.01356  -0.05642  -0.02075   0.01956   0.83881
   6 2   C  1S          0.02192  -0.05532  -0.10488  -0.00001  -0.02820
   7        2S         -0.05553   0.06078   0.27226  -0.00095   0.11792
   8        2PX         0.11588  -0.32081  -0.45684  -0.00257   0.05856
   9        2PY         0.00330  -0.00921  -0.05204   0.03779  -0.14256
  10        2PZ         0.01506  -0.06178   0.01405  -0.02316   0.49586
  11 3   C  1S         -0.00444   0.01554   0.02172   0.00776   0.00555
  12        2S          0.01384  -0.03862  -0.07596  -0.03675  -0.02683
  13        2PX        -0.01655   0.07383   0.06064   0.00271   0.00261
  14        2PY        -0.01414   0.05204   0.05905   0.03051   0.04238
  15        2PZ         0.00439  -0.01622  -0.02299  -0.00163  -0.08317
  16 4   C  1S         -0.00238   0.00689   0.00267   0.00807   0.00385
  17        2S          0.00727  -0.01922  -0.00819  -0.02985  -0.01954
  18        2PX        -0.00590   0.02271  -0.01308   0.03245  -0.00161
  19        2PY        -0.00975   0.03442   0.02190   0.01967  -0.06590
  20        2PZ        -0.01395   0.06191  -0.01354   0.02339  -0.31602
  21 5   C  1S         -0.00515   0.01839  -0.00477   0.02514   0.00553
  22        2S          0.01757  -0.05534   0.01233  -0.09801  -0.02502
  23        2PX        -0.00197   0.00124   0.00576   0.02784   0.02260
  24        2PY        -0.02611   0.10578  -0.02917   0.10529   0.03205
  25        2PZ        -0.00505   0.02716   0.01663  -0.00376   0.00063
  26 6   C  1S          0.02286  -0.05842   0.05686  -0.09583  -0.01734
  27        2S         -0.05867   0.07064  -0.14580   0.26144   0.07036
  28        2PX        -0.05151   0.13315  -0.07073   0.19590   0.00668
  29        2PY         0.09279  -0.23995   0.20735  -0.34871  -0.05118
  30        2PZ         0.01460  -0.05363   0.01862  -0.00339   0.47877
  31 7   H  1S         -0.11471   0.27608  -0.28195  -0.46874   0.00373
  32 8   H  1S          0.02575  -0.09523  -0.11563   0.04322   0.00905
  33 9   H  1S          0.00093  -0.00682  -0.00038  -0.00048  -0.00702
  34 10  H  1S         -0.01780   0.07116  -0.04107   0.08715   0.03237
  35 11  N  1S          0.00161  -0.00399  -0.00899  -0.00170   0.00187
  36        2S         -0.00628   0.01132   0.03916   0.00810  -0.00905
  37        2PX         0.02258  -0.10022  -0.10508   0.00562  -0.00338
  38        2PY         0.01916  -0.09643  -0.08014   0.01329  -0.01042
  39        2PZ        -0.00195   0.00809   0.00766   0.00162  -0.02106
  40 12  H  1S         -0.00009   0.00068  -0.00290   0.00260   0.01222
  41 13  H  1S          0.00083  -0.00168  -0.00850   0.00019  -0.00166
  42 14  N  1S         -0.00212   0.00263  -0.01475  -0.00187  -0.02586
  43        2S          0.00569   0.00520   0.06137   0.01810   0.13306
  44        2PX         0.02331  -0.08647   0.07989  -0.08451  -0.04029
  45        2PY        -0.02726   0.11966  -0.06353   0.07412   0.14011
  46        2PZ         0.01226  -0.05321   0.04104  -0.05932  -0.19363
  47 15  H  1S          0.01127  -0.04875   0.01817  -0.03910  -0.01431
  48 16  H  1S         -0.01366   0.05361  -0.03598   0.03569  -0.11643
                           6         7         8         9        10
   6 2   C  1S          2.06748
   7        2S         -0.21912   0.91380
   8        2PX        -0.00856   0.03247   0.58724
   9        2PY         0.01353  -0.05398  -0.01424   0.63589
  10        2PZ        -0.02385   0.11425   0.02585  -0.08346   0.79286
  11 3   C  1S          0.02316  -0.05928  -0.04700  -0.10734  -0.00670
  12        2S         -0.05882   0.06742   0.11650   0.29364   0.02530
  13        2PX         0.04803  -0.12953  -0.05113  -0.24109   0.04879
  14        2PY         0.09046  -0.21468  -0.17194  -0.36684  -0.04305
  15        2PZ        -0.02596   0.11929   0.07217  -0.12911   0.46066
  16 4   C  1S         -0.00534   0.01670   0.00109   0.02666   0.00192
  17        2S          0.01666  -0.04901   0.00253  -0.09842  -0.00554
  18        2PX         0.00251  -0.00471   0.00174  -0.02310  -0.01363
  19        2PY        -0.02341   0.08624   0.02047   0.10997   0.00897
  20        2PZ         0.00561  -0.02657  -0.00129   0.00543  -0.06246
  21 5   C  1S         -0.00329   0.01119  -0.00439   0.01022   0.00137
  22        2S          0.01074  -0.03584   0.01481  -0.03475  -0.00982
  23        2PX         0.00257  -0.00810  -0.00711  -0.05818   0.05181
  24        2PY        -0.00497   0.01435  -0.04284   0.03663  -0.06727
  25        2PZ         0.01672  -0.07972  -0.04832   0.11361  -0.31919
  26 6   C  1S         -0.00462   0.01461  -0.02355   0.01017  -0.00311
  27        2S          0.01411  -0.03617   0.08402  -0.04608   0.01357
  28        2PX         0.01452  -0.05842   0.05469  -0.01429   0.01864
  29        2PY        -0.01218   0.04087  -0.06118   0.02801  -0.00262
  30        2PZ        -0.00140  -0.00100  -0.02468   0.01741  -0.05530
  31 7   H  1S          0.02353  -0.08599   0.11941   0.06400   0.00423
  32 8   H  1S         -0.12351   0.30157   0.29619  -0.39784  -0.18665
  33 9   H  1S         -0.01806   0.07110   0.03562   0.09310   0.01902
  34 10  H  1S         -0.00213   0.00722  -0.00682   0.00822  -0.00171
  35 11  N  1S         -0.00259   0.00472   0.01809   0.00211  -0.00135
  36        2S          0.00849   0.00040  -0.07996  -0.00331   0.00531
  37        2PX        -0.03611   0.15387   0.07980   0.11941  -0.00181
  38        2PY        -0.04462   0.21037   0.05297   0.08996   0.01248
  39        2PZ         0.00290  -0.01268  -0.00666  -0.00853  -0.04997
  40 12  H  1S          0.00711  -0.03149  -0.01153   0.01682  -0.08453
  41 13  H  1S          0.00279  -0.00869   0.00631  -0.01943   0.08453
  42 14  N  1S          0.00161  -0.00413   0.00901  -0.00065  -0.00276
  43        2S         -0.00655   0.01469  -0.04208   0.00282   0.01254
  44        2PX        -0.01590   0.06467  -0.07774  -0.00652   0.01532
  45        2PY         0.01075  -0.05043   0.04825   0.01573  -0.00912
  46        2PZ        -0.00664   0.03106  -0.03499  -0.00861  -0.00031
  47 15  H  1S         -0.00079   0.00425  -0.00031   0.00578  -0.00683
  48 16  H  1S          0.00581  -0.02247   0.03127  -0.00160   0.00049
                          11        12        13        14        15
  11 3   C  1S          2.06680
  12        2S         -0.21793   0.89761
  13        2PX         0.01229  -0.01251   0.54978
  14        2PY         0.00177  -0.01636   0.00064   0.60054
  15        2PZ        -0.00111   0.00660   0.04420   0.00558   0.79816
  16 4   C  1S          0.02708  -0.07007   0.04394  -0.09642  -0.01599
  17        2S         -0.07172   0.09604  -0.09302   0.22519   0.06944
  18        2PX        -0.06312   0.16817  -0.05114   0.20845   0.03550
  19        2PY         0.10972  -0.28336   0.18198  -0.33702   0.03965
  20        2PZ        -0.01108   0.04833   0.03912   0.01235   0.51683
  21 5   C  1S         -0.00565   0.01931  -0.01429   0.01470  -0.00156
  22        2S          0.02118  -0.06067   0.06398  -0.05433   0.00770
  23        2PX         0.02823  -0.10579   0.04726  -0.05946  -0.01368
  24        2PY        -0.00765   0.03973  -0.00248   0.02640  -0.02254
  25        2PZ         0.00123  -0.00184  -0.00886  -0.02812  -0.06771
  26 6   C  1S         -0.00453   0.01576  -0.01186  -0.00238  -0.00053
  27        2S          0.01664  -0.05763   0.04582   0.01002  -0.00234
  28        2PX         0.01329  -0.04899   0.04213   0.00199   0.02947
  29        2PY        -0.00051   0.00336  -0.00586  -0.05409  -0.01808
  30        2PZ         0.00088  -0.00709  -0.03602   0.02529  -0.29062
  31 7   H  1S         -0.01845   0.06854  -0.05430  -0.08153  -0.02335
  32 8   H  1S          0.02897  -0.12127   0.02348   0.12701  -0.01356
  33 9   H  1S          0.02668  -0.10076   0.01191  -0.11995  -0.01409
  34 10  H  1S         -0.02136   0.08003  -0.03419   0.07909   0.00917
  35 11  N  1S          0.01198  -0.02559  -0.07442  -0.00470   0.01192
  36        2S         -0.02928   0.00819   0.22673   0.02649  -0.04124
  37        2PX         0.09820  -0.30267  -0.53461   0.03979   0.06964
  38        2PY         0.00399  -0.01535  -0.05127   0.07420   0.00945
  39        2PZ        -0.00742   0.01612   0.03813  -0.00040   0.05930
  40 12  H  1S          0.02256  -0.09759  -0.14764   0.01495  -0.02455
  41 13  H  1S          0.02233  -0.08631  -0.13333   0.01777   0.06645
  42 14  N  1S         -0.00053   0.00282   0.00210  -0.00095   0.01688
  43        2S          0.00328  -0.01619  -0.00757   0.00549  -0.08531
  44        2PX        -0.00271   0.00997  -0.00943  -0.00715   0.00914
  45        2PY         0.00211  -0.01118  -0.00907   0.00684  -0.08201
  46        2PZ        -0.00291   0.01377   0.00966  -0.01143   0.11044
  47 15  H  1S         -0.00117   0.00482  -0.00130  -0.00360   0.00384
  48 16  H  1S         -0.00009   0.00123   0.01140  -0.00413   0.08432
                          16        17        18        19        20
  16 4   C  1S          2.06577
  17        2S         -0.20933   0.86666
  18        2PX        -0.00401   0.01045   0.58636
  19        2PY        -0.01125   0.05397   0.00936   0.60658
  20        2PZ        -0.00928   0.04549   0.00832   0.03588   0.80361
  21 5   C  1S          0.02309  -0.06163   0.11358   0.00172  -0.00190
  22        2S         -0.06068   0.08762  -0.30923   0.00135   0.01876
  23        2PX        -0.10518   0.27606  -0.45783  -0.00690  -0.06200
  24        2PY        -0.00738   0.01531  -0.01967   0.03606   0.09004
  25        2PZ        -0.01628   0.06232  -0.02979   0.08091   0.47870
  26 6   C  1S         -0.00507   0.01599  -0.02416  -0.00870   0.00508
  27        2S          0.01460  -0.03861   0.08275   0.03667  -0.02331
  28        2PX         0.01423  -0.05361   0.04916   0.01473   0.00445
  29        2PY         0.01326  -0.04262   0.05964   0.03063  -0.00787
  30        2PZ         0.00281  -0.01568   0.01823  -0.01694  -0.06009
  31 7   H  1S          0.00000  -0.00085  -0.01207  -0.00389  -0.02532
  32 8   H  1S         -0.01571   0.06074   0.03651  -0.07021   0.02626
  33 9   H  1S         -0.11985   0.31121   0.25347   0.45228  -0.09243
  34 10  H  1S          0.02545  -0.09852   0.11901  -0.05174   0.00346
  35 11  N  1S         -0.00689   0.02661   0.02556  -0.01572   0.00184
  36        2S          0.03110  -0.11691  -0.12250   0.07589  -0.00859
  37        2PX        -0.01099   0.02064   0.06132  -0.03697   0.00098
  38        2PY         0.03185  -0.15744  -0.05523   0.07785  -0.00282
  39        2PZ         0.00105  -0.00320  -0.00569  -0.00515  -0.04661
  40 12  H  1S         -0.01016   0.03899   0.03254  -0.05192  -0.09442
  41 13  H  1S         -0.01534   0.06171   0.04891  -0.03474   0.09970
  42 14  N  1S          0.00343  -0.01310   0.01629   0.00128  -0.00400
  43        2S         -0.01597   0.05973  -0.07986  -0.00735   0.01746
  44        2PX        -0.01434   0.05739  -0.07723  -0.00385  -0.00986
  45        2PY        -0.00438   0.02321  -0.00316   0.00482   0.03607
  46        2PZ         0.00152  -0.00980  -0.00994  -0.00453  -0.05127
  47 15  H  1S          0.01044  -0.04255   0.05257   0.00357  -0.00728
  48 16  H  1S          0.00199  -0.00890   0.00878   0.00205   0.00460
                          21        22        23        24        25
  21 5   C  1S          2.06602
  22        2S         -0.21159   0.87168
  23        2PX         0.00128  -0.00202   0.59274
  24        2PY        -0.00493   0.02586  -0.02980   0.62225
  25        2PZ         0.00045   0.00221  -0.02994   0.05947   0.80269
  26 6   C  1S          0.02609  -0.06951   0.05544   0.10139  -0.01277
  27        2S         -0.06844   0.09774  -0.13354  -0.26445   0.04814
  28        2PX        -0.05279   0.12541  -0.05263  -0.20921  -0.03143
  29        2PY        -0.09855   0.24899  -0.19966  -0.34617   0.05665
  30        2PZ        -0.00309   0.02235  -0.06207   0.09745   0.48945
  31 7   H  1S         -0.01693   0.06505  -0.03765  -0.08209   0.01248
  32 8   H  1S         -0.00124   0.00288   0.00353   0.00442   0.02152
  33 9   H  1S          0.02606  -0.09738  -0.10225  -0.05635  -0.00584
  34 10  H  1S         -0.11117   0.27429  -0.28926   0.46114  -0.11174
  35 11  N  1S          0.00392  -0.01550  -0.01860   0.00058  -0.00560
  36        2S         -0.01833   0.07068   0.09065  -0.00413   0.02680
  37        2PX         0.01490  -0.05735  -0.07692  -0.00168  -0.00998
  38        2PY        -0.00913   0.04635   0.02763   0.00512   0.02143
  39        2PZ        -0.00105   0.00334   0.00732  -0.00009  -0.00420
  40 12  H  1S          0.00758  -0.03288  -0.03040   0.00311  -0.00118
  41 13  H  1S          0.00729  -0.03049  -0.03986  -0.00413  -0.02177
  42 14  N  1S         -0.00716   0.02706  -0.02191  -0.01506  -0.01809
  43        2S          0.03324  -0.11871   0.10598   0.07578   0.09269
  44        2PX         0.02180  -0.07644   0.06952   0.05653  -0.01994
  45        2PY         0.01828  -0.09145   0.00722   0.04355   0.09225
  46        2PZ        -0.00467   0.03190   0.02213  -0.03651  -0.15795
  47 15  H  1S         -0.02469   0.09622  -0.07095  -0.06454   0.01445
  48 16  H  1S          0.00147  -0.00459   0.01684  -0.02384  -0.11503
                          26        27        28        29        30
  26 6   C  1S          2.06632
  27        2S         -0.22094   0.91727
  28        2PX        -0.00610  -0.00337   0.52979
  29        2PY         0.00521  -0.02592   0.01377   0.61074
  30        2PZ        -0.01941   0.08097  -0.05783  -0.01241   0.80650
  31 7   H  1S          0.02666  -0.10889  -0.03418   0.13893  -0.00091
  32 8   H  1S         -0.01830   0.07102   0.03886  -0.07556   0.02607
  33 9   H  1S         -0.01822   0.06862   0.03845   0.07979   0.00078
  34 10  H  1S          0.02686  -0.10501  -0.03175  -0.13269   0.01132
  35 11  N  1S         -0.00007   0.00055  -0.00124  -0.00041   0.00134
  36        2S          0.00083  -0.00414   0.00378   0.00204  -0.00659
  37        2PX         0.00266  -0.01157  -0.01668   0.00221  -0.00134
  38        2PY         0.00007  -0.00141  -0.00133  -0.00270  -0.01846
  39        2PZ        -0.00066   0.00289  -0.00074  -0.00043   0.02086
  40 12  H  1S          0.00034  -0.00094  -0.00907   0.00182   0.06348
  41 13  H  1S          0.00065  -0.00417   0.00265  -0.00341  -0.05459
  42 14  N  1S          0.01100  -0.01688   0.06146  -0.00692   0.02951
  43        2S         -0.02346  -0.03627  -0.16474   0.01902  -0.10916
  44        2PX        -0.10814   0.33315  -0.50342   0.00073  -0.05238
  45        2PY         0.02846  -0.10767   0.13640   0.05422  -0.08861
  46        2PZ        -0.02929   0.09707  -0.14515  -0.02535   0.15079
  47 15  H  1S          0.02059  -0.07870   0.12541   0.03219   0.05346
  48 16  H  1S          0.02324  -0.10190   0.12826  -0.01852  -0.01331
                          31        32        33        34        35
  31 7   H  1S          0.59867
  32 8   H  1S         -0.04806   0.57820
  33 9   H  1S          0.02021  -0.04174   0.56527
  34 10  H  1S         -0.04994   0.01472  -0.06296   0.59018
  35 11  N  1S          0.00217   0.01266   0.00588   0.00973   2.08314
  36        2S         -0.00939  -0.05513  -0.02711  -0.04844  -0.33833
  37        2PX         0.05919   0.05699   0.07364   0.03794  -0.02903
  38        2PY         0.04409   0.01473   0.02481  -0.02020  -0.09061
  39        2PZ        -0.00418   0.00326  -0.00220  -0.00232   0.00486
  40 12  H  1S          0.00600   0.01832   0.01581   0.01988  -0.06206
  41 13  H  1S         -0.00215   0.00990   0.00721   0.02384  -0.06720
  42 14  N  1S          0.00797   0.00144   0.00734   0.00762   0.00063
  43        2S         -0.03696  -0.00547  -0.03719  -0.03599  -0.00319
  44        2PX        -0.04137  -0.04536  -0.03240  -0.06118  -0.00250
  45        2PY         0.02601   0.03451  -0.00543   0.01645   0.00017
  46        2PZ        -0.01338  -0.03392   0.00299  -0.02186  -0.00009
  47 15  H  1S          0.02472  -0.00565   0.02789   0.01350   0.00147
  48 16  H  1S          0.00744   0.00884   0.00563   0.01276   0.00026
                          36        37        38        39        40
  36        2S          1.49320
  37        2PX         0.13849   0.80465
  38        2PY         0.47283   0.37263   1.56542
  39        2PZ        -0.02370   0.00665  -0.02848   0.68465
  40 12  H  1S          0.12321   0.23010  -0.31918   0.51533   0.61429
  41 13  H  1S          0.14718   0.14484  -0.34524  -0.51244  -0.18967
  42 14  N  1S         -0.00320   0.00365   0.00140  -0.00059  -0.00251
  43        2S          0.01590  -0.01939  -0.00757   0.00331   0.01265
  44        2PX         0.01275  -0.00924  -0.00345  -0.00145  -0.00549
  45        2PY        -0.00042   0.00279   0.00219   0.00298   0.01723
  46        2PZ         0.00023  -0.00072  -0.00058  -0.00249  -0.02235
  47 15  H  1S         -0.00739   0.00802  -0.00025   0.00017   0.00207
  48 16  H  1S         -0.00143   0.00478   0.00831  -0.00442  -0.01734
                          41        42        43        44        45
  41 13  H  1S          0.60273
  42 14  N  1S          0.00422   2.08781
  43        2S         -0.02135  -0.36249   1.61025
  44        2PX        -0.00047   0.01199  -0.05262   0.70694
  45        2PY        -0.01714  -0.06667   0.35604  -0.09887   1.09114
  46        2PZ         0.02223   0.07423  -0.38218   0.07215  -0.38688
  47 15  H  1S          0.00373  -0.05938   0.10433  -0.25642  -0.59337
  48 16  H  1S          0.01661  -0.05097   0.09834  -0.26213   0.21321
                          46        47        48
  46        2PZ         1.10587
  47 15  H  1S         -0.07560   0.57815
  48 16  H  1S          0.57504  -0.16713   0.62194
    Full Mulliken population analysis:
                           1         2         3         4         5
   1 1   C  1S          2.06657
   2        2S         -0.05405   0.89907
   3        2PX         0.00000   0.00000   0.59247
   4        2PY         0.00000   0.00000   0.00000   0.59221
   5        2PZ         0.00000   0.00000   0.00000   0.00000   0.83881
   6 2   C  1S          0.00000  -0.00174  -0.00547  -0.00000  -0.00004
   7        2S         -0.00174   0.01999   0.09822  -0.00001   0.00128
   8        2PX        -0.00605   0.11573   0.14713   0.00002  -0.00090
   9        2PY        -0.00000   0.00005   0.00040   0.00703   0.00003
  10        2PZ        -0.00002   0.00067  -0.00022   0.00001   0.09207
  11 3   C  1S         -0.00000   0.00002   0.00006   0.00002   0.00000
  12        2S          0.00002  -0.00211  -0.00519  -0.00163  -0.00008
  13        2PX         0.00005  -0.00505  -0.00433  -0.00017  -0.00001
  14        2PY         0.00003  -0.00230  -0.00360  -0.00051  -0.00011
  15        2PZ        -0.00000   0.00005   0.00009   0.00000  -0.00187
  16 4   C  1S          0.00000   0.00000   0.00000   0.00000   0.00000
  17        2S          0.00000  -0.00033  -0.00011  -0.00075  -0.00002
  18        2PX         0.00000  -0.00031   0.00007  -0.00070   0.00000
  19        2PY         0.00000  -0.00086  -0.00047  -0.00064   0.00009
  20        2PZ         0.00000  -0.00005   0.00001  -0.00003  -0.00201
  21 5   C  1S         -0.00000   0.00003   0.00000   0.00008   0.00000
  22        2S          0.00002  -0.00285  -0.00001  -0.00758  -0.00001
  23        2PX        -0.00000   0.00000   0.00012   0.00004   0.00000
  24        2PY         0.00008  -0.00818  -0.00004  -0.01118  -0.00002
  25        2PZ         0.00000  -0.00001   0.00000   0.00000   0.00001
  26 6   C  1S          0.00000  -0.00185  -0.00152  -0.00434  -0.00005
  27        2S         -0.00186   0.02335   0.02685   0.08140   0.00131
  28        2PX        -0.00138   0.02452  -0.00392   0.04369   0.00009
  29        2PY        -0.00420   0.07471   0.04624   0.06616   0.00116
  30        2PZ        -0.00004   0.00100   0.00025   0.00008   0.08903
  31 7   H  1S         -0.00698   0.13390   0.06981   0.18261   0.00017
  32 8   H  1S          0.00011  -0.00794  -0.01176  -0.00143  -0.00022
  33 9   H  1S          0.00000  -0.00001  -0.00000  -0.00000   0.00000
  34 10  H  1S         -0.00000   0.00042   0.00007   0.00084  -0.00003
  35 11  N  1S          0.00000  -0.00000  -0.00000  -0.00000  -0.00000
  36        2S         -0.00000   0.00001   0.00007   0.00000   0.00000
  37        2PX        -0.00000   0.00015   0.00030  -0.00001  -0.00000
  38        2PY        -0.00000   0.00005   0.00009  -0.00000  -0.00000
  39        2PZ        -0.00000   0.00000   0.00000   0.00000  -0.00001
  40 12  H  1S         -0.00000   0.00000  -0.00000   0.00000   0.00000
  41 13  H  1S          0.00000  -0.00000  -0.00001   0.00000   0.00000
  42 14  N  1S          0.00000   0.00000   0.00002  -0.00000   0.00000
  43        2S          0.00000   0.00014  -0.00233   0.00042  -0.00043
  44        2PX         0.00001  -0.00296  -0.00341  -0.00272   0.00018
  45        2PY         0.00001  -0.00250  -0.00205  -0.00070   0.00039
  46        2PZ         0.00000  -0.00016  -0.00019  -0.00016  -0.00190
  47 15  H  1S          0.00001  -0.00114  -0.00062  -0.00022   0.00007
  48 16  H  1S         -0.00000   0.00043   0.00039   0.00025  -0.00037
                           6         7         8         9        10
   6 2   C  1S          2.06748
   7        2S         -0.05442   0.91380
   8        2PX         0.00000   0.00000   0.58724
   9        2PY         0.00000   0.00000   0.00000   0.63589
  10        2PZ         0.00000   0.00000   0.00000   0.00000   0.79286
  11 3   C  1S          0.00000  -0.00197  -0.00107  -0.00541  -0.00001
  12        2S         -0.00196   0.02296   0.01780   0.09888   0.00028
  13        2PX        -0.00110   0.01979  -0.00542   0.04710  -0.00031
  14        2PY        -0.00456   0.07229   0.03359   0.08652   0.00060
  15        2PZ         0.00004  -0.00131  -0.00046   0.00181   0.08949
  16 4   C  1S         -0.00000   0.00002  -0.00000   0.00007   0.00000
  17        2S          0.00002  -0.00214  -0.00000  -0.00656  -0.00001
  18        2PX         0.00000  -0.00000   0.00003  -0.00004  -0.00000
  19        2PY         0.00006  -0.00575   0.00003  -0.01029  -0.00002
  20        2PZ        -0.00000   0.00003  -0.00000  -0.00001  -0.00110
  21 5   C  1S          0.00000   0.00000   0.00000   0.00001  -0.00000
  22        2S          0.00000  -0.00073  -0.00026  -0.00100   0.00000
  23        2PX         0.00000  -0.00014   0.00006  -0.00153  -0.00002
  24        2PY         0.00000  -0.00041  -0.00113  -0.00131  -0.00004
  25        2PZ         0.00000  -0.00003   0.00002   0.00006  -0.00247
  26 6   C  1S         -0.00000   0.00002   0.00006   0.00001  -0.00000
  27        2S          0.00002  -0.00168  -0.00517  -0.00159   0.00001
  28        2PX         0.00004  -0.00360  -0.00385  -0.00071   0.00002
  29        2PY         0.00002  -0.00141  -0.00305  -0.00025   0.00000
  30        2PZ         0.00000   0.00000  -0.00003  -0.00001  -0.00104
  31 7   H  1S          0.00010  -0.00680  -0.01135  -0.00280   0.00001
  32 8   H  1S         -0.00804   0.15130   0.07893   0.12305   0.04484
  33 9   H  1S         -0.00000   0.00033   0.00004   0.00072  -0.00001
  34 10  H  1S         -0.00000   0.00001   0.00001   0.00002   0.00000
  35 11  N  1S         -0.00000   0.00001   0.00005   0.00000   0.00000
  36        2S          0.00001   0.00002  -0.00464  -0.00011  -0.00002
  37        2PX         0.00005  -0.00803  -0.00502  -0.00539  -0.00001
  38        2PY         0.00003  -0.00623  -0.00239  -0.00081   0.00004
  39        2PZ         0.00000  -0.00004  -0.00004  -0.00003  -0.00081
  40 12  H  1S          0.00001  -0.00086  -0.00044   0.00017  -0.00087
  41 13  H  1S          0.00000  -0.00021   0.00021  -0.00017  -0.00111
  42 14  N  1S          0.00000  -0.00000  -0.00000  -0.00000   0.00000
  43        2S         -0.00000   0.00001   0.00004   0.00000  -0.00000
  44        2PX        -0.00000   0.00006   0.00014  -0.00000  -0.00000
  45        2PY        -0.00000   0.00002   0.00003  -0.00000  -0.00000
  46        2PZ        -0.00000   0.00000   0.00000  -0.00000  -0.00000
  47 15  H  1S         -0.00000   0.00000   0.00000   0.00000   0.00000
  48 16  H  1S          0.00000  -0.00001  -0.00001  -0.00000   0.00000
                          11        12        13        14        15
  11 3   C  1S          2.06680
  12        2S         -0.05412   0.89761
  13        2PX         0.00000   0.00000   0.54978
  14        2PY         0.00000   0.00000   0.00000   0.60054
  15        2PZ         0.00000   0.00000   0.00000   0.00000   0.79816
  16 4   C  1S          0.00000  -0.00260  -0.00122  -0.00529   0.00000
  17        2S         -0.00266   0.03481   0.01625   0.07759  -0.00002
  18        2PX        -0.00176   0.02938  -0.00517   0.04533  -0.00001
  19        2PY        -0.00602   0.09763   0.03957   0.07330   0.00001
  20        2PZ        -0.00000   0.00001  -0.00001   0.00000   0.10922
  21 5   C  1S         -0.00000   0.00004   0.00006   0.00003   0.00000
  22        2S          0.00004  -0.00387  -0.00523  -0.00244  -0.00002
  23        2PX         0.00011  -0.00865  -0.00421  -0.00379   0.00006
  24        2PY         0.00002  -0.00179  -0.00016  -0.00022  -0.00005
  25        2PZ         0.00000  -0.00001   0.00004  -0.00006  -0.00181
  26 6   C  1S          0.00000   0.00001   0.00001   0.00000   0.00000
  27        2S          0.00001  -0.00142  -0.00182  -0.00001   0.00000
[...]
  41 13  H  1S          0.06428   0.02363   0.06641   0.16227  -0.03515
  42 14  N  1S         -0.00000  -0.00000   0.00000   0.00000  -0.00000
  43        2S          0.00000   0.00000  -0.00000  -0.00000   0.00000
  44        2PX         0.00000   0.00000  -0.00000   0.00000  -0.00000
  45        2PY         0.00000   0.00000   0.00000   0.00000  -0.00000
  46        2PZ         0.00000   0.00000  -0.00000  -0.00000  -0.00000
  47 15  H  1S         -0.00000  -0.00000   0.00000  -0.00000   0.00000
  48 16  H  1S         -0.00000  -0.00000   0.00000  -0.00000  -0.00000
                          41        42        43        44        45
  41 13  H  1S          0.60273
  42 14  N  1S          0.00000   2.08781
  43        2S         -0.00000  -0.08520   1.61025
  44        2PX        -0.00000   0.00000   0.00000   0.70694
  45        2PY         0.00000   0.00000   0.00000   0.00000   1.09114
  46        2PZ        -0.00000   0.00000   0.00000   0.00000   0.00000
  47 15  H  1S          0.00000  -0.00287   0.04653   0.05440   0.20249
  48 16  H  1S          0.00000  -0.00207   0.03972   0.04049   0.02752
                          46        47        48
  46        2PZ         1.10587
  47 15  H  1S          0.00642   0.57815
  48 16  H  1S          0.18722  -0.02811   0.62194
     Gross orbital populations:
                           1
   1 1   C  1S          1.99061
   2        2S          1.19989
   3        2PX         0.93740
   4        2PY         0.94209
   5        2PZ         1.01664
   6 2   C  1S          1.99054
   7        2S          1.20261
   8        2PX         0.92989
   9        2PY         0.96381
  10        2PZ         1.01282
  11 3   C  1S          1.99070
  12        2S          1.16338
  13        2PX         0.83260
  14        2PY         0.94630
  15        2PZ         1.00042
  16 4   C  1S          1.99042
  17        2S          1.18544
  18        2PX         0.93346
  19        2PY         0.96470
  20        2PZ         1.00731
  21 5   C  1S          1.99050
  22        2S          1.18434
  23        2PX         0.93484
  24        2PY         0.96529
  25        2PZ         0.99986
  26 6   C  1S          1.99067
  27        2S          1.17294
  28        2PX         0.82132
  29        2PY         0.94823
  30        2PZ         1.01827
  31 7   H  1S          0.93098
  32 8   H  1S          0.91528
  33 9   H  1S          0.90360
  34 10  H  1S          0.91836
  35 11  N  1S          1.99457
  36        2S          1.58850
  37        2PX         1.08206
  38        2PY         1.68241
  39        2PZ         1.01797
  40 12  H  1S          0.86692
  41 13  H  1S          0.86080
  42 14  N  1S          1.99500
  43        2S          1.64496
  44        2PX         1.01811
  45        2PY         1.32623
  46        2PZ         1.33016
  47 15  H  1S          0.83669
  48 16  H  1S          0.86013
          Condensed to atoms (all electrons):
               1          2          3          4          5          6
     1  C    4.881027   0.466455  -0.026614  -0.006103  -0.029488   0.460677
     2  C    0.466455   4.888433   0.467562  -0.025654  -0.008914  -0.022197
     3  C   -0.026614   0.467562   4.804633   0.498344  -0.031910  -0.010902
     4  C   -0.006103  -0.025654   0.498344   4.824993   0.471100  -0.020899
     5  C   -0.029488  -0.008914  -0.031910   0.471100   4.850281   0.490202
     6  C    0.460677  -0.022197  -0.010902  -0.020899   0.490202   4.820873
     7  H    0.379508  -0.020836   0.001194   0.000019   0.001188  -0.026407
     8  H   -0.021245   0.390078  -0.028970   0.001222  -0.000011   0.001038
     9  H   -0.000009   0.001080  -0.022856   0.381859  -0.019228   0.000896
    10  H    0.001298   0.000039   0.001325  -0.022059   0.378814  -0.027074
    11  N    0.000655  -0.033388   0.327402  -0.023378   0.000494   0.000013
    12  H    0.000000  -0.001992  -0.025587   0.000824  -0.000025  -0.000000
    13  H   -0.000012  -0.001284  -0.020229   0.000719  -0.000023   0.000002
    14  N   -0.018327   0.000293   0.000014   0.000380  -0.027596   0.332107
    15  H   -0.001893   0.000004   0.000001  -0.000018   0.001411  -0.020779
    16  H    0.000697  -0.000019   0.000000  -0.000015  -0.001473  -0.026120
               7          8          9         10         11         12
     1  C    0.379508  -0.021245  -0.000009   0.001298   0.000655   0.000000
     2  C   -0.020836   0.390078   0.001080   0.000039  -0.033388  -0.001992
     3  C    0.001194  -0.028970  -0.022856   0.001325   0.327402  -0.025587
     4  C    0.000019   0.001222   0.381859  -0.022059  -0.023378   0.000824
     5  C    0.001188  -0.000011  -0.019228   0.378814   0.000494  -0.000025
     6  C   -0.026407   0.001038   0.000896  -0.027074   0.000013  -0.000000
     7  H    0.598670  -0.001491   0.000001  -0.000038  -0.000011   0.000001
     8  H   -0.001491   0.578197  -0.000043   0.000002  -0.004594   0.000561
     9  H    0.000001  -0.000043   0.565268  -0.002396  -0.001081   0.000075
    10  H   -0.000038   0.000002  -0.002396   0.590180  -0.000008   0.000000
    11  N   -0.000011  -0.004594  -0.001081  -0.000008   6.472012   0.313922
    12  H    0.000001   0.000561   0.000075   0.000000   0.313922   0.614288
    13  H   -0.000000   0.000546   0.000037   0.000001   0.313463  -0.035147
    14  N   -0.001769  -0.000006  -0.000006  -0.002098   0.000000  -0.000000
    15  H    0.000905  -0.000001   0.000000   0.000058  -0.000000   0.000000
    16  H    0.000046   0.000000   0.000000   0.000314  -0.000000  -0.000000
              13         14         15         16
     1  C   -0.000012  -0.018327  -0.001893   0.000697
     2  C   -0.001284   0.000293   0.000004  -0.000019
     3  C   -0.020229   0.000014   0.000001   0.000000
     4  C    0.000719   0.000380  -0.000018  -0.000015
     5  C   -0.000023  -0.027596   0.001411  -0.001473
     6  C    0.000002   0.332107  -0.020779  -0.026120
     7  H   -0.000000  -0.001769   0.000905   0.000046
     8  H    0.000546  -0.000006  -0.000001   0.000000
     9  H    0.000037  -0.000006   0.000000   0.000000
    10  H    0.000001  -0.002098   0.000058   0.000314
    11  N    0.313463   0.000000  -0.000000  -0.000000
    12  H   -0.035147  -0.000000   0.000000  -0.000000
    13  H    0.602732  -0.000000   0.000000   0.000000
    14  N   -0.000000   6.431615   0.306969   0.292874
    15  H    0.000000   0.306969   0.578146  -0.028109
    16  H    0.000000   0.292874  -0.028109   0.621936
 Mulliken charges:
               1
     1  C   -0.086627
     2  C   -0.099659
     3  C    0.066594
     4  C   -0.081333
     5  C   -0.074822
     6  C    0.048572
     7  H    0.069019
     8  H    0.084715
     9  H    0.096402
    10  H    0.081640
    11  N   -0.365500
    12  H    0.133081
    13  H    0.139196
    14  N   -0.314451
    15  H    0.163306
    16  H    0.139868
 Sum of Mulliken charges =  -0.00000
 Mulliken charges with hydrogens summed into heavy atoms:
               1
     1  C   -0.017609
     2  C   -0.014944
     3  C    0.066594
     4  C    0.015068
     5  C    0.006818
     6  C    0.048572
    11  N   -0.093223
    14  N   -0.011276
 Electronic spatial extent (au):  <R**2>=          20811.2619
 Charge=              0.0000 electrons
 Dipole moment (field-independent basis, Debye):
    X=             -1.2809    Y=             -1.7426    Z=              0.5590  Tot=              2.2338
 Quadrupole moment (field-independent basis, Debye-Ang):
   XX=            -51.3303   YY=            -64.3063   ZZ=            -38.5293
   XY=            -18.3550   XZ=             -7.5770   YZ=             -4.3846
 Traceless Quadrupole moment (field-independent basis, Debye-Ang):
   XX=              0.0583   YY=            -12.9177   ZZ=             12.8593
   XY=            -18.3550   XZ=             -7.5770   YZ=             -4.3846
 Octapole moment (field-independent basis, Debye-Ang**2):
  XXX=           -688.7863  YYY=          -1040.2517  ZZZ=           -652.2924  XYY=           -392.2686
  XXY=           -419.1832  XXZ=           -282.5300  XZZ=           -261.1765  YZZ=           -290.9800
  YYZ=           -301.3213  XYZ=            -98.3503
 Hexadecapole moment (field-independent basis, Debye-Ang**3):
 XXXX=          -7530.5746 YYYY=         -12948.2397 ZZZZ=          -7050.0076 XXXY=          -5234.0501
 XXXZ=          -3713.4316 YYYX=          -5695.6242 YYYZ=          -5208.2179 ZZZX=          -3672.9608
 ZZZY=          -4468.5527 XXYY=          -4509.3030 XXZZ=          -2757.5874 YYZZ=          -3385.0018
 XXYZ=          -2264.4301 YYXZ=          -2062.1120 ZZXY=          -1959.0229
 N-N= 3.304123589913D+02 E-N=-1.447085765051D+03  KE= 3.323665873474D+02
 Orbital energies and kinetic energies (alpha):
                                 1                 2
   1         O               -13.832382         21.652821
   2         O               -13.768486         21.651259
   3         O                -9.773082         15.584442
   4         O                -9.764718         15.583265
   5         O                -9.746510         15.578166
   6         O                -9.739601         15.586584
   7         O                -9.736645         15.577731
   8         O                -9.732247         15.587175
   9         O                -0.737931          1.563097
  10         O                -0.710889          1.544662
  11         O                -0.654007          1.546867
  12         O                -0.604311          1.477084
  13         O                -0.568218          1.655956
  14         O                -0.495010          1.334231
  15         O                -0.453089          1.380103
  16         O                -0.392138          1.071268
  17         O                -0.363000          1.276823
  18         O                -0.354978          1.151454
  19         O                -0.322481          1.122770
  20         O                -0.316897          1.250673
  21         O                -0.313862          1.164191
  22         O                -0.309166          1.313389
  23         O                -0.255581          1.266471
  24         O                -0.247600          1.469693
  25         O                -0.230479          1.218155
  26         O                -0.158384          1.429887
  27         O                -0.139027          1.360444
  28         O                -0.090609          1.818990
  29         O                -0.043633          1.965642
  30         V                 0.038797          1.762295
  31         V                 0.060372          1.837014
  32         V                 0.157813          2.114841
  33         V                 0.205803          2.621079
  34         V                 0.224153          2.660484
  35         V                 0.266574          2.316002
  36         V                 0.305474          2.530988
  37         V                 0.327600          2.417770
  38         V                 0.350264          2.348045
  39         V                 0.357325          2.573899
  40         V                 0.369066          2.846392
  41         V                 0.382969          3.130008
  42         V                 0.410333          2.940403
  43         V                 0.451207          2.863162
  44         V                 0.485827          2.942741
  45         V                 0.502576          2.632735
  46         V                 0.554964          3.202451
  47         V                 0.634565          3.266775
  48         V                 0.662473          3.380239
 Total kinetic energy from orbitals= 3.323665873474D+02
 Calling FoFJK, ICntrl=  10005527 FMM=F ISym2X=0 I1Cent= 0 IOpClX= 0 NMat=1 NMatS=1 NMatT=0.
 -------------------------------------------------------------------
 Center     Atomic                   Forces (Hartrees/Bohr)
 Number     Number              X              Y              Z
 -------------------------------------------------------------------
      1        6          -0.030526525    0.030901769    0.012047815
      2        6           0.002888437    0.029375296    0.008815571
      3        6          -0.035918811    0.003894309   -0.015942060
      4        6           0.018357520   -0.014543618   -0.014094208
      5        6          -0.025999322    0.026381151    0.001832789
      6        6           0.022791121   -0.044850271   -0.023628783
      7        1           0.005151465   -0.007241261   -0.001190218
      8        1           0.007735970   -0.029075094   -0.007737560
      9        1          -0.008924307   -0.005817988    0.009868507
     10        1           0.007722146   -0.000552984    0.008619171
     11        7           0.035367387   -0.041914542    0.014685344
     12        1          -0.004000294    0.016964512   -0.011908245
     13        1          -0.013491544    0.023526924    0.009249377
     14        7          -0.027281611    0.031903840    0.046607507
     15        1           0.025817758    0.001997214    0.014136372
     16        1           0.020310609   -0.020949258   -0.051361378
 -------------------------------------------------------------------
 Cartesian Forces:  Max     0.051361378 RMS     0.022326602

 GradGradGradGradGradGradGradGradGradGradGradGradGradGradGradGradGradGrad
 Berny optimization.
 Search for a local minimum.
 Step number   1 out of a maximum of    2
 All quantities printed in internal units (Hartrees-Bohrs-Radians)
 Second derivative matrix not updated -- first step.
 ITU=  0
     Eigenvalues ---    0.00135   0.00146   0.00300   0.00840   0.01091
     Eigenvalues ---    0.01124   0.01844   0.02118   0.03025   0.03638
     Eigenvalues ---    0.04437   0.06112   0.06288   0.06597   0.07512
     Eigenvalues ---    0.07776   0.09047   0.10310   0.10574   0.11208
     Eigenvalues ---    0.13581   0.16666   0.18782   0.20809   0.22522
     Eigenvalues ---    0.26936   0.32607   0.38310   0.39392   0.47431
     Eigenvalues ---    0.61572   0.65503   0.71208   0.73215   0.77041
     Eigenvalues ---    0.92860   1.01523   1.06997   1.08528   1.23378
     Eigenvalues ---    1.35906   1.43283
 Quadratic step=4.853D+00 exceeds max=3.000D-01 adjusted using Lamda=-1.369D-01.
 Angle between NR and scaled steps=  67.45 degrees.
 Angle between quadratic step and forces=  41.73 degrees.
 Linear search not attempted -- first point.
 B after Tr=    -0.038026    0.006784    0.016976
         Rot=    0.999999    0.000795   -0.000129    0.001167 Ang=   0.16 deg.
 Variable       Old X    -DE/DX   Delta X   Delta X   Delta X     New X
                                 (Linear)    (Quad)   (Total)
    X1        8.06076  -0.03053   0.00000  -0.02754  -0.03953   8.02123
    Y1       10.03171   0.03090   0.00000   0.02630   0.03012  10.06183
    Z1        9.93271   0.01205   0.00000   0.01980   0.01872   9.95142
    X2       10.84376   0.00289   0.00000  -0.00907  -0.02096  10.82280
    Y2       10.07410   0.02938   0.00000   0.02566   0.02302  10.09712
    Z2       10.01662   0.00882   0.00000  -0.01054  -0.01241  10.00421
    X3       11.97478  -0.03592   0.00000  -0.03500  -0.04114  11.93364
    Y3       12.56684   0.00389   0.00000  -0.00179  -0.00696  12.55988
    Z3       10.09777  -0.01594   0.00000  -0.06166  -0.06773  10.03004
    X4       10.77455   0.01836   0.00000  -0.00637  -0.00702  10.76753
    Y4       14.93388  -0.01454   0.00000  -0.01870  -0.02113  14.91274
    Z4       10.09595  -0.01409   0.00000  -0.04665  -0.05616  10.03979
    X5        8.00695  -0.02600   0.00000  -0.03302  -0.03401   7.97294
    Y5       14.74946   0.02638   0.00000   0.02625   0.03021  14.77967
    Z5        9.95727   0.00183   0.00000   0.00915   0.00058   9.95785
    X6        6.64831   0.02279   0.00000   0.01435   0.00783   6.65614
    Y6       12.41982  -0.04485   0.00000  -0.02439  -0.01729  12.40253
    Z6       10.07592  -0.02363   0.00000  -0.06538  -0.06983  10.00609
    X7        6.95109   0.00515   0.00000   0.02505   0.00893   6.96002
    Y7        8.28561  -0.00724   0.00000  -0.01840  -0.01182   8.27380
    Z7       10.13519  -0.00119   0.00000   0.00242   0.00445  10.13964
    X8       11.98236   0.00774   0.00000  -0.00600  -0.02149  11.96087
    Y8        8.75252  -0.02908   0.00000  -0.08295  -0.08983   8.66270
    Z8        8.99015  -0.00774   0.00000   0.01658   0.01669   9.00684
    X9       11.84510  -0.00892   0.00000  -0.02711  -0.02375  11.82135
    Y9       16.68507  -0.00582   0.00000  -0.00675  -0.01225  16.67282
    Z9        9.61148   0.00987   0.00000   0.05125   0.03867   9.65015
   X10        6.87327   0.00772   0.00000   0.00201   0.00479   6.87806
   Y10       16.41809  -0.00055   0.00000   0.03322   0.03887  16.45696
   Z10        9.36597   0.00862   0.00000   0.05787   0.04691   9.41288
   X11       14.84720   0.03537   0.00000   0.02163   0.01476  14.86196
   Y11       12.34664  -0.04191   0.00000  -0.06191  -0.07431  12.27233
   Z11        9.74492   0.01469   0.00000   0.04773   0.04135   9.78628
   X12       15.76917  -0.00400   0.00000   0.03320   0.02477  15.79394
   Y12       11.40398   0.01696   0.00000   0.03367   0.02161  11.42560
   Z12       11.35772  -0.01191   0.00000   0.01811   0.01284  11.37056
   X13       15.69121  -0.01349   0.00000  -0.00487  -0.01412  15.67710
   Y13       11.35166   0.02353   0.00000   0.09850   0.08152  11.43318
   Z13        8.10694   0.00925   0.00000   0.00464  -0.00061   8.10633
   X14        3.83956  -0.02728   0.00000  -0.00248  -0.00852   3.83103
   Y14       12.60533   0.03190   0.00000   0.03777   0.05082  12.65616
   Z14        9.56983   0.04661   0.00000   0.04043   0.03631   9.60614
   X15        2.77301   0.02582   0.00000   0.11913   0.10886   2.88187
   Y15       10.88975   0.00200   0.00000  -0.01912  -0.00446  10.88528
   Z15        9.14318   0.01414   0.00000   0.08510   0.08403   9.22722
   X16        2.95067   0.02031   0.00000   0.04467   0.04060   2.99127
   Y16       13.34820  -0.02095   0.00000  -0.05591  -0.03813  13.31008
   Z16       11.44352  -0.05136   0.00000  -0.08886  -0.09380  11.34971
         Item               Value     Threshold  Converged?
 Maximum Force            0.051361     0.000450     NO 
 RMS     Force            0.022327     0.000300     NO 
 Maximum Displacement     0.108857     0.001800     NO 
 RMS     Displacement     0.042468     0.001200     NO 
 Predicted change in Energy=-2.348003D-02
 GradGradGradGradGradGradGradGradGradGradGradGradGradGradGradGradGradGrad

 Unable to Open any file for archive entry.
 1\1\GINC-BHD0007\Force\RBLYP TD-FC\STO-3G\C6H8N2\BWEIGHT\30-Dec-2022\0
 \\# BLYP/STO-3G SCF=XQC TD=(singlets,nstates=2,root=1) FORCE nosym pop
 =full guess=read\\MD Step 708\\0,1\C,4.26557159,5.30855187,5.25616141\
 C,5.73827103,5.3309821,5.30056697\C,6.33678112,6.65008673,5.34351191\C
 ,5.70164652,7.90266661,5.34254897\C,4.23709439,7.80507717,5.269163\C,3
 .51813329,6.57228795,5.33194547\H,3.67836106,4.38455709,5.3633117\H,6.
 34079147,4.63163601,4.75738188\H,6.2681578,8.82936104,5.08617641\H,3.6
 3717699,8.68807966,4.95625635\N,7.85679962,6.53356186,5.15679206\H,8.3
 446836,6.0347264,6.01024799\H,8.30343254,6.00704082,4.29000978\N,2.031
 80505,6.67045521,5.064137\H,1.46741312,5.76260558,4.8383636\H,1.561427
 32,7.06356363,6.05564772\\Version=ES64L-G16RevC.01\HF=-338.3784867\RMS
 D=7.845e-09\RMSF=2.233e-02\Dipole=2.9845099,-0.5195054,0.0724837\PG=C0
 1 [X(C6H8N2)]\\@
 The archive entry for this job was punched.


 A MUSTACHE HAIR ACROSS A CHIP IS LIKE A REDWOOD
 TREE FALLING THROUGH A HOUSING PROJECT.
 - AN IBM MANAGER IN EAST FISHKILL, NEW YORK
   AS QUOTED IN "FROM SANDS TO CIRCUITS", IBM INNOVATION JANUARY 1985.
 Job cpu time:       0 days  0 hours  1 minutes 20.1 seconds.
 Elapsed time:       0 days  0 hours  1 minutes 20.5 seconds.
 File lengths (MBytes):  RWF=   1312 Int=      0 D2E=      0 Chk=     32 Scr=     32
 Normal termination of Gaussian 16 at Fri Dec 30 21:22:44 2022.
