2
MD Step 0
Li  0.00000000 0.00000000 0.00000000
H  0.00000000 0.00000000 3.00000000
2
MD Step 1
Li  0.00152111 0.00152095 0.00265604
H  0.00399347 0.00399337 2.99616980
2
MD Step 2
Li  0.00304409 0.00304378 0.00758728
H  0.00797400 0.00797378 2.97665724
2
MD Step 3
Li  0.00457089 0.00457042 0.01481263
H  0.01192827 0.01192795 2.94133196
2
MD Step 4
Li  0.00610353 0.00610291 0.02436219
H  0.01584225 0.01584182 2.88998647
2
MD Step 5
Li  0.00764420 0.00764342 0.03627239
H  0.01970090 0.01970037 2.82236966
2
MD Step 6
Li  0.00919524 0.00919431 0.05057807
H  0.02348806 0.02348741 2.73824138
2
MD Step 7
Li  0.01075913 0.01075805 0.06730017
H  0.02718661 0.02718585 2.63745732
2
MD Step 8
Li  0.01233839 0.01233715 0.08642645
H  0.03077927 0.03077840 2.52010191
2
MD Step 9
Li  0.01393529 0.01393390 0.10788118
H  0.03425033 0.03424934 2.38669702
2
MD Step 10
Li  0.01555122 0.01554968 0.13147182
H  0.03759018 0.03758908 2.23856990
2
MD Step 11
Li  0.01718532 0.01718362 0.15679867
H  0.04080486 0.04080363 2.07847547
2
MD Step 12
Li  0.01883323 0.01883138 0.18324829
H  0.04392430 0.04392295 1.91064206
2
MD Step 13
Li  0.02048864 0.02048664 0.21022383
H  0.04699207 0.04699060 1.73918358
2
MD Step 14
Li  0.02217546 0.02217331 0.23606380
H  0.04984332 0.04984171 1.57555238
2
MD Step 15
Li  0.02388946 0.02388715 0.25803747
H  0.05250723 0.05250550 1.43857056
2
MD Step 16
Li  0.02561075 0.02560828 0.27265464
H  0.05512091 0.05511909 1.35229530
2
MD Step 17
Li  0.02699331 0.02699067 0.27597157
H  0.06006936 0.06006757 1.34390979
2
MD Step 18
Li  0.02781739 0.02781454 0.26771384
H  0.06886732 0.06886577 1.41530546
2
MD Step 19
Li  0.02860780 0.02860474 0.25097590
H  0.07789729 0.07789601 1.54515317
2
MD Step 20
Li  0.02910871 0.02910544 0.22966128
H  0.08892271 0.08892171 1.70654673
2
MD Step 21
Li  0.02948740 0.02948392 0.20670554
H  0.10079058 0.10078988 1.87925222
2
MD Step 22
Li  0.02988191 0.02987822 0.18395851
H  0.11254941 0.11254899 2.05051907
2
MD Step 23
Li  0.03031967 0.03031576 0.16218706
H  0.12401018 0.12401004 2.21506144
2
MD Step 24
Li  0.03082930 0.03082518 0.14199015
H  0.13497549 0.13497562 2.36875098
2
MD Step 25
Li  0.03143450 0.03143018 0.12383664
H  0.14528207 0.14528243 2.50835580
2
MD Step 26
Li  0.03214864 0.03214412 0.10796501
H  0.15483779 0.15483835 2.63223225
2
MD Step 27
Li  0.03297863 0.03297392 0.09447727
H  0.16359493 0.16359566 2.73967709
2
MD Step 28
Li  0.03392769 0.03392278 0.08340110
H  0.17153141 0.17153228 2.83049959
2
MD Step 29
Li  0.03499696 0.03499187 0.07472420
H  0.17863928 0.17864024 2.90478459
2
MD Step 30
Li  0.03618651 0.03618124 0.06841597
H  0.18491813 0.18491915 2.96274286
2
MD Step 31
Li  0.03749600 0.03749056 0.06444141
H  0.19037018 0.19037124 3.00461576
2
MD Step 32
Li  0.03892526 0.03891965 0.06276996
H  0.19499674 0.19499779 3.03061387
2
MD Step 33
Li  0.04047456 0.04046878 0.06338099
H  0.19879593 0.19879695 3.04087941
2
MD Step 34
Li  0.04214481 0.04213887 0.06626677
H  0.20176140 0.20176234 3.03546570
2
MD Step 35
Li  0.04393768 0.04393158 0.07143343
H  0.20388169 0.20388251 3.01433045
2
MD Step 36
Li  0.04585557 0.04584932 0.07890016
H  0.20514025 0.20514093 2.97734134
2
MD Step 37
Li  0.04790151 0.04789512 0.08869646
H  0.20551620 0.20551669 2.92429513
2
MD Step 38
Li  0.05007890 0.05007237 0.10085690
H  0.20498605 0.20498631 2.85495347
2
MD Step 39
Li  0.05239106 0.05238440 0.11541267
H  0.20352701 0.20352700 2.76910143
2
MD Step 40
Li  0.05484044 0.05483366 0.13237825
H  0.20112210 0.20112178 2.66663918
2
MD Step 41
Li  0.05742759 0.05742068 0.15173059
H  0.19776767 0.19776700 2.54772554
2
MD Step 42
Li  0.06014907 0.06014205 0.17337668
H  0.19348724 0.19348618 2.41300167
2
MD Step 43
Li  0.06299391 0.06298678 0.19709472
H  0.18835656 0.18835507 2.26399636
2
MD Step 44
Li  0.06593753 0.06593030 0.22244121
H  0.18254504 0.18254309 2.10376655
2
MD Step 45
Li  0.06894451 0.06893718 0.24881002
H  0.17629673 0.17629430 1.93649016
2
MD Step 46
Li  0.07197187 0.07196444 0.27549547
H  0.16990797 0.16990505 1.76703126
2
MD Step 47
Li  0.07491698 0.07490945 0.30089594
H  0.16408614 0.16408276 1.60642942
2
MD Step 48
Li  0.07760057 0.07759292 0.32239794
H  0.16006697 0.16006317 1.47269872
2
MD Step 49
Li  0.07972345 0.07971565 0.33532030
H  0.15991252 0.15990866 1.39810529
2
MD Step 50
Li  0.08112180 0.08111392 0.33719020
H  0.16475219 0.16474764 1.39969384
2
MD Step 51
Li  0.08178576 0.08177788 0.32800423
H  0.17465376 0.17464805 1.47748761
2
MD Step 52
Li  0.08158039 0.08157248 0.31037835
H  0.19054740 0.19054073 1.61345566
2
MD Step 53
Li  0.08101119 0.08100325 0.28858657
H  0.20894883 0.20894122 1.77813826
2
MD Step 54
Li  0.08033199 0.08032401 0.26544358
H  0.22810845 0.22809991 1.95213434
2
MD Step 55
Li  0.07967661 0.07966860 0.24265286
H  0.24710391 0.24709444 2.12370228
2
MD Step 56
Li  0.07911361 0.07910556 0.22090051
H  0.26546263 0.26545223 2.28811309
2
MD Step 57
Li  0.07869944 0.07869135 0.20079933
H  0.28279549 0.28278418 2.44114273
2
MD Step 58
Li  0.07847506 0.07846693 0.18278143
H  0.29882018 0.29880797 2.57981285
2
MD Step 59
Li  0.07846162 0.07845344 0.16705820
H  0.31339093 0.31337785 2.70266642
2
MD Step 60
Li  0.07866866 0.07866044 0.15371468
H  0.32644192 0.32642801 2.80911722
2
MD Step 61
Li  0.07909930 0.07909102 0.14276762
H  0.33795171 0.33793701 2.89904977
2
MD Step 62
Li  0.07975314 0.07974480 0.13419723
H  0.34792308 0.34790761 2.97260060
2
MD Step 63
Li  0.08062813 0.08061972 0.12796769
H  0.35637006 0.35635387 3.03001648
2
MD Step 64
Li  0.08172189 0.08171341 0.12404050
H  0.36330917 0.36329231 3.07156284
2
MD Step 65
Li  0.08303246 0.08302389 0.12238277
H  0.36875384 0.36873634 3.09746641
2
MD Step 66
Li  0.08455886 0.08455021 0.12297240
H  0.37271081 0.37269273 3.10787947
2
MD Step 67
Li  0.08630140 0.08629266 0.12580089
H  0.37517802 0.37515940 3.10286067
2
MD Step 68
Li  0.08826177 0.08825293 0.13087424
H  0.37614376 0.37612465 3.08236853
2
MD Step 69
Li  0.09044304 0.09043409 0.13821230
H  0.37558691 0.37556737 3.04626635
2
MD Step 70
Li  0.09284942 0.09284036 0.14784620
H  0.37347841 0.37345849 2.99433950
2
MD Step 71
Li  0.09548584 0.09547665 0.15981358
H  0.36978429 0.36976405 2.92632857
2
MD Step 72
Li  0.09835722 0.09834790 0.17415077
H  0.36447069 0.36445021 2.84198313
2
MD Step 73
Li  0.10146723 0.10145776 0.19088038
H  0.35751228 0.35749162 2.74114736
2
MD Step 74
Li  0.10481638 0.10480676 0.20999190
H  0.34890549 0.34888472 2.62389365
2
MD Step 75
Li  0.10839902 0.10838923 0.23141239
H  0.33868936 0.33866856 2.49072478
2
MD Step 76
Li  0.11219778 0.11218782 0.25495320
H  0.32698351 0.32696275 2.34294111
2
MD Step 77
Li  0.11617409 0.11616394 0.28022007
H  0.31405390 0.31403324 2.18326012
2
MD Step 78
Li  0.12026636 0.12025602 0.30660252
H  0.30032496 0.30030444 2.01588965
2
MD Step 79
Li  0.12441081 0.12440027 0.33350373
H  0.28623645 0.28621610 1.84494354
2
MD Step 80
Li  0.12839549 0.12838476 0.35924902
H  0.27324911 0.27322891 1.68196494
2
MD Step 81
Li  0.13187116 0.13186022 0.38111259
H  0.26377024 0.26375031 1.54574202
2
MD Step 82
Li  0.13432931 0.13431811 0.39580326
H  0.26130492 0.26128560 1.45896013
2
MD Step 83
Li  0.13534768 0.13533619 0.39914643
H  0.26876367 0.26874515 1.45039375
2
MD Step 84
Li  0.13472336 0.13471162 0.39060891
H  0.28754503 0.28752705 1.52371797
2
MD Step 85
Li  0.13310043 0.13308843 0.37353828
H  0.31320961 0.31319224 1.65585885
2
MD Step 86
Li  0.13079988 0.13078766 0.35164794
H  0.34354478 0.34352778 1.82122071
2
MD Step 87
Li  0.12825423 0.12824180 0.32819011
H  0.37556941 0.37555270 1.99738690
2
MD Step 88
Li  0.12576880 0.12575615 0.30511642
H  0.40717895 0.40716255 2.17090537
2
MD Step 89
Li  0.12344277 0.12342991 0.28309939
H  0.43768976 0.43767368 2.33714051
2
MD Step 90
Li  0.12137380 0.12136072 0.26276253
H  0.46642875 0.46641300 2.49179462
2
MD Step 91
Li  0.11962856 0.11961526 0.24451697
H  0.49293634 0.49292094 2.63203399
2
MD Step 92
Li  0.11824024 0.11822671 0.22855411
H  0.51698378 0.51696876 2.75653921
2
MD Step 93
Li  0.11722287 0.11720912 0.21494297
H  0.53847433 0.53845968 2.86483468
2
MD Step 94
Li  0.11657983 0.11656584 0.20368624
H  0.55738480 0.55737053 2.95690170
2
MD Step 95
Li  0.11630860 0.11629440 0.19475197
H  0.57373235 0.57371846 3.03296064
2
MD Step 96
Li  0.11640415 0.11638972 0.18809356
H  0.58755185 0.58753835 3.09333265
2
MD Step 97
Li  0.11686091 0.11684625 0.18366259
H  0.59888164 0.59886852 3.13835147
2
MD Step 98
Li  0.11767419 0.11765931 0.18141715
H  0.60775395 0.60774120 3.16830595
2
MD Step 99
Li  0.11884111 0.11882601 0.18132705
H  0.61418876 0.61417637 3.18340419
2
MD Step 100
Li  0.12036108 0.12034575 0.18337668
H  0.61819008 0.61817803 3.18375384
2
MD Step 101
Li  0.12223610 0.12222055 0.18756621
H  0.61974414 0.61973242 3.16935373
2
MD Step 102
Li  0.12447080 0.12445504 0.19391150
H  0.61881901 0.61880761 3.14009442
2
MD Step 103
Li  0.12707227 0.12705630 0.20244276
H  0.61536578 0.61535467 3.09576783
2
MD Step 104
Li  0.13004963 0.13003345 0.21320138
H  0.60932168 0.60931082 3.03608856
2
MD Step 105
Li  0.13341314 0.13339675 0.22623448
H  0.60061596 0.60060534 2.96073189
2
MD Step 106
Li  0.13717281 0.13715622 0.24158616
H  0.58917959 0.58916917 2.86939385
2
MD Step 107
Li  0.14133611 0.14131933 0.25928426
H  0.57496105 0.57495079 2.76188251
2
MD Step 108
Li  0.14590435 0.14588738 0.27931932
H  0.55795144 0.55794130 2.63826304
2
MD Step 109
Li  0.15086687 0.15084972 0.30161176
H  0.53822407 0.53821400 2.49908406
2
MD Step 110
Li  0.15619049 0.15617316 0.32595265
H  0.51600779 0.51599776 2.34578564
2
MD Step 111
Li  0.16180112 0.16178362 0.35190460
H  0.49181321 0.49180316 2.18138253
2
MD Step 112
Li  0.16759093 0.16757327 0.37884972
H  0.46638359 0.46637350 2.01013378
2
MD Step 113
Li  0.17342600 0.17340817 0.40606559
H  0.44064202 0.44063187 1.83701877
2
MD Step 114
Li  0.17889178 0.17887380 0.43164175
H  0.41744585 0.41743557 1.67520592
2
MD Step 115
Li  0.18333154 0.18331343 0.45258897
H  0.40132173 0.40131123 1.54529923
2
MD Step 116
Li  0.18624686 0.18622861 0.46551793
H  0.39570531 0.39569453 1.47066036
2
MD Step 117
Li  0.18661656 0.18659827 0.46600491
H  0.40763513 0.40762347 1.48178096
2
MD Step 118
Li  0.18464853 0.18463026 0.45487049
H  0.43567832 0.43566537 1.57300497
2
MD Step 119
Li  0.18086868 0.18085034 0.43669117
H  0.47621002 0.47619637 1.71278774
2
MD Step 120
Li  0.17633550 0.17631708 0.41516489
H  0.52193415 0.52191992 1.87564020
2
MD Step 121
Li  0.17160582 0.17158731 0.39281980
H  0.56901277 0.56899796 2.04413661
2
MD Step 122
Li  0.16700979 0.16699119 0.37103748
H  0.61517014 0.61515473 2.20875391
2
MD Step 123
Li  0.16268857 0.16266989 0.35038213
H  0.65943333 0.65941732 2.36560335
2
MD Step 124
Li  0.15878952 0.15877076 0.33143949
H  0.70078661 0.70076998 2.51064750
2
MD Step 125
Li  0.15540327 0.15538443 0.31455870
H  0.73860523 0.73858798 2.64147979
2
MD Step 126
Li  0.15257340 0.15255448 0.29989778
H  0.77258892 0.77257102 2.75701111
2
MD Step 127
Li  0.15031706 0.15029807 0.28750967
H  0.80261940 0.80260085 2.85687647
2
MD Step 128
Li  0.14863676 0.14861769 0.27739068
H  0.82867939 0.82866020 2.94110144
2
MD Step 129
Li  0.14752722 0.14750807 0.26950754
H  0.85080529 0.85078544 3.00991515
2
MD Step 130
Li  0.14698008 0.14696086 0.26381593
H  0.86905464 0.86903415 3.06362324
2
MD Step 131
Li  0.14698674 0.14696743 0.26027155
H  0.88348688 0.88346574 3.10253099
2
MD Step 132
Li  0.14754021 0.14752083 0.25883739
H  0.89415002 0.89412826 3.12689356
2
MD Step 133
Li  0.14863644 0.14861698 0.25948819
H  0.90107205 0.90104966 3.13688499
2
MD Step 134
Li  0.15027499 0.15025545 0.26221286
H  0.90425602 0.90423303 3.13258178
2
MD Step 135
Li  0.15245933 0.15243970 0.26701529
H  0.90367802 0.90365445 3.11395705
2
MD Step 136
Li  0.15519679 0.15517707 0.27391391
H  0.89928745 0.89926331 3.08088382
2
MD Step 137
Li  0.15849817 0.15847836 0.28293977
H  0.89100994 0.89098526 3.03314805
2
MD Step 138
Li  0.16237677 0.16235686 0.29413279
H  0.87875382 0.87872862 2.97047459
2
MD Step 139
Li  0.16684677 0.16682676 0.30753543
H  0.86242137 0.86239568 2.89257075
2
MD Step 140
Li  0.17192076 0.17190064 0.32318307
H  0.84192571 0.84189957 2.79919270
2
MD Step 141
Li  0.17760573 0.17758550 0.34108849
H  0.81721869 0.81719213 2.69025236
2
MD Step 142
Li  0.18389635 0.18387601 0.36121824
H  0.78833712 0.78831019 2.56598026
2
MD Step 143
Li  0.19076432 0.19074386 0.38345398
H  0.75547597 0.75544872 2.42719206
2
MD Step 144
Li  0.19813844 0.19811785 0.40752155
H  0.71912608 0.71909853 2.27577756
2
MD Step 145
Li  0.20587865 0.20585792 0.43290191
H  0.68025286 0.68022505 2.11531425
2
MD Step 146
Li  0.21383512 0.21381425 0.45905008
H  0.63988900 0.63986096 1.94955870
2
MD Step 147
Li  0.22168352 0.22166252 0.48486587
H  0.60027004 0.60024177 1.78609411
2
MD Step 148
Li  0.22878868 0.22876757 0.50803287
H  0.56577402 0.56574533 1.64088698
2
MD Step 149
Li  0.23409297 0.23407165 0.52534055
H  0.54369093 0.54366253 1.53606672
2
MD Step 150
Li  0.23632603 0.23630479 0.53326832
H  0.54277708 0.54274694 1.49589982
2
MD Step 151
Li  0.23506363 0.23504264 0.53059269
H  0.56595657 0.56592356 1.52881952
2
MD Step 152
Li  0.23082132 0.23080087 0.51887948
H  0.60967589 0.60963792 1.62403299
2
MD Step 153
Li  0.22471309 0.22469306 0.50132377
H  0.66625651 0.66621443 1.75951733
2
MD Step 154
Li  0.21768922 0.21766963 0.48122964
H  0.72914835 0.72910210 1.91249841
2
MD Step 155
Li  0.21052254 0.21050339 0.46072459
H  0.79302460 0.79297414 2.06831181
2
MD Step 156
Li  0.20361820 0.20359947 0.44094275
H  0.85509258 0.85503803 2.21914041
2
MD Step 157
Li  0.19716661 0.19714828 0.42239663
H  0.91403987 0.91398139 2.36145141
2
MD Step 158
Li  0.19135465 0.19133669 0.40558065
H  0.96857832 0.96851615 2.49183698
2
MD Step 159
Li  0.18628456 0.18626692 0.39075603
H  1.01800327 1.01793772 2.60849663
2
MD Step 160
Li  0.18200302 0.18198566 0.37803406
H  1.06199296 1.06192433 2.71066327
2
MD Step 161
Li  0.17852602 0.17850889 0.36744476
H  1.10043714 1.10036575 2.79812990
2
MD Step 162
Li  0.17585264 0.17583569 0.35897407
H  1.13334219 1.13326838 2.87099350
2
MD Step 163
Li  0.17397334 0.17395652 0.35258656
H  1.16077382 1.16069791 2.92949823
2
MD Step 164
Li  0.17287575 0.17285901 0.34824038
H  1.18281737 1.18273967 2.97393258
2
MD Step 165
Li  0.17254812 0.17253143 0.34589604
H  1.19955371 1.19947456 3.00456877
2
MD Step 166
Li  0.17298168 0.17296498 0.34552227
H  1.21104336 1.21096306 3.02162230
2
MD Step 167
Li  0.17417206 0.17415531 0.34709958
H  1.21731644 1.21723532 3.02522754
2
MD Step 168
Li  0.17612005 0.17610320 0.35062195
H  1.21836753 1.21828591 3.01542597
2
MD Step 169
Li  0.17883182 0.17881483 0.35609716
H  1.21415407 1.21407228 2.99216396
2
MD Step 170
Li  0.18231866 0.18230147 0.36354581
H  1.20459825 1.20451663 2.95529947
2
MD Step 171
Li  0.18659610 0.18657867 0.37299886
H  1.18959303 1.18951191 2.90461919
2
MD Step 172
Li  0.19168223 0.19166451 0.38449308
H  1.16901365 1.16893340 2.83986966
2
MD Step 173
Li  0.19759506 0.19757699 0.39806418
H  1.14273608 1.14265706 2.76080465
2
MD Step 174
Li  0.20434826 0.20432978 0.41373610
H  1.11066605 1.11058862 2.66725931
2
MD Step 175
Li  0.21194399 0.21192505 0.43150291
H  1.07278868 1.07271322 2.55927435
2
MD Step 176
Li  0.22036238 0.22034293 0.45130310
H  1.02924091 1.02916781 2.43727379
2
MD Step 177
Li  0.22954217 0.22952216 0.47297269
H  0.98044502 0.98037461 2.30238793
2
MD Step 178
Li  0.23934670 0.23932608 0.49616432
H  0.92734292 0.92727550 2.15701106
2
MD Step 179
Li  0.24955567 0.24953442 0.52033228
H  0.87145311 0.87138887 2.00490459
2
MD Step 180
Li  0.25994422 0.25992234 0.54492292
H  0.81432549 0.81426445 1.84988466
2
MD Step 181
Li  0.26991024 0.26988788 0.56845900
H  0.76011031 0.76005140 1.70213358
2
MD Step 182
Li  0.27842499 0.27840263 0.58829795
H  0.71589834 0.71583825 1.57986585
2
MD Step 183
Li  0.28408065 0.28405875 0.60103853
H  0.69139336 0.69132893 1.50652545
2
MD Step 184
Li  0.28513133 0.28511173 0.60419700
H  0.69862941 0.69854790 1.49923213
2
MD Step 185
Li  0.28135842 0.28134381 0.59780083
H  0.73911324 0.73899621 1.55779657
2
MD Step 186
Li  0.27419264 0.27418387 0.58422831
H  0.80298322 0.80282477 1.66582582
2
MD Step 187
Li  0.26521379 0.26521276 0.56732346
H  0.87935030 0.87913734 1.79682395
2
MD Step 188
Li  0.25571093 0.25571793 0.54943232
H  0.95932927 0.95905971 1.93462037
2
MD Step 189
Li  0.24637477 0.24638982 0.53188329
H  1.03815914 1.03783300 2.07005870
2
MD Step 190
Li  0.23748177 0.23750466 0.51519521
H  1.11393450 1.11355308 2.19956268
2
MD Step 191
Li  0.22929582 0.22932623 0.49986598
H  1.18483630 1.18440186 2.31970053
2
MD Step 192
Li  0.22200125 0.22203875 0.48623437
H  1.24959407 1.24910959 2.42813702
2
MD Step 193
Li  0.21569016 0.21573425 0.47446132
H  1.30757289 1.30704183 2.52376295
2
MD Step 194
Li  0.21040167 0.21045181 0.46460755
H  1.35850321 1.35792927 2.60615977
2
MD Step 195
Li  0.20614568 0.20620131 0.45667965
H  1.40231677 1.40170381 2.67528205
2
MD Step 196
Li  0.20291638 0.20297692 0.45065584
H  1.43905366 1.43840565 2.73127992
2
MD Step 197
Li  0.20070090 0.20076578 0.44650247
H  1.46880247 1.46812341 2.77438529
2
MD Step 198
Li  0.19948508 0.19955371 0.44418422
H  1.49166091 1.49095483 2.80484162
2
MD Step 199
Li  0.19925708 0.19932886 0.44367065
H  1.50771057 1.50698158 2.82285877
2
MD Step 200
Li  0.20000972 0.20008406 0.44494027
H  1.51700086 1.51625308 2.82858488
2
MD Step 201
Li  0.20174184 0.20181812 0.44798269
H  1.51953988 1.51877753 2.82209146
2
MD Step 202
Li  0.20445877 0.20453636 0.45279935
H  1.51529091 1.51451831 2.80336862
2
MD Step 203
Li  0.20817215 0.20825041 0.45940292
H  1.50417357 1.50339519 2.77232913
2
MD Step 204
Li  0.21289903 0.21297729 0.46781528
H  1.48607047 1.48529092 2.72882205
2
MD Step 205
Li  0.21865987 0.21873743 0.47806383
H  1.46084050 1.46006460 2.67265860
2
MD Step 206
Li  0.22547536 0.22555150 0.49017549
H  1.42834110 1.42757382 2.60365318
2
MD Step 207
Li  0.23336125 0.23343522 0.50416773
H  1.38846373 1.38771024 2.52168536
2
MD Step 208
Li  0.24231996 0.24239099 0.52003380
H  1.34119164 1.34045725 2.42680175
2
MD Step 209
Li  0.25232805 0.25239537 0.53772072
H  1.28668649 1.28597649 2.31936744
2
MD Step 210
Li  0.26331345 0.26337633 0.55709106
H  1.22544493 1.22476440 2.20032975
2
MD Step 211
Li  0.27511563 0.27517343 0.57785641
H  1.15857356 1.15792683 2.07167666
2
MD Step 212
Li  0.28746336 0.28751565 0.59954424
H  1.08794180 1.08733189 1.93666507
2
MD Step 213
Li  0.30009249 0.30013905 0.62170653
H  1.01537046 1.01479887 1.79838313
2
MD Step 214
Li  0.31226415 0.31230682 0.64307164
H  0.94595236 0.94540632 1.66559602
2
MD Step 215
Li  0.32268799 0.32272848 0.66152127
H  0.88858147 0.88804937 1.55290458
2
MD Step 216
Li  0.32975254 0.32978893 0.67446145
H  0.85436540 0.85386032 1.47818834
2
MD Step 217
Li  0.33188440 0.33193837 0.67979134
H  0.85414909 0.85352172 1.45592800
2
MD Step 218
Li  0.32866584 0.32876056 0.67710216
H  0.89081194 0.88990247 1.48894106
2
MD Step 219
Li  0.32081358 0.32096422 0.66790096
H  0.95941372 0.95811760 1.56683985
2
MD Step 220
Li  0.31030337 0.31050329 0.65504894
H  1.04633608 1.04469908 1.66990291
2
MD Step 221
Li  0.29869872 0.29894399 0.64061866
H  1.14080211 1.13885138 1.78384447
2
MD Step 222
Li  0.28709087 0.28737968 0.62617774
H  1.23529019 1.23303823 1.89785934
2
MD Step 223
Li  0.27595533 0.27628639 0.61236992
H  1.32652277 1.32397839 2.00751045
2
MD Step 224
Li  0.26559809 0.26596927 0.59959564
H  1.41239077 1.40956866 2.11003762
2
MD Step 225
Li  0.25628281 0.25669122 0.58819375
H  1.49107674 1.48799689 2.20310521
2
MD Step 226
Li  0.24814825 0.24859054 0.57833606
H  1.56162438 1.55830977 2.28552904
2
MD Step 227
Li  0.24125651 0.24172913 0.57009371
H  1.62360551 1.62008066 2.35681879
2
MD Step 228
Li  0.23562742 0.23612672 0.56348336
H  1.67688351 1.67317358 2.41685949
2
MD Step 229
Li  0.23125779 0.23178010 0.55849271
H  1.72148034 1.71761066 2.46573604
2
MD Step 230
Li  0.22813359 0.22867523 0.55509602
H  1.75749276 1.75348864 2.50362584
2
MD Step 231
Li  0.22623747 0.22679479 0.55326396
H  1.78504035 1.78092696 2.53073099
2
MD Step 232
Li  0.22555382 0.22612320 0.55297000
H  1.80423063 1.80003301 2.54723441
2
MD Step 233
Li  0.22607204 0.22664983 0.55419428
H  1.81513679 1.81087997 2.55327301
2
MD Step 234
Li  0.22778832 0.22837088 0.55692574
H  1.81778500 1.81349412 2.54892299
2
MD Step 235
Li  0.23070647 0.23129012 0.56116293
H  1.81214901 1.80784947 2.53419430
2
MD Step 236
Li  0.23483779 0.23541877 0.56691369
H  1.79815095 1.79386858 2.50903300
2
MD Step 237
Li  0.24019999 0.24077448 0.57419357
H  1.77566871 1.77142991 2.47333179
2
MD Step 238
Li  0.24681496 0.24737904 0.58302292
H  1.74455145 1.74038330 2.42695054
2
MD Step 239
Li  0.25470488 0.25525450 0.59342187
H  1.70464632 1.70057657 2.36975042
2
MD Step 240
Li  0.26388614 0.26441721 0.60540282
H  1.65584023 1.65189723 2.30164595
2
MD Step 241
Li  0.27436000 0.27486835 0.61895894
H  1.59812465 1.59433703 2.22268423
2
MD Step 242
Li  0.28609757 0.28657911 0.63404602
H  1.53169857 1.52809461 2.13316998
2
MD Step 243
Li  0.29901390 0.29946475 0.65055177
H  1.45714766 1.45375401 2.03387720
2
MD Step 244
Li  0.31292232 0.31333920 0.66824254
H  1.37575846 1.37259781 1.92641636
2
MD Step 245
Li  0.32750335 0.32788399 0.68672953
H  1.28973312 1.28682108 1.81346740
2
MD Step 246
Li  0.34245652 0.34279968 0.70565111
H  1.20114278 1.19848788 1.69752288
2
MD Step 247
Li  0.35696180 0.35727401 0.72403354
H  1.11563954 1.11319686 1.58529459
2
MD Step 248
Li  0.36968182 0.36997949 0.74029135
H  1.04244174 1.04009807 1.48771078
2
MD Step 249
Li  0.37890635 0.37917970 0.75209839
H  0.99333740 0.99116021 1.42080510
2
MD Step 250
Li  0.38215766 0.38247316 0.75826977
H  0.98540501 0.98293610 1.39274453
2
MD Step 251
Li  0.37860341 0.37890225 0.75761678
H  1.02438171 1.02202643 1.41172263
2
MD Step 252
Li  0.36988149 0.37022135 0.75178143
H  1.09897780 1.09633863 1.46642152
2
MD Step 253
Li  0.35769534 0.35805318 0.74237894
H  1.19745200 1.19468768 1.54570776
2
MD Step 254
Li  0.34399505 0.34437568 0.73147981
H  1.30636279 1.30344021 1.63531000
2
MD Step 255
Li  0.33018139 0.33058521 0.72045996
H  1.41605500 1.41297141 1.72574429
2
MD Step 256
Li  0.31689244 0.31731772 0.70992475
H  1.52213049 1.51889785 1.81283813
2
MD Step 257
Li  0.30448265 0.30492671 0.70019402
H  1.62214619 1.61878288 1.89438684
2
MD Step 258
Li  0.29326739 0.29372679 0.69154592
H  1.71392823 1.71045804 1.96847326
2
MD Step 259
Li  0.28341074 0.28388171 0.68411898
H  1.79634580 1.79279463 2.03414257
2
MD Step 260
Li  0.27498370 0.27546245 0.67796767
H  1.86890935 1.86530340 2.09101925
2
MD Step 261
Li  0.26800644 0.26848926 0.67310166
H  1.93147993 1.92784482 2.13903668
2
MD Step 262
Li  0.26247127 0.26295457 0.66950669
H  1.98411062 1.98047091 2.17829316
2
MD Step 263
Li  0.25835735 0.25883775 0.66715728
H  2.02694490 2.02332406 2.20896426
2
MD Step 264
Li  0.25563988 0.25611414 0.66602517
H  2.06015382 2.05657416 2.23124484
2
MD Step 265
Li  0.25429601 0.25476103 0.66608443
H  2.08389490 2.08037771 2.24531364
2
MD Step 266
Li  0.25430875 0.25476159 0.66731461
H  2.09828516 2.09485079 2.25131157
2
MD Step 267
Li  0.25566930 0.25610710 0.66970252
H  2.10338535 2.10005340 2.24932951
2
MD Step 268
Li  0.25837808 0.25879811 0.67324302
H  2.09919243 2.09598186 2.23940294
2
MD Step 269
Li  0.26244498 0.26284455 0.67793896
H  2.08563840 2.08256767 2.22151229
2
MD Step 270
Li  0.26788856 0.26826505 0.68380037
H  2.06259527 2.05968245 2.19558828
2
MD Step 271
Li  0.27473426 0.27508510 0.69084280
H  2.02988765 2.02715047 2.16152380
2
MD Step 272
Li  0.28301109 0.28333375 0.69908438
H  1.98731566 1.98477145 2.11919389
2
MD Step 273
Li  0.29274616 0.29303820 0.70854115
H  1.93469232 1.93235800 2.06848793
2
MD Step 274
Li  0.30395648 0.30421554 0.71921987
H  1.87190049 1.86979231 2.00935941
2
MD Step 275
Li  0.31663586 0.31685973 0.73110737
H  1.79898271 1.79711596 1.94189905
2
MD Step 276
Li  0.33073425 0.33092091 0.74415393
H  1.71628417 1.71467265 1.86644963
2
MD Step 277
Li  0.34612002 0.34626781 0.75824326
H  1.62471199 1.62336721 1.78381260
2
MD Step 278
Li  0.36251821 0.36262596 0.77314466
H  1.52616142 1.52509153 1.69557823
2
MD Step 279
Li  0.37954511 0.37961217 0.78854432
H  1.42327731 1.42248670 1.60390941
2
MD Step 280
Li  0.39672616 0.39675225 0.80407612
H  1.31933071 1.31882134 1.51132985
2
MD Step 281
Li  0.41278409 0.41276907 0.81892356
H  1.22312547 1.22289831 1.42346736
2
MD Step 282
Li  0.42577123 0.42571631 0.83166300
H  1.14808647 1.14813307 1.35013486
2
MD Step 283
Li  0.43324477 0.43314936 0.84022800
H  1.11105132 1.11137584 1.30557563
2
MD Step 284
Li  0.43388224 0.43374474 0.84370881
H  1.12113549 1.12174895 1.29606057
2
MD Step 285
Li  0.42765632 0.42745504 0.84239265
H  1.17852728 1.17957921 1.31960973
2
MD Step 286
Li  0.41614016 0.41586364 0.83770209
H  1.27238338 1.27395274 1.36641783
2
MD Step 287
Li  0.40191614 0.40157309 0.83152427
H  1.38490407 1.38693084 1.42347725
2
MD Step 288
Li  0.38678740 0.38637723 0.82480041
H  1.50366081 1.50614906 1.48430037
2
MD Step 289
Li  0.37194505 0.37146897 0.81825856
H  1.62044355 1.62338490 1.54386895
2
MD Step 290
Li  0.35781508 0.35727505 0.81213089
H  1.73231598 1.73569696 1.60058272
2
MD Step 291
Li  0.34480749 0.34420671 0.80664706
H  1.83645213 1.84025065 1.65285862
2
MD Step 292
Li  0.33319638 0.33253897 0.80195544
H  1.93096273 1.93515041 1.69967399
2
MD Step 293
Li  0.32311393 0.32240453 0.79812270
H  2.01493661 2.01948151 1.74056937
2
MD Step 294
Li  0.31461200 0.31385551 0.79517039
H  2.08801643 2.09288470 1.77539612
2
MD Step 295
Li  0.30769902 0.30690047 0.79309638
H  2.15014398 2.15530090 1.80416900
2
MD Step 296
Li  0.30235993 0.30152442 0.79188611
H  2.20142307 2.20683364 1.82698834
2
MD Step 297
Li  0.29856994 0.29770256 0.79152018
H  2.24202460 2.24765370 1.84398785
2
MD Step 298
Li  0.29630303 0.29540886 0.79197902
H  2.27212797 2.27794049 1.85530238
2
MD Step 299
Li  0.29553719 0.29462134 0.79324567
H  2.29188479 2.29784560 1.86104895
2
MD Step 300
Li  0.29625787 0.29532546 0.79530740
H  2.30139538 2.30746915 1.86131516
2
MD Step 301
Li  0.29845988 0.29751608 0.79815664
H  2.30069562 2.30684667 1.85615329
2
MD Step 302
Li  0.30214803 0.30119813 0.80179116
H  2.28975215 2.29594417 1.84557872
2
MD Step 303
Li  0.30733687 0.30638625 0.80621372
H  2.26846486 2.27466066 1.82957236
2
MD Step 304
Li  0.31404911 0.31310332 0.81143116
H  2.23667718 2.24283846 1.80808705
2
MD Step 305
Li  0.32231271 0.32137749 0.81745277
H  2.19419635 2.20028359 1.78105883
2
MD Step 306
Li  0.33215614 0.33123741 0.82428771
H  2.14082609 2.14679849 1.74842455
2
MD Step 307
Li  0.34360089 0.34270475 0.83194091
H  2.07641839 2.08223394 1.71015016
2
MD Step 308
Li  0.35664911 0.35578176 0.84040677
H  2.00095835 2.00657423 1.66627435
2
MD Step 309
Li  0.37126540 0.37043303 0.84966025
H  1.91469003 1.92006363 1.61696966
2
MD Step 310
Li  0.38734469 0.38655319 0.85964106
H  1.81833754 1.82342830 1.56265165
2
MD Step 311
Li  0.40465540 0.40390982 0.87022681
H  1.71349722 1.71827025 1.50416396
2
MD Step 312
Li  0.42279804 0.42210190 0.88121554
H  1.60292260 1.60735371 1.44289863
2
MD Step 313
Li  0.44139538 0.44075048 0.89241914
H  1.48921388 1.49329063 1.38015225
2
MD Step 314
Li  0.45952549 0.45893263 0.90328709
H  1.37872567 1.38244252 1.31971938
2
MD Step 315
Li  0.47538108 0.47484626 0.91291062
H  1.28391510 1.28723073 1.26786402
2
MD Step 316
Li  0.48625344 0.48580132 0.92068495
H  1.22345274 1.22619717 1.22875474
2
MD Step 317
Li  0.48989752 0.48950214 0.92487522
H  1.21281307 1.21516524 1.21434954
2
MD Step 318
Li  0.48583639 0.48539873 0.92587895
H  1.25528354 1.25792592 1.22190829
2
MD Step 319
Li  0.47523828 0.47468453 0.92433004
H  1.34281178 1.34625317 1.24706176
2
MD Step 320
Li  0.46150211 0.46082279 0.92142406
H  1.45196983 1.45627555 1.28156921
2
MD Step 321
Li  0.44638921 0.44558180 0.91788729
H  1.57061740 1.57580484 1.32042450
2
MD Step 322
Li  0.43126459 0.43032792 0.91430639
H  1.68934570 1.69542292 1.35958397
2
MD Step 323
Li  0.41675539 0.41569294 0.91094290
H  1.80383208 1.81077511 1.39724493
2
MD Step 324
Li  0.40325521 0.40207280 0.90793319
H  1.91136356 1.91913226 1.43246736
2
MD Step 325
Li  0.39111459 0.38982029 0.90539637
H  2.00952396 2.01806271 1.46443028
2
MD Step 326
Li  0.38051955 0.37912275 0.90339342
H  2.09703095 2.10627505 1.49271330
2
MD Step 327
Li  0.37155342 0.37006422 0.90194967
H  2.17331036 2.18319018 1.51714196
2
MD Step 328
Li  0.36424291 0.36267176 0.90107124
H  2.23817797 2.24862148 1.53767402
2
MD Step 329
Li  0.35858436 0.35694185 0.90075396
H  2.29165904 2.30259323 1.55433819
2
MD Step 330
Li  0.35455954 0.35285629 0.90098901
H  2.33387921 2.34523088 1.56719524
2
MD Step 331
Li  0.35214569 0.35039232 0.90176629
H  2.36499538 2.37669131 1.57631490
2
MD Step 332
Li  0.35132217 0.34952930 0.90307654
H  2.38514980 2.39711679 1.58176091
2
MD Step 333
Li  0.35207458 0.35025288 0.90491271
H  2.39444170 2.40660628 1.58358190
2
MD Step 334
Li  0.35439705 0.35255726 0.90727063
H  2.39291159 2.40519966 1.58180654
2
MD Step 335
Li  0.35829306 0.35644609 0.91014927
H  2.38053545 2.39287185 1.57644204
2
MD Step 336
Li  0.36377504 0.36193201 0.91355049
H  2.35722761 2.36953569 1.56747552
2
MD Step 337
Li  0.37086260 0.36903489 0.91747841
H  2.32285295 2.33505420 1.55487861
2
MD Step 338
Li  0.37957905 0.37777837 0.92193819
H  2.27725072 2.28926450 1.53861570
2
MD Step 339
Li  0.38994568 0.38818404 0.92693415
H  2.22027421 2.23201775 1.51865703
2
MD Step 340
Li  0.40197293 0.40026258 0.93246696
H  2.15185148 2.16324029 1.49499799
2
MD Step 341
Li  0.41564662 0.41399990 0.93852904
H  2.07208020 2.08302930 1.46769081
2
MD Step 342
Li  0.43090611 0.42933506 0.94509768
H  1.98137845 1.99180475 1.43689202
2
MD Step 343
Li  0.44760523 0.44612101 0.95212295
H  1.88075361 1.89058032 1.40294581
2
MD Step 344
Li  0.46544940 0.46406103 0.95950845
H  1.77223634 1.78140114 1.36651663
2
MD Step 345
Li  0.48402087 0.48273425 0.96712071
H  1.65870586 1.66716820 1.32852449
2