 Entering Gaussian System, Link 0=g16
 Initial command:
 /software/gaussian/g16-c01/avx2/g16/l1.exe "/gpfs/fs2/scratch/bweight/software/many_molecule_many_mode_NAMD/src/NAMD/TEST_NVT/TRAJ/traj-30/G16/GS_NEW/Gau-22231.inp" -scrdir="/gpfs/fs2/scratch/bweight/software/many_molecule_many_mode_NAMD/src/NAMD/TEST_NVT/TRAJ/traj-30/G16/GS_NEW/"
 Entering Link 1 = /software/gaussian/g16-c01/avx2/g16/l1.exe PID=     22232.
  
 Copyright (c) 1988-2019, Gaussian, Inc.  All Rights Reserved.
  
 This is part of the Gaussian(R) 16 program.  It is based on
 the Gaussian(R) 09 system (copyright 2009, Gaussian, Inc.),
 the Gaussian(R) 03 system (copyright 2003, Gaussian, Inc.),
 the Gaussian(R) 98 system (copyright 1998, Gaussian, Inc.),
 the Gaussian(R) 94 system (copyright 1995, Gaussian, Inc.),
 the Gaussian 92(TM) system (copyright 1992, Gaussian, Inc.),
 the Gaussian 90(TM) system (copyright 1990, Gaussian, Inc.),
 the Gaussian 88(TM) system (copyright 1988, Gaussian, Inc.),
 the Gaussian 86(TM) system (copyright 1986, Carnegie Mellon
 University), and the Gaussian 82(TM) system (copyright 1983,
 Carnegie Mellon University). Gaussian is a federally registered
 trademark of Gaussian, Inc.
  
 This software contains proprietary and confidential information,
 including trade secrets, belonging to Gaussian, Inc.
  
 This software is provided under written license and may be
 used, copied, transmitted, or stored only in accord with that
 written license.
  
 The following legend is applicable only to US Government
 contracts under FAR:
  
                    RESTRICTED RIGHTS LEGEND
  
 Use, reproduction and disclosure by the US Government is
 subject to restrictions as set forth in subparagraphs (a)
 and (c) of the Commercial Computer Software - Restricted
 Rights clause in FAR 52.227-19.
  
 Gaussian, Inc.
 340 Quinnipiac St., Bldg. 40, Wallingford CT 06492
  
  
 ---------------------------------------------------------------
 Warning -- This program may not be used in any manner that
 competes with the business of Gaussian, Inc. or will provide
 assistance to any competitor of Gaussian, Inc.  The licensee
 of this program is prohibited from giving any competitor of
 Gaussian, Inc. access to this program.  By using this program,
 the user acknowledges that Gaussian, Inc. is engaged in the
 business of creating and licensing software in the field of
 computational chemistry and represents and warrants to the
 licensee that it is not a competitor of Gaussian, Inc. and that
 it will not use this program in any manner prohibited above.
 ---------------------------------------------------------------
  

 Cite this work as:
 Gaussian 16, Revision C.01,
 M. J. Frisch, G. W. Trucks, H. B. Schlegel, G. E. Scuseria, 
 M. A. Robb, J. R. Cheeseman, G. Scalmani, V. Barone, 
 G. A. Petersson, H. Nakatsuji, X. Li, M. Caricato, A. V. Marenich, 
 J. Bloino, B. G. Janesko, R. Gomperts, B. Mennucci, H. P. Hratchian, 
 J. V. Ortiz, A. F. Izmaylov, J. L. Sonnenberg, D. Williams-Young, 
 F. Ding, F. Lipparini, F. Egidi, J. Goings, B. Peng, A. Petrone, 
 T. Henderson, D. Ranasinghe, V. G. Zakrzewski, J. Gao, N. Rega, 
 G. Zheng, W. Liang, M. Hada, M. Ehara, K. Toyota, R. Fukuda, 
 J. Hasegawa, M. Ishida, T. Nakajima, Y. Honda, O. Kitao, H. Nakai, 
 T. Vreven, K. Throssell, J. A. Montgomery, Jr., J. E. Peralta, 
 F. Ogliaro, M. J. Bearpark, J. J. Heyd, E. N. Brothers, K. N. Kudin, 
 V. N. Staroverov, T. A. Keith, R. Kobayashi, J. Normand, 
 K. Raghavachari, A. P. Rendell, J. C. Burant, S. S. Iyengar, 
 J. Tomasi, M. Cossi, J. M. Millam, M. Klene, C. Adamo, R. Cammi, 
 J. W. Ochterski, R. L. Martin, K. Morokuma, O. Farkas, 
 J. B. Foresman, and D. J. Fox, Gaussian, Inc., Wallingford CT, 2019.
 
 ******************************************
 Gaussian 16:  ES64L-G16RevC.01  3-Jul-2019
                11-Jan-2023 
 ******************************************
 %oldchk=../GS_OLD/geometry.chk
 %chk=geometry.chk
 %nprocshared=4
 Will use up to    4 processors via shared memory.
 %mem=5GB
 Copying data from "../GS_OLD/geometry.chk" to current chk file "geometry.chk"
 IOpt=  2 FromEx=T IUOpen= 4 IOptOp= 5 NList=   0 IFRang= 0 IUIn= 4 IUOut= 2.
 -------------------------------------------------------
 # WB97XD/6-311G SCF=XQC FORCE nosym pop=full guess=read
 -------------------------------------------------------
 1/10=7,30=1,38=1/1,3;
 2/12=2,15=1,17=6,18=5,40=1/2;
 3/5=4,6=6,11=2,25=1,30=1,71=1,74=-58,116=-2/1,2,3;
 4/5=1/1;
 5/5=2,8=3,13=1,38=6/2,8;
 6/7=3,28=1/1;
 7/29=1,30=1/1,2,3,16;
 1/10=7,30=1/3;
 99//99;
 ------------
 MD Step 1000
 ------------
 Symbolic Z-matrix:
 Charge =  0 Multiplicity = 1
 C                    -0.3369   -0.58276   0.00714 
 H                     0.23086  -1.52889  -0.02389 
 H                    -1.42702  -0.57336  -0.02431 
 C                     0.33274   0.57628   0.00485 
 H                    -0.15252   1.5639   -0.02725 
 H                     1.4388    0.65613  -0.02695 
 

 GradGradGradGradGradGradGradGradGradGradGradGradGradGradGradGradGradGrad
 Berny optimization.
 Initialization pass.
 Trust Radius=3.00D-01 FncErr=1.00D-07 GrdErr=1.00D-07 EigMax=2.50D+02 EigMin=1.00D-04
 Number of steps in this run=      2 maximum allowed number of steps=      2.
 GradGradGradGradGradGradGradGradGradGradGradGradGradGradGradGradGradGrad

                          Input orientation:                          
 ---------------------------------------------------------------------
 Center     Atomic      Atomic             Coordinates (Angstroms)
 Number     Number       Type             X           Y           Z
 ---------------------------------------------------------------------
      1          6           0       -0.336900   -0.582764    0.007144
      2          1           0        0.230860   -1.528885   -0.023891
      3          1           0       -1.427018   -0.573356   -0.024314
      4          6           0        0.332740    0.576282    0.004854
      5          1           0       -0.152521    1.563905   -0.027249
      6          1           0        1.438804    0.656126   -0.026950
 ---------------------------------------------------------------------
                    Distance matrix (angstroms):
                    1          2          3          4          5
     1  C    0.000000
     2  H    1.103839   0.000000
     3  H    1.090613   1.913530   0.000000
     4  C    1.338585   2.107827   2.102205   0.000000
     5  H    2.154847   3.116463   2.488420   1.100867   0.000000
     6  H    2.165441   2.496681   3.118425   1.109399   1.832042
                    6
     6  H    0.000000
 Symmetry turned off by external request.
 Stoichiometry    C2H4
 Framework group  C1[X(C2H4)]
 Deg. of freedom    12
 Full point group                 C1      NOp   1
 Rotational constants (GHZ):         142.7644494          29.6936679          24.5892534
 Standard basis: 6-311G (5D, 7F)
    38 basis functions,    72 primitive gaussians,    38 cartesian basis functions
     8 alpha electrons        8 beta electrons
       nuclear repulsion energy        33.0513553935 Hartrees.
 NAtoms=    6 NActive=    6 NUniq=    6 SFac= 1.00D+00 NAtFMM=   60 NAOKFM=F Big=F
 Integral buffers will be    131072 words long.
 Raffenetti 2 integral format.
 Two-electron integral symmetry is turned off.
 Nuclear repulsion after empirical dispersion term =       33.0505109700 Hartrees.
 One-electron integrals computed using PRISM.
 NBasis=    38 RedAO= T EigKep=  6.43D-03  NBF=    38
 NBsUse=    38 1.00D-06 EigRej= -1.00D+00 NBFU=    38
 Initial guess from the checkpoint file:  "geometry.chk"
 B after Tr=    -0.000196   -0.000401   -0.000461
         Rot=    1.000000    0.000005   -0.000003    0.000005 Ang=   0.00 deg.
 Keep R1 ints in memory in canonical form, NReq=4036876.
 Requested convergence on RMS density matrix=1.00D-08 within  32 cycles.
 Requested convergence on MAX density matrix=1.00D-06.
 Requested convergence on             energy=1.00D-06.
 No special actions if energy rises.
 SCF Done:  E(RwB97XD) =  -78.5552313486     A.U. after    8 cycles
            NFock=  8  Conv=0.74D-08     -V/T= 2.0052
 QCSCF skips out because SCF is already converged.

 **********************************************************************

            Population analysis using the SCF Density.

 **********************************************************************

 Alpha  occ. eigenvalues --  -10.28990 -10.28902  -0.86374  -0.67190  -0.55948
 Alpha  occ. eigenvalues --   -0.50859  -0.43631  -0.35682
 Alpha virt. eigenvalues --    0.07970   0.14060   0.16447   0.16993   0.24071
 Alpha virt. eigenvalues --    0.36982   0.39392   0.40111   0.46426   0.48819
 Alpha virt. eigenvalues --    0.49378   0.59096   0.66529   0.69058   0.77317
 Alpha virt. eigenvalues --    0.77429   0.84261   0.95160   2.23141   2.29180
 Alpha virt. eigenvalues --    2.33158   2.40569   2.67100   2.81754   2.87700
 Alpha virt. eigenvalues --    2.95210   3.14066   3.31869  23.35174  23.70528
     Molecular Orbital Coefficients:
                           1         2         3         4         5
                           O         O         O         O         O
     Eigenvalues --   -10.28990 -10.28902  -0.86374  -0.67190  -0.55948
   1 1   C  1S          0.41300  -0.38323  -0.08807   0.06712  -0.00048
   2        2S          0.34004  -0.31525  -0.13921   0.10748  -0.00079
   3        2PX         0.00012   0.00010   0.02620   0.03480   0.13797
   4        2PY         0.00022   0.00017   0.04701   0.05650  -0.07417
   5        2PZ        -0.00000   0.00001  -0.00130   0.00185   0.00017
   6        3S          0.01008  -0.01055   0.37356  -0.29333   0.00219
   7        3PX        -0.00022  -0.00071   0.03485   0.05607   0.21670
   8        3PY        -0.00035  -0.00124   0.06223   0.09223  -0.11739
   9        3PZ        -0.00003   0.00002  -0.00218   0.00332   0.00024
  10        4S         -0.00617   0.01368   0.19194  -0.22693   0.00187
  11        4PX         0.00025   0.00214   0.00500   0.02239   0.11217
  12        4PY         0.00041   0.00369   0.00894   0.03844  -0.06169
  13        4PZ         0.00005  -0.00006  -0.00076   0.00168   0.00011
  14 2   H  1S         -0.00006   0.00002   0.05181  -0.08559   0.10301
  15        2S         -0.00018  -0.00026   0.05347  -0.10415   0.13091
  16        3S          0.00165  -0.00084  -0.00192  -0.01471   0.04220
  17 3   H  1S         -0.00008   0.00002   0.05343  -0.08935  -0.10595
  18        2S         -0.00019  -0.00025   0.05451  -0.10783  -0.13361
  19        3S          0.00169  -0.00086  -0.00190  -0.01572  -0.04304
  20 4   C  1S          0.38309   0.41313  -0.08712  -0.06797  -0.00023
  21        2S          0.31545   0.33988  -0.13755  -0.10902  -0.00036
  22        2PX        -0.00011   0.00013  -0.02748   0.03935   0.11727
  23        2PY        -0.00019   0.00022  -0.04627   0.06993  -0.07335
  24        2PZ         0.00000  -0.00000  -0.00102  -0.00210   0.00017
  25        3S          0.00919   0.01121   0.36840   0.29800   0.00101
  26        3PX         0.00027  -0.00071  -0.03428   0.06340   0.18335
  27        3PY         0.00049  -0.00120  -0.05754   0.11212  -0.11373
  28        3PZ        -0.00003  -0.00002  -0.00176  -0.00376   0.00026
  29        4S         -0.00477  -0.01407   0.18890   0.23734  -0.00015
  30        4PX        -0.00045   0.00205  -0.00545   0.02783   0.10125
  31        4PY        -0.00083   0.00353  -0.00887   0.04770  -0.06188
  32        4PZ         0.00005   0.00005  -0.00073  -0.00192   0.00013
  33 5   H  1S         -0.00008  -0.00001   0.05034   0.09501  -0.08906
  34        2S         -0.00020   0.00024   0.05127   0.11280  -0.11191
  35        3S          0.00154   0.00097  -0.00096   0.01709  -0.03594
  36 6   H  1S         -0.00007   0.00000   0.04912   0.09336   0.08472
  37        2S         -0.00022   0.00025   0.05062   0.11128   0.10686
  38        3S          0.00150   0.00095  -0.00100   0.01652   0.03460
                           6         7         8         9        10
                           O         O         O         V         V
     Eigenvalues --    -0.50859  -0.43631  -0.35682   0.07970   0.14060
   1 1   C  1S         -0.00223   0.00018  -0.00103   0.00276  -0.03473
   2        2S         -0.00315   0.00030  -0.00167   0.00458  -0.05574
   3        2PX         0.09529  -0.10923  -0.00331   0.00142  -0.03228
   4        2PY         0.16886   0.06544  -0.00566   0.00249  -0.06587
   5        2PZ         0.00498   0.00002   0.17949  -0.18916  -0.00291
   6        3S          0.01443  -0.00060   0.00488  -0.01382   0.12199
   7        3PX         0.13820  -0.17492  -0.00466   0.00213  -0.03790
   8        3PY         0.24650   0.10534  -0.00798   0.00367  -0.08109
   9        3PZ         0.00792   0.00007   0.28840  -0.27784  -0.00459
  10        4S         -0.06153  -0.00354   0.00708  -0.01682   1.25328
  11        4PX         0.06934  -0.10966  -0.00383   0.01232  -0.19273
  12        4PY         0.12495   0.06637  -0.00663   0.02127  -0.38167
  13        4PZ         0.00452   0.00008   0.26697  -0.69468  -0.01641
  14 2   H  1S         -0.08149  -0.11404   0.00011   0.00429  -0.01931
  15        2S         -0.11397  -0.17656   0.00191   0.00689  -0.05064
  16        3S         -0.04270  -0.08173   0.00115   0.01856  -0.84851
  17 3   H  1S         -0.08027   0.11145   0.00008   0.00431  -0.01564
  18        2S         -0.11160   0.17157   0.00189   0.00695  -0.04218
  19        3S         -0.04149   0.07904   0.00115   0.01816  -0.78805
  20 4   C  1S         -0.00973  -0.00049  -0.00076  -0.00253  -0.03510
  21        2S         -0.01532  -0.00080  -0.00125  -0.00420  -0.05635
  22        2PX        -0.09772   0.12590   0.00337   0.00170   0.03971
  23        2PY        -0.16085  -0.07454   0.00601   0.00297   0.06037
  24        2PZ         0.00535   0.00014   0.17903   0.18937  -0.00251
  25        3S          0.04853   0.00228   0.00370   0.01262   0.12412
  26        3PX        -0.14493   0.20110   0.00472   0.00263   0.04883
  27        3PY        -0.23695  -0.11820   0.00844   0.00460   0.07195
  28        3PZ         0.00844   0.00020   0.28667   0.27792  -0.00385
  29        4S         -0.02065   0.00298   0.00627   0.01323   1.21143
  30        4PX        -0.07610   0.12922   0.00361   0.01296   0.26295
  31        4PY        -0.12324  -0.07545   0.00657   0.02248   0.41535
  32        4PZ         0.00490   0.00011   0.26764   0.69570  -0.01547
  33 5   H  1S         -0.07287  -0.12582   0.00024  -0.00386  -0.01060
  34        2S         -0.09901  -0.19563   0.00212  -0.00636  -0.03636
  35        3S         -0.03710  -0.09199   0.00118  -0.01630  -0.80539
  36 6   H  1S         -0.07904   0.12505   0.00019  -0.00388  -0.01401
  37        2S         -0.10786   0.19544   0.00208  -0.00647  -0.04505
  38        3S         -0.04058   0.09198   0.00114  -0.01668  -0.86514
                          11        12        13        14        15
                           V         V         V         V         V
     Eigenvalues --     0.16447   0.16993   0.24071   0.36982   0.39392
   1 1   C  1S          0.00063  -0.04504   0.00013   0.00775   0.00040
   2        2S          0.00101  -0.07343   0.00020   0.01003   0.00049
   3        2PX         0.09789  -0.01980   0.09933  -0.03493  -0.02290
   4        2PY        -0.05500  -0.03535  -0.05686  -0.06321   0.01192
   5        2PZ         0.00003  -0.00658  -0.00001  -0.00458  -0.00017
   6        3S         -0.00207   0.16708   0.00019   0.03659   0.00308
   7        3PX         0.14010  -0.01169   0.10467  -0.04075  -0.10192
   8        3PY        -0.07942  -0.02222  -0.06090  -0.07805   0.05729
   9        3PZ         0.00004  -0.00914  -0.00005  -0.00957  -0.00031
  10        4S         -0.03692   1.40010  -0.02824  -2.35907  -0.10925
  11        4PX         0.59128  -0.11384   1.16339  -1.49440  -0.51615
  12        4PY        -0.32350  -0.19297  -0.66918  -2.59354   0.14402
  13        4PZ         0.00036  -0.04273   0.00043  -0.04067  -0.00241
  14 2   H  1S         -0.02944  -0.02614   0.01372  -0.06388   0.07407
  15        2S         -0.08216  -0.01940  -0.02522  -0.70760   0.74572
  16        3S         -1.04633  -0.97293  -1.51832  -0.23565  -0.31524
  17 3   H  1S          0.02811  -0.02636  -0.01598  -0.05733  -0.07648
  18        2S          0.08033  -0.02317   0.01844  -0.65519  -0.77336
  19        3S          1.09166  -0.99678   1.55397  -0.31352   0.26080
  20 4   C  1S          0.00161   0.04301  -0.00015  -0.01956  -0.00017
  21        2S          0.00258   0.06998  -0.00025  -0.03234  -0.00027
  22        2PX         0.10008  -0.02549  -0.10117  -0.03872  -0.03168
  23        2PY        -0.06087  -0.03836   0.05799  -0.06946   0.01344
  24        2PZ         0.00020   0.00645   0.00002   0.00307   0.00025
  25        3S         -0.00529  -0.15473   0.00033   0.04668   0.00039
  26        3PX         0.14388  -0.02127  -0.11574  -0.09074  -0.11184
  27        3PY        -0.08619  -0.02825   0.06506  -0.16489   0.05353
  28        3PZ         0.00027   0.00888   0.00006   0.00334   0.00047
  29        4S         -0.06890  -1.37254   0.01901   3.13065   0.13219
  30        4PX         0.52715  -0.13362  -1.12703  -1.05322  -0.54026
  31        4PY        -0.32686  -0.20631   0.64933  -1.85344   0.17886
  32        4PZ         0.00127   0.04196  -0.00036   0.03304   0.00193
  33 5   H  1S          0.03149   0.02404   0.00551   0.00517  -0.08250
  34        2S          0.06766   0.02063  -0.03368  -0.00075  -0.82564
  35        3S          1.07847   0.94833  -1.54563   0.43151   0.47213
  36 6   H  1S         -0.03124   0.02536  -0.00429   0.00009   0.08725
  37        2S         -0.06788   0.02099   0.03485  -0.04317   0.87982
  38        3S         -0.98448   0.98292   1.52456   0.44488  -0.46086
                          16        17        18        19        20
                           V         V         V         V         V
     Eigenvalues --     0.40111   0.46426   0.48819   0.49378   0.59096
   1 1   C  1S         -0.02001  -0.01088   0.04680  -0.00089  -0.00055
   2        2S         -0.03474  -0.02632   0.07842  -0.00124  -0.00098
   3        2PX         0.03156   0.06088  -0.01379   0.00136   0.00199
   4        2PY         0.05596   0.10528  -0.01760   0.00195   0.00300
   5        2PZ         0.00067   0.00039  -0.00678  -0.15207  -0.19238
   6        3S          0.07356   0.33349  -0.10297  -0.00755  -0.00053
   7        3PX         0.11248   0.24149   0.02885   0.00009   0.00662
   8        3PY         0.20391   0.41513   0.06267  -0.00093   0.01009
   9        3PZ        -0.00287   0.00401  -0.03025  -0.62856  -0.68401
  10        4S          2.98924  -0.27705  -3.03803   0.12080   0.06787
  11        4PX         0.42321  -0.28541  -0.82969   0.03835   0.02215
  12        4PY         0.73646  -0.53147  -1.45045   0.06855   0.03729
  13        4PZ         0.00050  -0.00024   0.09426   0.68549   1.23968
  14 2   H  1S         -0.02502   0.03466   0.07432  -0.00342  -0.00167
  15        2S         -0.51486   0.33452   0.87302  -0.03384  -0.01259
  16        3S          0.37372  -0.09731  -0.65860   0.03795   0.02331
  17 3   H  1S         -0.02819   0.03743   0.07185  -0.00332  -0.00156
  18        2S         -0.53745   0.36810   0.84810  -0.03327  -0.01065
  19        3S          0.37429  -0.09867  -0.62032   0.03648   0.02253
  20 4   C  1S          0.00194   0.00127  -0.05087   0.00358   0.00068
  21        2S         -0.00044  -0.00550  -0.08836   0.00644   0.00127
  22        2PX         0.01233  -0.05521  -0.02585   0.00024   0.00207
  23        2PY         0.02205  -0.09614  -0.04796   0.00052   0.00390
  24        2PZ        -0.00388   0.00186  -0.00690  -0.15235   0.19237
  25        3S          0.07568   0.29101   0.22305  -0.02330  -0.00242
  26        3PX        -0.03427  -0.23503  -0.05135   0.00022   0.00733
  27        3PY        -0.05522  -0.41214  -0.09351   0.00037   0.01350
  28        3PZ        -0.01058   0.00750  -0.02641  -0.63052   0.68307
  29        4S         -1.23585  -0.63051   3.17104  -0.14794  -0.06014
  30        4PX         1.40106   0.28999  -0.60371   0.02158   0.02024
  31        4PY         2.49161   0.46962  -1.01804   0.03541   0.03622
  32        4PZ        -0.03556   0.01574  -0.02724   0.69324  -1.23819
  33 5   H  1S         -0.04241   0.06349  -0.06561   0.00315   0.00151
  34        2S         -0.80809   0.65677  -0.84401   0.04608   0.00553
  35        3S         -0.28262  -0.24174   0.53913  -0.01576  -0.02232
  36 6   H  1S         -0.03900   0.06152  -0.06629   0.00323   0.00158
  37        2S         -0.76506   0.62948  -0.84195   0.04589   0.00655
  38        3S         -0.28182  -0.25382   0.56372  -0.01732  -0.02249
                          21        22        23        24        25
                           V         V         V         V         V
     Eigenvalues --     0.66529   0.69058   0.77317   0.77429   0.84261
   1 1   C  1S          0.00079   0.00050   0.07112   0.05287   0.00095
   2        2S          0.00164   0.00115   0.15062   0.11304   0.00215
   3        2PX        -0.14508  -0.18903   0.01154   0.11620  -0.01031
   4        2PY         0.08514   0.11367   0.01586   0.18970   0.01323
   5        2PZ        -0.00005  -0.00013   0.00208   0.00422   0.00016
   6        3S         -0.01373  -0.01608  -1.10963  -1.04446  -0.02097
   7        3PX        -0.65512  -0.65096  -0.02556   0.47501  -0.23847
   8        3PY         0.38067   0.39140  -0.06316   0.76989   0.16641
   9        3PZ        -0.00029  -0.00054   0.00751   0.01459   0.00070
  10        4S          0.03128   0.08075   1.46570   2.09609  -0.06023
  11        4PX         1.08510   0.71761  -0.08667  -0.74512   4.54254
  12        4PY        -0.63065  -0.42985  -0.10898  -1.00942  -2.62175
  13        4PZ         0.00001  -0.00116  -0.00869  -0.05357   0.00194
  14 2   H  1S          0.02781   0.05731   0.02000   0.02829  -0.02700
  15        2S          0.18809   0.61677   0.09455   0.05118  -1.58871
  16        3S         -1.09171  -1.02694  -0.43086  -1.00382  -1.22705
  17 3   H  1S         -0.02723  -0.05684   0.02019   0.02921   0.03016
  18        2S         -0.20537  -0.65223   0.10423   0.02200   1.62893
  19        3S          1.08092   0.99693  -0.46820  -1.13928   1.23244
  20 4   C  1S          0.00108   0.00056   0.09013   0.00350   0.00083
  21        2S          0.00217   0.00107   0.19158   0.00660   0.00173
  22        2PX        -0.13902   0.19449  -0.07562   0.08084   0.00824
  23        2PY         0.07983  -0.10840  -0.13493   0.14707   0.00126
  24        2PZ         0.00002   0.00014   0.00445  -0.00260  -0.00017
  25        3S         -0.01460  -0.00113  -1.54220   0.10963  -0.01088
  26        3PX        -0.64424   0.67123  -0.24814   0.37866   0.22269
  27        3PY         0.37227  -0.37175  -0.44628   0.68741  -0.09761
  28        3PZ        -0.00002   0.00050   0.01561  -0.00956  -0.00062
  29        4S          0.00519  -0.05089   2.57848  -0.74536   0.03940
  30        4PX         1.28104  -0.83465   0.42640  -0.41376  -4.13774
  31        4PY        -0.73130   0.46873   0.75637  -0.95845   2.33469
  32        4PZ         0.00019   0.00083  -0.04034   0.04004  -0.00100
  33 5   H  1S         -0.02117   0.05673   0.03356  -0.00773  -0.02273
  34        2S         -0.09119   0.56968   0.10384   0.04488  -1.39738
  35        3S          1.06356  -1.06419  -1.01121   0.64972  -1.08989
  36 6   H  1S          0.02183  -0.05636   0.03351  -0.00683   0.02298
  37        2S          0.08934  -0.53712   0.08735  -0.00155   1.38516
  38        3S         -1.06667   1.07495  -0.97761   0.56491   1.09760
                          26        27        28        29        30
                           V         V         V         V         V
     Eigenvalues --     0.95160   2.23141   2.29180   2.33158   2.40569
   1 1   C  1S          0.09606  -0.00921  -0.01423   0.00037   0.00046
   2        2S          0.19968   0.00309  -0.01333   0.00088   0.00047
   3        2PX        -0.09114  -0.07083  -0.13403   0.35943   0.39857
   4        2PY        -0.15797  -0.13241  -0.23102  -0.20573  -0.22807
   5        2PZ         0.00026  -0.01277  -0.01842  -0.00013   0.00055
   6        3S         -1.54932  -0.18995  -0.04554  -0.00191   0.00494
   7        3PX        -0.23238   0.06449   0.21108  -0.43637  -0.55811
   8        3PY        -0.39489   0.13504   0.37907   0.25247   0.32201
   9        3PZ        -0.00221   0.01288   0.02298   0.00027  -0.00061
  10        4S          5.71464  -0.07401  -0.86970   0.00071   0.02916
  11        4PX         1.20317   0.05637  -0.19424  -0.08638  -0.97716
  12        4PY         1.99531   0.06878  -0.36405   0.03989   0.54763
  13        4PZ        -0.01946   0.00211   0.00779  -0.00031  -0.00111
  14 2   H  1S          0.01567  -0.68604  -0.81472  -0.72754  -0.62923
  15        2S         -0.28758   0.96823   1.21430   1.13995   1.42583
  16        3S         -0.09511  -0.29573  -0.48918  -0.47862  -0.35352
  17 3   H  1S          0.01581  -0.67908  -0.81615   0.71400   0.65059
  18        2S         -0.25799   0.96144   1.22030  -1.12493  -1.47091
  19        3S         -0.08036  -0.27338  -0.47522   0.46399   0.34612
  20 4   C  1S         -0.09371  -0.01105   0.01224   0.00042  -0.00029
  21        2S         -0.19432  -0.00108   0.01274   0.00059  -0.00047
  22        2PX        -0.09241   0.14159  -0.11930   0.29051  -0.42307
  23        2PY        -0.15924   0.24672  -0.19910  -0.16855   0.24121
  24        2PZ         0.00038  -0.01486   0.01685   0.00019  -0.00014
  25        3S          1.50145  -0.16440   0.01314   0.00011   0.00003
  26        3PX        -0.22656  -0.18119   0.20611  -0.35862   0.59256
  27        3PY        -0.39574  -0.31138   0.33853   0.20586  -0.33723
  28        3PZ         0.00375   0.01595  -0.02158  -0.00018   0.00019
  29        4S         -5.69409  -0.20078   0.89317   0.01551  -0.01295
  30        4PX         1.10446  -0.01453  -0.19277   0.13872   0.84909
  31        4PY         1.97689  -0.03146  -0.31206  -0.07997  -0.49162
  32        4PZ         0.01141   0.00530  -0.00609  -0.00012   0.00083
  33 5   H  1S         -0.01780  -0.80727   0.64963   0.68575  -0.71004
  34        2S          0.29282   1.17782  -0.99623  -0.98004   1.48837
  35        3S          0.06309  -0.36237   0.38607   0.50004  -0.44428
  36 6   H  1S         -0.01775  -0.80034   0.67458  -0.67081   0.70710
  37        2S          0.31469   1.16620  -1.02935   0.95504  -1.47730
  38        3S          0.06932  -0.36272   0.41346  -0.49495   0.44994
                          31        32        33        34        35
                           V         V         V         V         V
     Eigenvalues --     2.67100   2.81754   2.87700   2.95210   3.14066
   1 1   C  1S          0.00049  -0.00256  -0.01363   0.00005  -0.00976
   2        2S          0.00038  -0.00728  -0.04407  -0.00017  -0.03019
   3        2PX         0.00457  -0.07339  -0.48116  -0.72118   0.43513
   4        2PY         0.00752  -0.12921  -0.86716   0.40024   0.76572
   5        2PZ        -0.92620   0.92808  -0.13815  -0.00113   0.00530
   6        3S         -0.00152   0.05982   0.38332   0.00356   0.25460
   7        3PX        -0.00325   0.12635   0.84278   0.86561  -0.40732
   8        3PY        -0.00548   0.22041   1.49174  -0.46656  -0.71743
   9        3PZ         0.94194  -1.13487   0.17310   0.00158  -0.00681
  10        4S          0.01284  -0.14054  -0.87597  -0.01233  -0.50333
  11        4PX        -0.00211  -0.10079  -0.71085  -0.67118   0.19306
  12        4PY        -0.00255  -0.17636  -1.26293   0.35284   0.34170
  13        4PZ        -0.33944   0.61463  -0.10918  -0.00128   0.00365
  14 2   H  1S          0.01210   0.01882   0.25788  -0.37213  -0.20819
  15        2S         -0.01374  -0.01119  -0.21331   0.39207   0.15894
  16        3S         -0.00272  -0.04060  -0.29554   0.26860   0.04720
  17 3   H  1S          0.01222   0.01792   0.24516   0.37512  -0.20520
  18        2S         -0.01408  -0.00926  -0.19089  -0.39023   0.15504
  19        3S         -0.00332  -0.04145  -0.29870  -0.28770   0.05187
  20 4   C  1S          0.00050   0.00243   0.01337   0.00056  -0.00720
  21        2S          0.00048   0.00764   0.04781   0.00136  -0.02207
  22        2PX        -0.00771  -0.06343  -0.39280  -0.81469  -0.51262
  23        2PY        -0.01339  -0.11297  -0.70605   0.45237  -0.90860
  24        2PZ        -0.92318  -0.93036   0.14225   0.00091   0.01426
  25        3S         -0.00274  -0.06589  -0.43185  -0.01071   0.18811
  26        3PX         0.00799   0.11648   0.75261   0.97536   0.55893
  27        3PY         0.01365   0.20595   1.33826  -0.53239   0.99892
  28        3PZ         0.93827   1.13679  -0.17930  -0.00112  -0.01810
  29        4S          0.01506   0.14181   0.89399   0.02971  -0.35448
  30        4PX        -0.00085  -0.09993  -0.70184  -0.70149  -0.34886
  31        4PY        -0.00188  -0.17526  -1.23159   0.37470  -0.62930
  32        4PZ        -0.33749  -0.61471   0.11431   0.00077   0.01436
  33 5   H  1S          0.01109  -0.02780  -0.29433   0.42056  -0.27274
  34        2S         -0.01371   0.02290   0.26977  -0.42623   0.21520
  35        3S         -0.00139   0.03823   0.28282  -0.24681   0.13678
  36 6   H  1S          0.01126  -0.02826  -0.29232  -0.43100  -0.26181
  37        2S         -0.01429   0.02413   0.27441   0.43630   0.20602
  38        3S         -0.00103   0.03606   0.26586   0.24924   0.13015
                          36        37        38
                           V         V         V
     Eigenvalues --     3.31869  23.35174  23.70528
   1 1   C  1S         -0.00051  -1.41889  -1.44750
   2        2S         -0.00078   1.51327   1.56535
   3        2PX         0.79331  -0.00636   0.01215
   4        2PY        -0.44320  -0.01028   0.02145
   5        2PZ         0.00068  -0.00053  -0.00025
   6        3S          0.00148  -0.29760  -0.39855
   7        3PX        -1.12949   0.02326  -0.05570
   8        3PY         0.62856   0.03831  -0.09721
   9        3PZ        -0.00107   0.00148   0.00077
  10        4S         -0.02087   0.27883   0.76676
  11        4PX         1.97646  -0.02406   0.13332
  12        4PY        -1.10604  -0.04027   0.23081
  13        4PZ         0.00171  -0.00254  -0.00311
  14 2   H  1S          0.56445   0.01217   0.00647
  15        2S         -0.88085   0.00803  -0.01404
  16        3S         -0.45858  -0.08358  -0.03891
  17 3   H  1S         -0.57743   0.01406   0.00791
  18        2S          0.89884   0.00753  -0.01454
  19        3S          0.48338  -0.08585  -0.03958
  20 4   C  1S          0.00014  -1.44270   1.42361
  21        2S         -0.00007   1.53862  -1.53948
  22        2PX        -0.70322   0.00625   0.01264
  23        2PY         0.39939   0.01124   0.02142
  24        2PZ        -0.00040  -0.00055   0.00012
  25        3S          0.00336  -0.30133   0.39125
  26        3PX         1.00256  -0.02302  -0.05646
  27        3PY        -0.57765  -0.04097  -0.09674
  28        3PZ         0.00065   0.00159  -0.00029
  29        4S         -0.00700   0.27418  -0.76142
  30        4PX        -1.76612   0.02498   0.13112
  31        4PY         1.02380   0.04577   0.22573
  32        4PZ        -0.00111  -0.00254   0.00206
  33 5   H  1S          0.47846   0.01382  -0.00503
  34        2S         -0.74451   0.00795   0.01413
  35        3S         -0.43003  -0.08324   0.03799
  36 6   H  1S         -0.47468   0.01253  -0.00388
  37        2S          0.74042   0.00916   0.01343
  38        3S          0.42199  -0.08163   0.03699
     Density Matrix:
                           1         2         3         4         5
   1 1   C  1S          0.65939
   2        2S          0.56146   0.49191
   3        2PX        -0.00051  -0.00067   0.08391
   4        2PY        -0.00129  -0.00179   0.00385   0.08746
   5        2PZ         0.00008   0.00012  -0.00013  -0.00029   0.06449
   6        3S         -0.08883  -0.15366   0.00262   0.00639  -0.00016
   7        3PX         0.00087   0.00134   0.13011   0.00130  -0.00011
   8        3PY         0.00115   0.00176   0.00131   0.13081  -0.00026
   9        3PZ         0.00016   0.00028  -0.00023  -0.00045   0.10363
  10        4S         -0.07959  -0.11468  -0.01622  -0.02919   0.00059
  11        4PX         0.00024   0.00157   0.06997  -0.00453  -0.00058
  12        4PY         0.00064   0.00310  -0.00452   0.06530  -0.00103
  13        4PZ        -0.00012  -0.00027  -0.00081  -0.00138   0.09589
  14 2   H  1S         -0.02046  -0.03260   0.03456  -0.06253  -0.00119
  15        2S         -0.02303  -0.03684   0.04852  -0.08778  -0.00094
  16        3S          0.00049  -0.00083   0.02023  -0.03323  -0.00005
  17 3   H  1S         -0.02099  -0.03341  -0.07230  -0.00188  -0.00127
  18        2S         -0.02336  -0.03732  -0.10028  -0.00250  -0.00101
  19        3S          0.00053  -0.00079  -0.03825   0.00075  -0.00007
  20 4   C  1S          0.00606   0.00976  -0.01092  -0.01887  -0.00039
  21        2S          0.00972   0.01520  -0.01748  -0.03021  -0.00064
  22        2PX         0.01029   0.01645  -0.01249  -0.03210   0.00050
  23        2PY         0.01796   0.02871  -0.03221  -0.04971   0.00090
  24        2PZ        -0.00049  -0.00080  -0.00035  -0.00056   0.06431
  25        3S         -0.02611  -0.03965   0.04905   0.08482   0.00195
  26        3PX         0.01585   0.02453  -0.01837  -0.04594   0.00064
  27        3PY         0.02762   0.04279  -0.04598  -0.07145   0.00119
  28        3PZ        -0.00083  -0.00134  -0.00061  -0.00100   0.10298
  29        4S          0.00551   0.00416   0.02174   0.03794   0.00243
  30        4PX         0.00303   0.00629  -0.01316  -0.02122   0.00070
  31        4PY         0.00514   0.01074  -0.02127  -0.03783   0.00131
  32        4PZ        -0.00070  -0.00114  -0.00100  -0.00167   0.09612
  33 5   H  1S          0.00419   0.00688  -0.00173  -0.01240  -0.00046
  34        2S          0.00623   0.01035   0.00351  -0.02490   0.00001
  35        3S          0.00315   0.00460   0.00424  -0.01741   0.00010
  36 6   H  1S          0.00414   0.00679  -0.00993  -0.00773  -0.00047
  37        2S          0.00610   0.01015  -0.02338  -0.00939  -0.00000
  38        3S          0.00309   0.00451  -0.01719  -0.00504   0.00009
                           6         7         8         9        10
   6        3S          0.45208
   7        3PX        -0.00174   0.20207
   8        3PY        -0.00119  -0.00484   0.19617
   9        3PZ        -0.00054  -0.00019  -0.00040   0.16651
  10        4S          0.27442  -0.02711  -0.04963   0.00077   0.18483
  11        4PX        -0.00685   0.10903  -0.01045  -0.00094  -0.01558
  12        4PY        -0.01275  -0.01043   0.09837  -0.00165  -0.03009
  13        4PZ         0.00119  -0.00108  -0.00183   0.15408   0.00217
  14 2   H  1S          0.08716   0.05603  -0.09772  -0.00199   0.06996
  15        2S          0.09857   0.07903  -0.13670  -0.00159   0.08358
  16        3S          0.00630   0.03329  -0.05115  -0.00009   0.01190
  17 3   H  1S          0.08942  -0.11339  -0.00105  -0.00209   0.06976
  18        2S          0.10000  -0.15708  -0.00064  -0.00167   0.08191
  19        3S          0.00639  -0.05968   0.00314  -0.00010   0.01077
  20 4   C  1S         -0.02650  -0.01706  -0.02951  -0.00067   0.00517
  21        2S         -0.04008  -0.02653  -0.04591  -0.00109   0.00396
  22        2PX        -0.04604  -0.01776  -0.04540   0.00085  -0.01678
  23        2PY        -0.08041  -0.04561  -0.07074   0.00154  -0.02936
  24        2PZ         0.00237  -0.00047  -0.00074   0.10334   0.00244
  25        3S          0.10181   0.07209   0.12490   0.00327   0.00043
  26        3PX        -0.06636  -0.02627  -0.06478   0.00111  -0.02479
  27        3PY        -0.11584  -0.06495  -0.10163   0.00204  -0.04332
  28        3PZ         0.00393  -0.00084  -0.00134   0.16547   0.00405
  29        4S          0.00156   0.03293   0.05771   0.00404  -0.03292
  30        4PX        -0.02232  -0.01965  -0.02967   0.00115  -0.00578
  31        4PY        -0.03838  -0.02982  -0.05454   0.00216  -0.00939
  32        4PZ         0.00333  -0.00139  -0.00231   0.15444   0.00378
  33 5   H  1S         -0.02047  -0.00056  -0.01774  -0.00067  -0.01427
  34        2S         -0.03097   0.00877  -0.03660   0.00010  -0.01832
  35        3S         -0.01183   0.00819  -0.02622   0.00018  -0.00302
  36 6   H  1S         -0.02014  -0.01498  -0.00918  -0.00068  -0.01436
  37        2S         -0.03034  -0.03588  -0.01030   0.00009  -0.01875
  38        3S         -0.01155  -0.02663  -0.00585   0.00016  -0.00339
                          11        12        13        14        15
  11        4PX         0.05992
  12        4PY        -0.00919   0.05088
  13        4PZ        -0.00134  -0.00230   0.14259
  14 2   H  1S          0.03350  -0.05387  -0.00104   0.08053
  15        2S          0.04814  -0.07515  -0.00044   0.10918   0.15002
  16        3S          0.02078  -0.02791   0.00018   0.03661   0.05251
  17 3   H  1S         -0.06281   0.00189  -0.00107  -0.01333  -0.02447
  18        2S         -0.08738   0.00403  -0.00045  -0.02436  -0.04183
  19        3S         -0.03348   0.00417   0.00019  -0.01764  -0.02664
  20 4   C  1S         -0.00325  -0.00587  -0.00061   0.00422   0.00682
  21        2S         -0.00667  -0.01194  -0.00097   0.00699   0.01139
  22        2PX        -0.01340  -0.01969   0.00113   0.00179  -0.00260
  23        2PY        -0.01979  -0.03657   0.00203   0.01134   0.02429
  24        2PZ        -0.00073  -0.00122   0.09563  -0.00057  -0.00021
  25        3S          0.02351   0.04184   0.00285  -0.02106  -0.03428
  26        3PX        -0.02061  -0.02796   0.00155   0.00113  -0.00682
  27        3PY        -0.02807  -0.05340   0.00279   0.01699   0.03649
  28        3PZ        -0.00120  -0.00202   0.15313  -0.00084  -0.00024
  29        4S          0.00886   0.01669   0.00367  -0.01840  -0.02559
  30        4PX        -0.01501  -0.01235   0.00139  -0.00154  -0.00814
  31        4PY        -0.01241  -0.02973   0.00254   0.01546   0.02767
  32        4PZ        -0.00146  -0.00249   0.14294  -0.00048   0.00022
  33 5   H  1S          0.00227  -0.01572  -0.00033   0.01118   0.02331
  34        2S          0.00962  -0.02734   0.00048   0.02370   0.04434
  35        3S          0.00772  -0.01576   0.00033   0.01660   0.02787
  36 6   H  1S         -0.01471  -0.00556  -0.00033  -0.00907  -0.01815
  37        2S         -0.02838  -0.00476   0.00049  -0.01878  -0.03421
  38        3S         -0.01731  -0.00096   0.00032  -0.01017  -0.01771
                          16        17        18        19        20
  16        3S          0.02102
  17 3   H  1S         -0.01788   0.08186
  18        2S         -0.02682   0.10957   0.14869
  19        3S         -0.01253   0.03601   0.05107   0.02015
  20 4   C  1S          0.00380   0.00430   0.00687   0.00380   0.65948
  21        2S          0.00561   0.00711   0.01147   0.00561   0.56161
  22        2PX        -0.00338   0.00894   0.02221   0.01679   0.00118
  23        2PY         0.01787   0.00731   0.00982   0.00587   0.00182
  24        2PZ         0.00001  -0.00057  -0.00017   0.00004   0.00008
  25        3S         -0.01460  -0.02138  -0.03442  -0.01450  -0.08935
  26        3PX        -0.00674   0.01425   0.03496   0.02618  -0.00049
  27        3PY         0.02691   0.00961   0.01230   0.00748  -0.00107
  28        3PZ         0.00004  -0.00084  -0.00018   0.00009   0.00018
  29        4S         -0.00642  -0.01822  -0.02489  -0.00596  -0.08007
  30        4PX        -0.00687   0.01401   0.02768   0.01718  -0.00018
  31        4PY         0.01627   0.00661   0.00692   0.00217  -0.00017
  32        4PZ         0.00025  -0.00048   0.00026   0.00028  -0.00004
  33 5   H  1S          0.01629  -0.00908  -0.01811  -0.00936  -0.02017
  34        2S          0.02748  -0.01868  -0.03385  -0.01681  -0.02206
  35        3S          0.01468  -0.01009  -0.01747  -0.00890   0.00065
  36 6   H  1S         -0.00947   0.01118   0.02313   0.01591  -0.01992
  37        2S         -0.01718   0.02376   0.04411   0.02696  -0.02205
  38        3S         -0.00912   0.01663   0.02770   0.01442   0.00055
                          21        22        23        24        25
  21        2S          0.49213
  22        2PX         0.00170   0.08293
  23        2PY         0.00260   0.00355   0.08775
  24        2PZ         0.00012   0.00013   0.00018   0.06417
  25        3S         -0.15442  -0.00544  -0.00847  -0.00016   0.45422
  26        3PX        -0.00073   0.12887   0.00184   0.00006  -0.00023
  27        3PY        -0.00161   0.00191   0.13163   0.00006   0.00070
  28        3PZ         0.00030   0.00019   0.00030   0.10275  -0.00060
  29        4S         -0.11569   0.01309   0.02200   0.00064   0.27829
  30        4PX        -0.00142   0.07367  -0.00519   0.00045   0.00605
  31        4PY        -0.00216  -0.00514   0.06754   0.00081   0.00957
  32        4PZ        -0.00013   0.00079   0.00140   0.09589   0.00077
  33 5   H  1S         -0.03212  -0.03362   0.06389  -0.00126   0.08589
  34        2S         -0.03524  -0.05008   0.08849  -0.00097   0.09430
  35        3S         -0.00052  -0.02294   0.03341  -0.00008   0.00544
  36 6   H  1S         -0.03175   0.07145   0.00287  -0.00120   0.08490
  37        2S         -0.03525   0.10135   0.00079  -0.00089   0.09427
  38        3S         -0.00067   0.04057  -0.00332  -0.00005   0.00571
                          26        27        28        29        30
  26        3PX         0.20056
  27        3PY        -0.00232   0.19801
  28        3PZ         0.00008   0.00009   0.16453
  29        4S          0.02435   0.04073   0.00080   0.18541
  30        4PX         0.11509  -0.01059   0.00070   0.01503   0.06712
  31        4PY        -0.01060   0.10213   0.00130   0.02394  -0.01046
  32        4PZ         0.00101   0.00180   0.15354   0.00196   0.00115
  33 5   H  1S         -0.05354   0.10005  -0.00208   0.06640  -0.03472
  34        2S         -0.08021   0.13805  -0.00162   0.07589  -0.05241
  35        3S         -0.03718   0.05146  -0.00013   0.00872  -0.02443
  36 6   H  1S          0.11274   0.00391  -0.00200   0.06686   0.06617
  37        2S          0.15972  -0.00024  -0.00151   0.07755   0.09423
  38        3S          0.06362  -0.00655  -0.00010   0.00965   0.03789
                          31        32        33        34        35
  31        4PY         0.05424
  32        4PZ         0.00211   0.14332
  33 5   H  1S          0.05614  -0.00108   0.08126
  34        2S          0.07765  -0.00042   0.11019   0.15191
  35        3S          0.02914   0.00017   0.03811   0.05514   0.02285
  36 6   H  1S         -0.00183  -0.00105  -0.01235  -0.02614  -0.02013
  37        2S         -0.00638  -0.00037  -0.02626  -0.04872  -0.03192
  38        3S         -0.00655   0.00018  -0.02036  -0.03207  -0.01582
                          36        37        38
  36 6   H  1S          0.08038
  37        2S          0.10979   0.15240
  38        3S          0.03827   0.05568   0.02316
    Full Mulliken population analysis:
                           1         2         3         4         5
   1 1   C  1S          0.65939
   2        2S          0.49321   0.49191
   3        2PX         0.00000   0.00000   0.08391
   4        2PY         0.00000   0.00000   0.00000   0.08746
   5        2PZ         0.00000   0.00000   0.00000   0.00000   0.06449
   6        3S         -0.02924  -0.06435   0.00000   0.00000   0.00000
   7        3PX         0.00000   0.00000   0.08185   0.00000   0.00000
   8        3PY         0.00000   0.00000   0.00000   0.08230   0.00000
   9        3PZ         0.00000   0.00000   0.00000   0.00000   0.06519
  10        4S         -0.01224  -0.02146   0.00000   0.00000   0.00000
  11        4PX         0.00000   0.00000   0.01541   0.00000   0.00000
  12        4PY         0.00000   0.00000   0.00000   0.01438   0.00000
  13        4PZ         0.00000   0.00000   0.00000   0.00000   0.02112
  14 2   H  1S         -0.00022  -0.00031   0.00178   0.00537   0.00000
  15        2S         -0.00165  -0.00316   0.00431   0.01300   0.00000
  16        3S          0.00004  -0.00008   0.00070   0.00190   0.00000
  17 3   H  1S         -0.00025  -0.00035   0.00768  -0.00000   0.00000
  18        2S         -0.00173  -0.00331   0.01759  -0.00000   0.00001
  19        3S          0.00004  -0.00007   0.00255   0.00000   0.00000
  20 4   C  1S          0.00000   0.00000  -0.00002  -0.00006   0.00000
  21        2S          0.00000  -0.00000  -0.00002  -0.00005   0.00000
  22        2PX        -0.00002  -0.00002   0.00011   0.00085   0.00000
  23        2PY        -0.00006  -0.00005   0.00085   0.00196   0.00000
  24        2PZ        -0.00000  -0.00000  -0.00000  -0.00000   0.00041
  25        3S         -0.00058  -0.00099   0.00256   0.00765  -0.00000
  26        3PX        -0.00054  -0.00098   0.00019   0.00555   0.00000
  27        3PY        -0.00161  -0.00296   0.00556   0.01071   0.00000
  28        3PZ        -0.00000  -0.00000  -0.00000  -0.00000   0.00610
  29        4S          0.00035   0.00031   0.00099   0.00298  -0.00000
  30        4PX        -0.00018  -0.00045  -0.00071   0.00147   0.00000
  31        4PY        -0.00052  -0.00132   0.00147   0.00098   0.00000
  32        4PZ        -0.00000  -0.00000  -0.00000  -0.00000   0.00904
  33 5   H  1S          0.00000   0.00000  -0.00000  -0.00000   0.00000
  34        2S          0.00001   0.00002   0.00000  -0.00031  -0.00000
  35        3S          0.00007   0.00013   0.00001  -0.00070  -0.00000
  36 6   H  1S          0.00000   0.00000  -0.00000  -0.00000   0.00000
  37        2S          0.00001   0.00002  -0.00023  -0.00007   0.00000
  38        3S          0.00007   0.00012  -0.00056  -0.00011  -0.00000
                           6         7         8         9        10
   6        3S          0.45208
   7        3PX         0.00000   0.20207
   8        3PY         0.00000   0.00000   0.19617
   9        3PZ         0.00000   0.00000   0.00000   0.16651
  10        4S          0.21260   0.00000   0.00000   0.00000   0.18483
  11        4PX         0.00000   0.07125   0.00000   0.00000   0.00000
  12        4PY         0.00000   0.00000   0.06428   0.00000   0.00000
  13        4PZ         0.00000   0.00000   0.00000   0.10068   0.00000
  14 2   H  1S          0.01571   0.01084   0.03152   0.00002   0.01837
  15        2S          0.04105   0.01977   0.05699   0.00002   0.04792
  16        3S          0.00289   0.00399   0.01022   0.00000   0.00895
  17 3   H  1S          0.01671   0.04369  -0.00000   0.00002   0.01857
  18        2S          0.04249   0.07699  -0.00000   0.00002   0.04745
  19        3S          0.00296   0.01386   0.00001   0.00000   0.00815
  20 4   C  1S         -0.00059  -0.00058  -0.00173   0.00000   0.00033
  21        2S         -0.00100  -0.00106  -0.00318   0.00000   0.00030
  22        2PX         0.00240   0.00019   0.00549   0.00000   0.00076
  23        2PY         0.00725   0.00551   0.01060   0.00000   0.00231
  24        2PZ         0.00000  -0.00000  -0.00000   0.00612   0.00000
  25        3S          0.02168   0.01351   0.04050  -0.00000   0.00016
  26        3PX         0.01243  -0.00126   0.01848   0.00000   0.00382
  27        3PY         0.03757   0.01853   0.02855   0.00000   0.01156
  28        3PZ         0.00000  -0.00000  -0.00000   0.03523   0.00000
  29        4S          0.00059   0.00508   0.01540  -0.00000  -0.02067
  30        4PX         0.00627  -0.00403   0.00588   0.00000   0.00175
  31        4PY         0.01866   0.00591   0.00128   0.00000   0.00492
  32        4PZ         0.00000  -0.00000  -0.00000   0.04932   0.00000
  33 5   H  1S         -0.00005  -0.00000  -0.00019   0.00000  -0.00076
  34        2S         -0.00119   0.00007  -0.00320  -0.00000  -0.00307
  35        3S         -0.00193   0.00011  -0.00422  -0.00000  -0.00109
  36 6   H  1S         -0.00005  -0.00012  -0.00005   0.00000  -0.00075
  37        2S         -0.00113  -0.00252  -0.00050  -0.00000  -0.00309
  38        3S         -0.00185  -0.00349  -0.00054  -0.00000  -0.00121
                          11        12        13        14        15
  11        4PX         0.05992
  12        4PY         0.00000   0.05088
  13        4PZ         0.00000   0.00000   0.14259
  14 2   H  1S          0.00645   0.01727   0.00001   0.08053
  15        2S          0.01562   0.04063   0.00001   0.07712   0.15002
  16        3S          0.00530   0.01185  -0.00000   0.01368   0.04142
  17 3   H  1S          0.02352   0.00001   0.00001  -0.00000  -0.00059
  18        2S          0.05500   0.00002   0.00001  -0.00059  -0.00497
  19        3S          0.01648   0.00002  -0.00000  -0.00191  -0.00757
  20 4   C  1S         -0.00019  -0.00059   0.00000   0.00000   0.00002
  21        2S         -0.00047  -0.00147   0.00000   0.00000   0.00003
  22        2PX        -0.00072   0.00136   0.00000  -0.00000   0.00000
  23        2PY         0.00137   0.00095   0.00000  -0.00000  -0.00036
  24        2PZ        -0.00000  -0.00000   0.00899   0.00000   0.00000
  25        3S          0.00661   0.02035  -0.00000  -0.00007  -0.00152
  26        3PX        -0.00422   0.00554   0.00000  -0.00000   0.00003
  27        3PY         0.00556   0.00125   0.00000  -0.00023  -0.00360
  28        3PZ        -0.00000  -0.00000   0.04890   0.00000   0.00000
  29        4S          0.00268   0.00875  -0.00000  -0.00108  -0.00461
  30        4PX        -0.00722   0.00313   0.00000   0.00001   0.00015
  31        4PY         0.00314  -0.00563   0.00000  -0.00246  -0.01045
  32        4PZ        -0.00000  -0.00000   0.08972   0.00000  -0.00000
  33 5   H  1S          0.00003  -0.00232   0.00000   0.00000   0.00000
  34        2S          0.00030  -0.00980  -0.00000   0.00000   0.00016
  35        3S          0.00031  -0.00727  -0.00000   0.00023   0.00146
  36 6   H  1S         -0.00176  -0.00046   0.00000  -0.00000  -0.00004
  37        2S         -0.00827  -0.00097  -0.00000  -0.00004  -0.00091
  38        3S         -0.00654  -0.00025  -0.00000  -0.00046  -0.00246
                          16        17        18        19        20
  16        3S          0.02102
  17 3   H  1S         -0.00193   0.08186
  18        2S         -0.00762   0.07740   0.14869
  19        3S         -0.00640   0.01345   0.04029   0.02015
  20 4   C  1S          0.00009   0.00000   0.00002   0.00010   0.65948
  21        2S          0.00017   0.00000   0.00003   0.00017   0.49334
  22        2PX         0.00001  -0.00000  -0.00028  -0.00059   0.00000
  23        2PY        -0.00075  -0.00000  -0.00008  -0.00014   0.00000
  24        2PZ        -0.00000   0.00000   0.00000  -0.00000   0.00000
  25        3S         -0.00252  -0.00007  -0.00155  -0.00253  -0.02941
  26        3PX         0.00005  -0.00016  -0.00293  -0.00370   0.00000
  27        3PY        -0.00451  -0.00007  -0.00067  -0.00069   0.00000
  28        3PZ        -0.00000   0.00000   0.00000  -0.00000   0.00000
  29        4S         -0.00241  -0.00108  -0.00452  -0.00225  -0.01231
  30        4PX         0.00016  -0.00188  -0.00881  -0.00681   0.00000
  31        4PY        -0.00768  -0.00058  -0.00144  -0.00056   0.00000
  32        4PZ        -0.00000   0.00000  -0.00000  -0.00000   0.00000
  33 5   H  1S          0.00023  -0.00000  -0.00004  -0.00043  -0.00022
  34        2S          0.00144  -0.00004  -0.00092  -0.00236  -0.00159
  35        3S          0.00247  -0.00046  -0.00245  -0.00286   0.00005
  36 6   H  1S         -0.00043   0.00000   0.00000   0.00022  -0.00021
  37        2S         -0.00238   0.00000   0.00015   0.00141  -0.00156
  38        3S         -0.00291   0.00023   0.00145   0.00242   0.00004
                          21        22        23        24        25
  21        2S          0.49213
  22        2PX         0.00000   0.08293
  23        2PY         0.00000   0.00000   0.08775
  24        2PZ         0.00000   0.00000   0.00000   0.06417
  25        3S         -0.06467   0.00000   0.00000   0.00000   0.45422
  26        3PX         0.00000   0.08107   0.00000   0.00000   0.00000
  27        3PY         0.00000   0.00000   0.08281   0.00000   0.00000
  28        3PZ         0.00000   0.00000   0.00000   0.06464   0.00000
  29        4S         -0.02165   0.00000   0.00000   0.00000   0.21559
  30        4PX         0.00000   0.01622   0.00000   0.00000   0.00000
  31        4PY         0.00000   0.00000   0.01487   0.00000   0.00000
  32        4PZ         0.00000   0.00000   0.00000   0.02112   0.00000
  33 5   H  1S         -0.00031   0.00150   0.00582   0.00000   0.01561
  34        2S         -0.00305   0.00383   0.01376   0.00000   0.03945
  35        3S         -0.00005   0.00068   0.00200   0.00000   0.00250
  36 6   H  1S         -0.00029   0.00697   0.00002   0.00000   0.01507
  37        2S         -0.00299   0.01734   0.00001   0.00000   0.03893
  38        3S         -0.00006   0.00270  -0.00002   0.00000   0.00261
                          26        27        28        29        30
  26        3PX         0.20056
  27        3PY         0.00000   0.19801
  28        3PZ         0.00000   0.00000   0.16453
  29        4S          0.00000   0.00000   0.00000   0.18541
  30        4PX         0.07521   0.00000   0.00000   0.00000   0.06712
  31        4PY         0.00000   0.06674   0.00000   0.00000   0.00000
  32        4PZ         0.00000   0.00000   0.10034   0.00000   0.00000
  33 5   H  1S          0.00893   0.03396   0.00002   0.01749   0.00573
  34        2S          0.01723   0.06035   0.00002   0.04361   0.01457
  35        3S          0.00382   0.01076   0.00000   0.00657   0.00533
  36 6   H  1S          0.04186   0.00010   0.00002   0.01746   0.02466
  37        2S          0.07718  -0.00001   0.00002   0.04426   0.05929
  38        3S          0.01481  -0.00011   0.00000   0.00724   0.01876
                          31        32        33        34        35
  31        4PY         0.05424
  32        4PZ         0.00000   0.14332
  33 5   H  1S          0.01885   0.00001   0.08126
  34        2S          0.04393   0.00001   0.07783   0.15191
  35        3S          0.01293  -0.00000   0.01424   0.04351   0.02285
  36 6   H  1S         -0.00005   0.00001  -0.00001  -0.00084  -0.00241
  37        2S         -0.00029   0.00001  -0.00084  -0.00691  -0.00988
  38        3S         -0.00023  -0.00000  -0.00244  -0.00992  -0.00855
                          36        37        38
  36 6   H  1S          0.08038
  37        2S          0.07755   0.15240
  38        3S          0.01430   0.04393   0.02316
     Gross orbital populations:
                           1
   1 1   C  1S          1.10437
   2        2S          0.88585
   3        2PX         0.22598
   4        2PY         0.23526
   5        2PZ         0.16637
   6        3S          0.79195
   7        3PX         0.56017
   8        3PY         0.55406
   9        3PZ         0.42316
  10        4S          0.50843
  11        4PX         0.25953
  12        4PY         0.21190
  13        4PZ         0.41203
  14 2   H  1S          0.27155
  15        2S          0.46784
  16        3S          0.08695
  17 3   H  1S          0.27565
  18        2S          0.46569
  19        3S          0.08342
  20 4   C  1S          1.10440
  21        2S          0.88584
  22        2PX         0.22278
  23        2PY         0.23641
  24        2PZ         0.16547
  25        3S          0.79307
  26        3PX         0.55298
  27        3PY         0.55757
  28        3PZ         0.41984
  29        4S          0.50418
  30        4PX         0.27561
  31        4PY         0.21672
  32        4PZ         0.41288
  33 5   H  1S          0.27389
  34        2S          0.46880
  35        3S          0.08818
  36 6   H  1S          0.27114
  37        2S          0.46992
  38        3S          0.09014
          Condensed to atoms (all electrons):
               1          2          3          4          5          6
     1  C    5.032170   0.387068   0.388131   0.601061  -0.035039  -0.034321
     2  H    0.387068   0.516028  -0.031589  -0.041534   0.005998  -0.009630
     3  H    0.388131  -0.031589   0.512993  -0.041104  -0.009567   0.005894
     4  C    0.601061  -0.041534  -0.041104   5.061704   0.384084   0.383548
     5  H   -0.035039   0.005998  -0.009567   0.384084   0.527191  -0.041800
     6  H   -0.034321  -0.009630   0.005894   0.383548  -0.041800   0.527510
 Mulliken charges:
               1
     1  C   -0.339070
     2  H    0.173659
     3  H    0.175242
     4  C   -0.347760
     5  H    0.169132
     6  H    0.168798
 Sum of Mulliken charges =   0.00000
 Mulliken charges with hydrogens summed into heavy atoms:
               1
     1  C    0.009830
     4  C   -0.009830
 Electronic spatial extent (au):  <R**2>=             83.7608
 Charge=              0.0000 electrons
 Dipole moment (field-independent basis, Debye):
    X=              0.0094    Y=              0.0364    Z=             -0.1050  Tot=              0.1115
 Quadrupole moment (field-independent basis, Debye-Ang):
   XX=            -12.2003   YY=            -12.2334   ZZ=            -15.6785
   XY=             -0.0001   XZ=             -0.0014   YZ=             -0.0033
 Traceless Quadrupole moment (field-independent basis, Debye-Ang):
   XX=              1.1704   YY=              1.1374   ZZ=             -2.3078
   XY=             -0.0001   XZ=             -0.0014   YZ=             -0.0033
 Octapole moment (field-independent basis, Debye-Ang**2):
  XXX=             -0.3967  YYY=              0.0223  ZZZ=             -0.0575  XYY=              0.3057
  XXY=              0.0010  XXZ=             -0.1393  XZZ=             -0.0811  YZZ=             -0.0638
  YYZ=             -0.1833  XYZ=             -0.0386
 Hexadecapole moment (field-independent basis, Debye-Ang**3):
 XXXX=            -34.3240 YYYY=            -55.2841 ZZZZ=            -17.8272 XXXY=             -7.2469
 XXXZ=              0.0246 YYYX=            -10.7127 YYYZ=              0.0311 ZZZX=              0.0292
 ZZZY=              0.0485 XXYY=            -16.2086 XXZZ=             -9.9391 YYZZ=            -13.6576
 XXYZ=              0.0100 YYXZ=             -0.0013 ZZXY=             -3.1991
 N-N= 3.305051096995D+01 E-N=-2.478057763345D+02  KE= 7.814505023001D+01
 Orbital energies and kinetic energies (alpha):
                                 1                 2
   1         O               -10.289900         15.975791
   2         O               -10.289023         15.982801
   3         O                -0.863738          1.537828
   4         O                -0.671897          1.270621
   5         O                -0.559484          0.940504
   6         O                -0.508594          1.283615
   7         O                -0.436308          1.042939
   8         O                -0.356819          1.038427
   9         V                 0.079700          1.182222
  10         V                 0.140596          0.590998
  11         V                 0.164470          0.594603
  12         V                 0.169929          0.681813
  13         V                 0.240715          0.584094
  14         V                 0.369822          0.844095
  15         V                 0.393918          0.935137
  16         V                 0.401110          0.792714
  17         V                 0.464258          1.189946
  18         V                 0.488193          1.419375
  19         V                 0.493776          1.302154
  20         V                 0.590964          1.652409
  21         V                 0.665293          1.572463
  22         V                 0.690582          2.146544
  23         V                 0.773168          2.541637
  24         V                 0.774291          2.199640
  25         V                 0.842614          1.084877
  26         V                 0.951597          3.422069
  27         V                 2.231406          3.929550
  28         V                 2.291796          4.023265
  29         V                 2.331578          4.304935
  30         V                 2.405686          4.511402
  31         V                 2.671002          6.300704
  32         V                 2.817537          6.305361
  33         V                 2.876998          6.140426
  34         V                 2.952099          6.227100
  35         V                 3.140664          6.819356
  36         V                 3.318695          6.404309
  37         V                23.351736         60.074475
  38         V                23.705277         60.203485
 Total kinetic energy from orbitals= 7.814505023001D+01
 Calling FoFJK, ICntrl=      2127 FMM=F ISym2X=0 I1Cent= 0 IOpClX= 0 NMat=1 NMatS=1 NMatT=0.
 -------------------------------------------------------------------
 Center     Atomic                   Forces (Hartrees/Bohr)
 Number     Number              X              Y              Z
 -------------------------------------------------------------------
      1        6           0.013968773    0.008132930   -0.004378182
      2        1          -0.013175000    0.008387432    0.002197324
      3        1           0.005803158   -0.006656932    0.002000913
      4        6           0.008985829    0.009024496   -0.004478618
      5        1          -0.000409601   -0.011772053    0.002262835
      6        1          -0.015173160   -0.007115873    0.002395729
 -------------------------------------------------------------------
 Cartesian Forces:  Max     0.015173160 RMS     0.008245897

 GradGradGradGradGradGradGradGradGradGradGradGradGradGradGradGradGradGrad
 Berny optimization.
 Search for a local minimum.
 Step number   1 out of a maximum of    2
 All quantities printed in internal units (Hartrees-Bohrs-Radians)
 Second derivative matrix not updated -- first step.
 The second derivative matrix:
                          X1        Y1        Z1        X2        Y2
           X1           0.75305
           Y1           0.09531   0.84852
           Z1           0.00584   0.00909   0.16813
           X2          -0.16476   0.09541   0.00220   0.14203
           Y2           0.10061  -0.27504  -0.00782  -0.11426   0.26378
           Z2           0.00350  -0.00985  -0.05392  -0.00321   0.00806
           X3          -0.34713   0.00211  -0.00845   0.00023   0.00015
           Y3          -0.00291  -0.10966  -0.00205   0.03186   0.01906
           Z3          -0.01088  -0.00198  -0.05506   0.00164   0.00064
           X4          -0.26669  -0.17807  -0.00067   0.02252   0.01350
           Y4          -0.17855  -0.47218  -0.00113  -0.01301  -0.00780
           Z4           0.00151   0.00268  -0.09389  -0.00063  -0.00088
           X5           0.02364  -0.01365   0.00067  -0.00001   0.00000
           Y5           0.01160  -0.00670   0.00090   0.00001  -0.00000
           Z5          -0.00054   0.00035   0.01760   0.00027  -0.00014
           X6           0.00190  -0.00110   0.00042  -0.00001   0.00000
           Y6          -0.02605   0.01505   0.00101   0.00000  -0.00000
           Z6           0.00057  -0.00030   0.01714  -0.00027   0.00014
                          Z2        X3        Y3        Z3        X4
           Z2           0.02801
           X3          -0.00029   0.34713
           Y3           0.00176  -0.00239   0.07526
           Z3           0.01044   0.00920   0.00132   0.02889
           X4           0.00053  -0.00021  -0.02657  -0.00051   0.71495
           Y4          -0.00028   0.00012   0.01535   0.00033   0.12291
           Z4           0.01543  -0.00046  -0.00102   0.01577  -0.00582
           X5          -0.00026  -0.00001   0.00000   0.00027  -0.14601
           Y5           0.00017   0.00000  -0.00000  -0.00017   0.09318
           Z5           0.00919   0.00027  -0.00017  -0.00935  -0.00332
           X6          -0.00027  -0.00001   0.00001   0.00028  -0.32456
           Y6           0.00014   0.00000  -0.00000  -0.00014  -0.02494
           Z6          -0.00915  -0.00027   0.00017   0.00931   0.00979
                          Y4        Z4        X5        Y5        Z5
           Y4           0.86384
           Z4          -0.01085   0.17780
           X5           0.08446  -0.00218   0.12479
           Y5          -0.29405   0.00797  -0.10361   0.28468
           Z5           0.00985  -0.05778   0.00293  -0.00850   0.03006
           X6          -0.01593   0.00759  -0.00241  -0.00117   0.00040
           Y6          -0.10517   0.00211   0.03280   0.01607  -0.00139
           Z6           0.00207  -0.05732  -0.00141  -0.00036   0.01029
                          X6        Y6        Z6
           X6           0.32508
           Y6           0.01818   0.07405
           Z6          -0.00841  -0.00173   0.02973
 ITU=  0
     Eigenvalues ---    0.03707   0.04364   0.09172   0.10039   0.13477
     Eigenvalues ---    0.17435   0.26292   0.28945   0.52569   0.69974
     Eigenvalues ---    0.97034   1.55860
 Angle between quadratic step and forces=  32.67 degrees.
 Linear search not attempted -- first point.
 B after Tr=     0.007329    0.008906   -0.010833
         Rot=    1.000000   -0.000072    0.000039   -0.000127 Ang=  -0.02 deg.
 Variable       Old X    -DE/DX   Delta X   Delta X   Delta X     New X
                                 (Linear)    (Quad)   (Total)
    X1       -0.63665   0.01397   0.00000   0.02251   0.03012  -0.60653
    Y1       -1.10126   0.00813   0.00000   0.02608   0.03483  -1.06643
    Z1        0.01350  -0.00438   0.00000  -0.02338  -0.03442  -0.02092
    X2        0.43626  -0.01317   0.00000  -0.05395  -0.04589   0.39037
    Y2       -2.88917   0.00839   0.00000   0.02770   0.03671  -2.85247
    Z2       -0.04515   0.00220   0.00000   0.02845   0.01724  -0.02791
    X3       -2.69667   0.00580   0.00000   0.03755   0.04516  -2.65151
    Y3       -1.08349  -0.00666   0.00000  -0.03410  -0.02587  -1.10936
    Z3       -0.04595   0.00200   0.00000   0.02797   0.01677  -0.02918
    X4        0.62879   0.00899   0.00000   0.00780   0.01485   0.64364
    Y4        1.08901   0.00902   0.00000   0.01081   0.01988   1.10890
    Z4        0.00917  -0.00448   0.00000  -0.02144  -0.03207  -0.02289
    X5       -0.28822  -0.00041   0.00000  -0.02294  -0.01635  -0.30458
    Y5        2.95535  -0.01177   0.00000  -0.03739  -0.02856   2.92679
    Z5       -0.05149   0.00226   0.00000   0.02691   0.01647  -0.03502
    X6        2.71895  -0.01517   0.00000  -0.03492  -0.02789   2.69106
    Y6        1.23990  -0.00712   0.00000  -0.04658  -0.03699   1.20291
    Z6       -0.05093   0.00240   0.00000   0.02645   0.01600  -0.03493
         Item               Value     Threshold  Converged?
 Maximum Force            0.015173     0.000450     NO 
 RMS     Force            0.008246     0.000300     NO 
 Maximum Displacement     0.045890     0.001800     NO 
 RMS     Displacement     0.029294     0.001200     NO 
 Predicted change in Energy=-1.917108D-03
 GradGradGradGradGradGradGradGradGradGradGradGradGradGradGradGradGradGrad

 Unable to Open any file for archive entry.
 1\1\GINC-BHD0006\Force\RwB97XD\6-311G\C2H4\BWEIGHT\11-Jan-2023\0\\# WB
 97XD/6-311G SCF=XQC FORCE nosym pop=full guess=read\\MD Step 1000\\0,1
 \C,-0.33689981,-0.58276373,0.00714375\H,0.23086041,-1.52888531,-0.0238
 9124\H,-1.42701801,-0.57335622,-0.02431383\C,0.33273981,0.57628173,0.0
 0485396\H,-0.15252091,1.56390479,-0.02724896\H,1.43880435,0.65612638,-
 0.02695016\\Version=ES64L-G16RevC.01\HF=-78.5552313\RMSD=7.431e-09\RMS
 F=8.246e-03\Dipole=0.0036982,0.0143378,-0.0413136\Quadrupole=0.8701678
 ,0.8456013,-1.7157691,-0.0000941,-0.0010426,-0.0024266\PG=C01 [X(C2H4)
 ]\\@
 The archive entry for this job was punched.


 I DO NOT KNOW WHAT I MAY APPEAR TO THE WORLD; BUT TO MYSELF
 I SEEM TO HAVE BEEN ONLY LIKE A BOY PLAYING ON THE SEASHORE,
 AND DIVERTING MYSELF IN NOW AND THEN FINDING A SMOOTHER PEBBLE
 OR A PRETTIER SHELL THAN ORDINARY, WHILST THE GREAT OCEAN OF
 TRUTH LAY ALL UNDISCOVERED BEFORE ME.
                                          -- NEWTON (1642-1726)
 Job cpu time:       0 days  0 hours  0 minutes 26.7 seconds.
 Elapsed time:       0 days  0 hours  0 minutes  9.5 seconds.
 File lengths (MBytes):  RWF=    272 Int=      0 D2E=      0 Chk=     32 Scr=     32
 Normal termination of Gaussian 16 at Wed Jan 11 18:48:12 2023.
