 Entering Gaussian System, Link 0=g16
 Initial command:
 /software/gaussian/g16-c01/sse4/g16/l1.exe "/gpfs/fs2/scratch/bweight/software/many_molecule_many_mode_NAMD/src/NAMD/TEST_ETHYLENE/G16/DIMER/Gau-20700.inp" -scrdir="/gpfs/fs2/scratch/bweight/software/many_molecule_many_mode_NAMD/src/NAMD/TEST_ETHYLENE/G16/DIMER/"
 Entering Link 1 = /software/gaussian/g16-c01/sse4/g16/l1.exe PID=     20702.
  
 Copyright (c) 1988-2019, Gaussian, Inc.  All Rights Reserved.
  
 This is part of the Gaussian(R) 16 program.  It is based on
 the Gaussian(R) 09 system (copyright 2009, Gaussian, Inc.),
 the Gaussian(R) 03 system (copyright 2003, Gaussian, Inc.),
 the Gaussian(R) 98 system (copyright 1998, Gaussian, Inc.),
 the Gaussian(R) 94 system (copyright 1995, Gaussian, Inc.),
 the Gaussian 92(TM) system (copyright 1992, Gaussian, Inc.),
 the Gaussian 90(TM) system (copyright 1990, Gaussian, Inc.),
 the Gaussian 88(TM) system (copyright 1988, Gaussian, Inc.),
 the Gaussian 86(TM) system (copyright 1986, Carnegie Mellon
 University), and the Gaussian 82(TM) system (copyright 1983,
 Carnegie Mellon University). Gaussian is a federally registered
 trademark of Gaussian, Inc.
  
 This software contains proprietary and confidential information,
 including trade secrets, belonging to Gaussian, Inc.
  
 This software is provided under written license and may be
 used, copied, transmitted, or stored only in accord with that
 written license.
  
 The following legend is applicable only to US Government
 contracts under FAR:
  
                    RESTRICTED RIGHTS LEGEND
  
 Use, reproduction and disclosure by the US Government is
 subject to restrictions as set forth in subparagraphs (a)
 and (c) of the Commercial Computer Software - Restricted
 Rights clause in FAR 52.227-19.
  
 Gaussian, Inc.
 340 Quinnipiac St., Bldg. 40, Wallingford CT 06492
  
  
 ---------------------------------------------------------------
 Warning -- This program may not be used in any manner that
 competes with the business of Gaussian, Inc. or will provide
 assistance to any competitor of Gaussian, Inc.  The licensee
 of this program is prohibited from giving any competitor of
 Gaussian, Inc. access to this program.  By using this program,
 the user acknowledges that Gaussian, Inc. is engaged in the
 business of creating and licensing software in the field of
 computational chemistry and represents and warrants to the
 licensee that it is not a competitor of Gaussian, Inc. and that
 it will not use this program in any manner prohibited above.
 ---------------------------------------------------------------
  

 Cite this work as:
 Gaussian 16, Revision C.01,
 M. J. Frisch, G. W. Trucks, H. B. Schlegel, G. E. Scuseria, 
 M. A. Robb, J. R. Cheeseman, G. Scalmani, V. Barone, 
 G. A. Petersson, H. Nakatsuji, X. Li, M. Caricato, A. V. Marenich, 
 J. Bloino, B. G. Janesko, R. Gomperts, B. Mennucci, H. P. Hratchian, 
 J. V. Ortiz, A. F. Izmaylov, J. L. Sonnenberg, D. Williams-Young, 
 F. Ding, F. Lipparini, F. Egidi, J. Goings, B. Peng, A. Petrone, 
 T. Henderson, D. Ranasinghe, V. G. Zakrzewski, J. Gao, N. Rega, 
 G. Zheng, W. Liang, M. Hada, M. Ehara, K. Toyota, R. Fukuda, 
 J. Hasegawa, M. Ishida, T. Nakajima, Y. Honda, O. Kitao, H. Nakai, 
 T. Vreven, K. Throssell, J. A. Montgomery, Jr., J. E. Peralta, 
 F. Ogliaro, M. J. Bearpark, J. J. Heyd, E. N. Brothers, K. N. Kudin, 
 V. N. Staroverov, T. A. Keith, R. Kobayashi, J. Normand, 
 K. Raghavachari, A. P. Rendell, J. C. Burant, S. S. Iyengar, 
 J. Tomasi, M. Cossi, J. M. Millam, M. Klene, C. Adamo, R. Cammi, 
 J. W. Ochterski, R. L. Martin, K. Morokuma, O. Farkas, 
 J. B. Foresman, and D. J. Fox, Gaussian, Inc., Wallingford CT, 2019.
 
 ******************************************
 Gaussian 16:  ES64L-G16RevC.01  3-Jul-2019
                 1-Jan-2023 
 ******************************************
 %chk=geometry.chk
 %nprocshared=1
 Will use up to    1 processors via shared memory.
 %mem=5GB
 ----------------------------------------------------------
 # BLYP/3-21G nosymm iop(2/12=3,3/33=1) guess=only pop=full
 ----------------------------------------------------------
 1/38=1,172=1/1;
 2/12=3,15=1,17=6,18=5,40=1/2;
 3/5=5,11=2,25=1,30=1,33=1,74=402,89=1/1,2;
 4//1;
 6/7=3,28=1/1;
 99/5=2/99;
 -----------
 MD Step 158
 -----------
 Symbolic Z-matrix:
 Charge =  0 Multiplicity = 1
 C                    -0.27866  -0.62756   0.14152 
 H                    -0.2606   -1.55989  -0.59077 
 H                    -1.25401  -0.93639   0.69972 
 C                     0.38569   0.7552   -0.22364 
 H                    -0.07996   1.65475  -0.4893 
 H                     0.31799  -0.68084   1.35989 
 C                    -0.27401  -0.62586   0.14836 
 H                    -0.26688  -1.55202  -0.59872 
 H                    -1.27307  -0.93897   0.68494 
 C                     0.38475   0.75933  -0.22227 
 H                    -0.06225   1.66433  -0.51163 
 H                     0.33041  -0.70768   1.36914 
 
                          Input orientation:                          
 ---------------------------------------------------------------------
 Center     Atomic      Atomic             Coordinates (Angstroms)
 Number     Number       Type             X           Y           Z
 ---------------------------------------------------------------------
      1          6           0       -0.278660   -0.627562    0.141520
      2          1           0       -0.260604   -1.559892   -0.590768
      3          1           0       -1.254006   -0.936389    0.699721
      4          6           0        0.385689    0.755198   -0.223645
      5          1           0       -0.079963    1.654748   -0.489298
      6          1           0        0.317991   -0.680844    1.359893
      7          6           0       -0.274005   -0.625862    0.148363
      8          1           0       -0.266878   -1.552017   -0.598716
      9          1           0       -1.273069   -0.938967    0.684943
     10          6           0        0.384750    0.759331   -0.222267
     11          1           0       -0.062247    1.664335   -0.511634
     12          1           0        0.330408   -0.707679    1.369137
 ---------------------------------------------------------------------
                    Distance matrix (angstroms):
                    1          2          3          4          5
     1  C    0.000000
     2  H    1.185669   0.000000
     3  H    1.165445   1.743837   0.000000
     4  C    1.576937   2.431484   2.530350   0.000000
     5  H    2.376204   3.221310   3.083201   1.047183   0.000000
     6  H    1.357668   2.216433   1.724037   2.138782   3.005471
     7  C    0.008449   1.191179   1.166544   1.575091   2.376014
     8  H    1.184359   0.012828   1.743376   2.426883   3.214071
     9  H    1.175215   1.743007   0.024258   2.539134   3.087020
    10  C    1.579850   2.435379   2.532005   0.004457   1.043568
    11  H    2.392955   3.231292   3.106676   1.053619   0.030078
    12  H    1.372744   2.217384   1.735164   2.163335   3.033685
                    6          7          8          9         10
     6  H    0.000000
     7  C    1.349550   0.000000
     8  H    2.221973   1.189934   0.000000
     9  H    1.747471   1.176470   1.742421   0.000000
    10  C    2.140511   1.578000   2.430774   2.540789   0.000000
    11  H    3.024409   2.392788   3.224031   3.110476   1.050034
    12  H    0.030981   1.364661   2.223084   1.758622   2.165095
                   11         12
    11  H    0.000000
    12  H    3.052528   0.000000
 Symmetry turned off by external request.
 Stoichiometry    C4H8
 Framework group  C1[X(C4H8)]
 Deg. of freedom    30
 Full point group                 C1      NOp   1
 Rotational constants (GHZ):          60.8710553          10.5430876          10.1662188
 Standard basis: 3-21G (6D, 7F)
                         Coordinates in L301:                         
 ---------------------------------------------------------------------
 Center     Atomic      Atomic             Coordinates (Angstroms)
 Number     Number       Type             X           Y           Z
 ---------------------------------------------------------------------
      1          6           0       -0.278660   -0.627562    0.141520
      2          1           0       -0.260604   -1.559892   -0.590768
      3          1           0       -1.254006   -0.936389    0.699721
      4          6           0        0.385689    0.755198   -0.223645
      5          1           0       -0.079963    1.654748   -0.489298
      6          1           0        0.317991   -0.680844    1.359893
      7          6           0       -0.274005   -0.625862    0.148363
      8          1           0       -0.266878   -1.552017   -0.598716
      9          1           0       -1.273069   -0.938967    0.684943
     10          6           0        0.384750    0.759331   -0.222267
     11          1           0       -0.062247    1.664335   -0.511634
     12          1           0        0.330408   -0.707679    1.369137
 ---------------------------------------------------------------------
 FixB: optimizing general contractions.
 Ernie: Thresh=  0.10000D-02 Tol=  0.10000D-05 Strict=F.
 IA=     1 ShT= 0 ShC= 0 NL=   1 NS=   0.
 IA=     1 L=0 SC=0 ISt=    0 NBk=    0 NP=    0 IndPr=    0.
 IA=     1 ShT= 1 ShC= 0 NL=   2 NS=   1.
 IA=     1 L=1 SC=0 ISt=    0 NBk=    0 NP=    0 IndPr=    0.
 IA=     2 ShT= 0 ShC= 0 NL=   2 NS=   1.
 IA=     2 L=0 SC=0 ISt=    0 NBk=    0 NP=    0 IndPr=    0.
 IA=     3 ShT= 0 ShC= 0 NL=   2 NS=   1.
 IA=     3 L=0 SC=0 ISt=    0 NBk=    0 NP=    0 IndPr=    0.
 IA=     4 ShT= 0 ShC= 0 NL=   1 NS=   0.
 IA=     4 L=0 SC=0 ISt=    0 NBk=    0 NP=    0 IndPr=    0.
 IA=     4 ShT= 1 ShC= 0 NL=   2 NS=   1.
 IA=     4 L=1 SC=0 ISt=    0 NBk=    0 NP=    0 IndPr=    0.
 IA=     5 ShT= 0 ShC= 0 NL=   2 NS=   1.
 IA=     5 L=0 SC=0 ISt=    0 NBk=    0 NP=    0 IndPr=    0.
 IA=     6 ShT= 0 ShC= 0 NL=   2 NS=   1.
 IA=     6 L=0 SC=0 ISt=    0 NBk=    0 NP=    0 IndPr=    0.
 IA=     7 ShT= 0 ShC= 0 NL=   1 NS=   0.
 IA=     7 L=0 SC=0 ISt=    0 NBk=    0 NP=    0 IndPr=    0.
 IA=     7 ShT= 1 ShC= 0 NL=   2 NS=   1.
 IA=     7 L=1 SC=0 ISt=    0 NBk=    0 NP=    0 IndPr=    0.
 IA=     8 ShT= 0 ShC= 0 NL=   2 NS=   1.
 IA=     8 L=0 SC=0 ISt=    0 NBk=    0 NP=    0 IndPr=    0.
 IA=     9 ShT= 0 ShC= 0 NL=   2 NS=   1.
 IA=     9 L=0 SC=0 ISt=    0 NBk=    0 NP=    0 IndPr=    0.
 IA=    10 ShT= 0 ShC= 0 NL=   1 NS=   0.
 IA=    10 L=0 SC=0 ISt=    0 NBk=    0 NP=    0 IndPr=    0.
 IA=    10 ShT= 1 ShC= 0 NL=   2 NS=   1.
 IA=    10 L=1 SC=0 ISt=    0 NBk=    0 NP=    0 IndPr=    0.
 IA=    11 ShT= 0 ShC= 0 NL=   2 NS=   1.
 IA=    11 L=0 SC=0 ISt=    0 NBk=    0 NP=    0 IndPr=    0.
 IA=    12 ShT= 0 ShC= 0 NL=   2 NS=   1.
 IA=    12 L=0 SC=0 ISt=    0 NBk=    0 NP=    0 IndPr=    0.
 LdAtmC:  AtmChg=     6.000000     1.000000     1.000000     6.000000     1.000000
 LdAtmC:  AtmChg=     1.000000     6.000000     1.000000     1.000000     6.000000
 LdAtmC:  AtmChg=     1.000000     1.000000
 AtZEff=     -3.6000000     -1.0000000     -1.0000000     -3.6000000     -1.0000000
 AtZEff=     -1.0000000     -3.6000000     -1.0000000     -1.0000000     -3.6000000
 AtZEff=     -1.0000000     -1.0000000
    52 basis functions,    84 primitive gaussians,    52 cartesian basis functions
    16 alpha electrons       16 beta electrons
       nuclear repulsion energy      6744.7308604429 Hartrees.
 IS=     1 IAt=     1 ISR=     1 T=0 IP=      1 IndIP=      1 IndIPD=      0 C=  2.093132D+00  0.000000D+00                             NZ=T
 IS=     1 IAt=     1 ISR=     1 T=0 IP=      2 IndIP=      2 IndIPD=      1 C=  2.936751D+00  0.000000D+00                             NZ=T
 IS=     1 IAt=     1 ISR=     1 T=0 IP=      3 IndIP=      3 IndIPD=      2 C=  1.801737D+00  0.000000D+00                             NZ=T
 IS=     2 IAt=     1 ISR=     2 T=1 IP=      1 IndIP=      4 IndIPD=      0 C= -7.473843D-01  1.709178D+00                             NZ=T
 IS=     2 IAt=     1 ISR=     2 T=1 IP=      2 IndIP=      5 IndIPD=      1 C=  7.126610D-01  8.856221D-01                             NZ=T
 IS=     3 IAt=     1 ISR=     3 T=1 IP=      1 IndIP=      6 IndIPD=      0 C=  2.098285D-01  1.857223D-01                             NZ=T
 IS=     4 IAt=     2 ISR=     1 T=0 IP=      1 IndIP=      7 IndIPD=      0 C=  3.971513D-01  0.000000D+00                             NZ=T
 IS=     4 IAt=     2 ISR=     1 T=0 IP=      2 IndIP=      8 IndIPD=      1 C=  5.579200D-01  0.000000D+00                             NZ=T
 IS=     5 IAt=     2 ISR=     2 T=0 IP=      1 IndIP=      9 IndIPD=      0 C=  1.995672D-01  0.000000D+00                             NZ=T
 IS=     6 IAt=     3 ISR=     1 T=0 IP=      1 IndIP=     10 IndIPD=      0 C=  3.971513D-01  0.000000D+00                             NZ=T
 IS=     6 IAt=     3 ISR=     1 T=0 IP=      2 IndIP=     11 IndIPD=      1 C=  5.579200D-01  0.000000D+00                             NZ=T
 IS=     7 IAt=     3 ISR=     2 T=0 IP=      1 IndIP=     12 IndIPD=      0 C=  1.995672D-01  0.000000D+00                             NZ=T
 IS=     8 IAt=     4 ISR=     1 T=0 IP=      1 IndIP=     13 IndIPD=      0 C=  2.093132D+00  0.000000D+00                             NZ=T
 IS=     8 IAt=     4 ISR=     1 T=0 IP=      2 IndIP=     14 IndIPD=      1 C=  2.936751D+00  0.000000D+00                             NZ=T
 IS=     8 IAt=     4 ISR=     1 T=0 IP=      3 IndIP=     15 IndIPD=      2 C=  1.801737D+00  0.000000D+00                             NZ=T
 IS=     9 IAt=     4 ISR=     2 T=1 IP=      1 IndIP=     16 IndIPD=      0 C= -7.473843D-01  1.709178D+00                             NZ=T
 IS=     9 IAt=     4 ISR=     2 T=1 IP=      2 IndIP=     17 IndIPD=      1 C=  7.126610D-01  8.856221D-01                             NZ=T
 IS=    10 IAt=     4 ISR=     3 T=1 IP=      1 IndIP=     18 IndIPD=      0 C=  2.098285D-01  1.857223D-01                             NZ=T
 IS=    11 IAt=     5 ISR=     1 T=0 IP=      1 IndIP=     19 IndIPD=      0 C=  3.971513D-01  0.000000D+00                             NZ=T
 IS=    11 IAt=     5 ISR=     1 T=0 IP=      2 IndIP=     20 IndIPD=      1 C=  5.579200D-01  0.000000D+00                             NZ=T
 IS=    12 IAt=     5 ISR=     2 T=0 IP=      1 IndIP=     21 IndIPD=      0 C=  1.995672D-01  0.000000D+00                             NZ=T
 IS=    13 IAt=     6 ISR=     1 T=0 IP=      1 IndIP=     22 IndIPD=      0 C=  3.971513D-01  0.000000D+00                             NZ=T
 IS=    13 IAt=     6 ISR=     1 T=0 IP=      2 IndIP=     23 IndIPD=      1 C=  5.579200D-01  0.000000D+00                             NZ=T
 IS=    14 IAt=     6 ISR=     2 T=0 IP=      1 IndIP=     24 IndIPD=      0 C=  1.995672D-01  0.000000D+00                             NZ=T
 IS=    15 IAt=     7 ISR=     1 T=0 IP=      1 IndIP=     25 IndIPD=      0 C=  2.093132D+00  0.000000D+00                             NZ=T
 IS=    15 IAt=     7 ISR=     1 T=0 IP=      2 IndIP=     26 IndIPD=      1 C=  2.936751D+00  0.000000D+00                             NZ=T
 IS=    15 IAt=     7 ISR=     1 T=0 IP=      3 IndIP=     27 IndIPD=      2 C=  1.801737D+00  0.000000D+00                             NZ=T
 IS=    16 IAt=     7 ISR=     2 T=1 IP=      1 IndIP=     28 IndIPD=      0 C= -7.473843D-01  1.709178D+00                             NZ=T
 IS=    16 IAt=     7 ISR=     2 T=1 IP=      2 IndIP=     29 IndIPD=      1 C=  7.126610D-01  8.856221D-01                             NZ=T
 IS=    17 IAt=     7 ISR=     3 T=1 IP=      1 IndIP=     30 IndIPD=      0 C=  2.098285D-01  1.857223D-01                             NZ=T
 IS=    18 IAt=     8 ISR=     1 T=0 IP=      1 IndIP=     31 IndIPD=      0 C=  3.971513D-01  0.000000D+00                             NZ=T
 IS=    18 IAt=     8 ISR=     1 T=0 IP=      2 IndIP=     32 IndIPD=      1 C=  5.579200D-01  0.000000D+00                             NZ=T
 IS=    19 IAt=     8 ISR=     2 T=0 IP=      1 IndIP=     33 IndIPD=      0 C=  1.995672D-01  0.000000D+00                             NZ=T
 IS=    20 IAt=     9 ISR=     1 T=0 IP=      1 IndIP=     34 IndIPD=      0 C=  3.971513D-01  0.000000D+00                             NZ=T
 IS=    20 IAt=     9 ISR=     1 T=0 IP=      2 IndIP=     35 IndIPD=      1 C=  5.579200D-01  0.000000D+00                             NZ=T
 IS=    21 IAt=     9 ISR=     2 T=0 IP=      1 IndIP=     36 IndIPD=      0 C=  1.995672D-01  0.000000D+00                             NZ=T
 IS=    22 IAt=    10 ISR=     1 T=0 IP=      1 IndIP=     37 IndIPD=      0 C=  2.093132D+00  0.000000D+00                             NZ=T
 IS=    22 IAt=    10 ISR=     1 T=0 IP=      2 IndIP=     38 IndIPD=      1 C=  2.936751D+00  0.000000D+00                             NZ=T
 IS=    22 IAt=    10 ISR=     1 T=0 IP=      3 IndIP=     39 IndIPD=      2 C=  1.801737D+00  0.000000D+00                             NZ=T
 IS=    23 IAt=    10 ISR=     2 T=1 IP=      1 IndIP=     40 IndIPD=      0 C= -7.473843D-01  1.709178D+00                             NZ=T
 IS=    23 IAt=    10 ISR=     2 T=1 IP=      2 IndIP=     41 IndIPD=      1 C=  7.126610D-01  8.856221D-01                             NZ=T
 IS=    24 IAt=    10 ISR=     3 T=1 IP=      1 IndIP=     42 IndIPD=      0 C=  2.098285D-01  1.857223D-01                             NZ=T
 IS=    25 IAt=    11 ISR=     1 T=0 IP=      1 IndIP=     43 IndIPD=      0 C=  3.971513D-01  0.000000D+00                             NZ=T
 IS=    25 IAt=    11 ISR=     1 T=0 IP=      2 IndIP=     44 IndIPD=      1 C=  5.579200D-01  0.000000D+00                             NZ=T
 IS=    26 IAt=    11 ISR=     2 T=0 IP=      1 IndIP=     45 IndIPD=      0 C=  1.995672D-01  0.000000D+00                             NZ=T
 IS=    27 IAt=    12 ISR=     1 T=0 IP=      1 IndIP=     46 IndIPD=      0 C=  3.971513D-01  0.000000D+00                             NZ=T
 IS=    27 IAt=    12 ISR=     1 T=0 IP=      2 IndIP=     47 IndIPD=      1 C=  5.579200D-01  0.000000D+00                             NZ=T
 IS=    28 IAt=    12 ISR=     2 T=0 IP=      1 IndIP=     48 IndIPD=      0 C=  1.995672D-01  0.000000D+00                             NZ=T
 IExCor=  402 DFT=T Ex=B Corr=LYP ExCW=0 ScaHFX=  0.000000
 ScaDFX=  1.000000  1.000000  1.000000  1.000000 ScalE2=  1.000000  1.000000
 IRadAn=      5 IRanWt=     -1 IRanGd=            0 ICorTp=0 IEmpDi=  4
 NAtoms=   12 NActive=   12 NUniq=   12 SFac= 1.00D+00 NAtFMM=   60 NAOKFM=F Big=F
 Integral buffers will be    131072 words long.
 Raffenetti 2 integral format.
 Two-electron integral symmetry is turned off.
 NPDir=0 NMtPBC=     1 NCelOv=     1 NCel=       1 NClECP=     1 NCelD=      1
         NCelK=      1 NCelE2=     1 NClLst=     1 CellRange=     0.0.
 One-electron integrals computed using PRISM.
 Entering OneElI...
 Calculate overlap and kinetic energy integrals
    NBasis =  52  MinDer = 0  MaxDer = 0
 Requested accuracy = 0.1000D-12
 PrmmSu-InSpLW:  IPartL=    0 NPrtUS=    1 NPrtUL=    1 DoSpLW=F IThBeg=    0 IThEnd=    0 NThAct=    1.
 PrSmSu:  IncTry=   512 NBBP=            406 NTPThr=   100 NPartT=    1 Incr=           4 LDynOK=F GPUOK=F.
 PrsmSu:  NPrtUS=   1 ThrOK=F IAlg=2 LenDen=           0 ISkipM=0 DoSpLW=F IThBeg=    0 IThEnd=    0.
 Prism:   IPart=     0 DynPar=F LinDyn=F Incr=           4.
 PRISM was handed   671059735 working-precision words and   406 shell-pairs
 IPart=  0 NShTot=         406 NBatch=          15 AvBLen=        27.1
 PrSmSu:  NxtVal=              5.
 *** Overlap *** 
                1             2             3             4             5 
      1  0.100000D+01
      2  0.191447D+00  0.100000D+01
      3  0.000000D+00  0.000000D+00  0.100000D+01
      4  0.000000D+00  0.000000D+00  0.000000D+00  0.100000D+01
      5  0.000000D+00  0.000000D+00  0.000000D+00  0.000000D+00  0.100000D+01
      6  0.180314D+00  0.761357D+00  0.000000D+00  0.000000D+00  0.000000D+00
      7  0.000000D+00  0.000000D+00  0.528959D+00  0.000000D+00  0.000000D+00
      8  0.000000D+00  0.000000D+00  0.000000D+00  0.528959D+00  0.000000D+00
      9  0.000000D+00  0.000000D+00  0.000000D+00  0.000000D+00  0.528959D+00
     10  0.107567D-01  0.143899D+00  0.350801D-02 -0.181132D+00 -0.142268D+00
     11  0.703782D-01  0.358627D+00  0.346436D-02 -0.178878D+00 -0.140498D+00
     12  0.121704D-01  0.153720D+00 -0.203433D+00 -0.644138D-01  0.116427D+00
     13  0.725379D-01  0.367543D+00 -0.191936D+00 -0.607735D-01  0.109847D+00
     14  0.000000D+00  0.122675D-02  0.169670D-02  0.353147D-02 -0.932605D-03
     15  0.122675D-02  0.460685D-01  0.367927D-01  0.765793D-01 -0.202234D-01
     16 -0.169670D-02 -0.367927D-01 -0.590737D-02 -0.641417D-01  0.169388D-01
     17 -0.353147D-02 -0.765793D-01 -0.641417D-01 -0.108593D+00  0.352560D-01
     18  0.932605D-03  0.202234D-01  0.169388D-01  0.352560D-01  0.155991D-01
     19  0.333837D-01  0.196928D+00  0.724648D-01  0.150826D+00 -0.398308D-01
     20 -0.359707D-01 -0.170750D+00  0.656783D-01 -0.134763D+00  0.355887D-01
     21 -0.748685D-01 -0.355395D+00 -0.134763D+00 -0.150066D+00  0.740734D-01
     22  0.197716D-01  0.938541D-01  0.355887D-01  0.740734D-01  0.110864D+00
     23  0.000000D+00  0.357081D-03  0.862748D-04  0.990983D-03 -0.273902D-03
     24  0.475303D-02  0.397394D-01  0.398755D-02  0.458024D-01 -0.126595D-01
     25  0.345723D-02  0.781494D-01  0.606856D-01 -0.541929D-02  0.123921D+00
     26  0.532944D-01  0.286070D+00  0.906631D-01 -0.809632D-02  0.185136D+00
     27  0.998594D+00  0.191569D+00  0.993403D-02  0.362810D-02  0.146023D-01
     28  0.191569D+00  0.999885D+00  0.474564D-02  0.173320D-02  0.697576D-02
     29 -0.993403D-02 -0.474564D-02  0.999788D+00 -0.292390D-04 -0.117681D-03
     30 -0.362810D-02 -0.173320D-02 -0.292390D-04  0.999857D+00 -0.429793D-04
     31 -0.146023D-01 -0.697576D-02 -0.117681D-03 -0.429793D-04  0.999695D+00
     32  0.180305D+00  0.761328D+00  0.205930D-02  0.752095D-03  0.302702D-02
     33 -0.136158D-02 -0.459050D-02  0.528925D+00 -0.472012D-05 -0.189974D-04
     34 -0.497276D-03 -0.167654D-02 -0.472012D-05  0.528936D+00 -0.693823D-05
     35 -0.200143D-02 -0.674771D-02 -0.189974D-04 -0.693823D-05  0.528910D+00
     36  0.108438D-01  0.144522D+00  0.229970D-02 -0.180436D+00 -0.144480D+00
     37  0.705173D-01  0.359203D+00  0.226433D-02 -0.177661D+00 -0.142258D+00
     38  0.114687D-01  0.148918D+00 -0.200442D+00 -0.627697D-01  0.109538D+00
     39  0.714911D-01  0.363228D+00 -0.193316D+00 -0.605380D-01  0.105643D+00
     40  0.000000D+00  0.119953D-02  0.165668D-02  0.346337D-02 -0.908454D-03
     41  0.119953D-02  0.455073D-01  0.362858D-01  0.758574D-01 -0.198976D-01
     42 -0.165668D-02 -0.362858D-01 -0.574135D-02 -0.634105D-01  0.166328D-01
     43 -0.346337D-02 -0.758574D-01 -0.634105D-01 -0.107972D+00  0.347717D-01
     44  0.908454D-03  0.198976D-01  0.166328D-01  0.347717D-01  0.154699D-01
     45  0.331761D-01  0.195942D+00  0.719891D-01  0.150497D+00 -0.394758D-01
     46 -0.356965D-01 -0.169659D+00  0.655219D-01 -0.134277D+00  0.352214D-01
     47 -0.746254D-01 -0.354681D+00 -0.134277D+00 -0.150961D+00  0.736320D-01
     48  0.195745D-01  0.930339D-01  0.352214D-01  0.736320D-01  0.110439D+00
     49  0.000000D+00  0.318738D-03  0.838665D-04  0.888175D-03 -0.253116D-03
     50  0.451775D-02  0.381199D-01  0.416248D-02  0.440821D-01 -0.125627D-01
     51  0.310727D-02  0.737687D-01  0.583168D-01 -0.767106D-02  0.117541D+00
     52  0.519181D-01  0.280046D+00  0.905416D-01 -0.119099D-01  0.182492D+00
                6             7             8             9            10 
      6  0.100000D+01
      7  0.000000D+00  0.100000D+01
      8  0.000000D+00  0.000000D+00  0.100000D+01
      9  0.000000D+00  0.000000D+00  0.000000D+00  0.100000D+01
     10  0.299122D+00  0.736367D-02 -0.380215D+00 -0.298635D+00  0.100000D+01
     11  0.621241D+00  0.906785D-02 -0.468208D+00 -0.367749D+00  0.645898D+00
     12  0.307342D+00 -0.408705D+00 -0.129410D+00  0.233906D+00  0.936901D-02
     13  0.631307D+00 -0.497747D+00 -0.157603D+00  0.284866D+00  0.125172D+00
     14  0.333837D-01  0.359707D-01  0.748685D-01 -0.197716D-01  0.000000D+00
     15  0.196928D+00  0.170750D+00  0.355395D+00 -0.938541D-01  0.244704D-03
     16 -0.724648D-01  0.656783D-01 -0.134763D+00  0.355887D-01 -0.192233D-03
     17 -0.150826D+00 -0.134763D+00 -0.150066D+00  0.740734D-01 -0.688599D-03
     18  0.398308D-01  0.355887D-01  0.740734D-01  0.110864D+00 -0.109197D-03
     19  0.419106D+00  0.232857D+00  0.484662D+00 -0.127991D+00  0.230199D-01
     20 -0.232857D+00  0.289730D+00 -0.269280D+00  0.711125D-01 -0.202169D-01
     21 -0.484662D+00 -0.269280D+00 -0.141366D+00  0.148012D+00 -0.724192D-01
     22  0.127991D+00  0.711125D-01  0.148012D+00  0.380018D+00 -0.114841D-01
     23  0.267728D-01  0.722996D-02  0.830459D-01 -0.229534D-01  0.000000D+00
     24  0.148164D+00  0.237981D-01  0.273354D+00 -0.755534D-01  0.241848D-02
     25  0.233110D+00  0.189550D+00 -0.169270D-01  0.387064D+00  0.592024D-03
     26  0.535848D+00  0.258447D+00 -0.230796D-01  0.527753D+00  0.456691D-01
     27  0.180305D+00  0.136158D-02  0.497276D-03  0.200143D-02  0.103971D-01
     28  0.761328D+00  0.459050D-02  0.167654D-02  0.674771D-02  0.141305D+00
     29 -0.205930D-02  0.528925D+00 -0.472012D-05 -0.189974D-04  0.255323D-02
     30 -0.752095D-03 -0.472012D-05  0.528936D+00 -0.693823D-05 -0.177953D+00
     31 -0.302702D-02 -0.189974D-04 -0.693823D-05  0.528910D+00 -0.140820D+00
     32  0.999975D+00  0.389317D-02  0.142186D-02  0.572268D-02  0.296897D+00
     33 -0.389317D-02  0.999960D+00 -0.553569D-05 -0.222799D-04  0.542448D-02
     34 -0.142186D-02 -0.553569D-05  0.999973D+00 -0.813707D-05 -0.378071D+00
     35 -0.572268D-02 -0.222799D-04 -0.813707D-05  0.999942D+00 -0.299180D+00
     36  0.299652D+00  0.481352D-02 -0.377673D+00 -0.302413D+00  0.999697D+00
     37  0.621894D+00  0.592323D-02 -0.464741D+00 -0.372131D+00  0.645841D+00
     38  0.303361D+00 -0.411287D+00 -0.128797D+00  0.224760D+00  0.940921D-02
     39  0.626446D+00 -0.503567D+00 -0.157695D+00  0.275189D+00  0.125367D+00
     40  0.331761D-01  0.356965D-01  0.746254D-01 -0.195745D-01  0.000000D+00
     41  0.195942D+00  0.169659D+00  0.354681D+00 -0.930339D-01  0.238196D-03
     42 -0.719891D-01  0.655219D-01 -0.134277D+00  0.352214D-01 -0.186844D-03
     43 -0.150497D+00 -0.134277D+00 -0.150961D+00  0.736320D-01 -0.671465D-03
     44  0.394758D-01  0.352214D-01  0.736320D-01  0.110439D+00 -0.106689D-03
     45  0.417760D+00  0.231781D+00  0.484550D+00 -0.127099D+00  0.227732D-01
     46 -0.231781D+00  0.289164D+00 -0.268837D+00  0.705168D-01 -0.199710D-01
     47 -0.484550D+00 -0.268837D+00 -0.144257D+00  0.147419D+00 -0.717704D-01
     48  0.127099D+00  0.705168D-01  0.147419D+00  0.379092D+00 -0.114036D-01
     49  0.255845D-01  0.752473D-02  0.796896D-01 -0.227102D-01  0.000000D+00
     50  0.144216D+00  0.252294D-01  0.267189D+00 -0.761444D-01  0.233624D-02
     51  0.227706D+00  0.189002D+00 -0.248615D-01  0.380946D+00  0.588360D-03
     52  0.528444D+00  0.260180D+00 -0.342244D-01  0.524410D+00  0.455656D-01
               11            12            13            14            15 
     11  0.100000D+01
     12  0.125172D+00  0.100000D+01
     13  0.369841D+00  0.645898D+00  0.100000D+01
     14  0.401441D-02  0.000000D+00  0.293926D-02  0.100000D+01
     15  0.346019D-01  0.121807D-03  0.267959D-01  0.191447D+00  0.100000D+01
     16 -0.112610D-01 -0.242647D-03 -0.220124D-01  0.000000D+00  0.000000D+00
     17 -0.403382D-01 -0.250327D-03 -0.227091D-01  0.000000D+00  0.000000D+00
     18 -0.639677D-02  0.136643D-03  0.123959D-01  0.000000D+00  0.000000D+00
     19  0.135433D+00  0.174206D-01  0.114739D+00  0.180314D+00  0.761357D+00
     20 -0.707562D-01 -0.388051D-01 -0.152084D+00  0.000000D+00  0.000000D+00
     21 -0.253456D+00 -0.400332D-01 -0.156897D+00  0.000000D+00  0.000000D+00
     22 -0.401927D-01  0.218524D-01  0.856436D-01  0.000000D+00  0.000000D+00
     23  0.241848D-02  0.000000D+00  0.386091D-02  0.240216D-01  0.220714D+00
     24  0.335672D-01  0.386091D-02  0.446276D-01  0.856641D-01  0.420700D+00
     25  0.456691D-01  0.103713D-01  0.129891D+00  0.297699D-05  0.163887D-02
     26  0.200513D+00  0.129891D+00  0.378241D+00  0.939348D-02  0.694158D-01
     27  0.697949D-01  0.120897D-01  0.724198D-01  0.000000D+00  0.124428D-02
     28  0.356210D+00  0.153175D+00  0.367057D+00  0.124428D-02  0.464270D-01
     29  0.255330D-02 -0.203623D+00 -0.192589D+00  0.170892D-02  0.368239D-01
     30 -0.177958D+00 -0.645208D-01 -0.610246D-01  0.357760D-02  0.770902D-01
     31 -0.140824D+00  0.114560D+00  0.108352D+00 -0.963676D-03 -0.207653D-01
     32  0.618497D+00  0.306893D+00  0.630761D+00  0.335157D-01  0.197554D+00
     33  0.670028D-02 -0.410055D+00 -0.499689D+00  0.358599D-01  0.170090D+00
     34 -0.466990D+00 -0.129932D+00 -0.158334D+00  0.750722D-01  0.356081D+00
     35 -0.369546D+00  0.230701D+00  0.281130D+00 -0.202217D-01 -0.959155D-01
     36  0.645841D+00  0.939133D-02  0.125280D+00  0.000000D+00  0.252607D-03
     37  0.999946D+00  0.125280D+00  0.370035D+00  0.407184D-02  0.350073D-01
     38  0.125367D+00  0.998916D+00  0.645693D+00  0.000000D+00  0.114331D-03
     39  0.370191D+00  0.645693D+00  0.999808D+00  0.285725D-02  0.261810D-01
     40  0.396634D-02  0.000000D+00  0.292365D-02  0.999608D+00  0.191481D+00
     41  0.342619D-01  0.120364D-03  0.266791D-01  0.191481D+00  0.999968D+00
     42 -0.111319D-01 -0.239634D-03 -0.219021D-01  0.200401D-02  0.957041D-03
     43 -0.400051D-01 -0.247964D-03 -0.226634D-01 -0.882295D-02 -0.421352D-02
     44 -0.635640D-02  0.134822D-03  0.123224D-01 -0.294194D-02 -0.140496D-02
     45  0.134568D+00  0.173378D-01  0.114415D+00  0.180312D+00  0.761349D+00
     46 -0.702021D-01 -0.385985D-01 -0.151567D+00  0.274605D-03  0.925812D-03
     47 -0.252287D+00 -0.399402D-01 -0.156836D+00 -0.120899D-02 -0.407603D-02
     48 -0.400859D-01  0.217161D-01  0.852739D-01 -0.403129D-03 -0.135912D-02
     49  0.233624D-02  0.000000D+00  0.357096D-02  0.231918D-01  0.216642D+00
     50  0.328674D-01  0.357096D-02  0.425562D-01  0.849310D-01  0.417775D+00
     51  0.455656D-01  0.979688D-02  0.127224D+00  0.226761D-05  0.141044D-02
     52  0.200237D+00  0.127224D+00  0.373509D+00  0.878360D-02  0.657064D-01
               16            17            18            19            20 
     16  0.100000D+01
     17  0.000000D+00  0.100000D+01
     18  0.000000D+00  0.000000D+00  0.100000D+01
     19  0.000000D+00  0.000000D+00  0.000000D+00  0.100000D+01
     20  0.528959D+00  0.000000D+00  0.000000D+00  0.000000D+00  0.100000D+01
     21  0.000000D+00  0.528959D+00  0.000000D+00  0.000000D+00  0.000000D+00
     22  0.000000D+00  0.000000D+00  0.528959D+00  0.000000D+00  0.000000D+00
     23 -0.143972D+00  0.278126D+00 -0.821353D-01  0.356795D+00 -0.226577D+00
     24 -0.105356D+00  0.203528D+00 -0.601052D-01  0.689690D+00 -0.259612D+00
     25 -0.135335D-03 -0.287078D-02  0.316564D-02  0.492444D-01 -0.453394D-02
     26 -0.240268D-02 -0.509664D-01  0.562012D-01  0.212866D+00 -0.116492D-01
     27 -0.170892D-02 -0.357760D-02  0.963676D-03  0.335157D-01 -0.358599D-01
     28 -0.368239D-01 -0.770902D-01  0.207653D-01  0.197554D+00 -0.170090D+00
     29 -0.552470D-02 -0.641408D-01  0.172772D-01  0.721928D-01  0.668004D-01
     30 -0.641408D-01 -0.109164D+00  0.361696D-01  0.151135D+00 -0.134093D+00
     31  0.172772D-01  0.361696D-01  0.153708D-01 -0.407102D-01  0.361197D-01
     32 -0.721928D-01 -0.151135D+00  0.407102D-01  0.419959D+00 -0.231696D+00
     33  0.668004D-01 -0.134093D+00  0.361197D-01  0.231696D+00  0.292130D+00
     34 -0.134093D+00 -0.149868D+00  0.756161D-01  0.485052D+00 -0.267608D+00
     35  0.361197D-01  0.756161D-01  0.110485D+00 -0.130656D+00  0.720840D-01
     36 -0.200374D-03 -0.708441D-03 -0.115167D-03  0.233141D-01 -0.206744D-01
     37 -0.115063D-01 -0.406816D-01 -0.661339D-02  0.136461D+00 -0.719850D-01
     38 -0.230396D-03 -0.235314D-03  0.126200D-03  0.169854D-01 -0.382747D-01
     39 -0.217475D-01 -0.222117D-01  0.119122D-01  0.113025D+00 -0.151554D+00
     40 -0.200401D-02  0.882295D-02  0.294194D-02  0.180312D+00 -0.274605D-03
     41 -0.957041D-03  0.421352D-02  0.140496D-02  0.761349D+00 -0.925812D-03
     42  0.999960D+00  0.143378D-04  0.478083D-05  0.415319D-03  0.528952D+00
     43  0.143378D-04  0.999900D+00 -0.210483D-04 -0.182850D-02  0.231434D-05
     44  0.478083D-05 -0.210483D-04  0.999956D+00 -0.609701D-03  0.000000D+00
     45 -0.415319D-03  0.182850D-02  0.609701D-03  0.999993D+00 -0.785166D-03
     46  0.528952D+00  0.231434D-05  0.000000D+00  0.785166D-03  0.999992D+00
     47  0.231434D-05  0.528943D+00 -0.339751D-05 -0.345681D-02  0.271419D-05
     48  0.000000D+00 -0.339751D-05  0.528952D+00 -0.115265D-02  0.000000D+00
     49 -0.135688D+00  0.275394D+00 -0.872370D-01  0.354055D+00 -0.216279D+00
     50 -0.100619D+00  0.204219D+00 -0.646907D-01  0.686545D+00 -0.248596D+00
     51 -0.950631D-04 -0.251562D-02  0.273901D-02  0.463734D-01 -0.348622D-02
     52 -0.185476D-02 -0.490817D-01  0.534401D-01  0.205400D+00 -0.917877D-02
               21            22            23            24            25 
     21  0.100000D+01
     22  0.000000D+00  0.100000D+01
     23  0.437702D+00 -0.129261D+00  0.100000D+01
     24  0.501520D+00 -0.148108D+00  0.645898D+00  0.100000D+01
     25 -0.961755D-01  0.106054D+00  0.137234D-05  0.497894D-02  0.100000D+01
     26 -0.247106D+00  0.272486D+00  0.497894D-02  0.520996D-01  0.645898D+00
     27 -0.750722D-01  0.202217D-01  0.000000D+00  0.475576D-02  0.365997D-02
     28 -0.356081D+00  0.959155D-01  0.357541D-03  0.397581D-01  0.805927D-01
     29 -0.134093D+00  0.361197D-01  0.843622D-04  0.389600D-02  0.621878D-01
     30 -0.149868D+00  0.756161D-01  0.991523D-03  0.457904D-01 -0.577571D-02
     31  0.756161D-01  0.110485D+00 -0.277231D-03 -0.128030D-01  0.127268D+00
     32 -0.485052D+00  0.130656D+00  0.267866D-01  0.148209D+00  0.236048D+00
     33 -0.267608D+00  0.720840D-01  0.706421D-02  0.232477D-01  0.190445D+00
     34 -0.140274D+00  0.150907D+00  0.830268D-01  0.273234D+00 -0.176876D-01
     35  0.150907D+00  0.379311D+00 -0.232144D-01 -0.763964D-01  0.389749D+00
     36 -0.730964D-01 -0.118829D-01  0.000000D+00  0.247977D-02  0.570962D-03
     37 -0.254510D+00 -0.413743D-01  0.247977D-02  0.340826D-01  0.450685D-01
     38 -0.390917D-01  0.209650D-01  0.000000D+00  0.381234D-02  0.919473D-02
     39 -0.154789D+00  0.830138D-01  0.381234D-02  0.442849D-01  0.124318D+00
     40  0.120899D-02  0.403129D-03  0.244983D-01  0.860767D-01  0.292076D-05
     41  0.407603D-02  0.135912D-02  0.223022D+00  0.422344D+00  0.162173D-02
     42  0.231434D-05  0.000000D+00 -0.145336D+00 -0.105568D+00 -0.132058D-03
     43  0.528943D+00 -0.339751D-05  0.280036D+00  0.203411D+00 -0.284883D-02
     44 -0.339751D-05  0.528952D+00 -0.835123D-01 -0.606611D-01  0.312969D-02
     45  0.345681D-02  0.115265D-02  0.358336D+00  0.691455D+00  0.490376D-01
     46  0.271419D-05  0.000000D+00 -0.227098D+00 -0.259751D+00 -0.445227D-02
     47  0.999981D+00 -0.398452D-05  0.437576D+00  0.500493D+00 -0.960469D-01
     48 -0.398452D-05  0.999992D+00 -0.130494D+00 -0.149257D+00  0.105516D+00
     49  0.438964D+00 -0.139051D+00  0.998334D+00  0.645583D+00  0.115997D-05
     50  0.504554D+00 -0.159828D+00  0.645583D+00  0.999704D+00  0.468259D-02
     51 -0.922545D-01  0.100447D+00  0.106787D-05  0.454331D-02  0.998232D+00
     52 -0.242894D+00  0.264463D+00  0.454331D-02  0.492754D-01  0.645563D+00
               26            27            28            29            30 
     26  0.100000D+01
     27  0.540441D-01  0.100000D+01
     28  0.289339D+00  0.191447D+00  0.100000D+01
     29  0.910156D-01  0.000000D+00  0.000000D+00  0.100000D+01
     30 -0.845312D-02  0.000000D+00  0.000000D+00  0.000000D+00  0.100000D+01
     31  0.186265D+00  0.000000D+00  0.000000D+00  0.000000D+00  0.000000D+00
     32  0.539843D+00  0.180314D+00  0.761357D+00  0.000000D+00  0.000000D+00
     33  0.258342D+00  0.000000D+00  0.000000D+00  0.528959D+00  0.000000D+00
     34 -0.239936D-01  0.000000D+00  0.000000D+00  0.000000D+00  0.528959D+00
     35  0.528702D+00  0.000000D+00  0.000000D+00  0.000000D+00  0.000000D+00
     36  0.450685D-01  0.104774D-01  0.141888D+00  0.136389D-02 -0.177235D+00
     37  0.198907D+00  0.699265D-01  0.356756D+00  0.136005D-02 -0.176736D+00
     38  0.124318D+00  0.113811D-01  0.148309D+00 -0.200495D+00 -0.628349D-01
     39  0.368309D+00  0.713571D-01  0.362675D+00 -0.193916D+00 -0.607728D-01
     40  0.934942D-02  0.000000D+00  0.121675D-02  0.166869D-02  0.350883D-02
     41  0.691493D-01  0.121675D-02  0.458630D-01  0.363175D-01  0.763663D-01
     42 -0.236005D-02 -0.166869D-02 -0.363175D-01 -0.536367D-02 -0.634113D-01
     43 -0.509123D-01 -0.350883D-02 -0.763663D-01 -0.634113D-01 -0.108545D+00
     44  0.559316D-01  0.938841D-03  0.204330D-01  0.169667D-01  0.356765D-01
     45  0.212335D+00  0.333078D-01  0.196568D+00  0.717192D-01  0.150807D+00
     46 -0.114589D-01 -0.355868D-01 -0.169004D+00  0.666385D-01 -0.133611D+00
     47 -0.247198D+00 -0.748298D-01 -0.355372D+00 -0.133611D+00 -0.150769D+00
     48  0.271569D+00  0.200219D-01  0.950852D-01  0.357495D-01  0.751721D-01
     49  0.468259D-02  0.000000D+00  0.319100D-03  0.821557D-04  0.888525D-03
     50  0.501895D-01  0.452004D-02  0.381358D-01  0.407467D-02  0.440681D-01
     51  0.645563D+00  0.329075D-02  0.760925D-01  0.597808D-01 -0.809237D-02
     52  0.999686D+00  0.526535D-01  0.283269D+00  0.909155D-01 -0.123070D-01
               31            32            33            34            35 
     31  0.100000D+01
     32  0.000000D+00  0.100000D+01
     33  0.000000D+00  0.000000D+00  0.100000D+01
     34  0.000000D+00  0.000000D+00  0.000000D+00  0.100000D+01
     35  0.528959D+00  0.000000D+00  0.000000D+00  0.000000D+00  0.100000D+01
     36 -0.142965D+00  0.297400D+00  0.288975D-02 -0.375518D+00 -0.302910D+00
     37 -0.142564D+00  0.619118D+00  0.356694D-02 -0.463517D+00 -0.373894D+00
     38  0.107683D+00  0.302851D+00 -0.412517D+00 -0.129282D+00  0.221556D+00
     39  0.104149D+00  0.625821D+00 -0.505420D+00 -0.158398D+00  0.271453D+00
     40 -0.938841D-03  0.333078D-01  0.355868D-01  0.748298D-01 -0.200219D-01
     41 -0.204330D-01  0.196568D+00  0.169004D+00  0.355372D+00 -0.950852D-01
     42  0.169667D-01 -0.717192D-01  0.666385D-01 -0.133611D+00  0.357495D-01
     43  0.356765D-01 -0.150807D+00 -0.133611D+00 -0.150769D+00  0.751721D-01
     44  0.152470D-01  0.403507D-01  0.357495D-01  0.751721D-01  0.110066D+00
     45 -0.403507D-01  0.418615D+00  0.230625D+00  0.484945D+00 -0.129755D+00
     46  0.357495D-01 -0.230625D+00  0.291557D+00 -0.267169D+00  0.714850D-01
     47  0.751721D-01 -0.484945D+00 -0.267169D+00 -0.143172D+00  0.150315D+00
     48  0.110066D+00  0.129755D+00  0.714850D-01  0.150315D+00  0.378396D+00
     49 -0.256058D-03  0.255961D-01  0.736621D-02  0.796666D-01 -0.229586D-01
     50 -0.126997D-01  0.144255D+00  0.246934D-01  0.267062D+00 -0.769629D-01
     51  0.120743D+00  0.230595D+00  0.189941D+00 -0.257118D-01  0.383637D+00
     52  0.183628D+00  0.532411D+00  0.260130D+00 -0.352131D-01  0.525402D+00
               36            37            38            39            40 
     36  0.100000D+01
     37  0.645898D+00  0.100000D+01
     38  0.943768D-02  0.125505D+00  0.100000D+01
     39  0.125505D+00  0.370438D+00  0.645898D+00  0.100000D+01
     40  0.000000D+00  0.402322D-02  0.000000D+00  0.284203D-02  0.100000D+01
     41  0.245908D-03  0.346642D-01  0.112973D-03  0.260665D-01  0.191447D+00
     42 -0.194774D-03 -0.113749D-01 -0.227528D-03 -0.216383D-01  0.000000D+00
     43 -0.690871D-03 -0.403470D-01 -0.233083D-03 -0.221666D-01  0.000000D+00
     44 -0.112522D-03 -0.657132D-02  0.124510D-03  0.118411D-01  0.000000D+00
     45  0.230651D-01  0.135592D+00  0.169045D-01  0.112704D+00  0.180314D+00
     46 -0.204239D-01 -0.714236D-01 -0.380706D-01 -0.151038D+00  0.000000D+00
     47 -0.724442D-01 -0.253342D+00 -0.390002D-01 -0.154726D+00  0.000000D+00
     48 -0.117990D-01 -0.412618D-01  0.208334D-01  0.826527D-01  0.000000D+00
     49  0.000000D+00  0.239581D-02  0.000000D+00  0.352591D-02  0.236511D-01
     50  0.239581D-02  0.333751D-01  0.352591D-02  0.422285D-01  0.853392D-01
     51  0.566823D-03  0.449488D-01  0.867790D-02  0.121726D+00  0.222353D-05
     52  0.449488D-01  0.198586D+00  0.121726D+00  0.363628D+00  0.874117D-02
               41            42            43            44            45 
     41  0.100000D+01
     42  0.000000D+00  0.100000D+01
     43  0.000000D+00  0.000000D+00  0.100000D+01
     44  0.000000D+00  0.000000D+00  0.000000D+00  0.100000D+01
     45  0.761357D+00  0.000000D+00  0.000000D+00  0.000000D+00  0.100000D+01
     46  0.000000D+00  0.528959D+00  0.000000D+00  0.000000D+00  0.000000D+00
     47  0.000000D+00  0.000000D+00  0.528959D+00  0.000000D+00  0.000000D+00
     48  0.000000D+00  0.000000D+00  0.000000D+00  0.528959D+00  0.000000D+00
     49  0.218904D+00 -0.136958D+00  0.277290D+00 -0.886611D-01  0.355581D+00
     50  0.419404D+00 -0.100813D+00  0.204110D+00 -0.652623D-01  0.688298D+00
     51  0.139525D-02 -0.924393D-04 -0.249548D-02  0.270708D-02  0.461729D-01
     52  0.654466D-01 -0.181588D-02 -0.490212D-01  0.531779D-01  0.204872D+00
               46            47            48            49            50 
     46  0.100000D+01
     47  0.000000D+00  0.100000D+01
     48  0.000000D+00  0.000000D+00  0.100000D+01
     49 -0.216758D+00  0.438855D+00 -0.140320D+00  0.100000D+01
     50 -0.248708D+00  0.503542D+00 -0.161003D+00  0.645898D+00  0.100000D+01
     51 -0.341218D-02 -0.921147D-01  0.999255D-01  0.000000D+00  0.427178D-02
     52 -0.899968D-02 -0.242954D+00  0.263555D+00  0.427178D-02  0.474612D-01
               51            52 
     51  0.100000D+01
     52  0.645898D+00  0.100000D+01
 *** Kinetic Energy *** 
                1             2             3             4             5 
      1  0.165790D+02
      2 -0.143503D+01  0.135737D+01
      3  0.000000D+00  0.000000D+00  0.258667D+01
      4  0.000000D+00  0.000000D+00  0.000000D+00  0.258667D+01
      5  0.000000D+00  0.000000D+00  0.000000D+00  0.000000D+00  0.258667D+01
      6  0.102750D+00  0.346412D+00  0.000000D+00  0.000000D+00  0.000000D+00
      7  0.000000D+00  0.000000D+00  0.417510D+00  0.000000D+00  0.000000D+00
      8  0.000000D+00  0.000000D+00  0.000000D+00  0.417510D+00  0.000000D+00
      9  0.000000D+00  0.000000D+00  0.000000D+00  0.000000D+00  0.417510D+00
     10 -0.337179D-01 -0.468875D-01  0.100421D-02 -0.518512D-01 -0.407259D-01
     11  0.151914D-01  0.806472D-01  0.180969D-02 -0.934413D-01 -0.733924D-01
     12 -0.359812D-01 -0.417914D-01 -0.696562D-01 -0.220555D-01  0.398650D-01
     13  0.164381D-01  0.852511D-01 -0.101720D+00 -0.322079D-01  0.582153D-01
     14  0.000000D+00 -0.766247D-02 -0.830250D-02 -0.172806D-01  0.456353D-02
     15 -0.766247D-02 -0.597292D-01 -0.232122D-01 -0.483134D-01  0.127588D-01
     16  0.830250D-02  0.232122D-01 -0.178974D-01  0.446071D-02 -0.117800D-02
     17  0.172806D-01  0.483134D-01  0.446071D-02 -0.107561D-01 -0.245187D-02
     18 -0.456353D-02 -0.127588D-01 -0.117800D-02 -0.245187D-02 -0.193931D-01
     19 -0.236682D-02  0.898529D-02  0.250924D-01  0.522266D-01 -0.137922D-01
     20 -0.111113D-01 -0.601138D-01  0.233486D-02 -0.891400D-01  0.235405D-01
     21 -0.231269D-01 -0.125119D+00 -0.891400D-01 -0.140371D+00  0.489965D-01
     22  0.610744D-02  0.330420D-01  0.235405D-01  0.489965D-01  0.322231D-01
     23 -0.353870D-05 -0.185590D-02 -0.381227D-03 -0.437891D-02  0.121030D-02
     24 -0.353295D-02 -0.165959D-01 -0.599887D-03 -0.689051D-02  0.190450D-02
     25 -0.164925D-01 -0.646546D-01 -0.130445D-01  0.116489D-02 -0.266371D-01
     26  0.622840D-02  0.456721D-01  0.410329D-01 -0.366428D-02  0.837899D-01
     27  0.164859D+02 -0.143263D+01  0.767897D-01  0.280451D-01  0.112875D+00
     28 -0.143263D+01  0.135675D+01 -0.446869D-02 -0.163205D-02 -0.656865D-02
     29 -0.767897D-01  0.446869D-02  0.258558D+01 -0.150374D-03 -0.605222D-03
     30 -0.280451D-01  0.163205D-02 -0.150374D-03  0.258594D+01 -0.221039D-03
     31 -0.112875D+00  0.656865D-02 -0.605222D-03 -0.221039D-03  0.258510D+01
     32  0.102741D+00  0.346390D+00  0.162539D-02  0.593623D-03  0.238920D-02
     33 -0.129323D-02 -0.345770D-02  0.417472D+00 -0.522576D-05 -0.210325D-04
     34 -0.472315D-03 -0.126282D-02 -0.522576D-05  0.417484D+00 -0.768150D-05
     35 -0.190096D-02 -0.508258D-02 -0.210325D-04 -0.768150D-05  0.417455D+00
     36 -0.338648D-01 -0.465801D-01  0.666723D-03 -0.523116D-01 -0.418873D-01
     37  0.152710D-01  0.809426D-01  0.118395D-02 -0.928937D-01 -0.743825D-01
     38 -0.348892D-01 -0.443483D-01 -0.632103D-01 -0.197947D-01  0.345431D-01
     39  0.158309D-01  0.830152D-01 -0.101745D+00 -0.318621D-01  0.556015D-01
     40  0.000000D+00 -0.752889D-02 -0.815705D-02 -0.170527D-01  0.447299D-02
     41 -0.752889D-02 -0.594806D-01 -0.232559D-01 -0.486177D-01  0.127526D-01
     42  0.815705D-02  0.232559D-01 -0.176191D-01  0.501256D-02 -0.131481D-02
     43  0.170527D-01  0.486177D-01  0.501256D-02 -0.953783D-02 -0.274868D-02
     44 -0.447299D-02 -0.127526D-01 -0.131481D-02 -0.274868D-02 -0.192959D-01
     45 -0.243070D-02  0.863892D-02  0.248103D-01  0.518671D-01 -0.136049D-01
     46 -0.109421D-01 -0.594726D-01  0.233719D-02 -0.885989D-01  0.232398D-01
     47 -0.228749D-01 -0.124330D+00 -0.885989D-01 -0.140503D+00  0.485839D-01
     48  0.600017D-02  0.326123D-01  0.232398D-01  0.485839D-01  0.319741D-01
     49 -0.292603D-05 -0.168558D-02 -0.378114D-03 -0.400436D-02  0.114118D-02
     50 -0.343967D-02 -0.163877D-01 -0.678686D-03 -0.718752D-02  0.204833D-02
     51 -0.153002D-01 -0.645351D-01 -0.152228D-01  0.200242D-02 -0.306825D-01
     52  0.558399D-02  0.429873D-01  0.403838D-01 -0.531213D-02  0.813961D-01
                6             7             8             9            10 
      6  0.293786D+00
      7  0.000000D+00  0.489643D+00
      8  0.000000D+00  0.000000D+00  0.489643D+00
      9  0.000000D+00  0.000000D+00  0.000000D+00  0.489643D+00
     10  0.665937D-01  0.399333D-02 -0.206191D+00 -0.161951D+00  0.154940D+01
     11  0.120526D+00  0.347589D-02 -0.179474D+00 -0.140966D+00  0.293151D+00
     12  0.710874D-01 -0.225202D+00 -0.713066D-01  0.128886D+00 -0.234290D-01
     13  0.124400D+00 -0.192311D+00 -0.608922D-01  0.110062D+00 -0.533395D-02
     14 -0.236682D-02  0.111113D-01  0.231269D-01 -0.610744D-02 -0.187847D-05
     15  0.898529D-02  0.601138D-01  0.125119D+00 -0.330420D-01 -0.134579D-02
     16 -0.250924D-01  0.233486D-02 -0.891400D-01  0.235405D-01  0.906875D-03
     17 -0.522266D-01 -0.891400D-01 -0.140371D+00  0.489965D-01  0.324853D-02
     18  0.137922D-01  0.235405D-01  0.489965D-01  0.322231D-01  0.515146D-03
     19  0.517437D-01  0.743556D-01  0.154762D+00 -0.408701D-01 -0.136467D-01
     20 -0.743556D-01  0.671771D-01 -0.138726D+00  0.366355D-01  0.558265D-02
     21 -0.154762D+00 -0.138726D+00 -0.154913D+00  0.762521D-01  0.199976D-01
     22  0.408701D-01  0.366355D-01  0.762521D-01  0.113692D+00  0.317119D-02
     23 -0.145907D-01 -0.164977D-02 -0.189499D-01  0.523764D-02 -0.215532D-05
     24 -0.114609D-01  0.266442D-02  0.306045D-01 -0.845892D-02 -0.296645D-02
     25  0.333288D-01  0.876178D-01 -0.782437D-02  0.178917D+00 -0.280447D-02
     26  0.889585D-01  0.918331D-01 -0.820081D-02  0.187525D+00 -0.158060D-01
     27  0.102741D+00  0.129323D-02  0.472315D-03  0.190096D-02 -0.331007D-01
     28  0.346390D+00  0.345770D-02  0.126282D-02  0.508258D-02 -0.481456D-01
     29 -0.162539D-02  0.417472D+00 -0.522576D-05 -0.210325D-04  0.691592D-03
     30 -0.593623D-03 -0.522576D-05  0.417484D+00 -0.768150D-05 -0.482019D-01
     31 -0.238920D-02 -0.210325D-04 -0.768150D-05  0.417455D+00 -0.381439D-01
     32  0.293773D+00  0.190624D-02  0.696197D-03  0.280204D-02  0.653899D-01
     33 -0.190624D-02  0.489615D+00 -0.379469D-05 -0.152728D-04  0.292869D-02
     34 -0.696197D-03 -0.379469D-05  0.489624D+00 -0.557792D-05 -0.204121D+00
     35 -0.280204D-02 -0.152728D-04 -0.557792D-05  0.489603D+00 -0.161528D+00
     36  0.668814D-01  0.261312D-02 -0.205028D+00 -0.164171D+00  0.154823D+01
     37  0.120776D+00  0.227167D-02 -0.178237D+00 -0.142719D+00  0.293107D+00
     38  0.689021D-01 -0.224902D+00 -0.704293D-01  0.122904D+00 -0.234974D-01
     39  0.122525D+00 -0.193823D+00 -0.606968D-01  0.105920D+00 -0.528333D-02
     40 -0.243070D-02  0.109421D-01  0.228749D-01 -0.600017D-02 -0.179535D-05
     41  0.863892D-02  0.594726D-01  0.124330D+00 -0.326123D-01 -0.131513D-02
     42 -0.248103D-01  0.233719D-02 -0.885989D-01  0.232398D-01  0.885438D-03
     43 -0.518671D-01 -0.885989D-01 -0.140503D+00  0.485839D-01  0.318202D-02
     44  0.136049D-01  0.232398D-01  0.485839D-01  0.319741D-01  0.505591D-03
     45  0.513143D-01  0.738661D-01  0.154421D+00 -0.405051D-01 -0.135781D-01
     46 -0.738661D-01  0.669669D-01 -0.138329D+00  0.362842D-01  0.558303D-02
     47 -0.154421D+00 -0.138329D+00 -0.156048D+00  0.758539D-01  0.200639D-01
     48  0.405051D-01  0.362842D-01  0.758539D-01  0.113239D+00  0.318795D-02
     49 -0.143111D-01 -0.182552D-02 -0.193329D-01  0.550956D-02 -0.197382D-05
     50 -0.118928D-01  0.269570D-02  0.285484D-01 -0.813582D-02 -0.288974D-02
     51  0.308508D-01  0.859422D-01 -0.113049D-01  0.173222D+00 -0.279010D-02
     52  0.863373D-01  0.917637D-01 -0.120707D-01  0.184956D+00 -0.158012D-01
               11            12            13            14            15 
     11  0.274787D+00
     12 -0.533395D-02  0.154940D+01
     13  0.342361D-01  0.293151D+00  0.274787D+00
     14 -0.322514D-02  0.000000D+00 -0.268733D-02  0.165790D+02
     15 -0.158645D-01 -0.737787D-03 -0.143105D-01 -0.143503D+01  0.135737D+01
     16  0.216638D-02  0.127881D-02  0.593747D-02  0.000000D+00  0.000000D+00
     17  0.776021D-02  0.131928D-02  0.612537D-02  0.000000D+00  0.000000D+00
     18  0.123060D-02 -0.720138D-03 -0.334358D-02  0.000000D+00  0.000000D+00
     19 -0.127796D-01 -0.118644D-01 -0.144287D-01  0.102750D+00  0.346412D+00
     20 -0.671846D-02  0.141471D-01 -0.966658D-02  0.000000D+00  0.000000D+00
     21 -0.240662D-01  0.145948D-01 -0.997250D-02  0.000000D+00  0.000000D+00
     22 -0.381639D-02 -0.796669D-02  0.544357D-02  0.000000D+00  0.000000D+00
     23 -0.296645D-02 -0.704414D-05 -0.419552D-02 -0.474815D-01  0.492993D-02
     24 -0.116479D-01 -0.419552D-02 -0.131575D-01  0.244853D-01  0.113923D+00
     25 -0.158060D-01 -0.250943D-01 -0.408549D-02 -0.442345D-04 -0.651524D-02
     26 -0.392582D-02 -0.408549D-02  0.365699D-01 -0.470539D-02 -0.175879D-01
     27  0.148586D-01 -0.358586D-01  0.163693D-01  0.000000D+00 -0.774811D-02
     28  0.794096D-01 -0.420880D-01  0.849985D-01 -0.774811D-02 -0.598849D-01
     29  0.132844D-02 -0.691028D-01 -0.101987D+00 -0.832940D-02 -0.229986D-01
     30 -0.925883D-01 -0.218962D-01 -0.323160D-01 -0.174375D-01 -0.481472D-01
     31 -0.732684D-01  0.388779D-01  0.573788D-01  0.469703D-02  0.129691D-01
     32  0.119475D+00  0.708402D-01  0.124188D+00 -0.232595D-02  0.920609D-02
     33  0.256274D-02 -0.225754D+00 -0.192980D+00  0.111309D-01  0.600446D-01
     34 -0.178616D+00 -0.715333D-01 -0.611484D-01  0.233023D-01  0.125702D+00
     35 -0.141345D+00  0.127011D+00  0.108572D+00 -0.627680D-02 -0.338597D-01
     36  0.293107D+00 -0.234670D-01 -0.530584D-02 -0.198142D-05 -0.138283D-02
     37  0.274763D+00 -0.530584D-02  0.342897D-01 -0.325071D-02 -0.159300D-01
     38 -0.528333D-02  0.154520D+01  0.292995D+00  0.000000D+00 -0.698291D-03
     39  0.343326D-01  0.292995D+00  0.274699D+00 -0.264112D-02 -0.141619D-01
     40 -0.320352D-02  0.000000D+00 -0.267860D-02  0.165529D+02 -0.143436D+01
     41 -0.158086D-01 -0.730192D-03 -0.142826D-01 -0.143436D+01  0.135719D+01
     42  0.217483D-02  0.126519D-02  0.593663D-02  0.154951D-01 -0.902467D-03
     43  0.781575D-02  0.130917D-02  0.614299D-02 -0.682195D-01  0.397325D-02
     44  0.124185D-02 -0.711814D-03 -0.334003D-02 -0.227473D-01  0.132485D-02
     45 -0.128612D-01 -0.118341D-01 -0.144492D-01  0.102747D+00  0.346406D+00
     46 -0.658069D-02  0.141300D-01 -0.955244D-02  0.260825D-03  0.697356D-03
     47 -0.236492D-01  0.146212D-01 -0.988449D-02 -0.114832D-02 -0.307022D-02
     48 -0.375762D-02 -0.794977D-02  0.537434D-02 -0.382899D-03 -0.102374D-02
     49 -0.288974D-02 -0.578486D-05 -0.396384D-02 -0.470132D-01  0.157304D-02
     50 -0.115319D-01 -0.396384D-02 -0.129173D-01  0.240159D-01  0.112293D+00
     51 -0.158012D-01 -0.241498D-01 -0.479753D-02 -0.345727D-04 -0.577734D-02
     52 -0.397097D-02 -0.479753D-02  0.352509D-01 -0.460970D-02 -0.177085D-01
               16            17            18            19            20 
     16  0.258667D+01
     17  0.000000D+00  0.258667D+01
     18  0.000000D+00  0.000000D+00  0.258667D+01
     19  0.000000D+00  0.000000D+00  0.000000D+00  0.293786D+00
     20  0.417510D+00  0.000000D+00  0.000000D+00  0.000000D+00  0.489643D+00
     21  0.000000D+00  0.417510D+00  0.000000D+00  0.000000D+00  0.000000D+00
     22  0.000000D+00  0.000000D+00  0.417510D+00  0.000000D+00  0.000000D+00
     23 -0.949085D-01  0.183345D+00 -0.541449D-01  0.995525D-01 -0.135718D+00
     24 -0.602392D-01  0.116371D+00 -0.343662D-01  0.147453D+00 -0.104652D+00
     25  0.435697D-03  0.924215D-02 -0.101914D-01 -0.173226D-01  0.156143D-03
     26 -0.455343D-04 -0.965889D-03  0.106510D-02 -0.186392D-02 -0.210333D-02
     27  0.832940D-02  0.174375D-01 -0.469703D-02 -0.232595D-02 -0.111309D-01
     28  0.229986D-01  0.481472D-01 -0.129691D-01  0.920609D-02 -0.600446D-01
     29 -0.181077D-01  0.407481D-02 -0.109761D-02  0.250727D-01  0.301094D-02
     30  0.407481D-02 -0.115236D-01 -0.229782D-02  0.524892D-01 -0.888357D-01
     31 -0.109761D-02 -0.229782D-02 -0.194352D-01 -0.141387D-01  0.239292D-01
     32 -0.250727D-01 -0.524892D-01  0.141387D-01  0.520164D-01 -0.740773D-01
     33  0.301094D-02 -0.888357D-01  0.239292D-01  0.740773D-01  0.683630D-01
     34 -0.888357D-01 -0.140531D+00  0.500953D-01  0.155080D+00 -0.137972D+00
     35  0.239292D-01  0.500953D-01  0.319515D-01 -0.417729D-01  0.371647D-01
     36  0.940241D-03  0.332432D-02  0.540416D-03 -0.137273D-01  0.562561D-02
     37  0.217298D-02  0.768280D-02  0.124895D-02 -0.126813D-01 -0.693811D-02
     38  0.122581D-02  0.125198D-02 -0.671441D-03 -0.117040D-01  0.142608D-01
     39  0.601865D-02  0.614712D-02 -0.329673D-02 -0.145352D-01 -0.920096D-02
     40 -0.154951D-01  0.682195D-01  0.227473D-01  0.102747D+00 -0.260825D-03
     41  0.902467D-03 -0.397325D-02 -0.132485D-02  0.346406D+00 -0.697356D-03
     42  0.258646D+01  0.737483D-04  0.245908D-04  0.327812D-03  0.417503D+00
     43  0.737483D-04  0.258616D+01 -0.108265D-03 -0.144324D-02  0.256228D-05
     44  0.245908D-04 -0.108265D-03  0.258645D+01 -0.481237D-03  0.000000D+00
     45 -0.327812D-03  0.144324D-02  0.481237D-03  0.293782D+00 -0.384450D-03
     46  0.417503D+00  0.256228D-05  0.000000D+00  0.384450D-03  0.489637D+00
     47  0.256228D-05  0.417492D+00 -0.376151D-05 -0.169260D-02  0.186057D-05
     48  0.000000D+00 -0.376151D-05  0.417502D+00 -0.564384D-03  0.000000D+00
     49 -0.871780D-01  0.176938D+00 -0.560489D-01  0.979143D-01 -0.129014D+00
     50 -0.573136D-01  0.116324D+00 -0.368483D-01  0.146186D+00 -0.999960D-01
     51  0.317229D-03  0.839472D-02 -0.914017D-02 -0.171966D-01  0.186708D-03
     52 -0.415829D-05 -0.110039D-03  0.119811D-03 -0.318695D-02 -0.159524D-02
               21            22            23            24            25 
     21  0.489643D+00
     22  0.000000D+00  0.489643D+00
     23  0.262181D+00 -0.774266D-01  0.154940D+01
     24  0.202167D+00 -0.597034D-01  0.293151D+00  0.274787D+00
     25  0.331215D-02 -0.365234D-02 -0.133513D-04 -0.503157D-02  0.154940D+01
     26 -0.446165D-01  0.491991D-01 -0.503157D-02 -0.138830D-01  0.293151D+00
     27 -0.233023D-01  0.627680D-02 -0.354633D-05 -0.353401D-02 -0.171594D-01
     28 -0.125702D+00  0.338597D-01 -0.185792D-02 -0.165982D-01 -0.646329D-01
     29 -0.888357D-01  0.239292D-01 -0.372689D-03 -0.585557D-03 -0.118337D-01
     30 -0.140531D+00  0.500953D-01 -0.438028D-02 -0.688215D-02  0.109906D-02
     31  0.500953D-01  0.319515D-01  0.122473D-02  0.192426D-02 -0.242178D-01
     32 -0.155080D+00  0.417729D-01 -0.145939D-01 -0.114559D-01  0.346927D-01
     33 -0.137972D+00  0.371647D-01 -0.161079D-02  0.260414D-02  0.887967D-01
     34 -0.154574D+00  0.778037D-01 -0.189319D-01  0.306069D-01 -0.824704D-02
     35  0.778037D-01  0.113311D+00  0.529339D-02 -0.855772D-02  0.181724D+00
     36  0.198899D-01  0.323339D-02 -0.229685D-05 -0.302306D-02 -0.272162D-02
     37 -0.245304D-01 -0.398777D-02 -0.302306D-02 -0.117316D-01 -0.157774D-01
     38  0.145652D-01 -0.781138D-02 -0.682283D-05 -0.415717D-02 -0.231311D-01
     39 -0.939736D-02  0.503985D-02 -0.415717D-02 -0.131190D-01 -0.555395D-02
     40  0.114832D-02  0.382899D-03 -0.477321D-01  0.247505D-01 -0.434784D-04
     41  0.307022D-02  0.102374D-02  0.685961D-02  0.114841D+00 -0.646081D-02
     42  0.256228D-05  0.000000D+00 -0.971696D-01 -0.604881D-01  0.426234D-03
     43  0.417492D+00 -0.376151D-05  0.187228D+00  0.116549D+00  0.919496D-02
     44 -0.376151D-05  0.417502D+00 -0.558350D-01 -0.347574D-01 -0.101015D-01
     45  0.169260D-02  0.564384D-03  0.100477D+00  0.148164D+00 -0.173153D-01
     46  0.186057D-05  0.000000D+00 -0.136345D+00 -0.104834D+00  0.159293D-03
     47  0.489630D+00 -0.273138D-05  0.262712D+00  0.201995D+00  0.343636D-02
     48 -0.273138D-05  0.489637D+00 -0.783460D-01 -0.602389D-01 -0.377514D-02
     49  0.261848D+00 -0.829459D-01  0.154295D+01  0.292912D+00 -0.114459D-04
     50  0.202953D+00 -0.642898D-01  0.292912D+00  0.274652D+00 -0.481807D-02
     51  0.494078D-02 -0.537953D-02 -0.106099D-04 -0.471581D-02  0.154256D+01
     52 -0.422143D-01  0.459629D-01 -0.471581D-02 -0.136335D-01  0.292897D+00
               26            27            28            29            30 
     26  0.274787D+00
     27  0.658476D-02  0.165790D+02
     28  0.471442D-01 -0.143503D+01  0.135737D+01
     29  0.415113D-01  0.000000D+00  0.000000D+00  0.258667D+01
     30 -0.385538D-02  0.000000D+00  0.000000D+00  0.000000D+00  0.258667D+01
     31  0.849536D-01  0.000000D+00  0.000000D+00  0.000000D+00  0.000000D+00
     32  0.903810D-01  0.102750D+00  0.346412D+00  0.000000D+00  0.000000D+00
     33  0.921593D-01  0.000000D+00  0.000000D+00  0.417510D+00  0.000000D+00
     34 -0.855934D-02  0.000000D+00  0.000000D+00  0.000000D+00  0.417510D+00
     35  0.188606D+00  0.000000D+00  0.000000D+00  0.000000D+00  0.000000D+00
     36 -0.157774D-01 -0.332402D-01 -0.478660D-01  0.374185D-03 -0.486247D-01
     37 -0.418743D-02  0.149336D-01  0.796888D-01  0.708256D-03 -0.920366D-01
     38 -0.555395D-02 -0.347487D-01 -0.446638D-01 -0.625283D-01 -0.195963D-01
     39  0.338142D-01  0.157536D-01  0.827295D-01 -0.101969D+00 -0.319570D-01
     40 -0.469896D-02  0.000000D+00 -0.761350D-02 -0.818395D-02 -0.172087D-01
     41 -0.175985D-01 -0.761350D-02 -0.596389D-01 -0.230451D-01 -0.484580D-01
     42 -0.419637D-04  0.818395D-02  0.230451D-01 -0.178304D-01  0.462977D-02
     43 -0.905265D-03  0.172087D-01  0.484580D-01  0.462977D-02 -0.102970D-01
     44  0.994513D-03 -0.460446D-02 -0.129657D-01 -0.123877D-02 -0.260481D-02
     45 -0.195980D-02 -0.239022D-02  0.885859D-02  0.247915D-01  0.521302D-01
     46 -0.206355D-02 -0.109620D-01 -0.594057D-01  0.300801D-02 -0.882980D-01
     47 -0.445161D-01 -0.230502D-01 -0.124915D+00 -0.882980D-01 -0.140668D+00
     48  0.489049D-01  0.616744D-02  0.334229D-01  0.236255D-01  0.496783D-01
     49 -0.481807D-02 -0.293159D-05 -0.168720D-02 -0.370328D-03 -0.400514D-02
     50 -0.137174D-01 -0.344060D-02 -0.163898D-01 -0.663856D-03 -0.717969D-02
     51  0.292897D+00 -0.159320D-01 -0.646243D-01 -0.141250D-01  0.191206D-02
     52  0.274644D+00  0.592671D-02  0.444190D-01  0.408712D-01 -0.553262D-02
               31            32            33            34            35 
     31  0.258667D+01
     32  0.000000D+00  0.293786D+00
     33  0.000000D+00  0.000000D+00  0.489643D+00
     34  0.000000D+00  0.000000D+00  0.000000D+00  0.489643D+00
     35  0.417510D+00  0.000000D+00  0.000000D+00  0.000000D+00  0.489643D+00
     36 -0.392229D-01  0.656612D-01  0.156176D-02 -0.202948D+00 -0.163707D+00
     37 -0.742409D-01  0.119712D+00  0.136497D-02 -0.177375D+00 -0.143079D+00
     38  0.335829D-01  0.686233D-01 -0.225351D+00 -0.706246D-01  0.121032D+00
     39  0.547659D-01  0.122285D+00 -0.194441D+00 -0.609375D-01  0.104431D+00
     40  0.460446D-02 -0.239022D-02  0.109620D-01  0.230502D-01 -0.616744D-02
     41  0.129657D-01  0.885859D-02  0.594057D-01  0.124915D+00 -0.334229D-01
     42 -0.123877D-02 -0.247915D-01  0.300801D-02 -0.882980D-01  0.236255D-01
     43 -0.260481D-02 -0.521302D-01 -0.882980D-01 -0.140668D+00  0.496783D-01
     44 -0.193353D-01  0.139482D-01  0.236255D-01  0.496783D-01  0.317076D-01
     45 -0.139482D-01  0.515868D-01  0.735900D-01  0.154741D+00 -0.414033D-01
     46  0.236255D-01 -0.735900D-01  0.681478D-01 -0.137577D+00  0.368110D-01
     47  0.496783D-01 -0.154741D+00 -0.137577D+00 -0.155715D+00  0.774040D-01
     48  0.317076D-01  0.414033D-01  0.368110D-01  0.774040D-01  0.112865D+00
     49  0.115422D-02 -0.143139D-01 -0.178600D-02 -0.193158D-01  0.556650D-02
     50  0.206907D-02 -0.118887D-01  0.263968D-02  0.285485D-01 -0.822721D-02
     51 -0.285293D-01  0.321706D-01  0.871376D-01 -0.117956D-01  0.175998D+00
     52  0.825504D-01  0.877394D-01  0.921143D-01 -0.124693D-01  0.186049D+00
               36            37            38            39            40 
     36  0.154940D+01
     37  0.293151D+00  0.274787D+00
     38 -0.235457D-01 -0.524751D-02  0.154940D+01
     39 -0.524751D-02  0.344009D-01  0.293151D+00  0.274787D+00
     40 -0.189402D-05 -0.322909D-02  0.000000D+00 -0.263245D-02  0.165790D+02
     41 -0.135144D-02 -0.158747D-01 -0.691071D-03 -0.141338D-01 -0.143503D+01
     42  0.918109D-03  0.218208D-02  0.121271D-02  0.601709D-02  0.000000D+00
     43  0.325656D-02  0.773993D-02  0.124232D-02  0.616401D-02  0.000000D+00
     44  0.530397D-03  0.126060D-02 -0.663631D-03 -0.329274D-02  0.000000D+00
     45 -0.136591D-01 -0.127645D-01 -0.116738D-01 -0.145546D-01  0.102750D+00
     46  0.562708D-02 -0.679761D-02  0.142424D-01 -0.908842D-02  0.000000D+00
     47  0.199594D-01 -0.241114D-01  0.145902D-01 -0.931033D-02  0.000000D+00
     48  0.325080D-02 -0.392702D-02 -0.779388D-02  0.497346D-02  0.000000D+00
     49 -0.210432D-05 -0.294538D-02 -0.560236D-05 -0.392722D-02 -0.472775D-01
     50 -0.294538D-02 -0.116163D-01 -0.392722D-02 -0.128777D-01  0.242770D-01
     51 -0.270526D-02 -0.157714D-01 -0.222320D-01 -0.621153D-02 -0.339628D-04
     52 -0.157714D-01 -0.423944D-02 -0.621153D-02  0.325326D-01 -0.460249D-02
               41            42            43            44            45 
     41  0.135737D+01
     42  0.000000D+00  0.258667D+01
     43  0.000000D+00  0.000000D+00  0.258667D+01
     44  0.000000D+00  0.000000D+00  0.000000D+00  0.258667D+01
     45  0.346412D+00  0.000000D+00  0.000000D+00  0.000000D+00  0.293786D+00
     46  0.000000D+00  0.417510D+00  0.000000D+00  0.000000D+00  0.000000D+00
     47  0.000000D+00  0.000000D+00  0.417510D+00  0.000000D+00  0.000000D+00
     48  0.000000D+00  0.000000D+00  0.000000D+00  0.417510D+00  0.000000D+00
     49  0.343088D-02 -0.892717D-01  0.180742D+00 -0.577907D-01  0.988258D-01
     50  0.113200D+00 -0.575455D-01  0.116508D+00 -0.372525D-01  0.146892D+00
     51 -0.572726D-02  0.309259D-03  0.834870D-02 -0.905661D-02 -0.171857D-01
     52 -0.177147D-01 -0.188287D-05 -0.508297D-04  0.551397D-04 -0.327864D-02
               46            47            48            49            50 
     46  0.489643D+00
     47  0.000000D+00  0.489643D+00
     48  0.000000D+00  0.000000D+00  0.489643D+00
     49 -0.129599D+00  0.262390D+00 -0.838969D-01  0.154940D+01
     50 -0.100161D+00  0.202789D+00 -0.648401D-01  0.293151D+00  0.274787D+00
     51  0.187447D-03  0.506029D-02 -0.548937D-02 -0.908713D-05 -0.451274D-02
     52 -0.155973D-02 -0.421062D-01  0.456765D-01 -0.451274D-02 -0.134577D-01
               51            52 
     51  0.154940D+01
     52  0.293151D+00  0.274787D+00
 Entering OneElI...
 Calculate potential energy integrals
    NBasis =  52  MinDer = 0  MaxDer = 0
 Requested accuracy = 0.1000D-12
 PrmmSu-InSpLW:  IPartL=    0 NPrtUS=    1 NPrtUL=    1 DoSpLW=F IThBeg=    0 IThEnd=    0 NThAct=    1.
 PrSmSu:  IncTry=   512 NBBP=           4872 NTPThr=   100 NPartT=    1 Incr=          48 LDynOK=F GPUOK=F.
 PrsmSu:  NPrtUS=   1 ThrOK=F IAlg=2 LenDen=           0 ISkipM=0 DoSpLW=F IThBeg=    0 IThEnd=    0.
 Prism:   IPart=     0 DynPar=F LinDyn=F Incr=          48.
 PRISM was handed   671059988 working-precision words and   406 shell-pairs
 IPart=  0 NShTot=        4872 NBatch=         406 AvBLen=        12.0
 PrSmSu:  NxtVal=             49.
 ***** Potential Energy ***** 
                1             2             3             4             5 
      1  0.757672D+02
      2  0.596665D+01  0.195255D+02
      3  0.128291D+00  0.265224D+00  0.205053D+02
      4  0.105491D+00  0.527931D+00  0.164818D+00  0.207105D+02
      5  0.133279D+00 -0.169377D-01 -0.566018D-01 -0.308786D-01  0.205026D+02
      6  0.821182D+01  0.139605D+02  0.256329D+00  0.519789D+00 -0.280523D-01
      7  0.135381D-01  0.157442D+00  0.860946D+01  0.158370D+00 -0.525568D-01
      8  0.136441D-01  0.334530D+00  0.158370D+00  0.881213D+01 -0.339720D-01
      9  0.116954D-01 -0.319148D-01 -0.525568D-01 -0.339720D-01  0.860654D+01
     10  0.435356D+00  0.228229D+01  0.640102D-01 -0.273298D+01 -0.216912D+01
     11  0.316644D+01  0.627459D+01  0.138217D+00 -0.262418D+01 -0.221481D+01
     12  0.497014D+00  0.246257D+01 -0.311399D+01 -0.967029D+00  0.179292D+01
     13  0.326776D+01  0.644473D+01 -0.292599D+01 -0.782950D+00  0.173202D+01
     14  0.000000D+00  0.457197D-01  0.653607D-01  0.136176D+00 -0.359271D-01
     15  0.465611D-01  0.828803D+00  0.664300D+00  0.138454D+01 -0.363097D+00
     16 -0.665452D-01 -0.668762D+00 -0.144089D+00 -0.115149D+01  0.302047D+00
     17 -0.138602D+00 -0.138960D+01 -0.114806D+01 -0.198189D+01  0.626551D+00
     18  0.367046D-01  0.369392D+00  0.305208D+00  0.635015D+00  0.242958D+00
     19  0.149648D+01  0.358739D+01  0.130595D+01  0.270863D+01 -0.687964D+00
     20 -0.162729D+01 -0.314850D+01  0.940798D+00 -0.236303D+01  0.599814D+00
     21 -0.338966D+01 -0.655676D+01 -0.237363D+01 -0.283758D+01  0.124857D+01
     22  0.897922D+00  0.174701D+01  0.632996D+00  0.131180D+01  0.176274D+01
     23  0.547270D-05  0.633976D-02  0.242021D-02  0.176502D-01 -0.484083D-02
     24  0.209101D+00  0.703017D+00  0.998014D-01  0.788243D+00 -0.212213D+00
     25  0.135797D+00  0.120588D+01  0.903779D+00 -0.570797D-01  0.182650D+01
     26  0.240065D+01  0.503696D+01  0.150444D+01  0.650695D-01  0.290162D+01
     27  0.756670D+02  0.597359D+01  0.506443D+00  0.244003D+00  0.689076D+00
     28  0.597225D+01  0.195254D+02  0.316408D+00  0.548334D+00  0.580034D-01
     29 -0.445441D+00  0.132382D+00  0.205017D+02  0.160629D+00 -0.577059D-01
     30 -0.103939D+00  0.481671D+00  0.166884D+00  0.207092D+02 -0.281606D-01
     31 -0.710070D+00 -0.212607D+00 -0.635858D-01 -0.395025D-01  0.204959D+02
     32  0.821156D+01  0.139608D+02  0.289763D+00  0.532719D+00  0.209507D-01
     33 -0.491515D-01  0.693555D-01  0.860810D+01  0.155167D+00 -0.520489D-01
     34 -0.924900D-02  0.302860D+00  0.158491D+00  0.881122D+01 -0.333614D-01
     35 -0.804539D-01 -0.161495D+00 -0.552023D-01 -0.393992D-01  0.860646D+01
     36  0.439016D+00  0.229328D+01  0.464968D-01 -0.272423D+01 -0.220286D+01
     37  0.317274D+01  0.628560D+01  0.120166D+00 -0.260512D+01 -0.224240D+01
     38  0.467131D+00  0.237890D+01 -0.305920D+01 -0.940257D+00  0.168456D+01
     39  0.321999D+01  0.636514D+01 -0.294708D+01 -0.781742D+00  0.166580D+01
     40  0.000000D+00  0.449164D-01  0.641567D-01  0.134112D+00 -0.352026D-01
     41  0.454936D-01  0.818784D+00  0.655554D+00  0.137168D+01 -0.357564D+00
     42 -0.649242D-01 -0.659182D+00 -0.140511D+00 -0.113768D+01  0.296565D+00
     43 -0.135822D+00 -0.137660D+01 -0.113565D+01 -0.197096D+01  0.618422D+00
     44  0.357260D-01  0.363118D+00  0.299476D+00  0.625624D+00  0.241165D+00
     45  0.148708D+01  0.356921D+01  0.129775D+01  0.270215D+01 -0.682100D+00
     46 -0.161479D+01 -0.312786D+01  0.938986D+00 -0.235380D+01  0.593664D+00
     47 -0.337845D+01 -0.654340D+01 -0.236584D+01 -0.285220D+01  0.124152D+01
     48  0.888923D+00  0.173140D+01  0.626430D+00  0.130342D+01  0.175602D+01
     49  0.443442D-05  0.569419D-02  0.230352D-02  0.159249D-01 -0.448536D-02
     50  0.198653D+00  0.674225D+00  0.101314D+00  0.758955D+00 -0.210249D+00
     51  0.121527D+00  0.113254D+01  0.863901D+00 -0.904262D-01  0.172482D+01
     52  0.233801D+01  0.492464D+01  0.149820D+01  0.297849D-03  0.285774D+01
                6             7             8             9            10 
      6  0.153756D+02
      7  0.465656D+00  0.120318D+02
      8  0.990187D+00  0.561995D+00  0.128448D+02
      9 -0.131599D+00 -0.146836D+00 -0.197410D+00  0.120053D+02
     10  0.393039D+01  0.103329D+00 -0.463199D+01 -0.367457D+01  0.128059D+02
     11  0.834767D+01  0.235751D+00 -0.476436D+01 -0.405233D+01  0.760948D+01
     12  0.408764D+01 -0.504850D+01 -0.157298D+01  0.290012D+01  0.131837D+00
     13  0.852135D+01 -0.527462D+01 -0.142609D+01  0.310837D+01  0.160855D+01
     14  0.147407D+01  0.160334D+01  0.334097D+01 -0.881365D+00  0.266022D-05
     15  0.350814D+01  0.304922D+01  0.638937D+01 -0.168018D+01  0.411874D-02
     16 -0.132089D+01  0.879710D+00 -0.240110D+01  0.632047D+00 -0.349281D-02
     17 -0.267819D+01 -0.232212D+01 -0.280146D+01  0.126656D+01 -0.115955D-01
     18  0.719205D+00  0.624457D+00  0.129417D+01  0.168563D+01 -0.129611D-02
     19  0.652121D+01  0.356071D+01  0.746301D+01 -0.192354D+01  0.322498D+00
     20 -0.368570D+01  0.322465D+01 -0.369219D+01  0.953688D+00 -0.290932D+00
     21 -0.761949D+01 -0.363458D+01 -0.253595D+01  0.191958D+01 -0.990959D+00
     22  0.205951D+01  0.991058D+00  0.202902D+01  0.451555D+01 -0.127299D+00
     23  0.398157D+00  0.146126D+00  0.119725D+01 -0.329421D+00  0.295380D-05
     24  0.216815D+01  0.603970D+00  0.384228D+01 -0.104248D+01  0.345133D-01
     25  0.297670D+01  0.231966D+01 -0.155564D+00  0.469045D+01  0.948568D-02
     26  0.727179D+01  0.304571D+01  0.199832D+00  0.580368D+01  0.619437D+00
     27  0.821229D+01  0.582068D-01  0.300366D-01  0.773407D-01  0.424250D+00
     28  0.139627D+02  0.221980D+00  0.360025D+00  0.625379D-01  0.224576D+01
     29  0.157973D+00  0.861161D+01  0.158060D+00 -0.503137D-01  0.451125D-01
     30  0.486899D+00  0.161402D+00  0.881408D+01 -0.312916D-01 -0.268876D+01
     31 -0.173273D+00 -0.534710D-01 -0.373572D-01  0.860737D+01 -0.215498D+01
     32  0.153776D+02  0.512453D+00  0.100948D+01 -0.637312D-01  0.390311D+01
     33  0.392715D+00  0.120325D+02  0.558260D+00 -0.143858D+00  0.770742D-01
     34  0.965747D+00  0.564663D+00  0.128464D+02 -0.194831D+00 -0.460821D+01
     35 -0.239737D+00 -0.150220D+00 -0.206566D+00  0.120078D+02 -0.368584D+01
     36  0.394026D+01  0.743375D-01 -0.460575D+01 -0.372045D+01  0.128075D+02
     37  0.835967D+01  0.203710D+00 -0.472759D+01 -0.410036D+01  0.761004D+01
     38  0.401725D+01 -0.505965D+01 -0.156066D+01  0.278314D+01  0.131628D+00
     39  0.844113D+01 -0.533247D+01 -0.142999D+01  0.300121D+01  0.160895D+01
     40  0.146726D+01  0.159435D+01  0.333270D+01 -0.874954D+00  0.255013D-05
     41  0.349205D+01  0.303279D+01  0.637696D+01 -0.166816D+01  0.401142D-02
     42 -0.130907D+01  0.881138D+00 -0.238606D+01  0.624373D+00 -0.339643D-02
     43 -0.268160D+01 -0.232493D+01 -0.283652D+01  0.126548D+01 -0.113145D-01
     44  0.708596D+00  0.614114D+00  0.127755D+01  0.168175D+01 -0.126952D-02
     45  0.650012D+01  0.354676D+01  0.745939D+01 -0.191246D+01  0.319168D+00
     46 -0.366602D+01  0.321982D+01 -0.368298D+01  0.945555D+00 -0.287508D+00
     47 -0.761927D+01 -0.363335D+01 -0.257963D+01  0.191466D+01 -0.982508D+00
     48  0.204272D+01  0.981541D+00  0.201710D+01  0.450537D+01 -0.126550D+00
     49  0.380554D+00  0.147496D+00  0.114881D+01 -0.324659D+00  0.267723D-05
     50  0.211153D+01  0.614637D+00  0.376048D+01 -0.104637D+01  0.332789D-01
     51  0.288855D+01  0.229742D+01 -0.246266D+00  0.459159D+01  0.929690D-02
     52  0.714628D+01  0.305016D+01  0.663913D-01  0.575572D+01  0.616468D+00
               11            12            13            14            15 
     11  0.104365D+02
     12  0.162694D+01  0.129533D+02
     13  0.448602D+01  0.770481D+01  0.105526D+02
     14  0.173574D+00  0.000000D+00  0.126907D+00  0.752161D+02
     15  0.596326D+00  0.224034D-02  0.466155D+00  0.584021D+01  0.188674D+02
     16 -0.209138D+00 -0.428640D-02 -0.366997D+00 -0.922323D-01 -0.539732D+00
     17 -0.680887D+00 -0.488637D-02 -0.405821D+00  0.573893D-02 -0.562742D+00
     18 -0.749994D-01  0.241778D-02  0.205903D+00  0.529367D-01  0.188373D+00
     19  0.195207D+01  0.254742D+00  0.170102D+01  0.809653D+01  0.134580D+02
     20 -0.112638D+01 -0.537427D+00 -0.205931D+01 -0.125724D-01 -0.336771D+00
     21 -0.353947D+01 -0.587008D+00 -0.244473D+01 -0.404308D-02 -0.379516D+00
     22 -0.270294D+00  0.303260D+00  0.117243D+01  0.622197D-02  0.118362D+00
     23  0.368270D-01  0.945445D-05  0.538186D-01  0.998463D+00  0.357366D+01
     24  0.469355D+00  0.532596D-01  0.579412D+00  0.381509D+01  0.716742D+01
     25  0.591724D+00  0.136491D+00  0.159504D+01  0.906733D-04  0.240258D-01
     26  0.261475D+01  0.166004D+01  0.448239D+01  0.409655D+00  0.118535D+01
     27  0.314773D+01  0.494544D+00  0.326421D+01  0.000000D+00  0.470892D-01
     28  0.624196D+01  0.245499D+01  0.643903D+01  0.463959D-01  0.835191D+00
     29  0.969902D-01 -0.312237D+01 -0.296433D+01  0.658639D-01  0.664291D+00
     30 -0.262112D+01 -0.970636D+00 -0.796254D+00  0.138025D+00  0.139382D+01
     31 -0.226014D+01  0.175769D+01  0.166897D+01 -0.371443D-01 -0.373990D+00
     32  0.831843D+01  0.408218D+01  0.851633D+01  0.147996D+01  0.351936D+01
     33  0.196607D+00 -0.506821D+01 -0.531000D+01  0.159844D+01  0.303667D+01
     34 -0.475864D+01 -0.158053D+01 -0.143872D+01  0.335019D+01  0.640176D+01
     35 -0.409277D+01  0.285691D+01  0.304886D+01 -0.901493D+00 -0.171846D+01
     36  0.761438D+01  0.132234D+00  0.161126D+01  0.282136D-05  0.424462D-02
     37  0.104404D+02  0.162855D+01  0.449006D+01  0.176082D+00  0.603308D+00
     38  0.161959D+01  0.129089D+02  0.766966D+01  0.000000D+00  0.209971D-02
     39  0.447658D+01  0.769565D+01  0.105268D+02  0.123333D+00  0.455323D+00
     40  0.172038D+00  0.000000D+00  0.126398D+00  0.751852D+02  0.584048D+01
     41  0.591057D+00  0.221041D-02  0.464060D+00  0.584213D+01  0.188641D+02
     42 -0.206357D+00 -0.422663D-02 -0.364639D+00  0.222903D-01 -0.512905D+00
     43 -0.676725D+00 -0.483184D-02 -0.405620D+00 -0.498105D+00 -0.674968D+00
     44 -0.753058D-01  0.238151D-02  0.204128D+00 -0.115211D+00  0.148456D+00
     45  0.194043D+01  0.253484D+00  0.169553D+01  0.809642D+01  0.134569D+02
     46 -0.111754D+01 -0.534449D+00 -0.205089D+01 -0.103909D-03 -0.319437D+00
     47 -0.352549D+01 -0.585574D+00 -0.244314D+01 -0.589301D-01 -0.454392D+00
     48 -0.271346D+00  0.301278D+00  0.116620D+01 -0.120827D-01  0.928489D-01
     49  0.354986D-01  0.766027D-05  0.499762D-01  0.962384D+00  0.349833D+01
     50  0.458517D+00  0.493754D-01  0.553948D+00  0.378196D+01  0.711157D+01
     51  0.584425D+00  0.128376D+00  0.155237D+01  0.685387D-04  0.206263D-01
     52  0.259589D+01  0.162466D+01  0.441329D+01  0.382798D+00  0.112092D+01
               16            17            18            19            20 
     16  0.198171D+02
     17  0.704288D-01  0.201680D+02
     18 -0.162996D-01 -0.132462D+00  0.197569D+02
     19 -0.522042D+00 -0.570297D+00  0.186081D+00  0.147431D+02
     20  0.823532D+01  0.797139D-01 -0.191702D-01 -0.848675D+00  0.114220D+02
     21  0.797139D-01  0.856191D+01 -0.123164D+00 -0.118441D+01  0.434344D+00
     22 -0.191702D-01 -0.123164D+00  0.817998D+01  0.360227D+00 -0.112868D+00
     23 -0.228624D+01  0.428320D+01 -0.126465D+01  0.483761D+01 -0.286220D+01
     24 -0.184936D+01  0.288197D+01 -0.843347D+00  0.907026D+01 -0.311961D+01
     25 -0.339903D-02 -0.426100D-01  0.444053D-01  0.629879D+00 -0.917716D-01
     26 -0.100015D+00 -0.878044D+00  0.876869D+00  0.292754D+01 -0.486468D+00
     27 -0.669342D-01 -0.140026D+00  0.376420D-01  0.150093D+01 -0.162389D+01
     28 -0.669672D+00 -0.139864D+01  0.378342D+00  0.359796D+01 -0.313994D+01
     29 -0.137081D+00 -0.114656D+01  0.310383D+00  0.128892D+01  0.971726D+00
     30 -0.115192D+01 -0.199217D+01  0.650315D+00  0.271073D+01 -0.234894D+01
     31  0.309473D+00  0.645387D+00  0.238193D+00 -0.722347D+00  0.628951D+00
     32 -0.131719D+01 -0.268385D+01  0.733135D+00  0.653449D+01 -0.367279D+01
     33  0.898308D+00 -0.230968D+01  0.632156D+00  0.353750D+01  0.325946D+01
     34 -0.239095D+01 -0.279878D+01  0.131846D+01  0.746861D+01 -0.367106D+01
     35  0.642791D+00  0.129489D+01  0.167846D+01 -0.197386D+01  0.975777D+00
     36 -0.362565D-02 -0.119112D-01 -0.137600D-02  0.326487D+00 -0.296907D+00
     37 -0.213211D+00 -0.686705D+00 -0.780767D-01  0.196616D+01 -0.114153D+01
     38 -0.405977D-02 -0.458556D-02  0.223375D-02  0.247206D+00 -0.527527D+00
     39 -0.362193D+00 -0.396903D+00  0.198135D+00  0.167402D+01 -0.204751D+01
     40 -0.167049D+00  0.336231D+00  0.162668D+00  0.809552D+01 -0.213749D-01
     41 -0.548899D+00 -0.517869D+00  0.201440D+00  0.134546D+02 -0.348479D+00
     42  0.198134D+02  0.658100D-01 -0.165102D-01 -0.501419D+00  0.823308D+01
     43  0.743593D-01  0.201623D+02 -0.135650D+00 -0.652636D+00  0.800761D-01
     44 -0.147478D-01 -0.130859D+00  0.197533D+02  0.155356D+00 -0.184721D-01
     45 -0.528249D+00 -0.540901D+00  0.195096D+00  0.147400D+02 -0.856266D+00
     46  0.823409D+01  0.780531D-01 -0.189861D-01 -0.833119D+00  0.114186D+02
     47  0.825547D-01  0.856340D+01 -0.124477D+00 -0.124389D+01  0.436842D+00
     48 -0.180747D-01 -0.121881D+00  0.817905D+01  0.337899D+00 -0.111144D+00
     49 -0.215519D+01  0.423062D+01 -0.133647D+01  0.478029D+01 -0.273208D+01
     50 -0.177516D+01  0.289382D+01 -0.911926D+00  0.901028D+01 -0.299807D+01
     51 -0.263992D-02 -0.372352D-01  0.383460D-01  0.590861D+00 -0.767923D-01
     52 -0.886297D-01 -0.843919D+00  0.833235D+00  0.281964D+01 -0.448248D+00
               21            22            23            24            25 
     21  0.125083D+02
     22 -0.406969D+00  0.112575D+02
     23  0.538417D+01 -0.159281D+01  0.132035D+02
     24  0.483947D+01 -0.142605D+01  0.785536D+01  0.105831D+02
     25 -0.123983D+01  0.130519D+01  0.217963D-04  0.646169D-01  0.125322D+02
     26 -0.346943D+01  0.324400D+01  0.769567D-01  0.721659D+00  0.743878D+01
     27 -0.339668D+01  0.912655D+00  0.548511D-05  0.209213D+00  0.141927D+00
     28 -0.656846D+01  0.177734D+01  0.635816D-02  0.703692D+00  0.124021D+01
     29 -0.233526D+01  0.633903D+00  0.239155D-02  0.963954D-01  0.923394D+00
     30 -0.282670D+01  0.133357D+01  0.176889D-01  0.787970D+00 -0.621497D-01
     31  0.131549D+01  0.174576D+01 -0.491476D-02 -0.217855D+00  0.187102D+01
     32 -0.762602D+01  0.209209D+01  0.398527D+00  0.216993D+01  0.301245D+01
     33 -0.360164D+01  0.998913D+00  0.143695D+00  0.594792D+00  0.232845D+01
     34 -0.251991D+01  0.206224D+01  0.119737D+01  0.384215D+01 -0.164666D+00
     35  0.197466D+01  0.450182D+01 -0.333557D+00 -0.105834D+01  0.471904D+01
[...]
  37        2S       -613.32253  -1.72236 -81.91661  -0.02173   2.81401
  38 9   H  1S         -1.05448  -1.13041  -1.28025  -0.00000   0.00057
  39        2S        -80.93280  -0.22603-126.86271   0.00011  -0.84027
  40 10  C  1S         -0.00801  -0.00000   0.00801 -40.60894 130.95603
  41        2S          2.58342   0.00010  -1.13605 130.67669**********
  42        2PX         0.93921  -0.00007   1.29061   0.00608  -0.16067
  43        2PY        -4.77477  -0.00016  -3.69741  -0.11233  -1.58372
  44        2PZ         1.14324  -0.00121  -0.72314  -0.01145  -0.17173
  45        3S         -0.10978   0.01016  -0.11370  -0.09236   3.95632
  46        3PX        -1.11364   0.94828  -4.39257  -0.00776   0.19395
  47        3PY       -99.18914  -2.54610 -15.20546   0.10926  -4.68521
  48        3PZ        31.74833  -0.82579 -12.13901   0.00033  -0.53198
  49 11  H  1S          0.01834   0.00000   0.01804   0.00375   1.56625
  50        2S          1.88189   0.02748   2.18003  -0.26235  31.80129
  51 12  H  1S         -0.07877   0.00215   0.13521  -0.00000   0.00872
  52        2S         33.13301   0.05415  30.02756  -0.02089   2.69962
                          16        17        18        19        20
  16        2PX       223.68872
  17        2PY         0.000002940.48809
  18        2PZ         0.00000   0.00000 408.81261
  19        3S          0.00000   0.00000   0.00000   0.55076
  20        3PX        52.59312   0.00000   0.00000   0.000001652.86642
  21        3PY         0.00000**********   0.00000   0.00000   0.00000
  22        3PZ         0.00000   0.00000 437.84423   0.00000   0.00000
  23 5   H  1S          0.34665   6.20502  -0.91817   0.03903   5.32400
  24        2S          0.83194   3.97912   4.49545  -3.09643  50.18292
  25 6   H  1S          0.00014  -0.02824   0.00289  -0.00303   0.02402
  26        2S          0.07185  -3.34630  -2.25034   0.20574  -1.55218
  27 7   C  1S          0.00546   0.00551  -0.00577   0.00245  -0.27657
  28        2S         -0.83474  -1.91376   3.48480   0.47508   3.43350
  29        2PX         0.19883   4.58851  -0.11489   0.38511   6.27972
  30        2PY         0.94997  -4.58084   1.54595   0.34911 -10.45884
  31        2PZ        -1.22376  -1.01654  -0.37556  -0.25890  -0.19898
  32        3S         -0.35832   2.21399  -0.28582  -0.16793   0.09071
  33        3PX        13.35834 121.83508  -8.99397  -1.06944  20.16637
  34        3PY       -12.15498 -17.12742  14.33172  -5.06481 146.51595
  35        3PZ         1.01675 -12.29144 -24.10045   0.94715   5.65318
  36 8   H  1S          0.00032  -0.00248   0.00240  -0.01002   0.45074
  37        2S          0.84166  -4.83432   1.18366   0.12985  -0.45105
  38 9   H  1S         -0.00017   0.00069  -0.00098  -0.00595   0.48867
  39        2S          1.19445  -3.38311  -0.70231   0.10745  -3.92903
  40 10  C  1S         -0.03401  -0.36486  -0.03440  -0.02942   0.00610
  41        2S          0.13111   1.12021   0.11125  -3.65889  -0.17495
  42        2PX      -224.91918   0.01093   0.00083   0.00339 -56.96792
  43        2PY         0.01088**********   0.01718   0.04980   0.00105
  44        2PZ         0.00084   0.01728-411.39002   0.00610   0.00004
  45        3S          0.00328   0.04996   0.00614   0.55037  -0.00484
  46        3PX       -49.71012   0.00103   0.00004  -0.00501**********
  47        3PY        -0.001861503.84238  -0.00405  -0.20734   0.00073
  48        3PZ         0.00042   0.00725-435.65941   0.02942   0.00005
  49 11  H  1S         -1.57984 -11.40736   0.46378  -0.10632  -3.58688
  50        2S         -1.47955  -9.62962  -4.13674   2.80521 -46.83045
  51 12  H  1S         -0.00005   0.02036  -0.00531   0.00148   0.00999
  52        2S         -0.05175   3.00818   2.05987  -0.18855   1.24312
                          21        22        23        24        25
  21        3PY      7721.82747
  22        3PZ         0.000003468.05477
  23 5   H  1S         -6.60357   0.72644   1.63822
  24        2S        264.23522  18.47180   1.06825 127.15428
  25 6   H  1S         -1.18877  -0.21554   0.00000   0.00837   1.30517
  26        2S        -31.22678 -32.19719   0.00610   2.04921  -0.20309
  27 7   C  1S         -0.92655  -0.46138   0.00000   0.00110  -0.00248
  28        2S        169.21972  55.74992  -0.00095  -2.30941   0.67797
  29        2PX        54.19471  -3.65623  -0.00018  -0.21885  -0.28656
  30        2PY        20.87095  12.84373  -0.00039  -1.07867   0.01259
  31        2PZ       -24.16312 -15.31163   0.00030   0.49164  -0.48719
  32        3S        -19.45988  -2.52719  -0.00219   0.56604   0.04645
  33        3PX       -11.62351 -90.82055  -0.01540  -1.09269  -0.32164
  34        3PY       -74.84923 166.24646   0.31340  19.26127  -0.12454
  35        3PZ       130.15846-228.30760   0.17262  -9.53435   2.17104
  36 8   H  1S         -4.27925   0.98035   0.00000   0.02892   0.00040
  37        2S        -94.60324  33.01240   0.01392   2.12836   0.18762
  38 9   H  1S         -1.34167  -0.59677   0.00000   0.02087   0.00072
  39        2S        -14.96919 -12.48192   0.00520   2.20797  -0.03786
  40 10  C  1S         -0.01244  -0.01662  -0.04864  -0.07595  -0.00000
  41        2S          4.60600   0.59984   7.21610  27.09425   0.01363
  42        2PX        -0.00192   0.00042  -0.44663  -0.32721  -0.00016
  43        2PY      1497.70149   0.00730  -6.30474  -4.70536   0.02808
  44        2PZ        -0.00398-439.29292   0.92739  -4.96529  -0.00316
  45        3S         -0.20803   0.02950   0.03932  -3.09775  -0.00300
  46        3PX         0.00077   0.00005  -5.24829 -50.04352  -0.02304
  47        3PY      **********  -0.01229   6.65554-260.76936   1.17638
  48        3PZ        -0.01228**********  -0.74276 -18.40519   0.22566
  49 11  H  1S         13.15456   3.40967  -0.29295  -1.53069  -0.00000
  50        2S       -242.66343 -13.40052  -1.13678-125.15987  -0.00777
  51 12  H  1S          0.05647  -0.61823  -0.00000  -0.00480   0.04053
  52        2S         30.22486  30.02927  -0.00501  -1.85532   0.23162
                          26        27        28        29        30
  26        2S        102.01379
  27 7   C  1S          0.38821  12.56596
  28        2S        -29.56630 -36.773963151.42153
  29        2PX         4.82009   0.00000   0.00000 291.49502
  30        2PY        -0.23121   0.00000   0.00000   0.00000  67.24860
  31        2PZ        18.89498   0.00000   0.00000   0.00000   0.00000
  32        3S         -0.44976  -0.05270  -1.09795   0.00000   0.00000
  33        3PX       -13.01721   0.00000   0.00000  52.51011   0.00000
  34        3PY         5.69116   0.00000   0.00000   0.00000 -40.99446
  35        3PZ        10.17118   0.00000   0.00000   0.00000   0.00000
  36 8   H  1S          0.40045   0.01105  -5.65532  -0.01023   1.14254
  37        2S         34.31782   0.86528 -83.20534   0.17277   4.71374
  38 9   H  1S          0.02063  -0.00009  -1.59298   1.34425   0.33160
  39        2S         29.90100   0.23367 -28.93843  -5.13206  -0.17924
  40 10  C  1S         -0.03110   0.00000  -0.00301   0.00878  -0.01411
  41        2S          2.95959  -0.00370   1.75399  -5.51059   5.96931
  42        2PX        -0.07714  -0.00557   0.94463  -0.18915  -0.94460
  43        2PY         3.46804  -0.00554   1.96805  -4.55272   4.64352
  44        2PZ         2.60513   0.00567  -3.45043   0.14430  -1.52905
  45        3S          0.20639   0.00243   0.47307   0.38165   0.34883
  46        3PX         1.56849   0.28287  -3.93127  -6.33202  10.65164
  47        3PY        30.66675   0.93797-169.38638 -53.02083 -21.07639
  48        3PZ        31.79039   0.45709 -55.11186   3.57718 -12.61076
  49 11  H  1S         -0.00759  -0.00000   0.00143   0.00016   0.00056
  50        2S         -2.01603  -0.00009   1.97644   0.23178   0.91437
  51 12  H  1S         -0.02549   0.00151  -0.16326   0.43750  -0.00994
  52        2S        -98.75308  -0.35361  27.12506  -4.52405   0.32779
                          31        32        33        34        35
  31        2PZ       647.05594
  32        3S          0.00000   0.46436
  33        3PX         0.00000   0.000001011.86454
  34        3PY         0.00000   0.00000   0.000001757.19259
  35        3PZ       -90.67293   0.00000   0.00000   0.00000 551.93967
  36 8   H  1S          0.66147   0.21675   0.07753  12.60871 -10.15681
  37        2S        -32.74090   0.11261   0.44374 352.84026 -67.97811
  38 9   H  1S         -0.98543   0.13336  -5.41422  -0.36335   3.29417
  39        2S          6.04827   0.11024  41.67554  43.51153  32.82332
  40 10  C  1S         -0.00044   0.00139   1.25913  -1.36430  -0.02874
  41        2S          1.16667   0.57773-117.13310 181.77153   1.24853
  42        2PX         1.20700   0.36968 -13.32283  11.88009  -1.57883
  43        2PY         0.98416  -2.19434-121.44045  17.51738  11.97967
  44        2PZ         0.40432   0.28464   9.48045 -14.51925  23.56707
  45        3S         -0.25615  -0.16728  -1.07338  -5.04574   0.94100
  46        3PX         0.04153  -0.13419 -16.52657-146.89825  -5.20070
  47        3PY        23.44355  19.34792  15.03114  73.54506-129.63767
  48        3PZ        15.29675   2.49596  88.81937-164.48725 226.67369
  49 11  H  1S         -0.00002   0.00359   0.09989  -0.05034   0.01417
  50        2S         -0.50051  -0.51137   1.50785 -21.32306   8.83788
  51 12  H  1S          1.34025  -0.04181   0.90643   0.25420  -1.29203
  52        2S        -17.50561   0.40183  12.92518  -8.03507 -10.42071
                          36        37        38        39        40
  36 8   H  1S          6.05134
  37        2S         26.46357 614.51358
  38 9   H  1S          0.01795   1.03532   1.01520
  39        2S          1.87788  80.97873   1.38080 123.06754
  40 10  C  1S          0.00000   0.00915   0.00000  -0.00660  42.22516
  41        2S         -0.00249  -2.80822  -0.00057   0.86634-130.98583
  42        2PX        -0.00046  -0.96136   0.00016  -1.22975   0.00000
  43        2PY         0.00229   4.67163  -0.00069   3.37605   0.00000
  44        2PZ        -0.00239  -1.18314   0.00098   0.70491   0.00000
  45        3S         -0.00992   0.12826  -0.00592   0.10742  -0.03014
  46        3PX        -0.43739   1.03715  -0.48848   4.52410   0.00000
  47        3PY         4.24857  95.32313   1.33633  14.93246   0.00000
  48        3PZ        -0.96758 -32.82137   0.58774  12.45082   0.00000
  49 11  H  1S         -0.00000  -0.01867  -0.00000  -0.01699   0.01922
  50        2S         -0.02588  -1.85091  -0.01788  -2.06920   0.15826
  51 12  H  1S         -0.00015   0.08462  -0.00155  -0.11301   0.00000
  52        2S         -0.38119 -32.80965  -0.01625 -28.53122   0.02795
                          41        42        43        44        45
  41        2S       **********
  42        2PX         0.00000 228.74295
  43        2PY         0.00000   0.000002940.16141
  44        2PZ         0.00000   0.00000   0.00000 416.57210
  45        3S         -3.60026   0.00000   0.00000   0.00000   0.54999
  46        3PX         0.00000  53.63309   0.00000   0.00000   0.00000
  47        3PY         0.00000   0.00000**********   0.00000   0.00000
  48        3PZ         0.00000   0.00000   0.00000 436.68100   0.00000
  49 11  H  1S         -1.68135   1.66481  11.45752  -0.48315  -0.10689
  50        2S        -31.87358   1.03081  10.39599   4.65106   2.80548
  51 12  H  1S         -0.00882   0.00005  -0.02034   0.00528   0.00146
  52        2S         -2.69931   0.05532  -3.12274  -2.38527  -0.18917
                          46        47        48        49        50
  46        3PX      1636.97139
  47        3PY         0.000007656.16405
  48        3PZ         0.00000   0.000003436.02019
  49 11  H  1S          3.48638 -13.16760  -3.41677   0.88735
  50        2S         46.62866 239.14293  13.29005   1.72304 123.84847
  51 12  H  1S         -0.00987  -0.03860   0.61260   0.00000   0.00500
  52        2S         -1.24989 -29.67819 -29.64683   0.00629   1.82641
                          51        52
  51 12  H  1S          0.29010
  52        2S          0.07274  95.70725
     Gross orbital populations:
                           1
   1 1   C  1S          1.19140
   2        2S          1.78554
   3        2PX         1.41114
   4        2PY         1.40797
   5        2PZ         2.68262
   6        3S          0.37751
   7        3PX       -11.50805
   8        3PY        14.68327
   9        3PZ         8.99056
  10 2   H  1S          0.54697
  11        2S         -1.35178
  12 3   H  1S          1.75913
  13        2S         -2.37383
  14 4   C  1S          1.17734
  15        2S          1.34319
  16        2PX        -0.75664
  17        2PY         2.23759
  18        2PZ        -0.36781
  19        3S          0.35231
  20        3PX        11.01425
  21        3PY        18.61683
  22        3PZ        29.65154
  23 5   H  1S          1.40632
  24        2S          0.61254
  25 6   H  1S          1.44623
  26        2S         -2.42341
  27 7   C  1S          1.16392
  28        2S         -0.33797
  29        2PX         0.70208
  30        2PY         0.82684
  31        2PZ        -0.53265
  32        3S          0.37646
  33        3PX        12.29403
  34        3PY       -14.72212
  35        3PZ        -8.49798
  36 8   H  1S          1.34274
  37        2S          1.68508
  38 9   H  1S          0.14573
  39        2S          2.51301
  40 10  C  1S          1.16965
  41        2S          0.18672
  42        2PX         2.90795
  43        2PY        -0.07692
  44        2PZ         2.54732
  45        3S          0.35095
  46        3PX       -10.92884
  47        3PY       -18.51619
  48        3PZ       -29.51271
  49 11  H  1S          0.48822
  50        2S         -0.29070
  51 12  H  1S          0.35101
  52        2S          2.45161
          Condensed to atoms (all electrons):
               1          2          3          4          5          6
     1  C 7263.680253 173.827340  88.674694-337.135275  -4.327381  -1.876938
     2  H  173.827340 674.403414  85.579385  70.233713  -2.200611 -35.137178
     3  H   88.674694  85.579385 134.608524  37.810889  -2.355578 -31.496690
     4  C -337.135275  70.233713  37.810889*********** 310.184719 -74.653488
     5  H   -4.327381  -2.200611  -2.355578 310.184719 130.928994   2.063680
     6  H   -1.876938 -35.137178 -31.496690 -74.653488   2.063680 102.912774
     7  C ***********-174.504465 -92.306210 312.624431   6.553294  -1.613230
     8  H -173.627375-672.832426 -85.551403 -64.784166   2.171198  34.906290
     9  H  -83.645346 -83.899184-129.499403 -36.459420   2.234043  29.884490
    10  C  340.062753 -71.540732 -38.523525***********-313.248091  74.570927
    11  H    6.849269   1.928282   2.225547-281.878534-128.120284  -2.031391
    12  H    1.900878  33.337652  30.219065  68.477168  -1.865120 -98.506423
               7          8          9         10         11         12
     1  C ***********-173.627375 -83.645346 340.062753   6.849269   1.900878
     2  H -174.504465-672.832426 -83.899184 -71.540732   1.928282  33.337652
     3  H  -92.306210 -85.551403-129.499403 -38.523525   2.225547  30.219065
     4  C  312.624431 -64.784166 -36.459420***********-281.878534  68.477168
     5  H    6.553294   2.171198   2.234043-313.248091-128.120284  -1.865120
     6  H   -1.613230  34.906290  29.884490  74.570927  -2.031391 -98.506423
     7  C 7257.084442 174.119746  86.900148-316.801042  -8.797266   1.373671
     8  H  174.119746 673.492057  83.909883  66.225851  -1.895463 -33.106372
     9  H   86.900148  83.909883 126.844349  37.155293  -2.104069 -28.662035
    10  C -316.801042  66.225851  37.155293*********** 284.001839 -68.346385
    11  H   -8.797266  -1.895463  -2.104069 284.001839 128.181896   1.837697
    12  H    1.373671 -33.106372 -28.662035 -68.346385   1.837697  96.142824
 Mulliken charges:
               1
     1  C  -15.021961
     2  H    1.804811
     3  H    1.614705
     4  C  -57.268614
     5  H   -1.018863
     6  H    1.977178
     7  C   14.727392
     8  H   -2.027820
     9  H   -1.658748
    10  C   57.872064
    11  H    0.802476
    12  H   -1.802620
 Sum of Mulliken charges =  -0.00000
 Mulliken charges with hydrogens summed into heavy atoms:
               1
     1  C  -15.289014
     4  C  -57.268614
     7  C   14.901951
    10  C   57.655677
 N-N= 6.744730860443D+03 E-N=-8.489262547223D+02  KE= 1.654062975384D+02
 Orbital energies and kinetic energies (alpha):
                                 1                 2
   1         O               -36.139553         19.743970
   2         O               -36.091533         19.677221
   3         O                -3.622460          8.336495
   4         O                -3.596086          8.250965
   5         O                -2.781240          2.505372
   6         O                -2.675549          2.681666
   7         O                -2.354023          2.966729
   8         O                -2.290459          2.935355
   9         O                -2.213198          3.006632
  10         O                -2.175980          3.141853
  11         O                -1.152404          2.097167
  12         O                -1.100109          1.717855
  13         O                -1.072605          1.807624
  14         O                -1.056546          1.535611
  15         O                -0.139626          1.200645
  16         O                -0.113639          1.097988
  17         V                -0.086206          1.094657
  18         V                -0.022372          0.971767
  19         V                -0.002791          0.917275
  20         V                 0.019393          1.052407
  21         V                 0.083479          0.893185
  22         V                 0.136396          1.117756
  23         V                 0.158560          0.899947
  24         V                 0.170792          1.108813
  25         V                 0.202357          1.166113
  26         V                 0.230359          1.058950
  27         V                 0.238390          0.898102
  28         V                 0.249048          1.030225
  29         V                 0.293492          1.023836
  30         V                 0.347804          1.531332
  31         V                 0.436037          1.218077
  32         V                 0.464712          1.502954
  33         V                 0.502660          1.899078
  34         V                 0.585608          1.805942
  35         V                 0.693893          2.250056
  36         V                 0.869436          2.551601
  37         V                 1.275337          5.245979
  38         V                 1.373673          5.356745
  39         V                 1.448693          5.590070
  40         V                 1.497790          5.896370
  41         V                 1.563588          6.365161
  42         V                 1.667831          6.019879
  43         V                 1.688492          6.745693
  44         V                 1.787016          6.489813
  45         V                 2.673524          4.910068
  46         V                 2.722817          5.380665
  47         V                 2.735101          5.240618
  48         V                 2.886083          5.205016
  49         V                48.243132        110.971775
  50         V                48.754467        111.396172
 Total kinetic energy from orbitals= 1.654062975384D+02

 This type of calculation cannot be archived.


 IT IS BETTER TO THINK YOU ARE HALF DRY THAN TO KNOW YOU
 ARE ALL WET.  -- SNOOPY
 Job cpu time:       0 days  0 hours  0 minutes  2.9 seconds.
 Elapsed time:       0 days  0 hours  0 minutes  5.4 seconds.
 File lengths (MBytes):  RWF=    272 Int=      0 D2E=      0 Chk=     32 Scr=     32
 Normal termination of Gaussian 16 at Sun Jan  1 19:28:24 2023.
