 Entering Gaussian System, Link 0=g16
 Initial command:
 /software/gaussian/g16-c01/sse4/g16/l1.exe "/gpfs/fs2/scratch/bweight/software/many_molecule_many_mode_NAMD/src/NAMD/TEST_ETHYLENE/G16/DIMER/Gau-18258.inp" -scrdir="/gpfs/fs2/scratch/bweight/software/many_molecule_many_mode_NAMD/src/NAMD/TEST_ETHYLENE/G16/DIMER/"
 Entering Link 1 = /software/gaussian/g16-c01/sse4/g16/l1.exe PID=     18259.
  
 Copyright (c) 1988-2019, Gaussian, Inc.  All Rights Reserved.
  
 This is part of the Gaussian(R) 16 program.  It is based on
 the Gaussian(R) 09 system (copyright 2009, Gaussian, Inc.),
 the Gaussian(R) 03 system (copyright 2003, Gaussian, Inc.),
 the Gaussian(R) 98 system (copyright 1998, Gaussian, Inc.),
 the Gaussian(R) 94 system (copyright 1995, Gaussian, Inc.),
 the Gaussian 92(TM) system (copyright 1992, Gaussian, Inc.),
 the Gaussian 90(TM) system (copyright 1990, Gaussian, Inc.),
 the Gaussian 88(TM) system (copyright 1988, Gaussian, Inc.),
 the Gaussian 86(TM) system (copyright 1986, Carnegie Mellon
 University), and the Gaussian 82(TM) system (copyright 1983,
 Carnegie Mellon University). Gaussian is a federally registered
 trademark of Gaussian, Inc.
  
 This software contains proprietary and confidential information,
 including trade secrets, belonging to Gaussian, Inc.
  
 This software is provided under written license and may be
 used, copied, transmitted, or stored only in accord with that
 written license.
  
 The following legend is applicable only to US Government
 contracts under FAR:
  
                    RESTRICTED RIGHTS LEGEND
  
 Use, reproduction and disclosure by the US Government is
 subject to restrictions as set forth in subparagraphs (a)
 and (c) of the Commercial Computer Software - Restricted
 Rights clause in FAR 52.227-19.
  
 Gaussian, Inc.
 340 Quinnipiac St., Bldg. 40, Wallingford CT 06492
  
  
 ---------------------------------------------------------------
 Warning -- This program may not be used in any manner that
 competes with the business of Gaussian, Inc. or will provide
 assistance to any competitor of Gaussian, Inc.  The licensee
 of this program is prohibited from giving any competitor of
 Gaussian, Inc. access to this program.  By using this program,
 the user acknowledges that Gaussian, Inc. is engaged in the
 business of creating and licensing software in the field of
 computational chemistry and represents and warrants to the
 licensee that it is not a competitor of Gaussian, Inc. and that
 it will not use this program in any manner prohibited above.
 ---------------------------------------------------------------
  

 Cite this work as:
 Gaussian 16, Revision C.01,
 M. J. Frisch, G. W. Trucks, H. B. Schlegel, G. E. Scuseria, 
 M. A. Robb, J. R. Cheeseman, G. Scalmani, V. Barone, 
 G. A. Petersson, H. Nakatsuji, X. Li, M. Caricato, A. V. Marenich, 
 J. Bloino, B. G. Janesko, R. Gomperts, B. Mennucci, H. P. Hratchian, 
 J. V. Ortiz, A. F. Izmaylov, J. L. Sonnenberg, D. Williams-Young, 
 F. Ding, F. Lipparini, F. Egidi, J. Goings, B. Peng, A. Petrone, 
 T. Henderson, D. Ranasinghe, V. G. Zakrzewski, J. Gao, N. Rega, 
 G. Zheng, W. Liang, M. Hada, M. Ehara, K. Toyota, R. Fukuda, 
 J. Hasegawa, M. Ishida, T. Nakajima, Y. Honda, O. Kitao, H. Nakai, 
 T. Vreven, K. Throssell, J. A. Montgomery, Jr., J. E. Peralta, 
 F. Ogliaro, M. J. Bearpark, J. J. Heyd, E. N. Brothers, K. N. Kudin, 
 V. N. Staroverov, T. A. Keith, R. Kobayashi, J. Normand, 
 K. Raghavachari, A. P. Rendell, J. C. Burant, S. S. Iyengar, 
 J. Tomasi, M. Cossi, J. M. Millam, M. Klene, C. Adamo, R. Cammi, 
 J. W. Ochterski, R. L. Martin, K. Morokuma, O. Farkas, 
 J. B. Foresman, and D. J. Fox, Gaussian, Inc., Wallingford CT, 2019.
 
 ******************************************
 Gaussian 16:  ES64L-G16RevC.01  3-Jul-2019
                 5-Jan-2023 
 ******************************************
 %chk=geometry.chk
 %nprocshared=1
 Will use up to    1 processors via shared memory.
 %mem=5GB
 ---------------------------------------------------------------
 # WB97XD/6-311+G* nosymm iop(2/12=3,3/33=1) guess=only pop=full
 ---------------------------------------------------------------
 1/38=1,172=1/1;
 2/12=3,15=1,17=6,18=5,40=1/2;
 3/5=4,6=6,7=11,11=2,25=1,30=1,33=1,74=-58,89=1/1,2;
 4//1;
 6/7=3,28=1/1;
 99/5=2/99;
 ------------
 MD Step 1000
 ------------
 Symbolic Z-matrix:
 Charge =  0 Multiplicity = 1
 C                     0.97507  -0.17917   0.10912 
 H                    -8.82298  -6.35757  -1.34039 
 H                    -7.9503   -6.15608  -1.75617 
 C                     0.3296    1.08995   0.09344 
 H                     0.02181   1.80809  -0.76837 
 H                     1.19003  -0.15771   1.44891 
 C                     0.98397  -0.17552   0.11279 
 H                    -8.85549  -6.38748  -1.35079 
 H                    -7.96296  -6.1543   -1.74622 
 C                     0.32767   1.09555   0.09156 
 H                     0.05149   1.7969   -0.73502 
 H                     1.19833  -0.17553   1.46222 
 
                          Input orientation:                          
 ---------------------------------------------------------------------
 Center     Atomic      Atomic             Coordinates (Angstroms)
 Number     Number       Type             X           Y           Z
 ---------------------------------------------------------------------
      1          6           0        0.975071   -0.179174    0.109117
      2          1           0       -8.822980   -6.357566   -1.340394
      3          1           0       -7.950300   -6.156082   -1.756171
      4          6           0        0.329598    1.089948    0.093442
      5          1           0        0.021807    1.808088   -0.768373
      6          1           0        1.190026   -0.157708    1.448914
      7          6           0        0.983972   -0.175516    0.112792
      8          1           0       -8.855488   -6.387482   -1.350788
      9          1           0       -7.962963   -6.154304   -1.746219
     10          6           0        0.327669    1.095553    0.091562
     11          1           0        0.051487    1.796904   -0.735019
     12          1           0        1.198328   -0.175534    1.462216
 ---------------------------------------------------------------------
                    Distance matrix (angstroms):
                    1          2          3          4          5
     1  C    0.000000
     2  H   11.673705   0.000000
     3  H   10.902522   0.987439   0.000000
     4  C    1.423921  11.886590  11.157183   0.000000
     5  H    2.372322  12.051364  11.311863   1.163265   0.000000
     6  H    1.357101  12.102841  11.392920   2.033294   3.185193
     7  C    0.010302  11.683570  10.912444   1.424773   2.374215
     8  H   11.718118   0.045385   1.018453  11.931621  12.095989
     9  H   10.910220   0.972439   0.016204  11.163786  11.318677
    10  C    1.429813  11.888391  11.159081   0.006218   1.157906
    11  H    2.338900  12.067229  11.327901   1.124046   0.046027
    12  H    1.371398  12.103666  11.393962   2.056618   3.208502
                    6          7          8          9         10
     6  H    0.000000
     7  C    1.352035   0.000000
     8  H   12.147459  11.727983   0.000000
     9  H   11.399353  10.920142   1.003663   0.000000
    10  C    2.038805   1.430664  11.933422  11.165682   0.000000
    11  H    3.144255   2.340673  12.111877  11.334710   1.118662
    12  H    0.023741   1.366343  12.148272  11.400395   2.062135
                   11         12
    11  H    0.000000
    12  H    3.167585   0.000000
 Symmetry turned off by external request.
 Stoichiometry    C4H8
 Framework group  C1[X(C4H8)]
 Deg. of freedom    30
 Full point group                 C1      NOp   1
 Rotational constants (GHZ):          14.4906623           1.0252368           0.9731390
 Standard basis: 6-311+G(d) (5D, 7F)
                         Coordinates in L301:                         
 ---------------------------------------------------------------------
 Center     Atomic      Atomic             Coordinates (Angstroms)
 Number     Number       Type             X           Y           Z
 ---------------------------------------------------------------------
      1          6           0        0.975071   -0.179174    0.109117
      2          1           0       -8.822980   -6.357566   -1.340394
      3          1           0       -7.950300   -6.156082   -1.756171
      4          6           0        0.329598    1.089948    0.093442
      5          1           0        0.021807    1.808088   -0.768373
      6          1           0        1.190026   -0.157708    1.448914
      7          6           0        0.983972   -0.175516    0.112792
      8          1           0       -8.855488   -6.387482   -1.350788
      9          1           0       -7.962963   -6.154304   -1.746219
     10          6           0        0.327669    1.095553    0.091562
     11          1           0        0.051487    1.796904   -0.735019
     12          1           0        1.198328   -0.175534    1.462216
 ---------------------------------------------------------------------
 FixB: optimizing general contractions.
 Ernie: Thresh=  0.10000D-02 Tol=  0.10000D-05 Strict=F.
 IA=     1 ShT= 0 ShC= 0 NL=   1 NS=   0.
 IA=     1 L=0 SC=0 ISt=    0 NBk=    0 NP=    0 IndPr=    0.
 IA=     1 ShT= 1 ShC= 0 NL=   4 NS=   3.
 IA=     1 L=1 SC=0 ISt=    0 NBk=    0 NP=    0 IndPr=    0.
 IA=     1 ShT= 2 ShC= 2 NL=   1 NS=   1.
 IA=     1 L=2 SC=2 ISt=    0 NBk=    0 NP=    0 IndPr=    0.
 IA=     2 ShT= 0 ShC= 0 NL=   3 NS=   2.
 IA=     2 L=0 SC=0 ISt=    0 NBk=    0 NP=    0 IndPr=    0.
 IA=     3 ShT= 0 ShC= 0 NL=   3 NS=   2.
 IA=     3 L=0 SC=0 ISt=    0 NBk=    0 NP=    0 IndPr=    0.
 IA=     4 ShT= 0 ShC= 0 NL=   1 NS=   0.
 IA=     4 L=0 SC=0 ISt=    0 NBk=    0 NP=    0 IndPr=    0.
 IA=     4 ShT= 1 ShC= 0 NL=   4 NS=   3.
 IA=     4 L=1 SC=0 ISt=    0 NBk=    0 NP=    0 IndPr=    0.
 IA=     4 ShT= 2 ShC= 2 NL=   1 NS=   1.
 IA=     4 L=2 SC=2 ISt=    0 NBk=    0 NP=    0 IndPr=    0.
 IA=     5 ShT= 0 ShC= 0 NL=   3 NS=   2.
 IA=     5 L=0 SC=0 ISt=    0 NBk=    0 NP=    0 IndPr=    0.
 IA=     6 ShT= 0 ShC= 0 NL=   3 NS=   2.
 IA=     6 L=0 SC=0 ISt=    0 NBk=    0 NP=    0 IndPr=    0.
 IA=     7 ShT= 0 ShC= 0 NL=   1 NS=   0.
 IA=     7 L=0 SC=0 ISt=    0 NBk=    0 NP=    0 IndPr=    0.
 IA=     7 ShT= 1 ShC= 0 NL=   4 NS=   3.
 IA=     7 L=1 SC=0 ISt=    0 NBk=    0 NP=    0 IndPr=    0.
 IA=     7 ShT= 2 ShC= 2 NL=   1 NS=   1.
 IA=     7 L=2 SC=2 ISt=    0 NBk=    0 NP=    0 IndPr=    0.
 IA=     8 ShT= 0 ShC= 0 NL=   3 NS=   2.
 IA=     8 L=0 SC=0 ISt=    0 NBk=    0 NP=    0 IndPr=    0.
 IA=     9 ShT= 0 ShC= 0 NL=   3 NS=   2.
 IA=     9 L=0 SC=0 ISt=    0 NBk=    0 NP=    0 IndPr=    0.
 IA=    10 ShT= 0 ShC= 0 NL=   1 NS=   0.
 IA=    10 L=0 SC=0 ISt=    0 NBk=    0 NP=    0 IndPr=    0.
 IA=    10 ShT= 1 ShC= 0 NL=   4 NS=   3.
 IA=    10 L=1 SC=0 ISt=    0 NBk=    0 NP=    0 IndPr=    0.
 IA=    10 ShT= 2 ShC= 2 NL=   1 NS=   1.
 IA=    10 L=2 SC=2 ISt=    0 NBk=    0 NP=    0 IndPr=    0.
 IA=    11 ShT= 0 ShC= 0 NL=   3 NS=   2.
 IA=    11 L=0 SC=0 ISt=    0 NBk=    0 NP=    0 IndPr=    0.
 IA=    12 ShT= 0 ShC= 0 NL=   3 NS=   2.
 IA=    12 L=0 SC=0 ISt=    0 NBk=    0 NP=    0 IndPr=    0.
 LdAtmC:  AtmChg=     6.000000     1.000000     1.000000     6.000000     1.000000
 LdAtmC:  AtmChg=     1.000000     6.000000     1.000000     1.000000     6.000000
 LdAtmC:  AtmChg=     1.000000     1.000000
 AtZEff=     -3.6000000     -1.0000000     -1.0000000     -3.6000000     -1.0000000
 AtZEff=     -1.0000000     -3.6000000     -1.0000000     -1.0000000     -3.6000000
 AtZEff=     -1.0000000     -1.0000000
   112 basis functions,   184 primitive gaussians,   116 cartesian basis functions
    16 alpha electrons       16 beta electrons
       nuclear repulsion energy      5084.3713682118 Hartrees.
 IS=     1 IAt=     1 ISR=     1 T=0 IP=      1 IndIP=      1 IndIPD=      0 C=  7.782018D-01  0.000000D+00                             NZ=T
 IS=     1 IAt=     1 ISR=     1 T=0 IP=      2 IndIP=      2 IndIPD=      1 C=  1.448695D+00  0.000000D+00                             NZ=T
 IS=     1 IAt=     1 ISR=     1 T=0 IP=      3 IndIP=      3 IndIPD=      2 C=  2.383089D+00  0.000000D+00                             NZ=T
 IS=     1 IAt=     1 ISR=     1 T=0 IP=      4 IndIP=      4 IndIPD=      3 C=  3.200089D+00  0.000000D+00                             NZ=T
 IS=     1 IAt=     1 ISR=     1 T=0 IP=      5 IndIP=      5 IndIPD=      4 C=  3.013004D+00  0.000000D+00                             NZ=T
 IS=     1 IAt=     1 ISR=     1 T=0 IP=      6 IndIP=      6 IndIPD=      5 C=  2.475986D-01  0.000000D+00                             NZ=T
 IS=     2 IAt=     1 ISR=     2 T=1 IP=      1 IndIP=      7 IndIPD=      0 C=  8.006285D-01  2.573592D+00                             NZ=T
 IS=     2 IAt=     1 ISR=     2 T=1 IP=      2 IndIP=      8 IndIPD=      1 C=  2.127420D+00  2.408248D+00                             NZ=T
 IS=     2 IAt=     1 ISR=     2 T=1 IP=      3 IndIP=      9 IndIPD=      2 C= -2.867911D-03  1.865281D+00                             NZ=T
 IS=     3 IAt=     1 ISR=     3 T=1 IP=      1 IndIP=     10 IndIPD=      0 C=  4.132166D-01  5.746273D-01                             NZ=T
 IS=     4 IAt=     1 ISR=     4 T=1 IP=      1 IndIP=     11 IndIPD=      0 C=  1.679761D-01  1.281846D-01                             NZ=T
 IS=     5 IAt=     1 ISR=     5 T=1 IP=      1 IndIP=     12 IndIPD=      0 C=  6.823633D-02  2.856161D-02                             NZ=T
 IS=     6 IAt=     1 ISR=     6 T=2 IP=      1 IndIP=     13 IndIPD=      1 C=  0.000000D+00  0.000000D+00  7.251278D-01  0.000000D+00 NZ=T
 IS=     7 IAt=     2 ISR=     1 T=0 IP=      1 IndIP=     14 IndIPD=      0 C=  2.550693D-01  0.000000D+00                             NZ=T
 IS=     7 IAt=     2 ISR=     1 T=0 IP=      2 IndIP=     15 IndIPD=      1 C=  4.601087D-01  0.000000D+00                             NZ=T
 IS=     7 IAt=     2 ISR=     1 T=0 IP=      3 IndIP=     16 IndIPD=      2 C=  6.783214D-01  0.000000D+00                             NZ=T
 IS=     8 IAt=     2 ISR=     2 T=0 IP=      1 IndIP=     17 IndIPD=      0 C=  3.073714D-01  0.000000D+00                             NZ=T
 IS=     9 IAt=     2 ISR=     3 T=0 IP=      1 IndIP=     18 IndIPD=      0 C=  1.293356D-01  0.000000D+00                             NZ=T
 IS=    10 IAt=     3 ISR=     1 T=0 IP=      1 IndIP=     19 IndIPD=      0 C=  2.550693D-01  0.000000D+00                             NZ=T
 IS=    10 IAt=     3 ISR=     1 T=0 IP=      2 IndIP=     20 IndIPD=      1 C=  4.601087D-01  0.000000D+00                             NZ=T
 IS=    10 IAt=     3 ISR=     1 T=0 IP=      3 IndIP=     21 IndIPD=      2 C=  6.783214D-01  0.000000D+00                             NZ=T
 IS=    11 IAt=     3 ISR=     2 T=0 IP=      1 IndIP=     22 IndIPD=      0 C=  3.073714D-01  0.000000D+00                             NZ=T
 IS=    12 IAt=     3 ISR=     3 T=0 IP=      1 IndIP=     23 IndIPD=      0 C=  1.293356D-01  0.000000D+00                             NZ=T
 IS=    13 IAt=     4 ISR=     1 T=0 IP=      1 IndIP=     24 IndIPD=      0 C=  7.782018D-01  0.000000D+00                             NZ=T
 IS=    13 IAt=     4 ISR=     1 T=0 IP=      2 IndIP=     25 IndIPD=      1 C=  1.448695D+00  0.000000D+00                             NZ=T
 IS=    13 IAt=     4 ISR=     1 T=0 IP=      3 IndIP=     26 IndIPD=      2 C=  2.383089D+00  0.000000D+00                             NZ=T
 IS=    13 IAt=     4 ISR=     1 T=0 IP=      4 IndIP=     27 IndIPD=      3 C=  3.200089D+00  0.000000D+00                             NZ=T
 IS=    13 IAt=     4 ISR=     1 T=0 IP=      5 IndIP=     28 IndIPD=      4 C=  3.013004D+00  0.000000D+00                             NZ=T
 IS=    13 IAt=     4 ISR=     1 T=0 IP=      6 IndIP=     29 IndIPD=      5 C=  2.475986D-01  0.000000D+00                             NZ=T
 IS=    14 IAt=     4 ISR=     2 T=1 IP=      1 IndIP=     30 IndIPD=      0 C=  8.006285D-01  2.573592D+00                             NZ=T
 IS=    14 IAt=     4 ISR=     2 T=1 IP=      2 IndIP=     31 IndIPD=      1 C=  2.127420D+00  2.408248D+00                             NZ=T
 IS=    14 IAt=     4 ISR=     2 T=1 IP=      3 IndIP=     32 IndIPD=      2 C= -2.867911D-03  1.865281D+00                             NZ=T
 IS=    15 IAt=     4 ISR=     3 T=1 IP=      1 IndIP=     33 IndIPD=      0 C=  4.132166D-01  5.746273D-01                             NZ=T
 IS=    16 IAt=     4 ISR=     4 T=1 IP=      1 IndIP=     34 IndIPD=      0 C=  1.679761D-01  1.281846D-01                             NZ=T
 IS=    17 IAt=     4 ISR=     5 T=1 IP=      1 IndIP=     35 IndIPD=      0 C=  6.823633D-02  2.856161D-02                             NZ=T
 IS=    18 IAt=     4 ISR=     6 T=2 IP=      1 IndIP=     36 IndIPD=      2 C=  0.000000D+00  0.000000D+00  7.251278D-01  0.000000D+00 NZ=T
 IS=    19 IAt=     5 ISR=     1 T=0 IP=      1 IndIP=     37 IndIPD=      0 C=  2.550693D-01  0.000000D+00                             NZ=T
 IS=    19 IAt=     5 ISR=     1 T=0 IP=      2 IndIP=     38 IndIPD=      1 C=  4.601087D-01  0.000000D+00                             NZ=T
 IS=    19 IAt=     5 ISR=     1 T=0 IP=      3 IndIP=     39 IndIPD=      2 C=  6.783214D-01  0.000000D+00                             NZ=T
 IS=    20 IAt=     5 ISR=     2 T=0 IP=      1 IndIP=     40 IndIPD=      0 C=  3.073714D-01  0.000000D+00                             NZ=T
 IS=    21 IAt=     5 ISR=     3 T=0 IP=      1 IndIP=     41 IndIPD=      0 C=  1.293356D-01  0.000000D+00                             NZ=T
 IS=    22 IAt=     6 ISR=     1 T=0 IP=      1 IndIP=     42 IndIPD=      0 C=  2.550693D-01  0.000000D+00                             NZ=T
 IS=    22 IAt=     6 ISR=     1 T=0 IP=      2 IndIP=     43 IndIPD=      1 C=  4.601087D-01  0.000000D+00                             NZ=T
 IS=    22 IAt=     6 ISR=     1 T=0 IP=      3 IndIP=     44 IndIPD=      2 C=  6.783214D-01  0.000000D+00                             NZ=T
 IS=    23 IAt=     6 ISR=     2 T=0 IP=      1 IndIP=     45 IndIPD=      0 C=  3.073714D-01  0.000000D+00                             NZ=T
 IS=    24 IAt=     6 ISR=     3 T=0 IP=      1 IndIP=     46 IndIPD=      0 C=  1.293356D-01  0.000000D+00                             NZ=T
 IS=    25 IAt=     7 ISR=     1 T=0 IP=      1 IndIP=     47 IndIPD=      0 C=  7.782018D-01  0.000000D+00                             NZ=T
 IS=    25 IAt=     7 ISR=     1 T=0 IP=      2 IndIP=     48 IndIPD=      1 C=  1.448695D+00  0.000000D+00                             NZ=T
 IS=    25 IAt=     7 ISR=     1 T=0 IP=      3 IndIP=     49 IndIPD=      2 C=  2.383089D+00  0.000000D+00                             NZ=T
 IS=    25 IAt=     7 ISR=     1 T=0 IP=      4 IndIP=     50 IndIPD=      3 C=  3.200089D+00  0.000000D+00                             NZ=T
 IS=    25 IAt=     7 ISR=     1 T=0 IP=      5 IndIP=     51 IndIPD=      4 C=  3.013004D+00  0.000000D+00                             NZ=T
 IS=    25 IAt=     7 ISR=     1 T=0 IP=      6 IndIP=     52 IndIPD=      5 C=  2.475986D-01  0.000000D+00                             NZ=T
 IS=    26 IAt=     7 ISR=     2 T=1 IP=      1 IndIP=     53 IndIPD=      0 C=  8.006285D-01  2.573592D+00                             NZ=T
 IS=    26 IAt=     7 ISR=     2 T=1 IP=      2 IndIP=     54 IndIPD=      1 C=  2.127420D+00  2.408248D+00                             NZ=T
 IS=    26 IAt=     7 ISR=     2 T=1 IP=      3 IndIP=     55 IndIPD=      2 C= -2.867911D-03  1.865281D+00                             NZ=T
 IS=    27 IAt=     7 ISR=     3 T=1 IP=      1 IndIP=     56 IndIPD=      0 C=  4.132166D-01  5.746273D-01                             NZ=T
 IS=    28 IAt=     7 ISR=     4 T=1 IP=      1 IndIP=     57 IndIPD=      0 C=  1.679761D-01  1.281846D-01                             NZ=T
 IS=    29 IAt=     7 ISR=     5 T=1 IP=      1 IndIP=     58 IndIPD=      0 C=  6.823633D-02  2.856161D-02                             NZ=T
 IS=    30 IAt=     7 ISR=     6 T=2 IP=      1 IndIP=     59 IndIPD=      3 C=  0.000000D+00  0.000000D+00  7.251278D-01  0.000000D+00 NZ=T
 IS=    31 IAt=     8 ISR=     1 T=0 IP=      1 IndIP=     60 IndIPD=      0 C=  2.550693D-01  0.000000D+00                             NZ=T
 IS=    31 IAt=     8 ISR=     1 T=0 IP=      2 IndIP=     61 IndIPD=      1 C=  4.601087D-01  0.000000D+00                             NZ=T
 IS=    31 IAt=     8 ISR=     1 T=0 IP=      3 IndIP=     62 IndIPD=      2 C=  6.783214D-01  0.000000D+00                             NZ=T
 IS=    32 IAt=     8 ISR=     2 T=0 IP=      1 IndIP=     63 IndIPD=      0 C=  3.073714D-01  0.000000D+00                             NZ=T
 IS=    33 IAt=     8 ISR=     3 T=0 IP=      1 IndIP=     64 IndIPD=      0 C=  1.293356D-01  0.000000D+00                             NZ=T
 IS=    34 IAt=     9 ISR=     1 T=0 IP=      1 IndIP=     65 IndIPD=      0 C=  2.550693D-01  0.000000D+00                             NZ=T
 IS=    34 IAt=     9 ISR=     1 T=0 IP=      2 IndIP=     66 IndIPD=      1 C=  4.601087D-01  0.000000D+00                             NZ=T
 IS=    34 IAt=     9 ISR=     1 T=0 IP=      3 IndIP=     67 IndIPD=      2 C=  6.783214D-01  0.000000D+00                             NZ=T
 IS=    35 IAt=     9 ISR=     2 T=0 IP=      1 IndIP=     68 IndIPD=      0 C=  3.073714D-01  0.000000D+00                             NZ=T
 IS=    36 IAt=     9 ISR=     3 T=0 IP=      1 IndIP=     69 IndIPD=      0 C=  1.293356D-01  0.000000D+00                             NZ=T
 IS=    37 IAt=    10 ISR=     1 T=0 IP=      1 IndIP=     70 IndIPD=      0 C=  7.782018D-01  0.000000D+00                             NZ=T
 IS=    37 IAt=    10 ISR=     1 T=0 IP=      2 IndIP=     71 IndIPD=      1 C=  1.448695D+00  0.000000D+00                             NZ=T
 IS=    37 IAt=    10 ISR=     1 T=0 IP=      3 IndIP=     72 IndIPD=      2 C=  2.383089D+00  0.000000D+00                             NZ=T
 IS=    37 IAt=    10 ISR=     1 T=0 IP=      4 IndIP=     73 IndIPD=      3 C=  3.200089D+00  0.000000D+00                             NZ=T
 IS=    37 IAt=    10 ISR=     1 T=0 IP=      5 IndIP=     74 IndIPD=      4 C=  3.013004D+00  0.000000D+00                             NZ=T
 IS=    37 IAt=    10 ISR=     1 T=0 IP=      6 IndIP=     75 IndIPD=      5 C=  2.475986D-01  0.000000D+00                             NZ=T
 IS=    38 IAt=    10 ISR=     2 T=1 IP=      1 IndIP=     76 IndIPD=      0 C=  8.006285D-01  2.573592D+00                             NZ=T
 IS=    38 IAt=    10 ISR=     2 T=1 IP=      2 IndIP=     77 IndIPD=      1 C=  2.127420D+00  2.408248D+00                             NZ=T
 IS=    38 IAt=    10 ISR=     2 T=1 IP=      3 IndIP=     78 IndIPD=      2 C= -2.867911D-03  1.865281D+00                             NZ=T
 IS=    39 IAt=    10 ISR=     3 T=1 IP=      1 IndIP=     79 IndIPD=      0 C=  4.132166D-01  5.746273D-01                             NZ=T
 IS=    40 IAt=    10 ISR=     4 T=1 IP=      1 IndIP=     80 IndIPD=      0 C=  1.679761D-01  1.281846D-01                             NZ=T
 IS=    41 IAt=    10 ISR=     5 T=1 IP=      1 IndIP=     81 IndIPD=      0 C=  6.823633D-02  2.856161D-02                             NZ=T
 IS=    42 IAt=    10 ISR=     6 T=2 IP=      1 IndIP=     82 IndIPD=      4 C=  0.000000D+00  0.000000D+00  7.251278D-01  0.000000D+00 NZ=T
 IS=    43 IAt=    11 ISR=     1 T=0 IP=      1 IndIP=     83 IndIPD=      0 C=  2.550693D-01  0.000000D+00                             NZ=T
 IS=    43 IAt=    11 ISR=     1 T=0 IP=      2 IndIP=     84 IndIPD=      1 C=  4.601087D-01  0.000000D+00                             NZ=T
 IS=    43 IAt=    11 ISR=     1 T=0 IP=      3 IndIP=     85 IndIPD=      2 C=  6.783214D-01  0.000000D+00                             NZ=T
 IS=    44 IAt=    11 ISR=     2 T=0 IP=      1 IndIP=     86 IndIPD=      0 C=  3.073714D-01  0.000000D+00                             NZ=T
 IS=    45 IAt=    11 ISR=     3 T=0 IP=      1 IndIP=     87 IndIPD=      0 C=  1.293356D-01  0.000000D+00                             NZ=T
 IS=    46 IAt=    12 ISR=     1 T=0 IP=      1 IndIP=     88 IndIPD=      0 C=  2.550693D-01  0.000000D+00                             NZ=T
 IS=    46 IAt=    12 ISR=     1 T=0 IP=      2 IndIP=     89 IndIPD=      1 C=  4.601087D-01  0.000000D+00                             NZ=T
 IS=    46 IAt=    12 ISR=     1 T=0 IP=      3 IndIP=     90 IndIPD=      2 C=  6.783214D-01  0.000000D+00                             NZ=T
 IS=    47 IAt=    12 ISR=     2 T=0 IP=      1 IndIP=     91 IndIPD=      0 C=  3.073714D-01  0.000000D+00                             NZ=T
 IS=    48 IAt=    12 ISR=     3 T=0 IP=      1 IndIP=     92 IndIPD=      0 C=  1.293356D-01  0.000000D+00                             NZ=T
 IExCor= 4639 DFT=T Ex+Corr=wB97XD ExCW=0 ScaHFX=  1.000000
 ScaDFX=  1.000000  1.000000  1.000000  1.000000 ScalE2=  1.000000  1.000000
 IRadAn=      5 IRanWt=     -1 IRanGd=            0 ICorTp=0 IEmpDi=121
 HFx  wShort=  0.000000 wLong=  0.200000 cFull=  0.222036 cShort=  0.000000 cLong=  0.777964
 DFx  wShort=  0.000000 wLong=  0.200000 cFull=  0.000000 cShort=  0.000000 cLong=  1.000000
 NAtoms=   12 NActive=   12 NUniq=   12 SFac= 1.00D+00 NAtFMM=   60 NAOKFM=F Big=F
 Integral buffers will be    131072 words long.
 Raffenetti 2 integral format.
 Two-electron integral symmetry is turned off.
 Nuclear repulsion after empirical dispersion term =     5084.3705189704 Hartrees.
 NPDir=0 NMtPBC=     1 NCelOv=     1 NCel=       1 NClECP=     1 NCelD=      1
         NCelK=      1 NCelE2=     1 NClLst=     1 CellRange=     0.0.
 One-electron integrals computed using PRISM.
 Entering OneElI...
 Calculate overlap and kinetic energy integrals
    NBasis = 112  MinDer = 0  MaxDer = 0
 Requested accuracy = 0.1000D-12
 PrmmSu-InSpLW:  IPartL=    0 NPrtUS=    1 NPrtUL=    1 DoSpLW=F IThBeg=    0 IThEnd=    0 NThAct=    1.
 PrSmSu:  IncTry=   512 NBBP=            940 NTPThr=   100 NPartT=    1 Incr=           9 LDynOK=F GPUOK=F.
 PrsmSu:  NPrtUS=   1 ThrOK=F IAlg=2 LenDen=           0 ISkipM=0 DoSpLW=F IThBeg=    0 IThEnd=    0.
 Prism:   IPart=     0 DynPar=F LinDyn=F Incr=           9.
 PRISM was handed   671000556 working-precision words and   940 shell-pairs
 IPart=  0 NShTot=         940 NBatch=          27 AvBLen=        34.8
 PrSmSu:  NxtVal=             10.
 *** Overlap *** 
                1             2             3             4             5 
      1  0.100000D+01
      2  0.878444D+00  0.100000D+01
      3  0.000000D+00  0.000000D+00  0.100000D+01
      4  0.000000D+00  0.000000D+00  0.000000D+00  0.100000D+01
      5  0.000000D+00  0.000000D+00  0.000000D+00  0.000000D+00  0.100000D+01
      6  0.329179D+00  0.418800D+00  0.000000D+00  0.000000D+00  0.000000D+00
      7  0.000000D+00  0.000000D+00  0.629120D+00  0.000000D+00  0.000000D+00
      8  0.000000D+00  0.000000D+00  0.000000D+00  0.629120D+00  0.000000D+00
      9  0.000000D+00  0.000000D+00  0.000000D+00  0.000000D+00  0.629120D+00
     10  0.153761D+00  0.187145D+00  0.000000D+00  0.000000D+00  0.000000D+00
     11  0.000000D+00  0.000000D+00  0.220230D+00  0.000000D+00  0.000000D+00
     12  0.000000D+00  0.000000D+00  0.000000D+00  0.220230D+00  0.000000D+00
     13  0.000000D+00  0.000000D+00  0.000000D+00  0.000000D+00  0.220230D+00
     14  0.655625D-01  0.783157D-01  0.000000D+00  0.000000D+00  0.000000D+00
     15  0.000000D+00  0.000000D+00  0.573499D-01  0.000000D+00  0.000000D+00
     16  0.000000D+00  0.000000D+00  0.000000D+00  0.573499D-01  0.000000D+00
     17  0.000000D+00  0.000000D+00  0.000000D+00  0.000000D+00  0.573499D-01
     18  0.000000D+00  0.000000D+00  0.000000D+00  0.000000D+00  0.000000D+00
     19  0.000000D+00  0.000000D+00  0.000000D+00  0.000000D+00  0.000000D+00
     20  0.000000D+00  0.000000D+00  0.000000D+00  0.000000D+00  0.000000D+00
     21  0.000000D+00  0.000000D+00  0.000000D+00  0.000000D+00  0.000000D+00
     22  0.000000D+00  0.000000D+00  0.000000D+00  0.000000D+00  0.000000D+00
     23  0.000000D+00  0.000000D+00  0.000000D+00  0.000000D+00  0.000000D+00
     24  0.000000D+00  0.000000D+00  0.000000D+00  0.000000D+00  0.000000D+00
     25  0.000000D+00  0.000000D+00  0.000000D+00  0.000000D+00  0.000000D+00
     26  0.000000D+00  0.000000D+00  0.000000D+00  0.000000D+00  0.000000D+00
     27  0.000000D+00  0.000000D+00  0.000000D+00  0.000000D+00  0.000000D+00
     28  0.000000D+00  0.000000D+00  0.000000D+00  0.000000D+00  0.000000D+00
     29  0.667493D-04  0.991487D-05 -0.877867D-03  0.172605D-02 -0.213187D-04
     30  0.991487D-05 -0.125255D-05 -0.384608D-03  0.756212D-03 -0.934006D-05
     31  0.877867D-03  0.384608D-03 -0.413886D-02  0.149340D-01 -0.184452D-03
     32 -0.172605D-02 -0.756212D-03  0.149340D-01 -0.259066D-01  0.362668D-03
     33  0.213187D-04  0.934006D-05 -0.184452D-03  0.362668D-03  0.345209D-02
     34  0.158112D-01  0.171700D-01 -0.368640D-01  0.724817D-01 -0.895229D-03
     35  0.229038D-01  0.265787D-01 -0.408865D-02  0.935010D-01 -0.115484D-02
     36 -0.450331D-01 -0.522589D-01  0.935010D-01 -0.140375D+00  0.227064D-02
     37  0.556209D-03  0.645455D-03 -0.115484D-02  0.227064D-02  0.434377D-01
     38  0.561940D-01  0.671780D-01 -0.391218D-01  0.769210D-01 -0.950059D-03
     39  0.499204D-01  0.607767D-01  0.507907D-01  0.654118D-01 -0.807909D-03
     40 -0.981531D-01 -0.119499D+00  0.654118D-01 -0.445531D-01  0.158850D-02
     41  0.121230D-02  0.147594D-02 -0.807909D-03  0.158850D-02  0.840394D-01
     42  0.479638D-01  0.571879D-01 -0.107559D-01  0.211481D-01 -0.261202D-03
     43  0.241344D-01  0.289464D-01  0.367951D-01  0.104971D-01 -0.129651D-03
     44 -0.474527D-01 -0.569142D-01  0.104971D-01  0.214946D-01  0.254918D-03
     45  0.586094D-03  0.702953D-03 -0.129651D-03  0.254918D-03  0.421307D-01
     46 -0.302929D-01 -0.359403D-01  0.508700D-01 -0.100020D+00  0.290224D-02
     47  0.523847D-03  0.621506D-03 -0.312962D-03  0.250755D-02  0.395980D-01
     48 -0.102998D-02 -0.122200D-02  0.250755D-02 -0.396795D-02 -0.778571D-01
     49 -0.309104D-01 -0.366729D-01  0.114882D+00 -0.700439D-01  0.182749D-02
     50 -0.424129D-01 -0.503199D-01  0.253387D-01 -0.163393D+00  0.250755D-02
     51  0.000000D+00  0.000000D+00 -0.305583D-05  0.637046D-05 -0.281292D-05
     52  0.725482D-03  0.692831D-03 -0.217284D-02  0.452970D-02 -0.200012D-02
     53  0.163976D-01  0.192837D-01 -0.126636D-01  0.263997D-01 -0.116570D-01
     54  0.193354D-02  0.117389D-02  0.443337D-02  0.442723D-03  0.276328D-01
     55  0.372552D-01  0.434643D-01  0.184776D-01  0.184520D-02  0.115169D+00
     56  0.628185D-01  0.752396D-01  0.104984D-01  0.104838D-02  0.654355D-01
     57  0.996530D+00  0.877130D+00  0.268878D-01  0.110495D-01  0.111002D-01
     58  0.877130D+00  0.998965D+00  0.296104D-01  0.121683D-01  0.122242D-01
     59 -0.268878D-01 -0.296104D-01  0.999075D+00 -0.227527D-03 -0.228571D-03
     60 -0.110495D-01 -0.121683D-01 -0.227527D-03  0.999536D+00 -0.939306D-04
     61 -0.111002D-01 -0.122242D-01 -0.228571D-03 -0.939306D-04  0.999535D+00
     62  0.329126D+00  0.418730D+00  0.735740D-02  0.302350D-02  0.303738D-02
     63 -0.678272D-02 -0.893837D-02  0.628900D+00 -0.542377D-04 -0.544866D-04
     64 -0.278734D-02 -0.367320D-02 -0.542377D-04  0.629010D+00 -0.223911D-04
     65 -0.280013D-02 -0.369006D-02 -0.544866D-04 -0.223911D-04  0.629009D+00
     66  0.153753D+00  0.187135D+00  0.141347D-02  0.580861D-03  0.583528D-03
     67 -0.188581D-02 -0.233485D-02  0.220203D+00 -0.681410D-05 -0.684538D-05
     68 -0.774966D-03 -0.959499D-03 -0.681410D-05  0.220216D+00 -0.281309D-05
     69 -0.778523D-03 -0.963903D-03 -0.684538D-05 -0.281309D-05  0.220216D+00
     70  0.655614D-01  0.783144D-01  0.201900D-03  0.829702D-04  0.833510D-04
     71 -0.454969D-03 -0.546675D-03  0.573476D-01  0.000000D+00  0.000000D+00
     72 -0.186968D-03 -0.224654D-03  0.000000D+00  0.573487D-01  0.000000D+00
     73 -0.187826D-03 -0.225686D-03  0.000000D+00  0.000000D+00  0.573487D-01
     74 -0.480915D-04 -0.655869D-04  0.814979D-02  0.334913D-02 -0.673008D-02
     75  0.830606D-04  0.113278D-03 -0.582662D-02  0.000000D+00 -0.141167D-01
     76  0.341335D-04  0.465511D-04  0.000000D+00 -0.582786D-02 -0.580123D-02
     77  0.836095D-04  0.114026D-03 -0.141158D-01  0.580210D-02  0.000000D+00
     78  0.826811D-04  0.112760D-03 -0.579999D-02 -0.141167D-01  0.000000D+00
     79  0.000000D+00  0.000000D+00  0.000000D+00  0.000000D+00  0.000000D+00
     80  0.000000D+00  0.000000D+00  0.000000D+00  0.000000D+00  0.000000D+00
     81  0.000000D+00  0.000000D+00  0.000000D+00  0.000000D+00  0.000000D+00
     82  0.000000D+00  0.000000D+00  0.000000D+00  0.000000D+00  0.000000D+00
     83  0.000000D+00  0.000000D+00  0.000000D+00  0.000000D+00  0.000000D+00
     84  0.000000D+00  0.000000D+00  0.000000D+00  0.000000D+00  0.000000D+00
     85  0.631303D-04  0.910239D-05 -0.837002D-03  0.164805D-02 -0.226959D-04
     86  0.910239D-05 -0.117158D-05 -0.360210D-03  0.709249D-03 -0.976736D-05
     87  0.837002D-03  0.360210D-03 -0.400090D-02  0.143885D-01 -0.198150D-03
     88 -0.164805D-02 -0.709249D-03  0.143885D-01 -0.250241D-01  0.390155D-03
     89  0.226959D-04  0.976736D-05 -0.198150D-03  0.390155D-03  0.330130D-02
     90  0.154241D-01  0.167211D-01 -0.361669D-01  0.712122D-01 -0.980693D-03
     91  0.224043D-01  0.259613D-01 -0.427536D-02  0.921331D-01 -0.126880D-02
     92 -0.441138D-01 -0.511175D-01  0.921331D-01 -0.138892D+00  0.249826D-02
     93  0.607509D-03  0.703961D-03 -0.126880D-02  0.249826D-02  0.424824D-01
     94  0.557271D-01  0.666097D-01 -0.389267D-01  0.766461D-01 -0.105553D-02
     95  0.496532D-01  0.604427D-01  0.501892D-01  0.653728D-01 -0.900275D-03
     96 -0.977666D-01 -0.119011D+00  0.653728D-01 -0.453277D-01  0.177263D-02
     97  0.134638D-02  0.163895D-02 -0.900275D-03  0.177263D-02  0.833660D-01
     98  0.478397D-01  0.570390D-01 -0.107605D-01  0.211872D-01 -0.291778D-03
     99  0.241438D-01  0.289574D-01  0.366692D-01  0.105480D-01 -0.145260D-03
    100 -0.475389D-01 -0.570167D-01  0.105480D-01  0.212575D-01  0.286016D-03
    101  0.654678D-03  0.785200D-03 -0.145260D-03  0.286016D-03  0.420224D-01
    102 -0.296002D-01 -0.350438D-01  0.502588D-01 -0.989589D-01  0.318032D-02
    103  0.570286D-03  0.675164D-03 -0.349418D-03  0.275414D-02  0.386608D-01
    104 -0.112289D-02 -0.132939D-02  0.275414D-02 -0.437353D-02 -0.761226D-01
    105 -0.302530D-01 -0.358166D-01  0.112901D+00 -0.699066D-01  0.201206D-02
    106 -0.414109D-01 -0.490265D-01  0.253727D-01 -0.161291D+00  0.275414D-02
    107  0.000000D+00  0.000000D+00 -0.425758D-05  0.910942D-05 -0.389134D-05
    108  0.853377D-03  0.822994D-03 -0.244758D-02  0.523679D-02 -0.223704D-02
    109  0.173393D-01  0.204070D-01 -0.129519D-01  0.277115D-01 -0.118377D-01
    110  0.174143D-02  0.102900D-02  0.420104D-02  0.684816D-04  0.254613D-01
    111  0.357597D-01  0.416500D-01  0.184853D-01  0.301331D-03  0.112034D+00
    112  0.619548D-01  0.741915D-01  0.107585D-01  0.175376D-03  0.652045D-01
                6             7             8             9            10 
      6  0.100000D+01
      7  0.000000D+00  0.100000D+01
      8  0.000000D+00  0.000000D+00  0.100000D+01
      9  0.000000D+00  0.000000D+00  0.000000D+00  0.100000D+01
     10  0.774697D+00  0.000000D+00  0.000000D+00  0.000000D+00  0.100000D+01
     11  0.000000D+00  0.653461D+00  0.000000D+00  0.000000D+00  0.000000D+00
     12  0.000000D+00  0.000000D+00  0.653461D+00  0.000000D+00  0.000000D+00
     13  0.000000D+00  0.000000D+00  0.000000D+00  0.653461D+00  0.000000D+00
     14  0.410096D+00  0.000000D+00  0.000000D+00  0.000000D+00  0.774408D+00
     15  0.000000D+00  0.226365D+00  0.000000D+00  0.000000D+00  0.000000D+00
     16  0.000000D+00  0.000000D+00  0.226365D+00  0.000000D+00  0.000000D+00
     17  0.000000D+00  0.000000D+00  0.000000D+00  0.226365D+00  0.000000D+00
     18  0.000000D+00  0.000000D+00  0.000000D+00  0.000000D+00  0.000000D+00
     19  0.000000D+00  0.000000D+00  0.000000D+00  0.000000D+00  0.000000D+00
     20  0.000000D+00  0.000000D+00  0.000000D+00  0.000000D+00  0.000000D+00
     21  0.000000D+00  0.000000D+00  0.000000D+00  0.000000D+00  0.000000D+00
     22  0.000000D+00  0.000000D+00  0.000000D+00  0.000000D+00  0.000000D+00
     23  0.000000D+00  0.000000D+00  0.000000D+00  0.000000D+00  0.000000D+00
     24  0.000000D+00  0.000000D+00  0.000000D+00  0.000000D+00  0.000000D+00
     25  0.000000D+00  0.000000D+00  0.000000D+00  0.000000D+00  0.000000D+00
     26  0.000000D+00  0.000000D+00  0.000000D+00  0.000000D+00  0.000000D+00
     27  0.000000D+00  0.000000D+00  0.000000D+00  0.000000D+00  0.000000D+00
     28  0.000000D+00  0.000000D+00  0.000000D+00  0.000000D+00  0.000000D+00
     29  0.158112D-01 -0.229038D-01  0.450331D-01 -0.556209D-03  0.561940D-01
     30  0.171700D-01 -0.265787D-01  0.522589D-01 -0.645455D-03  0.671780D-01
     31  0.368640D-01 -0.408865D-02  0.935010D-01 -0.115484D-02  0.391218D-01
     32 -0.724817D-01  0.935010D-01 -0.140375D+00  0.227064D-02 -0.769210D-01
     33  0.895229D-03 -0.115484D-02  0.227064D-02  0.434377D-01  0.950059D-03
     34  0.173733D+00 -0.147346D+00  0.289710D+00 -0.357824D-02  0.344579D+00
     35  0.147346D+00  0.487668D-01  0.245707D+00 -0.303476D-02  0.135273D+00
     36 -0.289710D+00  0.245707D+00 -0.309374D+00  0.596691D-02 -0.265973D+00
     37  0.357824D-02 -0.303476D-02  0.596691D-02  0.173659D+00  0.328506D-02
     38  0.344579D+00 -0.135273D+00  0.265973D+00 -0.328506D-02  0.590341D+00
     39  0.246509D+00  0.193881D+00  0.190274D+00 -0.235010D-02  0.274750D+00
     40 -0.484683D+00  0.190274D+00 -0.834612D-01  0.462074D-02 -0.540211D+00
     41  0.598637D-02 -0.235010D-02  0.462074D-02  0.290597D+00  0.667220D-02
     42  0.306618D+00 -0.432051D-01  0.849495D-01 -0.104922D-02  0.606867D+00
     43  0.143541D+00  0.149021D+00  0.397686D-01 -0.491186D-03  0.238182D+00
     44 -0.282229D+00  0.397686D-01  0.910547D-01  0.965765D-03 -0.468310D+00
     45  0.348585D-02 -0.491186D-03  0.965765D-03  0.169235D+00  0.578415D-02
     46 -0.136129D+00  0.642981D-01 -0.126422D+00  0.636895D-02 -0.548204D-01
     47  0.235404D-02  0.522600D-03  0.442984D-02  0.114240D+00  0.947995D-03
     48 -0.462848D-02  0.442984D-02 -0.593430D-02 -0.224618D+00 -0.186394D-02
     49 -0.138903D+00  0.247237D+00 -0.366641D-01  0.322845D-02 -0.559379D-01
     50 -0.190593D+00 -0.423120D-01 -0.244364D+00  0.442984D-02 -0.767538D-01
     51  0.792490D-03 -0.140681D-02  0.293276D-02 -0.129498D-02  0.338053D-01
     52  0.194288D-01 -0.195958D-01  0.408512D-01 -0.180381D-01  0.117551D+00
     53  0.120774D+00 -0.530266D-01  0.110544D+00 -0.488116D-01  0.291354D+00
     54  0.831981D-01  0.336983D-01  0.336517D-02  0.210039D+00  0.196525D+00
     55  0.270037D+00  0.614151D-01  0.613301D-02  0.382795D+00  0.458246D+00
     56  0.379777D+00  0.375996D-01  0.375475D-02  0.234355D+00  0.657826D+00
     57  0.329126D+00  0.678272D-02  0.278734D-02  0.280013D-02  0.153753D+00
     58  0.418730D+00  0.893837D-02  0.367320D-02  0.369006D-02  0.187135D+00
     59 -0.735740D-02  0.628900D+00 -0.542377D-04 -0.544866D-04 -0.141347D-02
     60 -0.302350D-02 -0.542377D-04  0.629010D+00 -0.223911D-04 -0.580861D-03
     61 -0.303738D-02 -0.544866D-04 -0.223911D-04  0.629009D+00 -0.583528D-03
     62  0.999908D+00  0.116953D-01  0.480616D-02  0.482822D-02  0.774664D+00
     63 -0.116953D-01  0.999772D+00 -0.562147D-04 -0.564727D-04 -0.419404D-02
     64 -0.480616D-02 -0.562147D-04  0.999885D+00 -0.232073D-04 -0.172353D-02
     65 -0.482822D-02 -0.564727D-04 -0.232073D-04  0.999885D+00 -0.173144D-02
     66  0.774664D+00  0.419404D-02  0.172353D-02  0.173144D-02  0.999972D+00
     67 -0.764281D-02  0.653392D+00 -0.170043D-04 -0.170823D-04 -0.641829D-02
     68 -0.314079D-02 -0.170043D-04  0.653426D+00 -0.701993D-05 -0.263758D-02
     69 -0.315521D-02 -0.170823D-04 -0.701993D-05  0.653426D+00 -0.264969D-02
     70  0.410090D+00  0.796918D-03  0.327491D-03  0.328994D-03  0.774398D+00
     71 -0.264762D-02  0.226357D+00 -0.211434D-05 -0.212405D-05 -0.419156D-02
     72 -0.108803D-02 -0.211434D-05  0.226361D+00  0.000000D+00 -0.172251D-02
     73 -0.109302D-02 -0.212405D-05  0.000000D+00  0.226361D+00 -0.173041D-02
     74 -0.317582D-04  0.655795D-02  0.269497D-02 -0.541520D-02 -0.417361D-05
     75  0.548508D-04 -0.468882D-02  0.000000D+00 -0.113591D-01  0.720841D-05
     76  0.225408D-04  0.000000D+00 -0.468943D-02 -0.466800D-02  0.296227D-05
     77  0.552132D-04 -0.113587D-01  0.466842D-02  0.000000D+00  0.725604D-05
     78  0.546002D-04 -0.466740D-02 -0.113591D-01  0.000000D+00  0.717547D-05
     79  0.000000D+00  0.000000D+00  0.000000D+00  0.000000D+00  0.000000D+00
     80  0.000000D+00  0.000000D+00  0.000000D+00  0.000000D+00  0.000000D+00
     81  0.000000D+00  0.000000D+00  0.000000D+00  0.000000D+00  0.000000D+00
     82  0.000000D+00  0.000000D+00  0.000000D+00  0.000000D+00  0.000000D+00
     83  0.000000D+00  0.000000D+00  0.000000D+00  0.000000D+00  0.000000D+00
     84  0.000000D+00  0.000000D+00  0.000000D+00  0.000000D+00  0.000000D+00
     85  0.154241D-01 -0.224043D-01  0.441138D-01 -0.607509D-03  0.557271D-01
     86  0.167211D-01 -0.259613D-01  0.511175D-01 -0.703961D-03  0.666097D-01
     87  0.361669D-01 -0.427536D-02  0.921331D-01 -0.126880D-02  0.389267D-01
     88 -0.712122D-01  0.921331D-01 -0.138892D+00  0.249826D-02 -0.766461D-01
     89  0.980693D-03 -0.126880D-02  0.249826D-02  0.424824D-01  0.105553D-02
     90  0.171230D+00 -0.145657D+00  0.286796D+00 -0.394959D-02  0.342272D+00
     91  0.145657D+00  0.473267D-01  0.243963D+00 -0.335972D-02  0.134769D+00
     92 -0.286796D+00  0.243963D+00 -0.309131D+00  0.661525D-02 -0.265359D+00
     93  0.394959D-02 -0.335972D-02  0.661525D-02  0.171139D+00  0.365436D-02
     94  0.342272D+00 -0.134769D+00  0.265359D+00 -0.365436D-02  0.587766D+00
     95  0.245590D+00  0.192008D+00  0.190402D+00 -0.262211D-02  0.274370D+00
     96 -0.483564D+00  0.190402D+00 -0.861917D-01  0.516290D-02 -0.540230D+00
     97  0.665935D-02 -0.262211D-02  0.516290D-02  0.288637D+00  0.743973D-02
     98  0.305880D+00 -0.432299D-01  0.851191D-01 -0.117221D-02  0.605641D+00
     99  0.143624D+00  0.148541D+00  0.399671D-01 -0.550403D-03  0.238411D+00
    100 -0.282793D+00  0.399671D-01  0.901449D-01  0.108374D-02 -0.469428D+00
    101  0.389446D-02 -0.550403D-03  0.108374D-02  0.168825D+00  0.646469D-02
    102 -0.135016D+00  0.644972D-01 -0.126994D+00  0.704542D-02 -0.548795D-01
    103  0.260125D-02  0.560900D-03  0.491667D-02  0.112706D+00  0.105732D-02
    104 -0.512183D-02  0.491667D-02 -0.662290D-02 -0.221917D+00 -0.208186D-02
    105 -0.137993D+00  0.245240D+00 -0.387721D-01  0.359190D-02 -0.560897D-01
    106 -0.188888D+00 -0.407293D-01 -0.244246D+00  0.491667D-02 -0.767768D-01
    107  0.960871D-03 -0.165301D-02  0.353674D-02 -0.151082D-02  0.363714D-01
    108  0.216760D-01 -0.211816D-01  0.453197D-01 -0.193595D-01  0.124394D+00
    109  0.126667D+00 -0.538826D-01  0.115286D+00 -0.492476D-01  0.301391D+00
    110  0.792762D-01  0.333429D-01  0.543526D-03  0.202082D+00  0.192991D+00
    111  0.262813D+00  0.620807D-01  0.101198D-02  0.376254D+00  0.451867D+00
    112  0.375320D+00  0.385936D-01  0.629118D-03  0.233905D+00  0.652329D+00
               11            12            13            14            15 
     11  0.100000D+01
     12  0.000000D+00  0.100000D+01
     13  0.000000D+00  0.000000D+00  0.100000D+01
     14  0.000000D+00  0.000000D+00  0.000000D+00  0.100000D+01
     15  0.653055D+00  0.000000D+00  0.000000D+00  0.000000D+00  0.100000D+01
     16  0.000000D+00  0.653055D+00  0.000000D+00  0.000000D+00  0.000000D+00
     17  0.000000D+00  0.000000D+00  0.653055D+00  0.000000D+00  0.000000D+00
     18  0.000000D+00  0.000000D+00  0.000000D+00  0.000000D+00  0.000000D+00
     19  0.000000D+00  0.000000D+00  0.000000D+00  0.000000D+00  0.000000D+00
     20  0.000000D+00  0.000000D+00  0.000000D+00  0.000000D+00  0.000000D+00
     21  0.000000D+00  0.000000D+00  0.000000D+00  0.000000D+00  0.000000D+00
     22  0.000000D+00  0.000000D+00  0.000000D+00  0.000000D+00  0.000000D+00
     23  0.000000D+00  0.000000D+00  0.000000D+00  0.000000D+00  0.000000D+00
     24  0.000000D+00  0.000000D+00  0.000000D+00  0.000000D+00  0.000000D+00
     25  0.000000D+00  0.000000D+00  0.000000D+00  0.000000D+00 -0.153960D-05
     26  0.000000D+00  0.000000D+00  0.000000D+00  0.000000D+00  0.000000D+00
     27  0.000000D+00  0.000000D+00  0.000000D+00  0.000000D+00  0.000000D+00
     28  0.000000D+00  0.000000D+00  0.000000D+00  0.191205D-05 -0.946403D-05
     29 -0.499204D-01  0.981531D-01 -0.121230D-02  0.479638D-01 -0.241344D-01
     30 -0.607767D-01  0.119499D+00 -0.147594D-02  0.571879D-01 -0.289464D-01
     31  0.507907D-01  0.654118D-01 -0.807909D-03  0.107559D-01  0.367951D-01
     32  0.654118D-01 -0.445531D-01  0.158850D-02 -0.211481D-01  0.104971D-01
     33 -0.807909D-03  0.158850D-02  0.840394D-01  0.261202D-03 -0.129651D-03
     34 -0.246509D+00  0.484683D+00 -0.598637D-02  0.306618D+00 -0.143541D+00
     35  0.193881D+00  0.190274D+00 -0.235010D-02  0.432051D-01  0.149021D+00
     36  0.190274D+00 -0.834612D-01  0.462074D-02 -0.849495D-01  0.397686D-01
     37 -0.235010D-02  0.462074D-02  0.290597D+00  0.104922D-02 -0.491186D-03
     38 -0.274750D+00  0.540211D+00 -0.667220D-02  0.606867D+00 -0.238182D+00
     39  0.462470D+00  0.251419D+00 -0.310531D-02  0.130643D+00  0.460493D+00
     40  0.251419D+00  0.960032D-01  0.610562D-02 -0.256869D+00  0.100815D+00
     41 -0.310531D-02  0.610562D-02  0.590265D+00  0.317262D-02 -0.124518D-02
     42 -0.130643D+00  0.256869D+00 -0.317262D-02  0.853366D+00 -0.217846D+00
     43  0.460493D+00  0.100815D+00 -0.124518D-02  0.217846D+00  0.797754D+00
     44  0.100815D+00  0.313546D+00  0.244827D-02 -0.428326D+00  0.109342D+00
     45 -0.124518D-02  0.244827D-02  0.511738D+00  0.529030D-02 -0.135050D-02
     46 -0.702630D-02  0.138150D-01  0.335739D-02 -0.578300D-02 -0.655400D-02
     47  0.132099D-02  0.140763D-02  0.838590D-01  0.100004D-03  0.344026D-03
     48  0.140763D-02 -0.730752D-03 -0.164883D+00 -0.196627D-03  0.938244D-04
     49  0.126120D+00  0.818578D-01  0.102587D-02 -0.590089D-02  0.189471D-01
     50 -0.106953D+00 -0.300911D-01  0.140763D-02 -0.809676D-02 -0.278539D-01
     51 -0.415345D-01  0.865868D-01 -0.382330D-01  0.901547D-01 -0.656392D-01
     52 -0.111691D+00  0.232842D+00 -0.102813D+00  0.239186D+00 -0.158979D+00
     53 -0.165708D+00  0.345450D+00 -0.152536D+00  0.472593D+00 -0.249833D+00
     54  0.545026D-01  0.544271D-02  0.339710D+00  0.159712D+00  0.262217D-01
     55  0.981804D-01  0.980444D-02  0.611951D+00  0.403137D+00  0.604216D-01
     56  0.843660D-01  0.842491D-02  0.525846D+00  0.715824D+00  0.853305D-01
     57  0.188581D-02  0.774966D-03  0.778523D-03  0.655614D-01  0.454969D-03
     58  0.233485D-02  0.959499D-03  0.963903D-03  0.783144D-01  0.546675D-03
     59  0.220203D+00 -0.681410D-05 -0.684538D-05 -0.201900D-03  0.573476D-01
     60 -0.681410D-05  0.220216D+00 -0.281309D-05 -0.829702D-04  0.000000D+00
     61 -0.684538D-05 -0.281309D-05  0.220216D+00 -0.833510D-04  0.000000D+00
     62  0.764281D-02  0.314079D-02  0.315521D-02  0.410090D+00  0.264762D-02
     63  0.653392D+00 -0.170043D-04 -0.170823D-04 -0.796918D-03  0.226357D+00
     64 -0.170043D-04  0.653426D+00 -0.701993D-05 -0.327491D-03 -0.211434D-05
     65 -0.170823D-04 -0.701993D-05  0.653426D+00 -0.328994D-03 -0.212405D-05
     66  0.641829D-02  0.263758D-02  0.264969D-02  0.774398D+00  0.419156D-02
     67  0.999931D+00 -0.169292D-04 -0.170069D-04 -0.229908D-02  0.653034D+00
     68 -0.169292D-04  0.999965D+00 -0.698895D-05 -0.944801D-03 -0.511389D-05
     69 -0.170069D-04 -0.698895D-05  0.999965D+00 -0.949137D-03 -0.513736D-05
     70  0.229908D-02  0.944801D-03  0.949137D-03  0.999992D+00  0.352052D-02
     71  0.653034D+00 -0.511389D-05 -0.513736D-05 -0.352052D-02  0.999979D+00
     72 -0.511389D-05  0.653044D+00 -0.211118D-05 -0.144675D-02 -0.509334D-05
     73 -0.513736D-05 -0.211118D-05  0.653044D+00 -0.145339D-02 -0.511672D-05
     74  0.157058D-02  0.645426D-03 -0.129683D-02  0.000000D+00  0.172751D-03
     75 -0.112300D-02  0.000000D+00 -0.272037D-02  0.000000D+00 -0.123524D-03
     76  0.000000D+00 -0.112306D-02 -0.111793D-02  0.000000D+00  0.000000D+00
     77 -0.272033D-02  0.111797D-02  0.000000D+00  0.000000D+00 -0.299213D-03
     78 -0.111787D-02 -0.272037D-02  0.000000D+00  0.000000D+00 -0.122959D-03
     79  0.000000D+00  0.000000D+00  0.000000D+00  0.000000D+00  0.000000D+00
     80  0.000000D+00  0.000000D+00  0.000000D+00  0.000000D+00  0.000000D+00
     81  0.000000D+00  0.000000D+00  0.000000D+00  0.000000D+00 -0.137838D-05
     82  0.000000D+00  0.000000D+00  0.000000D+00  0.000000D+00  0.000000D+00
     83  0.000000D+00  0.000000D+00  0.000000D+00  0.000000D+00  0.000000D+00
     84  0.000000D+00  0.000000D+00  0.000000D+00  0.187716D-05 -0.930452D-05
     85 -0.496532D-01  0.977666D-01 -0.134638D-02  0.478397D-01 -0.241438D-01
     86 -0.604427D-01  0.119011D+00 -0.163895D-02  0.570390D-01 -0.289574D-01
     87  0.501892D-01  0.653728D-01 -0.900275D-03  0.107605D-01  0.366692D-01
     88  0.653728D-01 -0.453277D-01  0.177263D-02 -0.211872D-01  0.105480D-01
     89 -0.900275D-03  0.177263D-02  0.833660D-01  0.291778D-03 -0.145260D-03
     90 -0.245590D+00  0.483564D+00 -0.665935D-02  0.305880D+00 -0.143624D+00
     91  0.192008D+00  0.190402D+00 -0.262211D-02  0.432299D-01  0.148541D+00
     92  0.190402D+00 -0.861917D-01  0.516290D-02 -0.851191D-01  0.399671D-01
     93 -0.262211D-02  0.516290D-02  0.288637D+00  0.117221D-02 -0.550403D-03
     94 -0.274370D+00  0.540230D+00 -0.743973D-02  0.605641D+00 -0.238411D+00
     95  0.459691D+00  0.252180D+00 -0.347287D-02  0.130769D+00  0.459257D+00
     96  0.252180D+00  0.912279D-01  0.683804D-02 -0.257483D+00  0.101358D+00
     97 -0.347287D-02  0.683804D-02  0.587672D+00  0.354590D-02 -0.139585D-02
     98 -0.130769D+00  0.257483D+00 -0.354590D-02  0.852244D+00 -0.218210D+00
     99  0.459257D+00  0.101358D+00 -0.139585D-02  0.218210D+00  0.796374D+00
    100  0.101358D+00  0.311161D+00  0.274840D-02 -0.429652D+00  0.110009D+00
    101 -0.139585D-02  0.274840D-02  0.510697D+00  0.591692D-02 -0.151497D-02
    102 -0.665928D-02  0.131120D-01  0.374261D-02 -0.581613D-02 -0.653480D-02
    103  0.146418D-02  0.157690D-02  0.835108D-01  0.112055D-03  0.384016D-03
    104  0.157690D-02 -0.839841D-03 -0.164432D+00 -0.220635D-03  0.105595D-03
    105  0.126018D+00  0.808222D-01  0.115201D-02 -0.594439D-02  0.189849D-01
    106 -0.106320D+00 -0.309725D-01  0.157690D-02 -0.813680D-02 -0.278850D-01
    107 -0.432977D-01  0.926388D-01 -0.395732D-01  0.923244D-01 -0.651261D-01
    108 -0.114513D+00  0.245010D+00 -0.104663D+00  0.244436D+00 -0.157410D+00
    109 -0.166079D+00  0.355339D+00 -0.151793D+00  0.480824D+00 -0.246271D+00
    110  0.555892D-01  0.906165D-03  0.336910D+00  0.158773D+00  0.270745D-01
    111  0.100553D+00  0.163912D-02  0.609423D+00  0.400975D+00  0.624186D-01
    112  0.868923D-01  0.141644D-02  0.526629D+00  0.712769D+00  0.882480D-01
               16            17            18            19            20 
     16  0.100000D+01
     17  0.000000D+00  0.100000D+01
     18  0.000000D+00  0.000000D+00  0.100000D+01
     19  0.000000D+00  0.000000D+00  0.000000D+00  0.100000D+01
     20  0.000000D+00  0.000000D+00  0.000000D+00  0.000000D+00  0.100000D+01
     21  0.000000D+00  0.000000D+00  0.000000D+00  0.000000D+00  0.000000D+00
     22  0.000000D+00  0.000000D+00  0.000000D+00  0.000000D+00  0.000000D+00
     23  0.000000D+00  0.000000D+00  0.000000D+00  0.000000D+00  0.000000D+00
     24  0.000000D+00  0.000000D+00  0.000000D+00  0.000000D+00  0.000000D+00
     25  0.000000D+00  0.000000D+00  0.000000D+00  0.000000D+00  0.000000D+00
     26  0.000000D+00  0.000000D+00  0.000000D+00  0.000000D+00  0.000000D+00
     27  0.000000D+00  0.000000D+00  0.000000D+00  0.000000D+00  0.000000D+00
     28 -0.633763D-05 -0.197786D-05  0.000000D+00  0.000000D+00  0.000000D+00
     29  0.474527D-01 -0.586094D-03 -0.302929D-01  0.523847D-03 -0.102998D-02
     30  0.569142D-01 -0.702953D-03 -0.359403D-01  0.621506D-03 -0.122200D-02
     31  0.104971D-01 -0.129651D-03 -0.508700D-01  0.312962D-03 -0.250755D-02
     32  0.214946D-01  0.254918D-03  0.100020D+00 -0.250755D-02  0.396795D-02
     33  0.254918D-03  0.421307D-01 -0.290224D-02 -0.395980D-01  0.778571D-01
     34  0.282229D+00 -0.348585D-02 -0.136129D+00  0.235404D-02 -0.462848D-02
     35  0.397686D-01 -0.491186D-03 -0.642981D-01 -0.522600D-03 -0.442984D-02
     36  0.910547D-01  0.965765D-03  0.126422D+00 -0.442984D-02  0.593430D-02
     37  0.965765D-03  0.169235D+00 -0.636895D-02 -0.114240D+00  0.224618D+00
     38  0.468310D+00 -0.578415D-02 -0.548204D-01  0.947995D-03 -0.186394D-02
     39  0.100815D+00 -0.124518D-02  0.702630D-02 -0.132099D-02 -0.140763D-02
     40  0.313546D+00  0.244827D-02 -0.138150D-01 -0.140763D-02  0.730752D-03
     41  0.244827D-02  0.511738D+00 -0.335739D-02 -0.838590D-01  0.164883D+00
     42  0.428326D+00 -0.529030D-02 -0.578300D-02  0.100004D-03 -0.196627D-03
     43  0.109342D+00 -0.135050D-02  0.655400D-02 -0.344026D-03 -0.938244D-04
     44  0.638378D+00  0.265534D-02 -0.128864D-01 -0.938244D-04 -0.207269D-03
     45  0.265534D-02  0.853333D+00 -0.519361D-03 -0.161302D-01  0.317151D-01
     46  0.128864D-01  0.519361D-03  0.124370D+00 -0.442190D-02  0.869430D-02
     47  0.938244D-04  0.161302D-01 -0.442190D-02  0.711161D-02  0.189793D+00
     48  0.207269D-03 -0.317151D-01  0.869430D-02  0.189793D+00 -0.269530D+00
     49  0.261812D-01  0.683788D-04  0.212109D-01 -0.547574D-02  0.154315D-02
     50  0.853497D-02  0.938244D-04  0.291040D-01  0.316440D-03  0.609964D-02
     51  0.136838D+00 -0.604217D-01 -0.821972D-03  0.717849D-03 -0.149650D-02
     52  0.331423D+00 -0.146342D+00 -0.125036D-01  0.109197D-01 -0.227642D-01
     53  0.520826D+00 -0.229974D+00 -0.167745D-01  0.146496D-01 -0.305400D-01
     54  0.261854D-02  0.163438D+00  0.229462D+00  0.646045D-01  0.645150D-02
     55  0.603379D-02  0.376603D+00  0.242066D+00  0.681529D-01  0.680585D-02
     56  0.852124D-02  0.531859D+00  0.590806D-01  0.166340D-01  0.166109D-02
     57  0.186968D-03  0.187826D-03 -0.480915D-04  0.830606D-04  0.341335D-04
     58  0.224654D-03  0.225686D-03 -0.655869D-04  0.113278D-03  0.465511D-04
     59  0.000000D+00  0.000000D+00 -0.814979D-02  0.582662D-02  0.000000D+00
     60  0.573487D-01  0.000000D+00 -0.334913D-02  0.000000D+00  0.582786D-02
     61  0.000000D+00  0.573487D-01  0.673008D-02  0.141167D-01  0.580123D-02
     62  0.108803D-02  0.109302D-02 -0.317582D-04  0.548508D-04  0.225408D-04
     63 -0.211434D-05 -0.212405D-05 -0.655795D-02  0.468882D-02  0.000000D+00
     64  0.226361D+00  0.000000D+00 -0.269497D-02  0.000000D+00  0.468943D-02
     65  0.000000D+00  0.226361D+00  0.541520D-02  0.113591D-01  0.466800D-02
     66  0.172251D-02  0.173041D-02 -0.417361D-05  0.720841D-05  0.296227D-05
     67 -0.511389D-05 -0.513736D-05 -0.157058D-02  0.112300D-02  0.000000D+00
     68  0.653044D+00 -0.211118D-05 -0.645426D-03  0.000000D+00  0.112306D-02
     69 -0.211118D-05  0.653044D+00  0.129683D-02  0.272037D-02  0.111793D-02
     70  0.144675D-02  0.145339D-02  0.000000D+00  0.000000D+00  0.000000D+00
     71 -0.509334D-05 -0.511672D-05 -0.172751D-03  0.123524D-03  0.000000D+00
     72  0.999990D+00 -0.210270D-05 -0.709915D-04  0.000000D+00  0.123526D-03
     73 -0.210270D-05  0.999990D+00  0.142637D-03  0.299215D-03  0.122962D-03
     74  0.709915D-04 -0.142637D-03  0.999772D+00 -0.422197D-04 -0.173501D-04
     75  0.000000D+00 -0.299215D-03 -0.422197D-04  0.999674D+00 -0.727850D-04
     76 -0.123526D-03 -0.122962D-03 -0.173501D-04 -0.727850D-04  0.999821D+00
     77  0.122963D-03  0.000000D+00  0.849881D-04 -0.731159D-04  0.300512D-04
     78 -0.299215D-03  0.000000D+00  0.840444D-04 -0.300437D-04 -0.731191D-04
     79  0.000000D+00  0.000000D+00  0.000000D+00  0.000000D+00  0.000000D+00
     80  0.000000D+00  0.000000D+00  0.000000D+00  0.000000D+00  0.000000D+00
     81  0.000000D+00  0.000000D+00  0.000000D+00  0.000000D+00  0.000000D+00
     82  0.000000D+00  0.000000D+00  0.000000D+00  0.000000D+00  0.000000D+00
     83  0.000000D+00  0.000000D+00  0.000000D+00  0.000000D+00  0.000000D+00
     84 -0.622013D-05 -0.193141D-05  0.000000D+00  0.000000D+00  0.000000D+00
     85  0.475389D-01 -0.654678D-03 -0.296002D-01  0.570286D-03 -0.112289D-02
     86  0.570167D-01 -0.785200D-03 -0.350438D-01  0.675164D-03 -0.132939D-02
     87  0.105480D-01 -0.145260D-03 -0.502588D-01  0.349418D-03 -0.275414D-02
     88  0.212575D-01  0.286016D-03  0.989589D-01 -0.275414D-02  0.437353D-02
     89  0.286016D-03  0.420224D-01 -0.318032D-02 -0.386608D-01  0.761226D-01
     90  0.282793D+00 -0.389446D-02 -0.135016D+00  0.260125D-02 -0.512183D-02
     91  0.399671D-01 -0.550403D-03 -0.644972D-01 -0.560900D-03 -0.491667D-02
     92  0.901449D-01  0.108374D-02  0.126994D+00 -0.491667D-02  0.662290D-02
     93  0.108374D-02  0.168825D+00 -0.704542D-02 -0.112706D+00  0.221917D+00
     94  0.469428D+00 -0.646469D-02 -0.548795D-01  0.105732D-02 -0.208186D-02
     95  0.101358D+00 -0.139585D-02  0.665928D-02 -0.146418D-02 -0.157690D-02
     96  0.311161D+00  0.274840D-02 -0.131120D-01 -0.157690D-02  0.839841D-03
     97  0.274840D-02  0.510697D+00 -0.374261D-02 -0.835108D-01  0.164432D+00
     98  0.429652D+00 -0.591692D-02 -0.581613D-02  0.112055D-03 -0.220635D-03
     99  0.110009D+00 -0.151497D-02  0.653480D-02 -0.384016D-03 -0.105595D-03
    100  0.635639D+00  0.298297D-02 -0.128669D-01 -0.105595D-03 -0.229730D-03
    101  0.298297D-02  0.852203D+00 -0.580828D-03 -0.161384D-01  0.317764D-01
    102  0.128669D-01  0.580828D-03  0.123634D+00 -0.490224D-02  0.965244D-02
    103  0.105595D-03  0.161384D-01 -0.490224D-02  0.641117D-02  0.187615D+00
    104  0.229730D-03 -0.317764D-01  0.965244D-02  0.187615D+00 -0.267716D+00
    105  0.261776D-01  0.771432D-04  0.224927D-01 -0.607019D-02  0.177045D-02
    106  0.847219D-02  0.105595D-03  0.307885D-01  0.320938D-03  0.680636D-02
    107  0.139342D+00 -0.595239D-01 -0.103862D-02  0.841653D-03 -0.180078D-02
    108  0.336791D+00 -0.143869D+00 -0.141677D-01  0.114809D-01 -0.245642D-01
    109  0.526915D+00 -0.225086D+00 -0.177067D-01  0.143487D-01 -0.307001D-01
    110  0.441344D-03  0.164091D+00  0.220655D+00  0.639300D-01  0.104213D-02
    111  0.101749D-02  0.378301D+00  0.239484D+00  0.693853D-01  0.113106D-02
    112  0.143854D-02  0.534846D+00  0.594860D-01  0.172348D-01  0.280945D-03
               21            22            23            24            25 
     21  0.100000D+01
     22  0.000000D+00  0.100000D+01
     23  0.000000D+00  0.000000D+00  0.100000D+01
     24  0.000000D+00  0.000000D+00  0.706377D+00  0.100000D+01
     25  0.000000D+00  0.000000D+00  0.373664D+00  0.788963D+00  0.100000D+01
     26  0.000000D+00  0.000000D+00  0.105079D+00  0.286926D+00  0.268554D+00
     27  0.000000D+00  0.000000D+00  0.286926D+00  0.567069D+00  0.601088D+00
     28  0.000000D+00  0.000000D+00  0.268554D+00  0.601088D+00  0.836217D+00
     29 -0.309104D-01 -0.424129D-01  0.000000D+00  0.000000D+00  0.000000D+00
     30 -0.366729D-01 -0.503199D-01  0.000000D+00  0.000000D+00  0.000000D+00
     31 -0.114882D+00 -0.253387D-01  0.000000D+00  0.000000D+00  0.000000D+00
     32  0.700439D-01  0.163393D+00  0.000000D+00  0.000000D+00  0.000000D+00
     33 -0.182749D-02 -0.250755D-02  0.000000D+00  0.000000D+00  0.000000D+00
     34 -0.138903D+00 -0.190593D+00  0.000000D+00  0.000000D+00  0.000000D+00
     35 -0.247237D+00  0.423120D-01  0.000000D+00  0.000000D+00  0.000000D+00
     36  0.366641D-01  0.244364D+00  0.000000D+00  0.000000D+00  0.000000D+00
     37 -0.322845D-02 -0.442984D-02  0.000000D+00  0.000000D+00  0.000000D+00
     38 -0.559379D-01 -0.767538D-01  0.000000D+00  0.000000D+00  0.000000D+00
     39 -0.126120D+00  0.106953D+00  0.000000D+00  0.000000D+00  0.000000D+00
     40 -0.818578D-01  0.300911D-01  0.000000D+00  0.000000D+00  0.000000D+00
     41 -0.102587D-02 -0.140763D-02  0.000000D+00  0.000000D+00  0.000000D+00
     42 -0.590089D-02 -0.809676D-02  0.000000D+00  0.000000D+00  0.000000D+00
     43 -0.189471D-01  0.278539D-01  0.000000D+00  0.000000D+00  0.000000D+00
     44 -0.261812D-01 -0.853497D-02  0.000000D+00  0.000000D+00  0.000000D+00
     45 -0.683788D-04 -0.938244D-04  0.000000D+00  0.000000D+00  0.000000D+00
     46  0.212109D-01  0.291040D-01  0.000000D+00  0.000000D+00  0.000000D+00
     47 -0.547574D-02  0.316440D-03  0.000000D+00  0.000000D+00  0.000000D+00
     48  0.154315D-02  0.609964D-02  0.000000D+00  0.000000D+00  0.000000D+00
     49 -0.181552D+00  0.253442D+00  0.000000D+00  0.000000D+00  0.000000D+00
     50  0.253442D+00 -0.185048D-01  0.000000D+00  0.000000D+00  0.000000D+00
     51 -0.130465D-02 -0.162572D-02  0.000000D+00  0.000000D+00  0.000000D+00
     52 -0.198459D-01 -0.247300D-01  0.000000D+00  0.000000D+00  0.000000D+00
     53 -0.266248D-01 -0.331772D-01  0.000000D+00  0.000000D+00  0.000000D+00
     54  0.513084D-02  0.103507D-02  0.000000D+00  0.000000D+00  0.000000D+00
     55  0.541265D-02  0.109192D-02  0.000000D+00  0.000000D+00  0.000000D+00
     56  0.132106D-02  0.266503D-03  0.000000D+00  0.000000D+00  0.000000D+00
     57  0.836095D-04  0.826811D-04  0.000000D+00  0.000000D+00  0.000000D+00
     58  0.114026D-03  0.112760D-03  0.000000D+00  0.000000D+00  0.000000D+00
     59  0.141158D-01  0.579999D-02  0.000000D+00  0.000000D+00  0.000000D+00
     60 -0.580210D-02  0.141167D-01  0.000000D+00  0.000000D+00  0.000000D+00
     61  0.000000D+00  0.000000D+00  0.000000D+00  0.000000D+00  0.000000D+00
     62  0.552132D-04  0.546002D-04  0.000000D+00  0.000000D+00  0.000000D+00
     63  0.113587D-01  0.466740D-02  0.000000D+00  0.000000D+00  0.000000D+00
     64 -0.466842D-02  0.113591D-01  0.000000D+00  0.000000D+00  0.000000D+00
     65  0.000000D+00  0.000000D+00  0.000000D+00  0.000000D+00  0.000000D+00
     66  0.725604D-05  0.717547D-05  0.000000D+00  0.000000D+00  0.000000D+00
     67  0.272033D-02  0.111787D-02  0.000000D+00  0.000000D+00  0.000000D+00
     68 -0.111797D-02  0.272037D-02  0.000000D+00  0.000000D+00  0.000000D+00
     69  0.000000D+00  0.000000D+00  0.000000D+00  0.000000D+00  0.000000D+00
     70  0.000000D+00  0.000000D+00  0.000000D+00  0.000000D+00  0.000000D+00
     71  0.299213D-03  0.122959D-03  0.000000D+00  0.000000D+00 -0.150255D-05
     72 -0.122963D-03  0.299215D-03  0.000000D+00  0.000000D+00  0.000000D+00
     73  0.000000D+00  0.000000D+00  0.000000D+00  0.000000D+00  0.000000D+00
     74  0.849881D-04  0.840444D-04  0.000000D+00  0.000000D+00  0.000000D+00
     75 -0.731159D-04 -0.300437D-04  0.000000D+00  0.000000D+00  0.000000D+00
     76  0.300512D-04 -0.731191D-04  0.000000D+00  0.000000D+00  0.000000D+00
     77  0.999674D+00  0.000000D+00  0.000000D+00  0.000000D+00  0.000000D+00
     78  0.000000D+00  0.999674D+00  0.000000D+00  0.000000D+00  0.000000D+00
     79  0.000000D+00  0.000000D+00  0.994376D+00  0.705032D+00  0.373403D+00
     80  0.000000D+00  0.000000D+00  0.705032D+00  0.998802D+00  0.788510D+00
     81  0.000000D+00  0.000000D+00  0.373403D+00  0.788510D+00  0.999622D+00
     82  0.000000D+00  0.000000D+00  0.112026D+00  0.294816D+00  0.271242D+00
     83  0.000000D+00  0.000000D+00  0.294816D+00  0.576852D+00  0.606038D+00
     84  0.000000D+00  0.000000D+00  0.271242D+00  0.606038D+00  0.840738D+00
     85 -0.302530D-01 -0.414109D-01  0.000000D+00  0.000000D+00  0.000000D+00
     86 -0.358166D-01 -0.490265D-01  0.000000D+00  0.000000D+00  0.000000D+00
     87 -0.112901D+00 -0.253727D-01  0.000000D+00  0.000000D+00  0.000000D+00
     88  0.699066D-01  0.161291D+00  0.000000D+00  0.000000D+00  0.000000D+00
     89 -0.201206D-02 -0.275414D-02  0.000000D+00  0.000000D+00  0.000000D+00
     90 -0.137993D+00 -0.188888D+00  0.000000D+00  0.000000D+00  0.000000D+00
     91 -0.245240D+00  0.407293D-01  0.000000D+00  0.000000D+00  0.000000D+00
     92  0.387721D-01  0.244246D+00  0.000000D+00  0.000000D+00  0.000000D+00
     93 -0.359190D-02 -0.491667D-02  0.000000D+00  0.000000D+00  0.000000D+00
     94 -0.560897D-01 -0.767768D-01  0.000000D+00  0.000000D+00  0.000000D+00
     95 -0.126018D+00  0.106320D+00  0.000000D+00  0.000000D+00  0.000000D+00
     96 -0.808222D-01  0.309725D-01  0.000000D+00  0.000000D+00  0.000000D+00
     97 -0.115201D-02 -0.157690D-02  0.000000D+00  0.000000D+00  0.000000D+00
     98 -0.594439D-02 -0.813680D-02  0.000000D+00  0.000000D+00  0.000000D+00
     99 -0.189849D-01  0.278850D-01  0.000000D+00  0.000000D+00  0.000000D+00
    100 -0.261776D-01 -0.847219D-02  0.000000D+00  0.000000D+00  0.000000D+00
    101 -0.771432D-04 -0.105595D-03  0.000000D+00  0.000000D+00  0.000000D+00
    102  0.224927D-01  0.307885D-01  0.000000D+00  0.000000D+00  0.000000D+00
    103 -0.607019D-02  0.320938D-03  0.000000D+00  0.000000D+00  0.000000D+00
    104  0.177045D-02  0.680636D-02  0.000000D+00  0.000000D+00  0.000000D+00
    105 -0.178394D+00  0.253037D+00  0.000000D+00  0.000000D+00  0.000000D+00
    106  0.253037D+00 -0.168890D-01  0.000000D+00  0.000000D+00  0.000000D+00
    107 -0.164733D-02 -0.197027D-02  0.000000D+00  0.000000D+00  0.000000D+00
    108 -0.224710D-01 -0.268761D-01  0.000000D+00  0.000000D+00  0.000000D+00
    109 -0.280841D-01 -0.335895D-01  0.000000D+00  0.000000D+00  0.000000D+00
    110  0.527273D-02  0.171948D-03  0.000000D+00  0.000000D+00  0.000000D+00
    111  0.572266D-02  0.186621D-03  0.000000D+00  0.000000D+00  0.000000D+00
    112  0.142146D-02  0.463552D-04  0.000000D+00  0.000000D+00  0.000000D+00
               26            27            28            29            30 
     26  0.100000D+01
     27  0.706377D+00  0.100000D+01
     28  0.373664D+00  0.788963D+00  0.100000D+01
     29  0.000000D+00  0.000000D+00  0.000000D+00  0.100000D+01
     30  0.000000D+00  0.000000D+00  0.000000D+00  0.878444D+00  0.100000D+01
     31  0.000000D+00  0.000000D+00  0.000000D+00  0.000000D+00  0.000000D+00
     32  0.000000D+00  0.000000D+00  0.000000D+00  0.000000D+00  0.000000D+00
     33  0.000000D+00  0.000000D+00  0.000000D+00  0.000000D+00  0.000000D+00
     34  0.000000D+00  0.000000D+00  0.000000D+00  0.329179D+00  0.418800D+00
     35  0.000000D+00  0.000000D+00  0.000000D+00  0.000000D+00  0.000000D+00
     36  0.000000D+00  0.000000D+00  0.000000D+00  0.000000D+00  0.000000D+00
     37  0.000000D+00  0.000000D+00  0.000000D+00  0.000000D+00  0.000000D+00
     38  0.000000D+00  0.000000D+00  0.000000D+00  0.153761D+00  0.187145D+00
     39  0.000000D+00  0.000000D+00  0.000000D+00  0.000000D+00  0.000000D+00
     40  0.000000D+00  0.000000D+00  0.000000D+00  0.000000D+00  0.000000D+00
     41  0.000000D+00  0.000000D+00  0.000000D+00  0.000000D+00  0.000000D+00
     42  0.000000D+00  0.000000D+00  0.103264D-05  0.655625D-01  0.783157D-01
     43  0.000000D+00  0.000000D+00 -0.474161D-05  0.000000D+00  0.000000D+00
     44  0.000000D+00  0.000000D+00 -0.414955D-05  0.000000D+00  0.000000D+00
     45  0.000000D+00  0.000000D+00 -0.105921D-05  0.000000D+00  0.000000D+00
     46  0.000000D+00  0.000000D+00  0.000000D+00  0.000000D+00  0.000000D+00
     47  0.000000D+00  0.000000D+00  0.000000D+00  0.000000D+00  0.000000D+00
     48  0.000000D+00  0.000000D+00  0.000000D+00  0.000000D+00  0.000000D+00
     49  0.000000D+00  0.000000D+00  0.000000D+00  0.000000D+00  0.000000D+00
     50  0.000000D+00  0.000000D+00  0.000000D+00  0.000000D+00  0.000000D+00
     51  0.000000D+00  0.000000D+00  0.000000D+00  0.737014D-02  0.609362D-02
     52  0.000000D+00  0.000000D+00  0.000000D+00  0.622767D-01  0.741362D-01
     53  0.000000D+00  0.000000D+00  0.000000D+00  0.747110D-01  0.896885D-01
     54  0.000000D+00  0.000000D+00  0.000000D+00  0.517576D-05  0.000000D+00
     55  0.000000D+00  0.000000D+00  0.000000D+00  0.340102D-02  0.354662D-02
     56  0.000000D+00  0.000000D+00  0.000000D+00  0.278508D-01  0.329942D-01
     57  0.000000D+00  0.000000D+00  0.000000D+00  0.662141D-04  0.979335D-05
     58  0.000000D+00  0.000000D+00  0.000000D+00  0.979335D-05 -0.124053D-05
     59  0.000000D+00  0.000000D+00  0.000000D+00 -0.883485D-03 -0.386074D-03
     60  0.000000D+00  0.000000D+00  0.000000D+00  0.170853D-02  0.746610D-03
     61  0.000000D+00  0.000000D+00  0.000000D+00 -0.261248D-04 -0.114163D-04
     62  0.000000D+00  0.000000D+00  0.000000D+00  0.157547D-01  0.171045D-01
     63  0.000000D+00  0.000000D+00  0.000000D+00 -0.231358D-01 -0.268424D-01
     64  0.000000D+00  0.000000D+00  0.000000D+00  0.447413D-01  0.519093D-01
     65  0.000000D+00  0.000000D+00  0.000000D+00 -0.684132D-03 -0.793737D-03
     66  0.000000D+00  0.000000D+00  0.000000D+00  0.561263D-01  0.670956D-01
     67  0.000000D+00  0.000000D+00  0.000000D+00 -0.505479D-01 -0.615393D-01
     68  0.000000D+00  0.000000D+00  0.000000D+00  0.977522D-01  0.119008D+00
     69  0.000000D+00  0.000000D+00  0.000000D+00 -0.149471D-02 -0.181973D-02
     70  0.000000D+00  0.000000D+00  0.186720D-05  0.479459D-01  0.571664D-01
     71  0.000000D+00  0.000000D+00 -0.925126D-05 -0.244580D-01 -0.293346D-01
     72  0.000000D+00  0.000000D+00 -0.619275D-05  0.472983D-01  0.567288D-01
     73  0.000000D+00  0.000000D+00 -0.193527D-05 -0.723230D-03 -0.867430D-03
     74  0.000000D+00  0.000000D+00  0.000000D+00 -0.301866D-01 -0.358033D-01
     75  0.000000D+00  0.000000D+00  0.000000D+00  0.652621D-03  0.774051D-03
     76  0.000000D+00  0.000000D+00  0.000000D+00 -0.126207D-02 -0.149690D-02
     77  0.000000D+00  0.000000D+00  0.000000D+00 -0.302338D-01 -0.358593D-01
     78  0.000000D+00  0.000000D+00  0.000000D+00 -0.426805D-01 -0.506219D-01
     79  0.917988D-01  0.270921D+00  0.262954D+00  0.000000D+00  0.000000D+00
     80  0.270921D+00  0.546912D+00  0.590747D+00  0.000000D+00  0.000000D+00
     81  0.262954D+00  0.590747D+00  0.826727D+00  0.000000D+00  0.000000D+00
     82  0.999280D+00  0.706206D+00  0.373631D+00  0.000000D+00  0.000000D+00
     83  0.706206D+00  0.999847D+00  0.788905D+00  0.000000D+00  0.000000D+00
     84  0.373631D+00  0.788905D+00  0.999952D+00  0.000000D+00  0.000000D+00
     85  0.000000D+00  0.000000D+00  0.000000D+00  0.998732D+00  0.877965D+00
     86  0.000000D+00  0.000000D+00  0.000000D+00  0.877965D+00  0.999623D+00
     87  0.000000D+00  0.000000D+00  0.000000D+00  0.583167D-02  0.642026D-02
     88  0.000000D+00  0.000000D+00  0.000000D+00 -0.169409D-01 -0.186507D-01
     89  0.000000D+00  0.000000D+00  0.000000D+00  0.568184D-02  0.625530D-02
     90  0.000000D+00  0.000000D+00  0.000000D+00  0.329160D+00  0.418774D+00
     91  0.000000D+00  0.000000D+00  0.000000D+00  0.147019D-02  0.193744D-02
     92  0.000000D+00  0.000000D+00  0.000000D+00 -0.427085D-02 -0.562821D-02
     93  0.000000D+00  0.000000D+00  0.000000D+00  0.143241D-02  0.188766D-02
     94  0.000000D+00  0.000000D+00  0.000000D+00  0.153758D+00  0.187142D+00
     95  0.000000D+00  0.000000D+00  0.000000D+00  0.408728D-03  0.506054D-03
     96  0.000000D+00  0.000000D+00  0.000000D+00 -0.118735D-02 -0.147007D-02
     97  0.000000D+00  0.000000D+00  0.000000D+00  0.398227D-03  0.493051D-03
     98  0.000000D+00  0.000000D+00  0.102786D-05  0.655621D-01  0.783152D-01
     99  0.000000D+00  0.000000D+00 -0.471854D-05  0.986073D-04  0.118483D-03
    100  0.000000D+00  0.000000D+00 -0.413351D-05 -0.286452D-03 -0.344191D-03
    101  0.000000D+00  0.000000D+00 -0.105323D-05  0.960738D-04  0.115439D-03
    102  0.000000D+00  0.000000D+00  0.000000D+00 -0.205743D-04 -0.280591D-04
    103  0.000000D+00  0.000000D+00  0.000000D+00  0.920916D-05  0.125594D-04
    104  0.000000D+00  0.000000D+00  0.000000D+00 -0.267524D-04 -0.364848D-04
    105  0.000000D+00  0.000000D+00  0.000000D+00 -0.351562D-04 -0.479459D-04
    106  0.000000D+00  0.000000D+00  0.000000D+00 -0.274579D-04 -0.374469D-04
    107  0.000000D+00  0.000000D+00  0.000000D+00  0.948699D-02  0.824258D-02
    108  0.000000D+00  0.000000D+00  0.000000D+00  0.684482D-01  0.817734D-01
    109  0.000000D+00  0.000000D+00  0.000000D+00  0.771279D-01  0.926286D-01
    110  0.000000D+00  0.000000D+00  0.000000D+00  0.406183D-05  0.000000D+00
    111  0.000000D+00  0.000000D+00  0.000000D+00  0.308044D-02  0.319540D-02
    112  0.000000D+00  0.000000D+00  0.000000D+00  0.269242D-01  0.318817D-01
               31            32            33            34            35 
     31  0.100000D+01
     32  0.000000D+00  0.100000D+01
     33  0.000000D+00  0.000000D+00  0.100000D+01
     34  0.000000D+00  0.000000D+00  0.000000D+00  0.100000D+01
     35  0.629120D+00  0.000000D+00  0.000000D+00  0.000000D+00  0.100000D+01
     36  0.000000D+00  0.629120D+00  0.000000D+00  0.000000D+00  0.000000D+00
     37  0.000000D+00  0.000000D+00  0.629120D+00  0.000000D+00  0.000000D+00
     38  0.000000D+00  0.000000D+00  0.000000D+00  0.774697D+00  0.000000D+00
     39  0.220230D+00  0.000000D+00  0.000000D+00  0.000000D+00  0.653461D+00
     40  0.000000D+00  0.220230D+00  0.000000D+00  0.000000D+00  0.000000D+00
     41  0.000000D+00  0.000000D+00  0.220230D+00  0.000000D+00  0.000000D+00
     42  0.000000D+00  0.000000D+00  0.000000D+00  0.410096D+00  0.000000D+00
     43  0.573499D-01  0.000000D+00  0.000000D+00  0.000000D+00  0.226365D+00
     44  0.000000D+00  0.573499D-01  0.000000D+00  0.000000D+00  0.000000D+00
     45  0.000000D+00  0.000000D+00  0.573499D-01  0.000000D+00  0.000000D+00
     46  0.000000D+00  0.000000D+00  0.000000D+00  0.000000D+00  0.000000D+00
     47  0.000000D+00  0.000000D+00  0.000000D+00  0.000000D+00  0.000000D+00
     48  0.000000D+00  0.000000D+00  0.000000D+00  0.000000D+00  0.000000D+00
     49  0.000000D+00  0.000000D+00  0.000000D+00  0.000000D+00  0.000000D+00
     50  0.000000D+00  0.000000D+00  0.000000D+00  0.000000D+00  0.000000D+00
     51 -0.202172D-01  0.471709D-01 -0.566081D-01  0.152452D+00 -0.886733D-01
     52 -0.423126D-01  0.987241D-01 -0.118475D+00  0.379231D+00 -0.123499D+00
     53 -0.177827D-01  0.414907D-01 -0.497915D-01  0.440280D+00 -0.624154D-01
     54  0.866429D-04 -0.125636D-03  0.136493D-03  0.493937D-02  0.793791D-02
     55  0.819808D-02 -0.118876D-01  0.129148D-01  0.548709D-01  0.499529D-01
     56  0.191031D-01 -0.277003D-01  0.300940D-01  0.189782D+00  0.752102D-01
     57  0.883485D-03 -0.170853D-02  0.261248D-04  0.157547D-01  0.231358D-01
     58  0.386074D-03 -0.746610D-03  0.114163D-04  0.171045D-01  0.268424D-01
     59 -0.432174D-02  0.149994D-01 -0.229354D-03 -0.372535D-01 -0.539175D-02
     60  0.149994D-01 -0.255722D-01  0.443536D-03  0.720427D-01  0.942158D-01
     61 -0.229354D-03  0.443536D-03  0.342773D-02 -0.110159D-02 -0.144064D-02
     62  0.372535D-01 -0.720427D-01  0.110159D-02  0.173369D+00  0.149065D+00
     63 -0.539175D-02  0.942158D-01 -0.144064D-02 -0.149065D+00  0.452014D-01
     64  0.942158D-01 -0.138872D+00  0.278598D-02  0.288270D+00  0.247858D+00
     65 -0.144064D-02  0.278598D-02  0.432849D-01 -0.440789D-02 -0.378996D-02
     66  0.396157D-01 -0.766109D-01  0.117144D-02  0.344245D+00  0.137006D+00
     67  0.498093D-01  0.660466D-01 -0.100991D-02 -0.249666D+00  0.191008D+00
     68  0.660466D-01 -0.437622D-01  0.195301D-02  0.482817D+00  0.192156D+00
     69 -0.100991D-02  0.195301D-02  0.839323D-01 -0.738268D-02 -0.293823D-02
     70  0.109002D-01 -0.210793D-01  0.322320D-03  0.306511D+00  0.437857D-01
     71  0.366333D-01  0.106073D-01 -0.162194D-03 -0.145470D+00  0.148408D+00
     72  0.106073D-01  0.216054D-01  0.313659D-03  0.281318D+00  0.401868D-01
     73 -0.162194D-03  0.313659D-03  0.421135D-01 -0.430159D-02 -0.614490D-03
     74 -0.514467D-01  0.994902D-01 -0.357103D-02 -0.135944D+00 -0.651636D-01
     75  0.428374D-03 -0.311697D-02 -0.399730D-01  0.293904D-02 -0.566539D-03
     76 -0.311697D-02  0.484434D-02  0.773019D-01 -0.568368D-02 -0.551477D-02
     77 -0.114690D+00  0.670052D-01 -0.220798D-02 -0.136156D+00 -0.247707D+00
     78 -0.280151D-01  0.163825D+00 -0.311697D-02 -0.192210D+00  0.370509D-01
     79  0.000000D+00  0.000000D+00  0.000000D+00  0.000000D+00  0.000000D+00
     80  0.000000D+00  0.000000D+00  0.000000D+00  0.000000D+00  0.000000D+00
     81  0.000000D+00  0.000000D+00  0.000000D+00  0.000000D+00  0.000000D+00
     82  0.000000D+00  0.000000D+00  0.000000D+00  0.000000D+00  0.000000D+00
     83  0.000000D+00  0.000000D+00  0.000000D+00  0.000000D+00  0.000000D+00
     84  0.000000D+00  0.000000D+00  0.000000D+00  0.000000D+00  0.000000D+00
     85 -0.583167D-02  0.169409D-01 -0.568184D-02  0.329160D+00 -0.147019D-02
     86 -0.642026D-02  0.186507D-01 -0.625530D-02  0.418774D+00 -0.193744D-02
     87  0.999839D+00  0.755753D-04 -0.253474D-04  0.159473D-02  0.629082D+00
     88  0.755753D-04  0.999645D+00  0.736336D-04 -0.463264D-02  0.180112D-04
     89 -0.253474D-04  0.736336D-04  0.999840D+00  0.155375D-02 -0.604082D-05
     90 -0.159473D-02  0.463264D-02 -0.155375D-02  0.999967D+00 -0.253490D-02
     91  0.629082D+00  0.180112D-04 -0.604082D-05  0.253490D-02  0.999960D+00
     92  0.180112D-04  0.629036D+00  0.175484D-04 -0.736381D-02  0.186671D-04
     93 -0.604082D-05  0.175484D-04  0.629082D+00  0.246977D-02 -0.626081D-05
     94 -0.306354D-03  0.889951D-03 -0.298483D-03  0.774685D+00 -0.909008D-03
     95  0.220225D+00  0.226269D-05  0.000000D+00  0.165649D-02  0.653449D+00
     96  0.226269D-05  0.220220D+00  0.220456D-05 -0.481205D-02  0.564641D-05
     97  0.000000D+00  0.220456D-05  0.220225D+00  0.161393D-02 -0.189376D-05
     98 -0.437586D-04  0.127118D-03 -0.426343D-04  0.410094D+00 -0.172719D-03
     99  0.573495D-01  0.000000D+00  0.000000D+00  0.573829D-03  0.226364D+00
    100  0.000000D+00  0.573490D-01  0.000000D+00 -0.166696D-02  0.000000D+00
    101  0.000000D+00  0.000000D+00  0.573495D-01  0.559085D-03  0.000000D+00
    102 -0.176662D-02  0.513199D-02  0.344270D-02 -0.135857D-04 -0.142146D-02
    103  0.298136D-02  0.000000D+00  0.305998D-02  0.608105D-05  0.239884D-02
    104  0.000000D+00  0.298109D-02 -0.888917D-02 -0.176653D-04  0.000000D+00
    105  0.306015D-02  0.888887D-02  0.000000D+00 -0.232146D-04  0.246218D-02
    106 -0.888917D-02  0.305971D-02  0.000000D+00 -0.181311D-04 -0.715233D-02
    107 -0.226563D-01  0.575922D-01 -0.674906D-01  0.170418D+00 -0.896168D-01
    108 -0.416764D-01  0.105941D+00 -0.124149D+00  0.403631D+00 -0.118770D+00
    109 -0.165713D-01  0.421242D-01 -0.493641D-01  0.452394D+00 -0.579485D-01
    110  0.701835D-04 -0.102237D-03  0.110581D-03  0.439382D-02  0.712760D-02
    111  0.755412D-02 -0.110041D-01  0.119023D-01  0.513505D-01  0.471991D-01
    112  0.186650D-01 -0.271894D-01  0.294087D-01  0.184382D+00  0.737754D-01
               36            37            38            39            40 
     36  0.100000D+01
     37  0.000000D+00  0.100000D+01
     38  0.000000D+00  0.000000D+00  0.100000D+01
     39  0.000000D+00  0.000000D+00  0.000000D+00  0.100000D+01
     40  0.653461D+00  0.000000D+00  0.000000D+00  0.000000D+00  0.100000D+01
     41  0.000000D+00  0.653461D+00  0.000000D+00  0.000000D+00  0.000000D+00
     42  0.000000D+00  0.000000D+00  0.774408D+00  0.000000D+00  0.000000D+00
     43  0.000000D+00  0.000000D+00  0.000000D+00  0.653055D+00  0.000000D+00
     44  0.226365D+00  0.000000D+00  0.000000D+00  0.000000D+00  0.653055D+00
     45  0.000000D+00  0.226365D+00  0.000000D+00  0.000000D+00  0.000000D+00
     46  0.000000D+00  0.000000D+00  0.000000D+00  0.000000D+00  0.000000D+00
     47  0.000000D+00  0.000000D+00  0.000000D+00  0.000000D+00  0.000000D+00
     48  0.000000D+00  0.000000D+00  0.000000D+00  0.000000D+00  0.000000D+00
[...]
  94        4S         -0.00000   0.00000   0.00000  -0.00000   0.04156
  95        4PX         0.00000   0.00000  -0.00000   0.00000   0.00000
  96        4PY         0.00000   0.00000  -0.00000   0.00000   0.00000
  97        4PZ        -0.00000   0.00000   0.00000  -0.00000   0.00000
  98        5S          0.00000  -0.00000  -0.00000   0.00000  -0.00646
  99        5PX         0.00000   0.00000  -0.00000   0.00000   0.00000
 100        5PY         0.00000   0.00000  -0.00000   0.00000   0.00000
 101        5PZ        -0.00000   0.00000   0.00000  -0.00000   0.00000
 102        6D 0        0.00000   0.00000   0.00000   0.00000   0.00000
 103        6D+1        0.00000   0.00000   0.00000   0.00000   0.00000
 104        6D-1       -0.00000   0.00000   0.00000  -0.00000   0.00000
 105        6D+2       -0.00000   0.00000   0.00000  -0.00000   0.00000
 106        6D-2       -0.00000   0.00000   0.00000  -0.00000   0.00000
 107 11  H  1S          0.00000   0.00000   0.00000   0.00000   0.00037
 108        2S          0.00000   0.00000   0.00000   0.00000  -0.22296
 109        3S          0.00000   0.00000  -0.00000   0.00000   0.12565
 110 12  H  1S          0.00000   0.00000   0.00000   0.00000  -0.00000
 111        2S         -0.00000   0.00000   0.00000  -0.00000   0.00484
 112        3S         -0.00000  -0.00000   0.00000  -0.00000  -0.04793
                          86        87        88        89        90
  86        2S        813.30514
  87        2PX         0.00000   7.44064
  88        2PY         0.00000   0.00000  23.78613
  89        2PZ         0.00000   0.00000   0.00000   9.58782
  90        3S          0.69563   0.00000   0.00000   0.00000   0.53083
  91        3PX         0.00000  20.73907   0.00000   0.00000   0.00000
  92        3PY         0.00000   0.00000 365.94214   0.00000   0.00000
  93        3PZ         0.00000   0.00000   0.00000  85.60495   0.00000
  94        4S          0.38648   0.00000   0.00000   0.00000   0.25407
  95        4PX         0.00000   2.41742   0.00000   0.00000   0.00000
  96        4PY         0.00000   0.00000  17.67466   0.00000   0.00000
  97        4PZ         0.00000   0.00000   0.00000   7.28388   0.00000
  98        5S         -0.09219   0.00000   0.00000   0.00000  -0.11886
  99        5PX         0.00000  -0.12135   0.00000   0.00000   0.00000
 100        5PY         0.00000   0.00000   1.55586   0.00000   0.00000
 101        5PZ         0.00000   0.00000   0.00000   0.19156   0.00000
 102        6D 0        0.00000   0.00000   0.00000   0.00000   0.00000
 103        6D+1        0.00000   0.00000   0.00000   0.00000   0.00000
 104        6D-1        0.00000   0.00000   0.00000   0.00000   0.00000
 105        6D+2        0.00000   0.00000   0.00000   0.00000   0.00000
 106        6D-2        0.00000   0.00000   0.00000   0.00000   0.00000
 107 11  H  1S         -0.02326   0.01040   0.04779   0.10532   0.01174
 108        2S         -1.16491  -0.06261  -2.69747  -1.37553  -1.34292
 109        3S          1.22568   0.20069   0.49310   0.32111   0.71432
 110 12  H  1S         -0.00000   0.00004   0.00011   0.00003  -0.00083
 111        2S         -0.01950   0.00843  -0.14441  -0.06094   0.02469
 112        3S         -0.13887  -0.02077   0.33064   0.30082  -0.43462
                          91        92        93        94        95
  91        3PX      1691.94505
  92        3PY         0.00000**********
  93        3PZ         0.00000   0.000004056.91496
  94        4S          0.00000   0.00000   0.00000   0.33458
  95        4PX       -24.27396   0.00000   0.00000   0.00000  36.58624
  96        4PY         0.000001599.90984   0.00000   0.00000   0.00000
  97        4PZ         0.00000   0.00000 635.71293   0.00000   0.00000
  98        5S          0.00000   0.00000   0.00000  -0.20165   0.00000
  99        5PX       -81.90538   0.00000   0.00000   0.00000  11.03625
 100        5PY         0.00000 200.13825   0.00000   0.00000   0.00000
 101        5PZ         0.00000   0.00000  32.70675   0.00000   0.00000
 102        6D 0        0.00000   0.00000   0.00000   0.00000   0.00000
 103        6D+1        0.00000   0.00000   0.00000   0.00000   0.00000
 104        6D-1        0.00000   0.00000   0.00000   0.00000   0.00000
 105        6D+2        0.00000   0.00000   0.00000   0.00000   0.00000
 106        6D-2        0.00000   0.00000   0.00000   0.00000   0.00000
 107 11  H  1S          0.27067   2.32026   1.30707   0.00533   0.02407
 108        2S        -26.55428-226.40351-121.63293  -1.40724   1.95916
 109        3S          7.79303  63.12493  32.88868   1.55259   1.34096
 110 12  H  1S          0.08543   0.41978   0.20757  -0.01414   0.01482
 111        2S         -3.75560 -18.71494  -9.22144   0.00733   1.36997
 112        3S         11.86861  55.34797  25.22657  -0.95026  -5.11519
                          96        97        98        99       100
  96        4PY       331.46919
  97        4PZ         0.00000 236.69023
  98        5S          0.00000   0.00000   0.60056
  99        5PX         0.00000   0.00000   0.00000  84.03488
 100        5PY        77.29022   0.00000   0.00000   0.00000  45.06474
 101        5PZ         0.00000  25.66149   0.00000   0.00000   0.00000
 102        6D 0        0.00000   0.00000   0.00000   0.00000   0.00000
 103        6D+1        0.00000   0.00000   0.00000   0.00000   0.00000
 104        6D-1        0.00000   0.00000   0.00000   0.00000   0.00000
 105        6D+2        0.00000   0.00000   0.00000   0.00000   0.00000
 106        6D-2        0.00000   0.00000   0.00000   0.00000   0.00000
 107 11  H  1S          0.33084   0.30737  -0.01921  -0.02357   0.03929
 108        2S        -39.40914 -38.33216   0.82752   4.24443  -7.97424
 109        3S         12.61224  18.97485  -1.18509  -2.18130   4.57061
 110 12  H  1S          0.49812   0.51312   0.01642  -0.13836   0.14609
 111        2S        -10.18599  -7.58383  -0.00576   3.82357  -3.99305
 112        3S         20.20721  20.31572   1.38623  -9.73920  13.12824
                         101       102       103       104       105
 101        5PZ        18.09168
 102        6D 0        0.00000 171.86534
 103        6D+1        0.00000   0.00000  53.78086
 104        6D-1        0.00000   0.00000   0.00000 123.83030
 105        6D+2        0.00000   0.00000   0.00000   0.00000 141.44351
 106        6D-2        0.00000   0.00000   0.00000   0.00000   0.00000
 107 11  H  1S         -0.01995  -0.08747  -0.09501  -0.53035   0.05250
 108        2S         -4.00557  -4.39407   0.53248  -3.49333   1.69957
 109        3S          4.18134   0.25249  -0.07816  -0.29354  -0.33434
 110 12  H  1S          0.08655  -0.00712   0.00762   0.00554   0.00519
 111        2S         -1.18252   0.13149  -0.29296   0.22401   0.04261
 112        3S         11.85635  -0.66068  -0.73376  -2.77402   0.42168
                         106       107       108       109       110
 106        6D-2      324.85391
 107 11  H  1S          0.06213   0.60240
 108        2S          4.27985  -0.54813  33.41261
 109        3S          0.18118   0.32780 -12.06142  36.07396
 110 12  H  1S          0.01310  -0.00000   0.00011  -0.01713   0.33597
 111        2S         -0.55330   0.00002  -0.04070   0.17594   0.37850
 112        3S          1.00878  -0.00198   1.22180  -2.99913  -0.22487
                         111       112
 111        2S         16.10913
 112        3S        -10.69017  73.76424
     Gross orbital populations:
                           1
   1 1   C  1S          1.19333
   2        2S          0.83104
   3        2PX         0.24919
   4        2PY         1.58587
   5        2PZ         1.10595
   6        3S          0.26783
   7        3PX         2.70104
   8        3PY        -2.08097
   9        3PZ         3.84671
  10        4S          0.11968
  11        4PX         1.28043
  12        4PY       -10.53051
  13        4PZ        -4.40213
  14        5S          0.33631
  15        5PX        -0.63380
  16        5PY        -2.09331
  17        5PZ         1.53069
  18        6D 0       -0.26803
  19        6D+1        0.13359
  20        6D-1       -0.05475
  21        6D+2       -0.32966
  22        6D-2        0.36759
  23 2   H  1S          0.85683
  24        2S         -0.17545
  25        3S         -0.02064
  26 3   H  1S          0.33472
  27        2S         -1.46832
  28        3S         -1.57282
  29 4   C  1S          1.19998
  30        2S          1.25976
  31        2PX         0.76497
  32        2PY         0.85407
  33        2PZ         0.85235
  34        3S         -0.03135
  35        3PX         5.49131
  36        3PY        28.41847
  37        3PZ        -4.00257
  38        4S          0.43605
  39        4PX         5.48293
  40        4PY         5.36875
  41        4PZ        -0.79406
  42        5S         -0.29348
  43        5PX         0.60960
  44        5PY         1.60195
  45        5PZ        -0.20214
  46        6D 0        0.17447
  47        6D+1        0.18465
  48        6D-1        0.62371
  49        6D+2       -0.05691
  50        6D-2       -0.03766
  51 5   H  1S          0.40112
  52        2S          1.14961
  53        3S         -1.44124
  54 6   H  1S          0.89112
  55        2S         -0.60170
  56        3S          2.30296
  57 7   C  1S          1.19284
  58        2S          0.46438
  59        2PX         1.06569
  60        2PY         0.61094
  61        2PZ         1.00412
  62        3S          0.26795
  63        3PX        -1.75694
  64        3PY         1.82474
  65        3PZ        -3.84505
  66        4S          0.11925
  67        4PX        -0.71780
  68        4PY        10.69439
  69        4PZ         4.52431
  70        5S          0.33529
  71        5PX         0.79721
  72        5PY         2.21108
  73        5PZ        -1.55241
  74        6D 0        0.27717
  75        6D+1       -0.18491
  76        6D-1        0.02226
  77        6D+2        0.27417
  78        6D-2       -0.40121
  79 8   H  1S          0.63080
  80        2S          0.56069
  81        3S          0.07902
  82 9   H  1S          1.16686
  83        2S          1.94238
  84        3S          1.66592
  85 10  C  1S          1.18592
  86        2S          0.02102
  87        2PX         1.37482
  88        2PY         0.37261
  89        2PZ         1.32081
  90        3S         -0.03303
  91        3PX        -5.24622
  92        3PY       -26.62016
  93        3PZ         4.17311
  94        4S          0.43470
  95        4PX        -5.19012
  96        4PY        -5.18015
  97        4PZ         0.90857
  98        5S         -0.29327
  99        5PX        -0.51007
 100        5PY        -1.62886
 101        5PZ         0.19227
 102        6D 0       -0.22303
 103        6D+1       -0.20417
 104        6D-1       -0.69486
 105        6D+2        0.00579
 106        6D-2       -0.06321
 107 11  H  1S          1.03047
 108        2S         -0.95203
 109        3S          1.61971
 110 12  H  1S          0.54006
 111        2S          0.86312
 112        3S         -2.19412
          Condensed to atoms (all electrons):
               1          2          3          4          5          6
     1  C 3893.279446  -0.000000  -0.000000-586.689346  33.401792 -21.482934
     2  H   -0.000000   2.751371   6.090448   0.000000   0.000000  -0.000000
     3  H   -0.000000   6.090448  32.901026   0.000000   0.000000  -0.000000
     4  C -586.689346   0.000000   0.000000***********-256.889059  88.492351
     5  H   33.401792   0.000000   0.000000-256.889059  40.192117  -1.703341
     6  H  -21.482934  -0.000000  -0.000000  88.492351  -1.703341  71.514002
     7  C ***********   0.000000   0.000000 472.722842 -33.190803  22.901584
     8  H    0.000000  -1.016980  -4.344529  -0.000000  -0.000000   0.000000
     9  H    0.000000  -7.164098 -37.353361  -0.000000  -0.000000   0.000000
    10  C  579.776856  -0.000000  -0.000000*********** 258.368177 -89.412054
    11  H  -37.206494  -0.000000  -0.000000 314.625163 -41.799632   1.627217
    12  H   21.935962   0.000000   0.000000 -91.718497   1.730240 -69.344449
               7          8          9         10         11         12
     1  C ***********   0.000000   0.000000 579.776856 -37.206494  21.935962
     2  H    0.000000  -1.016980  -7.164098  -0.000000  -0.000000   0.000000
     3  H    0.000000  -4.344529 -37.353361  -0.000000  -0.000000   0.000000
     4  C  472.722842  -0.000000  -0.000000*********** 314.625163 -91.718497
     5  H  -33.190803  -0.000000  -0.000000 258.368177 -41.799632   1.730240
     6  H   22.901584   0.000000   0.000000 -89.412054   1.627217 -69.344449
     7  C 3897.814061  -0.000000  -0.000000-468.666324  36.939991 -23.434666
     8  H   -0.000000   1.650643   4.981380   0.000000   0.000000  -0.000000
     9  H   -0.000000   4.981380  44.311240   0.000000   0.000000  -0.000000
    10  C -468.666324   0.000000   0.000000***********-316.352497  92.565295
    11  H   36.939991   0.000000   0.000000-316.352497  45.525467  -1.661062
    12  H  -23.434666  -0.000000  -0.000000  92.565295  -1.661062  69.136239
 Mulliken charges:
               1
     1  C   10.843925
     2  H    0.339258
     3  H    3.706417
     4  C  -41.904860
     5  H    0.890509
     6  H   -1.592376
     7  C  -11.227479
     8  H   -0.270514
     9  H   -3.775162
    10  C   41.897498
    11  H   -0.698153
    12  H    1.790938
 Sum of Mulliken charges =   0.00000
 Mulliken charges with hydrogens summed into heavy atoms:
               1
     1  C   10.843925
     4  C  -41.904860
     7  C  -11.028918
    10  C   42.089853
 N-N= 5.084370518970D+03 E-N=-1.083643442977D+03  KE= 3.403488035637D+02
 Orbital energies and kinetic energies (alpha):
                                 1                 2
   1         O               -46.533483         47.595674
   2         O               -46.139296         47.127512
   3         O                -4.581466         10.712560
   4         O                -4.459922         10.892079
   5         O                -3.726099          9.997170
   6         O                -3.665752         10.239002
   7         O                -2.934202          5.729749
   8         O                -2.869169          5.598160
   9         O                -2.854452          5.564949
  10         O                -2.832871          5.610448
  11         O                -1.045588          1.364101
  12         O                -1.006881          1.998346
  13         O                -0.901044          1.660074
  14         O                -0.629098          1.976788
  15         O                -0.253197          2.820035
  16         O                -0.093790          1.287755
  17         V                -0.065350          1.079232
  18         V                 0.013916          0.836548
  19         V                 0.031142          1.075610
  20         V                 0.070242          0.634101
  21         V                 0.092033          0.430124
  22         V                 0.099975          0.447398
  23         V                 0.104622          0.307656
  24         V                 0.123087          0.419992
  25         V                 0.124464          0.328160
  26         V                 0.125267          0.406520
  27         V                 0.134356          0.416937
  28         V                 0.148910          0.557611
  29         V                 0.168000          0.322683
  30         V                 0.171064          0.814159
  31         V                 0.193056          0.581110
  32         V                 0.206298          0.445726
  33         V                 0.228573          0.647556
  34         V                 0.246786          0.887278
  35         V                 0.270219          0.919255
  36         V                 0.294171          0.712382
  37         V                 0.304757          0.428461
  38         V                 0.305743          0.987734
  39         V                 0.323583          0.782704
  40         V                 0.331230          0.955976
  41         V                 0.350236          1.228169
  42         V                 0.360127          0.979853
  43         V                 0.464725          1.141978
  44         V                 0.509342          1.993758
  45         V                 0.559019          2.043162
  46         V                 0.619430          1.466931
  47         V                 0.645592          1.691097
  48         V                 0.657862          1.122026
  49         V                 0.765270          1.797067
  50         V                 0.796582          2.017218
  51         V                 0.845777          1.333420
  52         V                 0.877911          2.693422
  53         V                 0.893043          2.414065
  54         V                 0.908331          2.358980
  55         V                 0.931430          2.397726
  56         V                 0.969430          2.298788
  57         V                 1.003264          2.552540
  58         V                 1.030266          2.607378
  59         V                 1.056654          2.656484
  60         V                 1.134873          3.063520
  61         V                 1.162016          3.041995
  62         V                 1.189072          3.134867
  63         V                 1.216416          2.965785
  64         V                 1.275642          3.060192
  65         V                 1.337257          3.015163
  66         V                 1.392410          2.975622
  67         V                 1.424236          3.055654
  68         V                 1.514306          3.180259
  69         V                 1.737386          3.097806
  70         V                 1.757127          3.064234
  71         V                 1.864664          3.304781
  72         V                 1.912419          3.122606
  73         V                 1.974127          3.860121
  74         V                 2.040440          3.528190
  75         V                 2.171561          3.927993
  76         V                 2.194710          3.883786
  77         V                 2.285839          3.843675
  78         V                 2.390048          3.883342
  79         V                 2.532893          5.159905
  80         V                 2.599973          4.831788
  81         V                 2.706897          4.839237
  82         V                 4.091862         17.224112
  83         V                 4.587648         16.149173
  84         V                 5.049816         15.149661
  85         V                 5.138795         15.211955
  86         V                 5.310684          7.802587
  87         V                 5.984374         14.263115
  88         V                 6.101858         15.471952
  89         V                 6.485775          9.362564
  90         V                 6.499008         14.796881
  91         V                 6.617644         16.219715
  92         V                 6.739356         14.706812
  93         V                 6.843726         16.298252
  94         V                 7.205246         15.535748
  95         V                 7.569905         11.761580
  96         V               131.258752        223.918883
  97         V               140.680449        233.746900
 Total kinetic energy from orbitals= 3.403488035638D+02

 This type of calculation cannot be archived.


 IN NATURE THERE ARE NEITHER REWARDS OR
 PUNISHMENTS -- THERE ARE CONSEQUENCES.

                            -- ROBERT GREEN INGERSOLL
 Job cpu time:       0 days  0 hours  0 minutes  4.1 seconds.
 Elapsed time:       0 days  0 hours  1 minutes 18.2 seconds.
 File lengths (MBytes):  RWF=    272 Int=      0 D2E=      0 Chk=     32 Scr=     32
 Normal termination of Gaussian 16 at Thu Jan  5 10:19:03 2023.
