6
MD Step 0
C  -0.33763715 -0.58748864 0.00000000
H  0.19552659 -1.51519357 0.00000000
H  -1.40763715 -0.58748864 0.00000000
C  0.33763715 0.58748865 0.00000000
H  -0.19552659 1.51519357 0.00000000
H  1.40763715 0.58748865 0.00000000
6
MD Step 1
C  -0.33800554 -0.58783602 -0.00039489
H  0.19788753 -1.51298987 0.00234983
H  -1.40541825 -0.58520599 0.00235408
C  0.33721589 0.58704652 -0.00039426
H  -0.19318587 1.51769243 0.00234772
H  1.41012604 0.58991114 0.00235198
6
MD Step 2
C  -0.33831667 -0.58808570 -0.00078873
H  0.20026536 -1.51110107 0.00469332
H  -1.40352579 -0.58307863 0.00470189
C  0.33674822 0.58651365 -0.00078744
H  -0.19086771 1.52045254 0.00468900
H  1.41281789 0.59245977 0.00469740
6
MD Step 3
C  -0.33857033 -0.58824014 -0.00118473
H  0.20267811 -1.50951814 0.00704965
H  -1.40198486 -0.58109424 0.00706286
C  0.33623595 0.58589082 -0.00118267
H  -0.18854549 1.52346304 0.00704265
H  1.41566875 0.59514395 0.00705481
6
MD Step 4
C  -0.33875798 -0.58829387 -0.00157710
H  0.20508672 -1.50827882 0.00938418
H  -1.40086537 -0.57929340 0.00940280
C  0.33569029 0.58518884 -0.00157403
H  -0.18624428 1.52665365 0.00937346
H  1.41857764 0.59791822 0.00938858
6
MD Step 5
C  -0.33887846 -0.58824900 -0.00196655
H  0.20748756 -1.50737492 0.01170090
H  -1.40018758 -0.57767705 0.01172627
C  0.33511607 0.58441289 -0.00196205
H  -0.18394883 1.52998831 0.01168468
H  1.42148154 0.60077493 0.01170144
6
MD Step 6
C  -0.33892633 -0.58810351 -0.00234851
H  0.20984264 -1.50682251 0.01397250
H  -1.39999125 -0.57627638 0.01400667
C  0.33452348 0.58357418 -0.00234196
H  -0.18167400 1.53339617 0.01394810
H  1.42428702 0.60367440 0.01396455
6
MD Step 7
C  -0.33890192 -0.58786113 -0.00272315
H  0.21213925 -1.50660271 0.01619976
H  -1.40027508 -0.57509340 0.01624553
C  0.33391788 0.58267982 -0.00271372
H  -0.17940590 1.53683229 0.01616348
H  1.42693160 0.60660454 0.01617706
6
MD Step 8
C  -0.33880891 -0.58752886 -0.00309285
H  0.21437564 -1.50667707 0.01839679
H  -1.40101145 -0.57411562 0.01845767
C  0.33330226 0.58173521 -0.00307948
H  -0.17711717 1.54026387 0.01834384
H  1.42937036 0.60956615 0.01835141
6
MD Step 9
C  -0.33864390 -0.58710643 -0.00345186
H  0.21649959 -1.50705028 0.02052912
H  -1.40220905 -0.57337799 0.02060940
C  0.33268755 0.58075429 -0.00343329
H  -0.17482928 1.54360937 0.02045368
H  1.43151482 0.61251120 0.02045144
6
MD Step 10
C  -0.33841653 -0.58660639 -0.00380637
H  0.21852865 -1.50765104 0.02263353
H  -1.40379315 -0.57284304 0.02273794
C  0.33207243 0.57973932 -0.00378111
H  -0.17249334 1.54685951 0.02252867
H  1.43335428 0.61546281 0.02251250
6
MD Step 11
C  -0.33812510 -0.58602970 -0.00415022
H  0.22040643 -1.50847757 0.02467357
H  -1.40575203 -0.57254527 0.02480741
C  0.33146758 0.57870499 -0.00411672
H  -0.17013476 1.54993354 0.02453146
H  1.43481151 0.61837080 0.02449669
6
MD Step 12
C  -0.33777985 -0.58538897 -0.00448835
H  0.22214189 -1.50945959 0.02667851
H  -1.40799892 -0.57245230 0.02684711
C  0.33087229 0.57765500 -0.00444485
H  -0.16771498 1.55281919 0.02649036
H  1.43588276 0.62125087 0.02643227
6
MD Step 13
C  -0.33738766 -0.58469318 -0.00482151
H  0.22371982 -1.51054967 0.02865310
H  -1.41046454 -0.57255508 0.02886168
C  0.33028958 0.57659714 -0.00476619
H  -0.16522185 1.55548305 0.02840928
H  1.43654748 0.62409435 0.02832318
6
MD Step 14
C  -0.33694369 -0.58393931 -0.00513800
H  0.22505222 -1.51177330 0.03052828
H  -1.41314822 -0.57291690 0.03078257
C  0.32973452 0.57555136 -0.00506919
H  -0.16271888 1.55782211 0.03021890
H  1.43671949 0.62681912 0.03009943
6
MD Step 15
C  -0.33646153 -0.58314256 -0.00544415
H  0.22615915 -1.51304916 0.03234193
H  -1.41593807 -0.57349313 0.03264674
C  0.32920374 0.57451944 -0.00536012
H  -0.16016556 1.55984513 0.03195644
H  1.43642852 0.62945044 0.03179891
6
MD Step 16
C  -0.33594454 -0.58230761 -0.00573553
H  0.22699899 -1.51436031 0.03406829
H  -1.41878390 -0.57430130 0.03442817
C  0.32870409 0.57351343 -0.00563472
H  -0.15758730 1.56150277 0.03359608
H  1.43564963 0.63195061 0.03339577
6
MD Step 17
C  -0.33540445 -0.58144739 -0.00601595
H  0.22758100 -1.51564286 0.03573041
H  -1.42158654 -0.57530914 0.03614856
C  0.32823375 0.57253675 -0.00589686
H  -0.15496376 1.56280012 0.03516060
H  1.43441552 0.63433133 0.03491377
6
MD Step 18
C  -0.33484195 -0.58056352 -0.00627786
H  0.22785035 -1.51690205 0.03728446
H  -1.42431535 -0.57654977 0.03776393
C  0.32780168 0.57160348 -0.00613941
H  -0.15234381 1.56368166 0.03660673
H  1.43270096 0.63653828 0.03630944
6
MD Step 19
C  -0.33426959 -0.57966944 -0.00652581
H  0.22782603 -1.51807518 0.03875784
H  -1.42687148 -0.57798438 0.03929986
C  0.32740433 0.57071521 -0.00636702
H  -0.14970850 1.56416927 0.03796192
H  1.43056057 0.63858912 0.03761167
6
MD Step 20
C  -0.33369181 -0.57877029 -0.00675623
H  0.22748262 -1.51915069 0.04013030
H  -1.42920824 -0.57962052 0.04073530
C  0.32704569 0.56988080 -0.00657654
H  -0.14708896 1.56424376 0.03920669
H  1.42800993 0.64045484 0.03880139
6
MD Step 21
C  -0.33312213 -0.57788027 -0.00697513
H  0.22685371 -1.52006540 0.04143761
H  -1.43122884 -0.58140927 0.04210363
C  0.32671985 0.56909909 -0.00677401
H  -0.14446359 1.56394818 0.04037711
H  1.42512845 0.64216327 0.03991675
6
MD Step 22
C  -0.33256360 -0.57700298 -0.00717818
H  0.22591615 -1.52082095 0.04265516
H  -1.43290394 -0.58336092 0.04337946
C  0.32643056 0.56837823 -0.00695565
H  -0.14187328 1.56327174 0.04144972
H  1.42194254 0.64368293 0.04093480
6
MD Step 23
C  -0.33202054 -0.57614321 -0.00736280
H  0.22466032 -1.52141380 0.04376848
H  -1.43420193 -0.58547513 0.04454739
C  0.32617946 0.56772393 -0.00711939
H  -0.13935139 1.56221990 0.04241125
H  1.41849550 0.64499345 0.04184308
6
MD Step 24
C  -0.33150155 -0.57531005 -0.00753143
H  0.22310911 -1.52181647 0.04479234
H  -1.43507041 -0.58772203 0.04562031
C  0.32596281 0.56713624 -0.00726790
H  -0.13690468 1.56083329 0.04327748
H  1.41486585 0.64610463 0.04265910
6
MD Step 25
C  -0.33101428 -0.57451155 -0.00768615
H  0.22128664 -1.52200901 0.04573934
H  -1.43546834 -0.59007367 0.04660890
C  0.32577688 0.56661476 -0.00740350
H  -0.13454422 1.55915594 0.04406205
H  1.41113488 0.64702511 0.04339841
6
MD Step 26
C  -0.33055511 -0.57374437 -0.00781801
H  0.21915683 -1.52204049 0.04655811
H  -1.43542783 -0.59256520 0.04746264
C  0.32562837 0.56616897 -0.00751828
H  -0.13234602 1.55717352 0.04471575
H  1.40732415 0.64770083 0.04401115
6
MD Step 27
C  -0.33013201 -0.57301682 -0.00793087
H  0.21676044 -1.52189163 0.04727141
H  -1.43491665 -0.59515829 0.04820223
C  0.32551123 0.56579522 -0.00761620
H  -0.13031438 1.55495016 0.04526245
H  1.40353192 0.64815259 0.04452334
6
MD Step 28
C  -0.32974534 -0.57232954 -0.00802141
H  0.21410001 -1.52158969 0.04786040
H  -1.43395353 -0.59785577 0.04880869
C  0.32542617 0.56549604 -0.00769461
H  -0.12849579 1.55251287 0.04568512
H  1.39981669 0.64836081 0.04491837
6
MD Step 29
C  -0.32939739 -0.57168504 -0.00808905
H  0.21119677 -1.52115113 0.04832217
H  -1.43255084 -0.60064482 0.04927856
C  0.32537110 0.56527058 -0.00775340
H  -0.12692163 1.54990797 0.04598249
H  1.39625299 0.64832279 0.04519578
6
MD Step 30
C  -0.32909439 -0.57108989 -0.00813825
H  0.20810313 -1.52056859 0.04868252
H  -1.43070179 -0.60348438 0.04963594
C  0.32533907 0.56511262 -0.00779698
H  -0.12559507 1.54721290 0.04618161
H  1.39294228 0.64806537 0.04538454
6
MD Step 31
C  -0.32883868 -0.57054673 -0.00817019
H  0.20485490 -1.51985821 0.04894821
H  -1.42842818 -0.60635267 0.04988686
C  0.32532641 0.56501856 -0.00782672
H  -0.12453771 1.54448756 0.04629068
H  1.38996330 0.64759717 0.04549381
6
MD Step 32
C  -0.32862632 -0.57005198 -0.00818030
H  0.20145750 -1.51907275 0.04909329
H  -1.42579363 -0.60926081 0.05000659
C  0.32533513 0.56498981 -0.00783879
H  -0.12380239 1.54175958 0.04628550
H  1.38735647 0.64689496 0.04549857
6
MD Step 33
C  -0.32846327 -0.56961212 -0.00817536
H  0.19798177 -1.51820463 0.04915601
H  -1.42280663 -0.61215687 0.05003154
C  0.32535679 0.56501678 -0.00783942
H  -0.12337683 1.53911956 0.04620520
H  1.38521866 0.64600011 0.04543983
6
MD Step 34
C  -0.32833444 -0.56921257 -0.00814060
H  0.19437853 -1.51737067 0.04905263
H  -1.41960547 -0.61511067 0.04988244
C  0.32540379 0.56511002 -0.00781562
H  -0.12336721 1.53653450 0.04596791
H  1.38351590 0.64483296 0.04523177
6
MD Step 35
C  -0.32824970 -0.56886404 -0.00808854
H  0.19075287 -1.51653591 0.04885368
H  -1.41618132 -0.61803934 0.04962722
C  0.32546305 0.56525418 -0.00777860
H  -0.12372393 1.53412210 0.04564456
H  1.38235819 0.64346838 0.04494779
6
MD Step 36
C  -0.32820304 -0.56856147 -0.00801553
H  0.18711917 -1.51575783 0.04853825
H  -1.41262288 -0.62095164 0.04924683
C  0.32553737 0.56544923 -0.00772513
H  -0.12448445 1.53190439 0.04521505
H  1.38175243 0.64189061 0.04456611
6
MD Step 37
C  -0.32819078 -0.56830235 -0.00792108
H  0.18350924 -1.51507664 0.04810311
H  -1.40900622 -0.62383950 0.04873943
C  0.32562709 0.56569231 -0.00765473
H  -0.12566451 1.52991537 0.04467661
H  1.38171047 0.64010211 0.04408266
6
MD Step 38
C  -0.32821414 -0.56808932 -0.00781050
H  0.17998651 -1.51449953 0.04757753
H  -1.40537852 -0.62666312 0.04813439
C  0.32572767 0.56597530 -0.00757191
H  -0.12724269 1.52821491 0.04405867
H  1.38226349 0.63813841 0.04352674
6
MD Step 39
C  -0.32826278 -0.56791369 -0.00767728
H  0.17654696 -1.51409858 0.04692448
H  -1.40185566 -0.62944979 0.04739781
C  0.32584627 0.56630160 -0.00747076
H  -0.12925857 1.52678883 0.04332404
H  1.38336259 0.63596934 0.04285819
6
MD Step 40
C  -0.32833969 -0.56778032 -0.00752945
H  0.17326571 -1.51386204 0.04618804
H  -1.39847242 -0.63214621 0.04657376
C  0.32597686 0.56666127 -0.00735801
H  -0.13166507 1.52569615 0.04251665
H  1.38502740 0.63364669 0.04212097
6
MD Step 41
C  -0.32843235 -0.56767880 -0.00735878
H  0.17012499 -1.51386567 0.04532176
H  -1.39535318 -0.63479065 0.04561926
C  0.32612910 0.56706013 -0.00722617
H  -0.13450007 1.52489623 0.04158915
H  1.38717394 0.63113225 0.04126449
6
MD Step 42
C  -0.32854175 -0.56761237 -0.00717149
H  0.16718432 -1.51410027 0.04435940
H  -1.39253796 -0.63734134 0.04456871
C  0.32629946 0.56749085 -0.00708028
H  -0.13771523 1.52442046 0.04057484
H  1.38978811 0.62846918 0.04032157
6
MD Step 43
C  -0.32865795 -0.56757349 -0.00696211
H  0.16443494 -1.51461672 0.04326991
H  -1.39012648 -0.63982223 0.04339373
C  0.32649552 0.56795752 -0.00691521
H  -0.14132166 1.52422640 0.03944140
H  1.39278079 0.62563652 0.03925751
6
MD Step 44
C  -0.32877878 -0.56756242 -0.00673312
H  0.16190878 -1.51541538 0.04206665
H  -1.38816587 -0.64221294 0.04210899
C  0.32671748 0.56845710 -0.00673283
H  -0.14528046 1.52430829 0.03820130
H  1.39610003 0.62265893 0.03808376
6
MD Step 45
C  -0.32891207 -0.56758924 -0.00649722
H  0.15969050 -1.51643323 0.04081950
H  -1.38663675 -0.64443606 0.04078411
C  0.32695601 0.56897730 -0.00654398
H  -0.14949041 1.52471008 0.03692471
H  1.39974510 0.61961902 0.03687105
6
MD Step 46
C  -0.32904626 -0.56764479 -0.00624622
H  0.15774404 -1.51771816 0.03948244
H  -1.38562699 -0.64653205 0.03937537
C  0.32722127 0.56952589 -0.00634112
H  -0.15396292 1.52535144 0.03556377
H  1.40359250 0.61648351 0.03556957
6
MD Step 47
C  -0.32917860 -0.56772851 -0.00598068
H  0.15607792 -1.51926239 0.03805820
H  -1.38516348 -0.64849224 0.03788645
C  0.32751500 0.57010263 -0.00612449
H  -0.15865621 1.52619547 0.03412037
H  1.40756532 0.61326908 0.03418058
6
MD Step 48
C  -0.32930717 -0.56784035 -0.00570134
H  0.15469726 -1.52105069 0.03655065
H  -1.38525923 -0.65030714 0.03632181
C  0.32783850 0.57070722 -0.00589455
H  -0.16352424 1.52720182 0.03259763
H  1.41158700 0.60999428 0.03270683
6
MD Step 49
C  -0.32942928 -0.56797922 -0.00540740
H  0.15359449 -1.52307014 0.03495539
H  -1.38592242 -0.65197588 0.03467753
C  0.32819409 0.57134088 -0.00565048
H  -0.16852707 1.52831839 0.03099033
H  1.41557343 0.60667002 0.03114281
6
MD Step 50
C  -0.32954975 -0.56815106 -0.00510526
H  0.15279796 -1.52526186 0.03330788
H  -1.38710752 -0.65345730 0.03298874
C  0.32857699 0.57199797 -0.00539789
H  -0.17358266 1.52953138 0.02933436
H  1.41948358 0.60334795 0.02952481
6
MD Step 51
C  -0.32966959 -0.56835762 -0.00479663
H  0.15230592 -1.52758860 0.03161763
H  -1.38878314 -0.65473710 0.03126471
C  0.32898636 0.57267721 -0.00513823
H  -0.17863467 1.53079955 0.02763917
H  1.42325334 0.60005381 0.02786254
6
MD Step 52
C  -0.32978302 -0.56859360 -0.00447548
H  0.15207006 -1.53005246 0.02985161
H  -1.39094985 -0.65584500 0.02947230
C  0.32942807 0.57338451 -0.00486623
H  -0.18367032 1.53203836 0.02587047
H  1.42677963 0.59677041 0.02612170
6
MD Step 53
C  -0.32989191 -0.56886075 -0.00414327
H  0.15208051 -1.53261037 0.02801815
H  -1.39355555 -0.65676915 0.02761917
C  0.32990056 0.57411842 -0.00458323
H  -0.18863560 1.53320664 0.02403670
H  1.43000757 0.59352233 0.02431121
6
MD Step 54
C  -0.32999880 -0.56916100 -0.00380157
H  0.15232558 -1.53521595 0.02612659
H  -1.39653792 -0.65749736 0.02571385
C  0.33040157 0.57487698 -0.00429081
H  -0.19347717 1.53426655 0.02214744
H  1.43289013 0.59033498 0.02244122
6
MD Step 55
C  -0.33010571 -0.56949535 -0.00345109
H  0.15278618 -1.53782661 0.02418128
H  -1.39983236 -0.65802349 0.02375985
C  0.33092920 0.57565876 -0.00398974
H  -0.19814912 1.53517831 0.02020721
H  1.43538261 0.58722833 0.02051680
6
MD Step 56
C  -0.33021747 -0.56986710 -0.00309519
H  0.15345645 -1.54038426 0.02220151
H  -1.40335362 -0.65832712 0.02177551
C  0.33147854 0.57645933 -0.00368322
H  -0.20259320 1.53592123 0.01823604
H  1.43746341 0.58423690 0.01855863
6
MD Step 57
C  -0.33033381 -0.57027420 -0.00273181
H  0.15429866 -1.54286221 0.02017642
H  -1.40704375 -0.65841997 0.01974914
C  0.33204934 0.57727904 -0.00336959
H  -0.20678543 1.53644832 0.01622280
H  1.43908818 0.58136396 0.01655609
6
MD Step 58
C  -0.33045962 -0.57071929 -0.00236428
H  0.15530446 -1.54520482 0.01812508
H  -1.41081271 -0.65828444 0.01769895
C  0.33263583 0.57811261 -0.00305203
H  -0.21067515 1.53674810 0.01418729
H  1.44025164 0.57864216 0.01452956
6
MD Step 59
C  -0.33059468 -0.57119967 -0.00199067
H  0.15643558 -1.54738846 0.01603741
H  -1.41460028 -0.65793427 0.01561416
C  0.33323677 0.57895933 -0.00272900
H  -0.21424576 1.53678476 0.01211912
H  1.44092720 0.57607366 0.01246913
6
MD Step 60
C  -0.33074651 -0.57171996 -0.00161735
H  0.15770024 -1.54934574 0.01394931
H  -1.41830122 -0.65733762 0.01352997
C  0.33384277 0.57981010 -0.00240640
H  -0.21743821 1.53657511 0.01005539
H  1.44114396 0.57370597 0.01041234
6
MD Step 61
C  -0.33090941 -0.57227157 -0.00123724
H  0.15903150 -1.55108911 0.01182181
H  -1.42188982 -0.65654079 0.01140697
C  0.33445673 0.58066820 -0.00207795
H  -0.22027472 1.53606564 0.00795587
H  1.44086299 0.57150971 0.00831930
6
MD Step 62
C  -0.33108263 -0.57285054 -0.00084875
H  0.16039386 -1.55260418 0.00964629
H  -1.42531360 -0.65556055 0.00923616
C  0.33507607 0.58153127 -0.00174232
H  -0.22275149 1.53523999 0.00581157
H  1.44008524 0.56948490 0.00618125
6
MD Step 63
C  -0.33127028 -0.57345750 -0.00045564
H  0.16178330 -1.55385028 0.00744426
H  -1.42849442 -0.65438437 0.00703878
C  0.33569281 0.58239127 -0.00140301
H  -0.22483913 1.53411886 0.00364438
H  1.43885127 0.56766071 0.00402029
6
MD Step 64
C  -0.33147213 -0.57408867 -0.00005758
H  0.16317412 -1.55481472 0.00521431
H  -1.43138342 -0.65302446 0.00481330
C  0.33630254 0.58324367 -0.00105980
H  -0.22653677 1.53270608 0.00145249
H  1.43718677 0.56604184 0.00183468
6
MD Step 65
C  -0.33169399 -0.57474609 0.00033907
H  0.16458005 -1.55545181 0.00299248
H  -1.43390056 -0.65145629 0.00259573
C  0.33689433 0.58407713 -0.00071853
H  -0.22781057 1.53104975 -0.00072758
H  1.43516362 0.56466936 -0.00033907
6
MD Step 66
C  -0.33193269 -0.57542292 0.00073672
H  0.16596703 -1.55577116 0.00076540
H  -1.43602359 -0.64970690 0.00037284
C  0.33746541 0.58488841 -0.00037694
H  -0.22868204 1.52915394 -0.00291007
H  1.43281062 0.56353301 -0.00251533
6
MD Step 67
C  -0.33218113 -0.57610840 0.00114134
H  0.16728249 -1.55580831 -0.00150071
H  -1.43775887 -0.64782530 -0.00188896
C  0.33801633 0.58567746 -0.00002942
H  -0.22919850 1.52700790 -0.00513030
H  1.43014252 0.56260050 -0.00472966
6
MD Step 68
C  -0.33244412 -0.57680348 0.00154627
H  0.16854841 -1.55553110 -0.00376787
H  -1.43904776 -0.64578848 -0.00415137
C  0.33853549 0.58643166 0.00031793
H  -0.22933914 1.52467942 -0.00735026
H  1.42725353 0.56191052 -0.00694439
6
MD Step 69
C  -0.33271810 -0.57750090 0.00195299
H  0.16974247 -1.55495936 -0.00604446
H  -1.43988678 -0.64362141 -0.00642240
C  0.33901913 0.58714611 0.00066666
H  -0.22913486 1.52219461 -0.00957950
H  1.42419587 0.56145362 -0.00916946
6
MD Step 70
C  -0.33300538 -0.57819928 0.00235655
H  0.17088176 -1.55408057 -0.00830208
H  -1.44024357 -0.64131248 -0.00867320
C  0.33945738 0.58780948 0.00101228
H  -0.22858353 1.51962155 -0.01179017
H  1.42106308 0.56125604 -0.01137760
6
MD Step 71
C  -0.33330453 -0.57889366 0.00275540
H  0.17196630 -1.55290670 -0.01053181
H  -1.44011408 -0.63887052 -0.01089434
C  0.33984389 0.58841373 0.00135353
H  -0.22770661 1.51701265 -0.01397446
H  1.41793124 0.56132309 -0.01356155
6
MD Step 72
C  -0.33361427 -0.57957936 0.00314746
H  0.17300170 -1.55145110 -0.01272163
H  -1.43949975 -0.63630176 -0.01307328
C  0.34017213 0.58895029 0.00168867
H  -0.22652577 1.51442668 -0.01612146
H  1.41488022 0.56166187 -0.01571106
6
MD Step 73
C  -0.33392867 -0.58024736 0.00353493
H  0.17397108 -1.54975639 -0.01488435
H  -1.43843570 -0.63363796 -0.01522245
C  0.34044020 0.58941496 0.00202007
H  -0.22509055 1.51189966 -0.01824566
H  1.41196356 0.56225334 -0.01784108
6
MD Step 74
C  -0.33424744 -0.58089448 0.00391398
H  0.17489516 -1.54783346 -0.01699765
H  -1.43692973 -0.63087558 -0.01731899
C  0.34064085 0.58979778 0.00234429
H  -0.22341707 1.50950439 -0.02032589
H  1.40926766 0.56311265 -0.01993111
6
MD Step 75
C  -0.33456598 -0.58151352 0.00428481
H  0.17577316 -1.54572023 -0.01906282
H  -1.43502138 -0.62803503 -0.01936385
C  0.34077144 0.59009313 0.00266180
H  -0.22154656 1.50729011 -0.02236494
H  1.40685035 0.56423025 -0.02198433
6
MD Step 76
C  -0.33487611 -0.58209416 0.00465087
H  0.17658716 -1.54347654 -0.02110019
H  -1.43277690 -0.62515596 -0.02137739
C  0.34083330 0.59029909 0.00297629
H  -0.21954003 1.50528574 -0.02438496
H  1.40474372 0.56557651 -0.02402288
6
MD Step 77
C  -0.33517831 -0.58263499 0.00500682
H  0.17737300 -1.54111189 -0.02307823
H  -1.43021674 -0.62222539 -0.02332762
C  0.34081986 0.59040552 0.00328268
H  -0.21740578 1.50357030 -0.02635541
H  1.40302460 0.56717313 -0.02601670
6
MD Step 78
C  -0.33546623 -0.58312831 0.00535387
H  0.17812913 -1.53867613 -0.02500414
H  -1.42740653 -0.61926912 -0.02522188
C  0.34073193 0.59040952 0.00358241
H  -0.21518992 1.50218010 -0.02828488
H  1.40172111 0.56900214 -0.02797413
6
MD Step 79
C  -0.33573780 -0.58357112 0.00568892
H  0.17888095 -1.53619384 -0.02685927
H  -1.42439110 -0.61628654 -0.02704149
C  0.34056692 0.59030468 0.00387247
H  -0.21291044 1.50117239 -0.03015566
H  1.40087663 0.57107078 -0.02987737
6
MD Step 80
C  -0.33599032 -0.58396030 0.00600940
H  0.17965153 -1.53369262 -0.02862808
H  -1.42122277 -0.61327960 -0.02877094
C  0.34032373 0.59008606 0.00415029
H  -0.21058538 1.50059495 -0.03195288
H  1.40051953 0.57338249 -0.03171129
6
MD Step 81
C  -0.33621390 -0.58428609 0.00631979
H  0.18042189 -1.53124197 -0.03033724
H  -1.41799985 -0.61029236 -0.03043816
C  0.34000936 0.58975699 0.00442048
H  -0.20827166 1.50044533 -0.03370406
H  1.40062286 0.57589754 -0.03350194
6
MD Step 82
C  -0.33640231 -0.58454287 0.00662105
H  0.18119396 -1.52888858 -0.03199247
H  -1.41480107 -0.60734704 -0.03204989
C  0.33962815 0.58931841 0.00468402
H  -0.20600071 1.50073366 -0.03541517
H  1.40116863 0.57859653 -0.03525394
6
MD Step 83
C  -0.33655304 -0.58472924 0.00691071
H  0.18199002 -1.52665562 -0.03357852
H  -1.41168400 -0.60444403 -0.03359160
C  0.33918176 0.58876897 0.00493816
H  -0.20377815 1.50148186 -0.03707063
H  1.40214826 0.58148029 -0.03695075
6
MD Step 84
C  -0.33666598 -0.58484659 0.00718439
H  0.18284365 -1.52455083 -0.03506785
H  -1.40869238 -0.60157063 -0.03503607
C  0.33867056 0.58810658 0.00517790
H  -0.20159219 1.50271429 -0.03864205
H  1.40355426 0.58456115 -0.03856343
6
MD Step 85
C  -0.33673443 -0.58489022 0.00744432
H  0.18374607 -1.52261948 -0.03647380
H  -1.40590836 -0.59875459 -0.03639843
C  0.33810250 0.58733741 0.00540530
H  -0.19946699 1.50440387 -0.04014180
H  1.40532735 0.58780942 -0.04010242
6
MD Step 86
C  -0.33675103 -0.58485508 0.00769382
H  0.18467973 -1.52090957 -0.03781667
H  -1.40341641 -0.59602993 -0.03770125
C  0.33748727 0.58647018 0.00562362
H  -0.19742862 1.50650646 -0.04158881
H  1.40739232 0.59118748 -0.04158428
6
MD Step 87
C  -0.33671446 -0.58474244 0.00793108
H  0.18565701 -1.51943204 -0.03908473
H  -1.40126199 -0.59339773 -0.03893397
C  0.33682961 0.58550951 0.00583040
H  -0.19546634 1.50900049 -0.04296936
H  1.40969922 0.59468879 -0.04299416
6
MD Step 88
C  -0.33662647 -0.58455680 0.00815208
H  0.18670176 -1.51817873 -0.04025228
H  -1.39946846 -0.59084441 -0.04007146
C  0.33613229 0.58445894 0.00602066
H  -0.19355130 1.51186943 -0.04425541
H  1.41220667 0.59831973 -0.04430359
6
MD Step 89
C  -0.33649036 -0.58430432 0.00835218
H  0.18783984 -1.51713173 -0.04128913
H  -1.39804564 -0.58835134 -0.04108359
C  0.33539760 0.58332244 0.00618847
H  -0.19164654 1.51509310 -0.04541410
H  1.41487373 0.60209009 -0.04547994
6
MD Step 90
C  -0.33630007 -0.58398190 0.00853617
H  0.18903412 -1.51632863 -0.04222551
H  -1.39705434 -0.58595992 -0.04200329
C  0.33463816 0.58211523 0.00633876
H  -0.18977266 1.51858373 -0.04647295
H  1.41759618 0.60594806 -0.04654832
6
MD Step 91
C  -0.33605576 -0.58359254 0.00870390
H  0.19027635 -1.51577015 -0.04306018
H  -1.39651282 -0.58367948 -0.04283036
C  0.33386141 0.58084815 0.00647080
H  -0.18791667 1.52227952 -0.04742776
H  1.42030097 0.60987236 -0.04750383
6
MD Step 92
C  -0.33575494 -0.58313651 0.00885851
H  0.19153412 -1.51547351 -0.04381354
H  -1.39644931 -0.58154048 -0.04358714
C  0.33307840 0.57953646 0.00658781
H  -0.18608592 1.52609307 -0.04829588
H  1.42289481 0.61381923 -0.04836227
6
MD Step 93
C  -0.33539986 -0.58261855 0.00899968
H  0.19279470 -1.51542871 -0.04448394
H  -1.39685767 -0.57955065 -0.04427261
C  0.33229634 0.57819226 0.00668909
H  -0.18426524 1.52995675 -0.04907267
H  1.42530980 0.61776638 -0.04911868
6
MD Step 94
C  -0.33499952 -0.58204999 0.00912185
H  0.19407790 -1.51558640 -0.04503488
H  -1.39768507 -0.57768257 -0.04484874
C  0.33151641 0.57682227 0.00676756
H  -0.18240522 1.53383677 -0.04971912
H  1.42751729 0.62172582 -0.04973589
6
MD Step 95
C  -0.33455181 -0.58143066 0.00923034
H  0.19532971 -1.51596542 -0.04550231
H  -1.39894021 -0.57598026 -0.04535324
C  0.33075171 0.57544553 0.00682947
H  -0.18052924 1.53762773 -0.05026824
H  1.42942186 0.62563701 -0.05024531
6
MD Step 96
C  -0.33406333 -0.58076894 0.00932331
H  0.19654193 -1.51653375 -0.04587477
H  -1.40057413 -0.57443999 -0.04577377
C  0.33000706 0.57407321 0.00687245
H  -0.17861520 1.54127352 -0.05070639
H  1.43098206 0.62948668 -0.05063428
6
MD Step 97
C  -0.33353989 -0.58007205 0.00940034
H  0.19769585 -1.51726591 -0.04615042
H  -1.40253847 -0.57306683 -0.04610778
C  0.32928853 0.57271799 0.00689599
H  -0.17665250 1.54471175 -0.05102977
H  1.43215446 0.63325221 -0.05089963
6
MD Step 98
C  -0.33299114 -0.57935088 0.00945812
H  0.19879171 -1.51811474 -0.04630787
H  -1.40475806 -0.57184580 -0.04633187
C  0.32859848 0.57138897 0.00689601
H  -0.17461369 1.54790389 -0.05121582
H  1.43292310 0.63693089 -0.05102071
6
MD Step 99
C  -0.33241765 -0.57860686 0.00950190
H  0.19977211 -1.51908917 -0.04638388
H  -1.40720994 -0.57081847 -0.04648339
C  0.32794855 0.57010450 0.00687923
H  -0.17253125 1.55075917 -0.05129934
H  1.43322304 0.64046289 -0.05103146
6
MD Step 100
C  -0.33183065 -0.57785202 0.00952780
H  0.20064179 -1.52013544 -0.04635300
H  -1.40980505 -0.56996413 -0.04653428
C  0.32733943 0.56887199 0.00684096
H  -0.17037935 1.55325477 -0.05125473
H  1.43306011 0.64385115 -0.05090857
6
MD Step 101
C  -0.33123023 -0.57708688 0.00954202
H  0.20133785 -1.52126790 -0.04625907
H  -1.41252052 -0.56932914 -0.04652882
C  0.32678281 0.56770954 0.00678940
H  -0.16820310 1.55530657 -0.05112422
H  1.43238133 0.64703110 -0.05069349
6
MD Step 102
C  -0.33063008 -0.57632564 0.00953876
H  0.20187997 -1.52241982 -0.04606380
H  -1.41525083 -0.56887805 -0.04642555
C  0.32627597 0.56662085 0.00671765
H  -0.16597024 1.55691931 -0.05087065
H  1.43122472 0.65002110 -0.05035190
6
MD Step 103
C  -0.33003722 -0.57557558 0.00951823
H  0.20224940 -1.52356550 -0.04576955
H  -1.41793144 -0.56861419 -0.04622522
C  0.32582235 0.56561531 0.00662636
H  -0.16369141 1.55806576 -0.05049682
H  1.42959804 0.65280082 -0.04988782
6
MD Step 104
C  -0.32945524 -0.57484040 0.00948354
H  0.20240946 -1.52470054 -0.04539899
H  -1.42052004 -0.56855946 -0.04594975
C  0.32542803 0.56470455 0.00651998
H  -0.16140005 1.55870732 -0.05002537
H  1.42749900 0.65533172 -0.04932435
6
MD Step 105
C  -0.32889556 -0.57413171 0.00943059
H  0.20237505 -1.52577334 -0.04492500
H  -1.42292838 -0.56868591 -0.04556951
C  0.32509004 0.56389085 0.00639387
H  -0.15908404 1.55886316 -0.04943139
H  1.42498405 0.65762649 -0.04863884
6
MD Step 106
C  -0.32836533 -0.57345672 0.00935880
H  0.20214009 -1.52675826 -0.04434445
H  -1.42509665 -0.56898780 -0.04507981
C  0.32480865 0.56317915 0.00624782
H  -0.15675748 1.55853777 -0.04871341
H  1.42209551 0.65967618 -0.04783121
6
MD Step 107
C  -0.32787100 -0.57282190 0.00926775
H  0.20170006 -1.52763381 -0.04365564
H  -1.42697217 -0.56945952 -0.04447763
C  0.32458361 0.56257331 0.00608196
H  -0.15443849 1.55774317 -0.04787158
H  1.41888333 0.66147268 -0.04690283
6
MD Step 108
C  -0.32742530 -0.57224014 0.00915097
H  0.20109525 -1.52834017 -0.04281455
H  -1.42846743 -0.57005322 -0.04371660
C  0.32440683 0.56206897 0.00588869
H  -0.15210671 1.55654158 -0.04686590
H  1.41544705 0.66305180 -0.04581605
6
MD Step 109
C  -0.32702939 -0.57171246 0.00901182
H  0.20030282 -1.52888729 -0.04184451
H  -1.42956911 -0.57078556 -0.04281975
C  0.32428085 0.56167138 0.00567272
H  -0.14980938 1.55493764 -0.04572113
H  1.41182739 0.66438506 -0.04459599
6
MD Step 110
C  -0.32668649 -0.57124198 0.00885121
H  0.19931999 -1.52927221 -0.04075192
H  -1.43025539 -0.57165562 -0.04179288
C  0.32420467 0.56138165 0.00543566
H  -0.14757925 1.55296083 -0.04444591
H  1.40808807 0.66546295 -0.04325202
6
MD Step 111
C  -0.32639887 -0.57083086 0.00867030
H  0.19814606 -1.52949698 -0.03954440
H  -1.43051406 -0.57266277 -0.04064322
C  0.32417691 0.56119977 0.00517934
H  -0.14545202 1.55064719 -0.04305026
H  1.40429694 0.66627693 -0.04179474
6
MD Step 112
C  -0.32616438 -0.57047672 0.00847359
H  0.19676115 -1.52958982 -0.03825244
H  -1.43036381 -0.57382752 -0.03940148
C  0.32419942 0.56112808 0.00490972
H  -0.14348674 1.54801779 -0.04156601
H  1.40050392 0.66679819 -0.04025593
6
MD Step 113
C  -0.32598837 -0.57018486 0.00825810
H  0.19519886 -1.52953249 -0.03685541
H  -1.42978138 -0.57511991 -0.03804651
C  0.32426502 0.56115934 0.00462350
H  -0.14169399 1.54515033 -0.03997628
H  1.39681196 0.66705044 -0.03861943
6
MD Step 114
C  -0.32586834 -0.56995259 0.00802738
H  0.19345263 -1.52935335 -0.03537654
H  -1.42879514 -0.57655170 -0.03660190
C  0.32437348 0.56129228 0.00432527
H  -0.14012722 1.54208534 -0.03830607
H  1.39328245 0.66701621 -0.03691006
6
MD Step 115
C  -0.32580325 -0.56977873 0.00778292
H  0.19153239 -1.52907062 -0.03382527
H  -1.42742811 -0.57812048 -0.03507740
C  0.32452197 0.56152229 0.00401708
H  -0.13882647 1.53888156 -0.03656713
H  1.38998994 0.66669352 -0.03513936
6
MD Step 116
C  -0.32579173 -0.56966182 0.00752587
H  0.18945306 -1.52870319 -0.03220862
H  -1.42570882 -0.57982074 -0.03348048
C  0.32470708 0.56184343 0.00370052
H  -0.13782864 1.53560359 -0.03476868
H  1.38700919 0.66608459 -0.03331620
6
MD Step 117
C  -0.32583959 -0.56960788 0.00725003
H  0.18728030 -1.52822475 -0.03048459
H  -1.42362528 -0.58159880 -0.03176925
C  0.32491716 0.56224100 0.00336840
H  -0.13712175 1.53236600 -0.03287292
H  1.38445851 0.66524151 -0.03140273
6
MD Step 118
C  -0.32593725 -0.56960723 0.00696288
H  0.18499252 -1.52770055 -0.02870176
H  -1.42126253 -0.58348860 -0.02999340
C  0.32515587 0.56271452 0.00302957
H  -0.13677955 1.52919474 -0.03092863
H  1.38236044 0.66412819 -0.02944655
6
MD Step 119
C  -0.32608356 -0.56965903 0.00666341
H  0.18262548 -1.52714260 -0.02685233
H  -1.41865686 -0.58546889 -0.02814584
C  0.32541769 0.56325392 0.00268280
H  -0.13681809 1.52616957 -0.02893023
H  1.38078403 0.66276537 -0.02744132
6
MD Step 120
C  -0.32626941 -0.56975437 0.00635752
H  0.18017135 -1.52660917 -0.02497402
H  -1.41589558 -0.58756243 -0.02626545
C  0.32570504 0.56385639 0.00233487
H  -0.13729395 1.52332239 -0.02691558
H  1.37974319 0.66112973 -0.02542367
6
MD Step 121
C  -0.32649976 -0.56989897 0.00603727
H  0.17771224 -1.52607079 -0.02301452
H  -1.41298195 -0.58970377 -0.02430047
C  0.32600568 0.56450439 0.00197663
H  -0.13817128 1.52076865 -0.02483534
H  1.37932846 0.65928788 -0.02334356
6
MD Step 122
C  -0.32676649 -0.57008533 0.00570670
H  0.17525431 -1.52557473 -0.02099876
H  -1.41000022 -0.59190300 -0.02227696
C  0.32632086 0.56519331 0.00161245
H  -0.13948433 1.51854069 -0.02271456
H  1.37954039 0.65723054 -0.02122487
6
MD Step 123
C  -0.32705745 -0.57030208 0.00537327
H  0.17278196 -1.52518982 -0.01897374
H  -1.40705959 -0.59419185 -0.02024308
C  0.32665608 0.56592259 0.00125046
H  -0.14128284 1.51664058 -0.02059935
H  1.38034318 0.65492712 -0.01911248
6
MD Step 124
C  -0.32737487 -0.57055261 0.00503046
H  0.17036775 -1.52489546 -0.01689701
H  -1.40418171 -0.59651416 -0.01815703
C  0.32700235 0.56667752 0.00088319
H  -0.14352220 1.51514894 -0.01844858
H  1.38177515 0.65243632 -0.01696462
6
MD Step 125
C  -0.32770751 -0.57082677 0.00468447
H  0.16800290 -1.52474968 -0.01480719
H  -1.40146880 -0.59889363 -0.01605840
C  0.32736481 0.56745746 0.00051722
H  -0.14623027 1.51405521 -0.01629988
H  1.38377977 0.64973689 -0.01481804
6