 Entering Gaussian System, Link 0=g16
 Initial command:
 /software/gaussian/g16-c01/avx2/g16/l1.exe "/gpfs/fs2/scratch/bweight/software/many_molecule_many_mode_NAMD/src/NAMD/TEST_NVT/TRAJ/traj-94/G16/GS_NEW/Gau-44961.inp" -scrdir="/gpfs/fs2/scratch/bweight/software/many_molecule_many_mode_NAMD/src/NAMD/TEST_NVT/TRAJ/traj-94/G16/GS_NEW/"
 Entering Link 1 = /software/gaussian/g16-c01/avx2/g16/l1.exe PID=     44964.
  
 Copyright (c) 1988-2019, Gaussian, Inc.  All Rights Reserved.
  
 This is part of the Gaussian(R) 16 program.  It is based on
 the Gaussian(R) 09 system (copyright 2009, Gaussian, Inc.),
 the Gaussian(R) 03 system (copyright 2003, Gaussian, Inc.),
 the Gaussian(R) 98 system (copyright 1998, Gaussian, Inc.),
 the Gaussian(R) 94 system (copyright 1995, Gaussian, Inc.),
 the Gaussian 92(TM) system (copyright 1992, Gaussian, Inc.),
 the Gaussian 90(TM) system (copyright 1990, Gaussian, Inc.),
 the Gaussian 88(TM) system (copyright 1988, Gaussian, Inc.),
 the Gaussian 86(TM) system (copyright 1986, Carnegie Mellon
 University), and the Gaussian 82(TM) system (copyright 1983,
 Carnegie Mellon University). Gaussian is a federally registered
 trademark of Gaussian, Inc.
  
 This software contains proprietary and confidential information,
 including trade secrets, belonging to Gaussian, Inc.
  
 This software is provided under written license and may be
 used, copied, transmitted, or stored only in accord with that
 written license.
  
 The following legend is applicable only to US Government
 contracts under FAR:
  
                    RESTRICTED RIGHTS LEGEND
  
 Use, reproduction and disclosure by the US Government is
 subject to restrictions as set forth in subparagraphs (a)
 and (c) of the Commercial Computer Software - Restricted
 Rights clause in FAR 52.227-19.
  
 Gaussian, Inc.
 340 Quinnipiac St., Bldg. 40, Wallingford CT 06492
  
  
 ---------------------------------------------------------------
 Warning -- This program may not be used in any manner that
 competes with the business of Gaussian, Inc. or will provide
 assistance to any competitor of Gaussian, Inc.  The licensee
 of this program is prohibited from giving any competitor of
 Gaussian, Inc. access to this program.  By using this program,
 the user acknowledges that Gaussian, Inc. is engaged in the
 business of creating and licensing software in the field of
 computational chemistry and represents and warrants to the
 licensee that it is not a competitor of Gaussian, Inc. and that
 it will not use this program in any manner prohibited above.
 ---------------------------------------------------------------
  

 Cite this work as:
 Gaussian 16, Revision C.01,
 M. J. Frisch, G. W. Trucks, H. B. Schlegel, G. E. Scuseria, 
 M. A. Robb, J. R. Cheeseman, G. Scalmani, V. Barone, 
 G. A. Petersson, H. Nakatsuji, X. Li, M. Caricato, A. V. Marenich, 
 J. Bloino, B. G. Janesko, R. Gomperts, B. Mennucci, H. P. Hratchian, 
 J. V. Ortiz, A. F. Izmaylov, J. L. Sonnenberg, D. Williams-Young, 
 F. Ding, F. Lipparini, F. Egidi, J. Goings, B. Peng, A. Petrone, 
 T. Henderson, D. Ranasinghe, V. G. Zakrzewski, J. Gao, N. Rega, 
 G. Zheng, W. Liang, M. Hada, M. Ehara, K. Toyota, R. Fukuda, 
 J. Hasegawa, M. Ishida, T. Nakajima, Y. Honda, O. Kitao, H. Nakai, 
 T. Vreven, K. Throssell, J. A. Montgomery, Jr., J. E. Peralta, 
 F. Ogliaro, M. J. Bearpark, J. J. Heyd, E. N. Brothers, K. N. Kudin, 
 V. N. Staroverov, T. A. Keith, R. Kobayashi, J. Normand, 
 K. Raghavachari, A. P. Rendell, J. C. Burant, S. S. Iyengar, 
 J. Tomasi, M. Cossi, J. M. Millam, M. Klene, C. Adamo, R. Cammi, 
 J. W. Ochterski, R. L. Martin, K. Morokuma, O. Farkas, 
 J. B. Foresman, and D. J. Fox, Gaussian, Inc., Wallingford CT, 2019.
 
 ******************************************
 Gaussian 16:  ES64L-G16RevC.01  3-Jul-2019
                11-Jan-2023 
 ******************************************
 %oldchk=../GS_OLD/geometry.chk
 %chk=geometry.chk
 %nprocshared=4
 Will use up to    4 processors via shared memory.
 %mem=5GB
 Copying data from "../GS_OLD/geometry.chk" to current chk file "geometry.chk"
 IOpt=  2 FromEx=T IUOpen= 4 IOptOp= 5 NList=   0 IFRang= 0 IUIn= 4 IUOut= 2.
 -------------------------------------------------------
 # WB97XD/6-311G SCF=XQC FORCE nosym pop=full guess=read
 -------------------------------------------------------
 1/10=7,30=1,38=1/1,3;
 2/12=2,15=1,17=6,18=5,40=1/2;
 3/5=4,6=6,11=2,25=1,30=1,71=1,74=-58,116=-2/1,2,3;
 4/5=1/1;
 5/5=2,8=3,13=1,38=6/2,8;
 6/7=3,28=1/1;
 7/29=1,30=1/1,2,3,16;
 1/10=7,30=1/3;
 99//99;
 -----------
 MD Step 999
 -----------
 Symbolic Z-matrix:
 Charge =  0 Multiplicity = 1
 C                    -0.33587  -0.58104   0.00695 
 H                     0.21712  -1.5324   -0.02564 
 H                    -1.42587  -0.58933  -0.02664 
 C                     0.3327    0.57661   0.00494 
 H                    -0.16043   1.56216  -0.02851 
 H                     1.44017   0.64566  -0.02758 
 

 GradGradGradGradGradGradGradGradGradGradGradGradGradGradGradGradGradGrad
 Berny optimization.
 Initialization pass.
 Trust Radius=3.00D-01 FncErr=1.00D-07 GrdErr=1.00D-07 EigMax=2.50D+02 EigMin=1.00D-04
 Number of steps in this run=      2 maximum allowed number of steps=      2.
 GradGradGradGradGradGradGradGradGradGradGradGradGradGradGradGradGradGrad

                          Input orientation:                          
 ---------------------------------------------------------------------
 Center     Atomic      Atomic             Coordinates (Angstroms)
 Number     Number       Type             X           Y           Z
 ---------------------------------------------------------------------
      1          6           0       -0.335865   -0.581044    0.006949
      2          1           0        0.217124   -1.532398   -0.025637
      3          1           0       -1.425873   -0.589334   -0.026635
      4          6           0        0.332698    0.576611    0.004936
      5          1           0       -0.160427    1.562158   -0.028508
      6          1           0        1.440174    0.645657   -0.027578
 ---------------------------------------------------------------------
                    Distance matrix (angstroms):
                    1          2          3          4          5
     1  C    0.000000
     2  H    1.100878   0.000000
     3  H    1.090556   1.894415   0.000000
     4  C    1.336842   2.112394   2.110213   0.000000
     5  H    2.150663   3.117504   2.496052   1.102540   0.000000
     6  H    2.158774   2.497955   3.120806   1.110102   1.844424
                    6
     6  H    0.000000
 Symmetry turned off by external request.
 Stoichiometry    C2H4
 Framework group  C1[X(C2H4)]
 Deg. of freedom    12
 Full point group                 C1      NOp   1
 Rotational constants (GHZ):         143.3074919          29.7054615          24.6141926
 Standard basis: 6-311G (5D, 7F)
    38 basis functions,    72 primitive gaussians,    38 cartesian basis functions
     8 alpha electrons        8 beta electrons
       nuclear repulsion energy        33.0699140843 Hartrees.
 NAtoms=    6 NActive=    6 NUniq=    6 SFac= 1.00D+00 NAtFMM=   60 NAOKFM=F Big=F
 Integral buffers will be    131072 words long.
 Raffenetti 2 integral format.
 Two-electron integral symmetry is turned off.
 Nuclear repulsion after empirical dispersion term =       33.0690731423 Hartrees.
 One-electron integrals computed using PRISM.
 NBasis=    38 RedAO= T EigKep=  6.41D-03  NBF=    38
 NBsUse=    38 1.00D-06 EigRej= -1.00D+00 NBFU=    38
 Initial guess from the checkpoint file:  "geometry.chk"
 B after Tr=    -0.000190   -0.000325   -0.000534
         Rot=    1.000000    0.000004   -0.000001    0.000003 Ang=   0.00 deg.
 Keep R1 ints in memory in canonical form, NReq=4036876.
 Requested convergence on RMS density matrix=1.00D-08 within  32 cycles.
 Requested convergence on MAX density matrix=1.00D-06.
 Requested convergence on             energy=1.00D-06.
 No special actions if energy rises.
 SCF Done:  E(RwB97XD) =  -78.5557992021     A.U. after    8 cycles
            NFock=  8  Conv=0.66D-08     -V/T= 2.0052
 QCSCF skips out because SCF is already converged.

 **********************************************************************

            Population analysis using the SCF Density.

 **********************************************************************

 Alpha  occ. eigenvalues --  -10.28989 -10.28860  -0.86395  -0.67202  -0.55889
 Alpha  occ. eigenvalues --   -0.50973  -0.43607  -0.35710
 Alpha virt. eigenvalues --    0.08001   0.14091   0.16441   0.16993   0.24088
 Alpha virt. eigenvalues --    0.37430   0.39274   0.39903   0.46387   0.48799
 Alpha virt. eigenvalues --    0.49362   0.59115   0.66526   0.69033   0.77307
 Alpha virt. eigenvalues --    0.77518   0.84144   0.95317   2.23184   2.28984
 Alpha virt. eigenvalues --    2.33251   2.40591   2.67138   2.81738   2.87870
 Alpha virt. eigenvalues --    2.95156   3.14153   3.31755  23.35158  23.70667
     Molecular Orbital Coefficients:
                           1         2         3         4         5
                           O         O         O         O         O
     Eigenvalues --   -10.28989 -10.28860  -0.86395  -0.67202  -0.55889
   1 1   C  1S          0.20846   0.52342  -0.08818   0.06701  -0.00032
   2        2S          0.17175   0.43071  -0.13938   0.10733  -0.00052
   3        2PX         0.00016  -0.00004   0.02636   0.03587   0.13646
   4        2PY         0.00027  -0.00007   0.04681   0.05934  -0.07370
   5        2PZ        -0.00000  -0.00001  -0.00135   0.00202   0.00021
   6        3S          0.00458   0.01388   0.37384  -0.29289   0.00146
   7        3PX        -0.00051   0.00055   0.03471   0.05775   0.21402
   8        3PY        -0.00086   0.00096   0.06131   0.09648  -0.11630
   9        3PZ        -0.00002  -0.00003  -0.00227   0.00361   0.00031
  10        4S          0.00035  -0.01503   0.19153  -0.22770   0.00095
  11        4PX         0.00115  -0.00182   0.00493   0.02327   0.11138
  12        4PY         0.00199  -0.00313   0.00875   0.03999  -0.06129
  13        4PZ         0.00002   0.00008  -0.00080   0.00182   0.00015
  14 2   H  1S         -0.00005  -0.00005   0.05193  -0.08727   0.10135
  15        2S         -0.00027   0.00016   0.05332  -0.10547   0.12868
  16        3S          0.00113   0.00147  -0.00174  -0.01518   0.04165
  17 3   H  1S         -0.00006  -0.00005   0.05308  -0.09032  -0.10412
  18        2S         -0.00028   0.00014   0.05405  -0.10842  -0.13134
  19        3S          0.00116   0.00150  -0.00178  -0.01595  -0.04247
  20 4   C  1S          0.52336  -0.20864  -0.08714  -0.06805  -0.00016
  21        2S          0.43081  -0.17153  -0.13760  -0.10913  -0.00025
  22        2PX        -0.00005  -0.00016  -0.02755   0.03804   0.11927
  23        2PY        -0.00009  -0.00027  -0.04671   0.06758  -0.07392
  24        2PZ        -0.00000   0.00000  -0.00107  -0.00210   0.00020
  25        3S          0.01312  -0.00619   0.36861   0.29817   0.00069
  26        3PX        -0.00006   0.00076  -0.03456   0.06158   0.18674
  27        3PY        -0.00008   0.00130  -0.05849   0.10889  -0.11480
  28        3PZ        -0.00003   0.00000  -0.00184  -0.00378   0.00031
  29        4S         -0.01040   0.01067   0.18900   0.23679  -0.00031
  30        4PX         0.00049  -0.00205  -0.00531   0.02670   0.10234
  31        4PY         0.00080  -0.00357  -0.00893   0.04611  -0.06228
  32        4PZ         0.00007  -0.00003  -0.00076  -0.00194   0.00016
  33 5   H  1S         -0.00007  -0.00003   0.05017   0.09378  -0.09061
  34        2S         -0.00008  -0.00031   0.05124   0.11173  -0.11427
  35        3S          0.00181  -0.00021  -0.00111   0.01683  -0.03679
  36 6   H  1S         -0.00006  -0.00003   0.04918   0.09217   0.08679
  37        2S         -0.00009  -0.00031   0.05067   0.11030   0.10988
  38        3S          0.00177  -0.00021  -0.00116   0.01636   0.03567
                           6         7         8         9        10
                           O         O         O         V         V
     Eigenvalues --    -0.50973  -0.43607  -0.35710   0.08001   0.14091
   1 1   C  1S         -0.00349   0.00014  -0.00106   0.00286  -0.03398
   2        2S         -0.00520   0.00025  -0.00173   0.00475  -0.05453
   3        2PX         0.09476  -0.11139  -0.00350   0.00159  -0.03232
   4        2PY         0.16816   0.06621  -0.00593   0.00264  -0.06493
   5        2PZ         0.00525  -0.00001   0.17945  -0.18902  -0.00285
   6        3S          0.02005  -0.00053   0.00506  -0.01432   0.11890
   7        3PX         0.13766  -0.17816  -0.00494   0.00240  -0.03811
   8        3PY         0.24561   0.10627  -0.00835   0.00393  -0.07989
   9        3PZ         0.00834   0.00001   0.28837  -0.27779  -0.00448
  10        4S         -0.05467  -0.00284   0.00720  -0.01718   1.23383
  11        4PX         0.06934  -0.11139  -0.00407   0.01324  -0.19796
  12        4PY         0.12471   0.06697  -0.00692   0.02222  -0.38640
  13        4PZ         0.00476   0.00005   0.26677  -0.69584  -0.01651
  14 2   H  1S         -0.08077  -0.11553   0.00013   0.00445  -0.01733
  15        2S         -0.11201  -0.17896   0.00207   0.00714  -0.04758
  16        3S         -0.04182  -0.08303   0.00121   0.01890  -0.83867
  17 3   H  1S         -0.07958   0.11323   0.00008   0.00448  -0.01401
  18        2S         -0.10977   0.17473   0.00202   0.00726  -0.03977
  19        3S         -0.04068   0.08084   0.00118   0.01872  -0.78424
  20 4   C  1S         -0.00851  -0.00043  -0.00080  -0.00268  -0.03565
  21        2S         -0.01333  -0.00071  -0.00131  -0.00444  -0.05723
  22        2PX        -0.09793   0.12408   0.00345   0.00168   0.03997
  23        2PY        -0.16204  -0.07326   0.00626   0.00305   0.06131
  24        2PZ         0.00553   0.00018   0.17916   0.18930  -0.00280
  25        3S          0.04293   0.00204   0.00386   0.01336   0.12605
  26        3PX        -0.14482   0.19854   0.00482   0.00259   0.04904
  27        3PY        -0.23811  -0.11657   0.00879   0.00470   0.07304
  28        3PZ         0.00873   0.00027   0.28694   0.27776  -0.00430
  29        4S         -0.02835   0.00256   0.00671   0.01435   1.23266
  30        4PX        -0.07552   0.12701   0.00366   0.01324   0.26019
  31        4PY        -0.12300  -0.07395   0.00682   0.02355   0.41247
  32        4PZ         0.00503   0.00016   0.26714   0.69676  -0.01672
  33 5   H  1S         -0.07438  -0.12436   0.00025  -0.00405  -0.01184
  34        2S         -0.10137  -0.19371   0.00218  -0.00667  -0.03760
  35        3S         -0.03780  -0.09107   0.00124  -0.01755  -0.81773
  36 6   H  1S         -0.07973   0.12380   0.00020  -0.00407  -0.01491
  37        2S         -0.10905   0.19370   0.00212  -0.00674  -0.04546
  38        3S         -0.04081   0.09109   0.00120  -0.01786  -0.87273
                          11        12        13        14        15
                           V         V         V         V         V
     Eigenvalues --     0.16441   0.16993   0.24088   0.37430   0.39274
   1 1   C  1S          0.00114  -0.04510   0.00005   0.00985   0.00076
   2        2S          0.00185  -0.07352   0.00007   0.01357   0.00117
   3        2PX         0.09812  -0.01957   0.09983  -0.03627  -0.02419
   4        2PY        -0.05439  -0.03714  -0.05717  -0.06595   0.01055
   5        2PZ         0.00016  -0.00692   0.00003  -0.00495  -0.00021
   6        3S         -0.00404   0.16643   0.00024   0.03198   0.00010
   7        3PX         0.14060  -0.01123   0.10620  -0.04585  -0.10538
   8        3PY        -0.07899  -0.02457  -0.06157  -0.08823   0.05157
   9        3PZ         0.00022  -0.00962  -0.00000  -0.01017  -0.00034
  10        4S         -0.04938   1.41457  -0.01659  -2.64964  -0.15860
  11        4PX         0.58214  -0.11343   1.16231  -1.56721  -0.52775
  12        4PY        -0.31465  -0.20533  -0.66502  -2.73517   0.14469
  13        4PZ         0.00112  -0.04509   0.00081  -0.04363  -0.00253
  14 2   H  1S         -0.02963  -0.02579   0.01295  -0.05760   0.07573
  15        2S         -0.08054  -0.01920  -0.02394  -0.66202   0.76590
  16        3S         -1.02891  -0.99603  -1.53332  -0.30851  -0.33885
  17 3   H  1S          0.02928  -0.02534  -0.01472  -0.05071  -0.07732
  18        2S          0.07999  -0.02122   0.01876  -0.60638  -0.77582
  19        3S          1.09343  -0.99348   1.55808  -0.37643   0.27715
  20 4   C  1S          0.00093   0.04284  -0.00009  -0.01984  -0.00013
  21        2S          0.00147   0.06974  -0.00015  -0.03253  -0.00009
  22        2PX         0.10065  -0.02310  -0.10067  -0.04060  -0.03059
  23        2PY        -0.06046  -0.03824   0.05768  -0.07247   0.01329
  24        2PZ         0.00013   0.00669  -0.00003   0.00347   0.00030
  25        3S         -0.00283  -0.15497   0.00032   0.04106  -0.00263
  26        3PX         0.14482  -0.01788  -0.11398  -0.09205  -0.10904
  27        3PY        -0.08618  -0.02793   0.06427  -0.16708   0.05644
  28        3PZ         0.00019   0.00920   0.00001   0.00408   0.00056
  29        4S         -0.04695  -1.35659   0.01034   3.33450   0.14897
  30        4PX         0.53686  -0.11979  -1.12734  -1.18413  -0.54770
  31        4PY        -0.32710  -0.20550   0.65266  -2.07947   0.12675
  32        4PZ         0.00084   0.04363  -0.00078   0.03724   0.00243
  33 5   H  1S          0.03133   0.02467   0.00662   0.00994  -0.08086
  34        2S          0.06961   0.02175  -0.03187   0.06186  -0.79836
  35        3S          1.06925   0.95492  -1.53333   0.45318   0.46438
  36 6   H  1S         -0.03164   0.02513  -0.00546   0.00480   0.08682
  37        2S         -0.07028   0.02016   0.03284   0.01697   0.87823
  38        3S         -1.00700   0.95517   1.51878   0.46877  -0.44439
                          16        17        18        19        20
                           V         V         V         V         V
     Eigenvalues --     0.39903   0.46387   0.48799   0.49362   0.59115
   1 1   C  1S         -0.01847   0.01063   0.04724  -0.00052  -0.00057
   2        2S         -0.03248   0.02589   0.07937  -0.00061  -0.00102
   3        2PX         0.02680  -0.06067  -0.01397   0.00142   0.00211
   4        2PY         0.04891  -0.10548  -0.01946   0.00207   0.00320
   5        2PZ         0.00023  -0.00065  -0.00568  -0.15188  -0.19255
   6        3S          0.07738  -0.33340  -0.10935  -0.00879  -0.00041
   7        3PX         0.10335  -0.24103   0.02432   0.00092   0.00710
   8        3PY         0.19231  -0.41720   0.05171   0.00036   0.01083
   9        3PZ        -0.00397  -0.00481  -0.02573  -0.62828  -0.68467
  10        4S          2.65044   0.23241  -3.10514   0.10499   0.07028
  11        4PX         0.23784   0.26476  -0.80859   0.03328   0.02224
  12        4PY         0.43485   0.48679  -1.40024   0.05962   0.03913
  13        4PZ        -0.00256  -0.00116   0.09305   0.68557   1.24065
  14 2   H  1S         -0.02710  -0.03719   0.07492  -0.00288  -0.00173
  15        2S         -0.54347  -0.35821   0.89199  -0.02777  -0.01212
  16        3S          0.31033   0.09939  -0.64411   0.03384   0.02412
  17 3   H  1S         -0.03297  -0.03915   0.07296  -0.00281  -0.00166
  18        2S         -0.59382  -0.38073   0.86712  -0.02731  -0.01086
  19        3S          0.32093   0.10101  -0.61630   0.03296   0.02359
  20 4   C  1S         -0.00091  -0.00077  -0.05076   0.00329   0.00071
  21        2S         -0.00509   0.00642  -0.08798   0.00593   0.00132
  22        2PX         0.00853   0.05592  -0.02544   0.00011   0.00209
  23        2PY         0.01634   0.09661  -0.04611   0.00011   0.00398
  24        2PZ        -0.00370  -0.00175  -0.00588  -0.15242   0.19241
  25        3S          0.08010  -0.29456   0.21720  -0.02193  -0.00236
  26        3PX        -0.04347   0.23685  -0.04616  -0.00006   0.00733
  27        3PY        -0.06709   0.41242  -0.08198  -0.00069   0.01381
  28        3PZ        -0.01056  -0.00737  -0.02192  -0.63057   0.68308
  29        4S         -0.84033   0.66098   3.14607  -0.12922  -0.06371
  30        4PX         1.24712  -0.31857  -0.63365   0.01960   0.02207
  31        4PY         2.23896  -0.53187  -1.07772   0.03279   0.03742
  32        4PZ        -0.03337  -0.01445  -0.03453   0.69357  -1.23870
  33 5   H  1S         -0.04686  -0.06145  -0.06622   0.00274   0.00160
  34        2S         -0.83711  -0.62650  -0.83376   0.04029   0.00676
  35        3S         -0.19864   0.24372   0.55721  -0.01305  -0.02329
  36 6   H  1S         -0.04084  -0.06045  -0.06622   0.00276   0.00164
  37        2S         -0.76611  -0.61238  -0.82846   0.03981   0.00717
  38        3S         -0.21370   0.25740   0.57399  -0.01409  -0.02348
                          21        22        23        24        25
                           V         V         V         V         V
     Eigenvalues --     0.66526   0.69033   0.77307   0.77518   0.84144
   1 1   C  1S          0.00067  -0.00042   0.06656   0.05922   0.00088
   2        2S          0.00139  -0.00094   0.14087   0.12645   0.00199
   3        2PX        -0.13828   0.19408   0.00121   0.11592  -0.01044
   4        2PY         0.08061  -0.11583   0.00013   0.19093   0.01311
   5        2PZ        -0.00008   0.00016   0.00180   0.00470   0.00012
   6        3S         -0.01145   0.01265  -1.01931  -1.14185  -0.02101
   7        3PX        -0.63464   0.67241  -0.06873   0.47016  -0.23477
   8        3PY         0.36679  -0.40174  -0.12805   0.76768   0.16333
   9        3PZ        -0.00045   0.00063   0.00650   0.01634   0.00043
  10        4S          0.02098  -0.05767   1.27423   2.25319  -0.01490
  11        4PX         1.10564  -0.73111  -0.01195  -0.74696   4.48984
  12        4PY        -0.63998   0.44426  -0.02741  -1.02811  -2.56818
  13        4PZ         0.00044   0.00090  -0.00416  -0.05756   0.00358
  14 2   H  1S          0.02509  -0.05824   0.01779   0.02946  -0.02617
  15        2S          0.15165  -0.63069   0.09107   0.06378  -1.55359
  16        3S         -1.06461   1.06326  -0.34647  -1.05179  -1.21669
  17 3   H  1S         -0.02446   0.05784   0.01791   0.03008   0.02920
  18        2S         -0.16421   0.65718   0.10522   0.03241   1.58774
  19        3S          1.05578  -1.03264  -0.36131  -1.17487   1.21709
  20 4   C  1S          0.00090  -0.00032   0.08928   0.01057   0.00057
  21        2S          0.00183  -0.00060   0.18984   0.02173   0.00114
  22        2PX        -0.14575  -0.18964  -0.08203   0.07357   0.01139
  23        2PY         0.08369   0.10606  -0.14662   0.13346  -0.00038
  24        2PZ        -0.00006  -0.00018   0.00477  -0.00222  -0.00015
  25        3S         -0.01302  -0.00078  -1.54364  -0.01298  -0.00516
  26        3PX        -0.66474  -0.64605  -0.27936   0.35385   0.23882
  27        3PY         0.38387   0.35934  -0.50346   0.64158  -0.10632
  28        3PZ        -0.00035  -0.00061   0.01682  -0.00817  -0.00041
  29        4S          0.00910   0.03599   2.63475  -0.54131  -0.00260
  30        4PX         1.26325   0.75641   0.45093  -0.36330  -4.18628
  31        4PY        -0.72524  -0.41736   0.83367  -0.86490   2.38630
  32        4PZ         0.00069  -0.00064  -0.04518   0.03758  -0.00277
  33 5   H  1S         -0.02376  -0.05615   0.03422  -0.00511  -0.02339
  34        2S         -0.12719  -0.57962   0.09309   0.05687  -1.41635
  35        3S          1.09292   1.01071  -1.06336   0.55192  -1.10660
  36 6   H  1S          0.02429   0.05605   0.03401  -0.00452   0.02328
  37        2S          0.12322   0.55372   0.08525   0.00770   1.40569
  38        3S         -1.09493  -1.02635  -1.01986   0.47480   1.11709
                          26        27        28        29        30
                           V         V         V         V         V
     Eigenvalues --     0.95317   2.23184   2.28984   2.33251   2.40591
   1 1   C  1S          0.09571  -0.00983  -0.01415   0.00025  -0.00039
   2        2S          0.19889   0.00200  -0.01388   0.00065  -0.00043
   3        2PX        -0.09186  -0.08083  -0.13475   0.34707  -0.40514
   4        2PY        -0.15906  -0.14998  -0.23164  -0.19851   0.22992
   5        2PZ         0.00022  -0.01399  -0.01902  -0.00002  -0.00069
   6        3S         -1.54055  -0.18608  -0.03706  -0.00141  -0.00407
   7        3PX        -0.23521   0.07994   0.21390  -0.41963   0.56657
   8        3PY        -0.40091   0.15978   0.38014   0.24230  -0.32341
   9        3PZ        -0.00251   0.01418   0.02376   0.00012   0.00079
  10        4S          5.71472  -0.10057  -0.88280  -0.00366  -0.01680
  11        4PX         1.19740   0.05060  -0.19163  -0.04680   0.96110
  12        4PY         1.99610   0.06685  -0.35804   0.01746  -0.53458
  13        4PZ        -0.01963   0.00307   0.00832  -0.00022   0.00138
  14 2   H  1S          0.01579  -0.70782  -0.78997  -0.71680   0.64679
  15        2S         -0.28948   1.00583   1.18310   1.10498  -1.44306
  16        3S         -0.08836  -0.30437  -0.47323  -0.47921   0.37019
  17 3   H  1S          0.01606  -0.69983  -0.79433   0.70280  -0.66528
  18        2S         -0.26518   0.99598   1.19394  -1.08734   1.48167
  19        3S         -0.07251  -0.28510  -0.46335   0.46609  -0.36336
  20 4   C  1S         -0.09402  -0.01064   0.01236   0.00042   0.00023
  21        2S         -0.19506  -0.00018   0.01265   0.00054   0.00045
  22        2PX        -0.09278   0.13284  -0.12537   0.30199   0.41823
  23        2PY        -0.16013   0.23181  -0.20839  -0.17547  -0.24017
  24        2PZ         0.00037  -0.01491   0.01776   0.00038   0.00025
  25        3S          1.50682  -0.16881   0.01644   0.00050  -0.00038
  26        3PX        -0.22993  -0.16791   0.21399  -0.37419  -0.58562
  27        3PY        -0.40138  -0.28914   0.35170   0.21564   0.33663
  28        3PZ         0.00380   0.01590  -0.02273  -0.00041  -0.00036
  29        4S         -5.69673  -0.17687   0.89153   0.01660   0.00304
  30        4PX         1.11506  -0.01742  -0.19885   0.10781  -0.85725
  31        4PY         1.98973  -0.03607  -0.31987  -0.06281   0.50043
  32        4PZ         0.01227   0.00478  -0.00659  -0.00010  -0.00114
  33 5   H  1S         -0.01775  -0.79000   0.67382   0.69973   0.69298
  34        2S          0.29078   1.14772  -1.03014  -1.01461  -1.46902
  35        3S          0.05933  -0.35362   0.40018   0.50406   0.43016
  36 6   H  1S         -0.01777  -0.78394   0.69718  -0.68268  -0.69255
  37        2S          0.30994   1.13730  -1.05986   0.98674   1.46225
  38        3S          0.06655  -0.35361   0.42681  -0.49781  -0.43652
                          31        32        33        34        35
                           V         V         V         V         V
     Eigenvalues --     2.67138   2.81738   2.87870   2.95156   3.14153
   1 1   C  1S          0.00053   0.00260  -0.01339  -0.00003  -0.00938
   2        2S          0.00045   0.00754  -0.04449  -0.00037  -0.02915
   3        2PX         0.00571   0.07417  -0.46648  -0.73360   0.45014
   4        2PY         0.00887   0.13067  -0.84547   0.40918   0.78763
   5        2PZ        -0.92494  -0.92861  -0.14306  -0.00142   0.00701
   6        3S         -0.00202  -0.06267   0.39177   0.00496   0.24710
   7        3PX        -0.00468  -0.12887   0.82963   0.88139  -0.43476
   8        3PY        -0.00727  -0.22514   1.47574  -0.47765  -0.76018
   9        3PZ         0.94007   1.13563   0.17944   0.00191  -0.00906
  10        4S          0.01441   0.14513  -0.87989  -0.01452  -0.48378
  11        4PX        -0.00156   0.10369  -0.71146  -0.67057   0.22053
  12        4PY        -0.00189   0.18180  -1.26642   0.35346   0.38373
  13        4PZ        -0.33850  -0.61489  -0.11375  -0.00150   0.00562
  14 2   H  1S          0.01254  -0.02067   0.26690  -0.37777  -0.21596
  15        2S         -0.01442   0.01322  -0.22500   0.39190   0.16421
  16        3S         -0.00275   0.04165  -0.29665   0.26740   0.06039
  17 3   H  1S          0.01272  -0.02005   0.25600   0.38091  -0.21523
  18        2S         -0.01491   0.01178  -0.20710  -0.39099   0.16305
  19        3S         -0.00318   0.04188  -0.29573  -0.28399   0.06701
  20 4   C  1S          0.00051  -0.00251   0.01342   0.00051  -0.00739
  21        2S          0.00045  -0.00784   0.04757   0.00123  -0.02311
  22        2PX        -0.00723   0.06659  -0.40790  -0.80379  -0.50146
  23        2PY        -0.01318   0.11863  -0.72914   0.44401  -0.88996
  24        2PZ        -0.92451   0.92857   0.14537   0.00064   0.01335
  25        3S         -0.00238   0.06756  -0.42934  -0.00968   0.19891
  26        3PX         0.00718  -0.12130   0.76977   0.96008   0.53636
  27        3PY         0.01290  -0.21442   1.36327  -0.52135   0.96013
  28        3PZ         0.93966  -1.13534  -0.18341  -0.00081  -0.01680
  29        4S          0.01489  -0.14664   0.89945   0.02745  -0.37801
  30        4PX        -0.00021   0.10324  -0.70811  -0.69723  -0.32520
  31        4PY        -0.00111   0.18089  -1.24137   0.37225  -0.58764
  32        4PZ        -0.33827   0.61431   0.11733   0.00054   0.01303
  33 5   H  1S          0.01178   0.02802  -0.29396   0.41458  -0.26370
  34        2S         -0.01441  -0.02269   0.26708  -0.42360   0.20693
  35        3S         -0.00161  -0.03935   0.28411  -0.24731   0.12506
  36 6   H  1S          0.01195   0.02822  -0.28994  -0.42591  -0.25212
  37        2S         -0.01501  -0.02355   0.26796   0.43417   0.19723
  38        3S         -0.00128  -0.03760   0.26983   0.25053   0.11791
                          36        37        38
                           V         V         V
     Eigenvalues --     3.31755  23.35158  23.70667
   1 1   C  1S         -0.00033  -1.41912  -1.44727
   2        2S         -0.00048   1.51348   1.56514
   3        2PX         0.78291  -0.00636   0.01215
   4        2PY        -0.43720  -0.01047   0.02129
   5        2PZ         0.00094  -0.00056  -0.00025
   6        3S         -0.00008  -0.29717  -0.39875
   7        3PX        -1.11688   0.02356  -0.05600
   8        3PY         0.62082   0.03933  -0.09738
   9        3PZ        -0.00142   0.00159   0.00077
  10        4S         -0.00841   0.27632   0.76914
  11        4PX         1.95457  -0.02498   0.13371
  12        4PY        -1.08867  -0.04262   0.23036
  13        4PZ         0.00235  -0.00270  -0.00319
  14 2   H  1S          0.55498   0.01277   0.00659
  15        2S         -0.86380   0.00779  -0.01448
  16        3S         -0.45545  -0.08383  -0.03902
  17 3   H  1S         -0.56563   0.01425   0.00754
  18        2S          0.87888   0.00758  -0.01448
  19        3S          0.47768  -0.08560  -0.03910
  20 4   C  1S          0.00008  -1.44244   1.42390
  21        2S         -0.00015   1.53837  -1.53989
  22        2PX        -0.71383   0.00608   0.01258
  23        2PY         0.40784   0.01089   0.02142
  24        2PZ        -0.00068  -0.00056   0.00014
  25        3S          0.00386  -0.30154   0.39211
  26        3PX         1.01654  -0.02261  -0.05666
  27        3PY        -0.58882  -0.04016  -0.09739
  28        3PZ         0.00105   0.00162  -0.00033
  29        4S         -0.01418   0.27686  -0.76332
  30        4PX        -1.78582   0.02417   0.13152
  31        4PY         1.04220   0.04413   0.22761
  32        4PZ        -0.00184  -0.00260   0.00221
  33 5   H  1S          0.48966   0.01346  -0.00494
  34        2S         -0.76226   0.00802   0.01386
  35        3S         -0.43150  -0.08331   0.03752
  36 6   H  1S         -0.48606   0.01233  -0.00399
  37        2S          0.75830   0.00902   0.01347
  38        3S          0.42300  -0.08173   0.03700
     Density Matrix:
                           1         2         3         4         5
   1 1   C  1S          0.65940
   2        2S          0.56150   0.49197
   3        2PX        -0.00060  -0.00081   0.08400
   4        2PY        -0.00136  -0.00189   0.00377   0.08768
   5        2PZ         0.00008   0.00013  -0.00013  -0.00028   0.06447
   6        3S         -0.08891  -0.15379   0.00298   0.00664  -0.00017
   7        3PX         0.00084   0.00129   0.13020   0.00132  -0.00009
   8        3PY         0.00117   0.00181   0.00134   0.13110  -0.00024
   9        3PZ         0.00017   0.00029  -0.00022  -0.00044   0.10360
  10        4S         -0.07952  -0.11455  -0.01575  -0.02808   0.00057
  11        4PX         0.00025   0.00157   0.07031  -0.00457  -0.00060
  12        4PY         0.00057   0.00296  -0.00463   0.06549  -0.00106
  13        4PZ        -0.00012  -0.00028  -0.00085  -0.00144   0.09580
  14 2   H  1S         -0.02046  -0.03259   0.03457  -0.06290  -0.00125
  15        2S         -0.02284  -0.03652   0.04899  -0.08788  -0.00095
  16        3S          0.00053  -0.00077   0.02075  -0.03318  -0.00004
  17 3   H  1S         -0.02089  -0.03326  -0.07240  -0.00217  -0.00136
  18        2S         -0.02313  -0.03695  -0.10052  -0.00225  -0.00107
  19        3S          0.00055  -0.00074  -0.03856   0.00121  -0.00008
  20 4   C  1S          0.00610   0.00982  -0.01085  -0.01881  -0.00042
  21        2S          0.00979   0.01530  -0.01736  -0.03010  -0.00068
  22        2PX         0.01041   0.01664  -0.01240  -0.03219   0.00048
  23        2PY         0.01812   0.02897  -0.03222  -0.04973   0.00091
  24        2PZ        -0.00051  -0.00083  -0.00040  -0.00062   0.06435
  25        3S         -0.02636  -0.04003   0.04867   0.08446   0.00204
  26        3PX         0.01605   0.02488  -0.01815  -0.04592   0.00062
  27        3PY         0.02792   0.04328  -0.04582  -0.07125   0.00121
  28        3PZ        -0.00086  -0.00139  -0.00070  -0.00109   0.10306
  29        4S          0.00541   0.00403   0.02087   0.03656   0.00256
  30        4PX         0.00306   0.00634  -0.01307  -0.02103   0.00068
  31        4PY         0.00522   0.01087  -0.02105  -0.03742   0.00134
  32        4PZ        -0.00073  -0.00118  -0.00109  -0.00178   0.09592
  33 5   H  1S          0.00420   0.00690  -0.00175  -0.01230  -0.00048
  34        2S          0.00630   0.01048   0.00346  -0.02487  -0.00001
  35        3S          0.00325   0.00475   0.00422  -0.01747   0.00011
  36 6   H  1S          0.00416   0.00683  -0.00980  -0.00767  -0.00049
  37        2S          0.00622   0.01036  -0.02326  -0.00941  -0.00004
  38        3S          0.00320   0.00469  -0.01719  -0.00510   0.00008
                           6         7         8         9        10
   6        3S          0.45237
   7        3PX        -0.00159   0.20212
   8        3PY        -0.00135  -0.00454   0.19657
   9        3PZ        -0.00057  -0.00017  -0.00037   0.16649
  10        4S          0.27405  -0.02672  -0.04828   0.00072   0.18361
  11        4PX        -0.00681   0.10953  -0.01036  -0.00098  -0.01545
  12        4PY        -0.01227  -0.01047   0.09864  -0.00170  -0.02899
  13        4PZ         0.00123  -0.00112  -0.00189   0.15395   0.00218
  14 2   H  1S          0.08713   0.05583  -0.09828  -0.00208   0.06932
  15        2S          0.09774   0.07950  -0.13684  -0.00161   0.08199
  16        3S          0.00618   0.03401  -0.05104  -0.00008   0.01134
  17 3   H  1S          0.08898  -0.11357  -0.00173  -0.00223   0.06933
  18        2S          0.09898  -0.15749  -0.00056  -0.00177   0.08086
  19        3S          0.00624  -0.06016   0.00376  -0.00013   0.01046
  20 4   C  1S         -0.02663  -0.01692  -0.02934  -0.00071   0.00518
  21        2S         -0.04031  -0.02630  -0.04562  -0.00115   0.00389
  22        2PX        -0.04657  -0.01767  -0.04558   0.00083  -0.01760
  23        2PY        -0.08109  -0.04565  -0.07077   0.00156  -0.03058
  24        2PZ         0.00246  -0.00054  -0.00082   0.10341   0.00252
  25        3S          0.10265   0.07136   0.12399   0.00342   0.00096
  26        3PX        -0.06732  -0.02602  -0.06481   0.00109  -0.02618
  27        3PY        -0.11715  -0.06473  -0.10135   0.00208  -0.04543
  28        3PZ         0.00409  -0.00096  -0.00147   0.16562   0.00419
  29        4S          0.00173   0.03157   0.05548   0.00425  -0.03258
  30        4PX        -0.02249  -0.01957  -0.02947   0.00114  -0.00635
  31        4PY        -0.03875  -0.02954  -0.05397   0.00222  -0.01046
  32        4PZ         0.00347  -0.00152  -0.00246   0.15414   0.00389
  33 5   H  1S         -0.02053  -0.00064  -0.01765  -0.00070  -0.01482
  34        2S         -0.03131   0.00864  -0.03658   0.00007  -0.01925
  35        3S         -0.01219   0.00815  -0.02628   0.00019  -0.00348
  36 6   H  1S         -0.02030  -0.01486  -0.00923  -0.00072  -0.01496
  37        2S         -0.03097  -0.03577  -0.01050   0.00004  -0.01975
  38        3S         -0.01206  -0.02663  -0.00599   0.00016  -0.00386
                          11        12        13        14        15
  11        4PX         0.06042
  12        4PY        -0.00926   0.05106
  13        4PZ        -0.00141  -0.00238   0.14239
  14 2   H  1S          0.03356  -0.05411  -0.00108   0.08091
  15        2S          0.04860  -0.07521  -0.00041   0.10947   0.15020
  16        3S          0.02124  -0.02792   0.00020   0.03685   0.05283
  17 3   H  1S         -0.06314   0.00178  -0.00115  -0.01313  -0.02478
  18        2S         -0.08794   0.00437  -0.00047  -0.02472  -0.04311
  19        3S         -0.03389   0.00456   0.00018  -0.01812  -0.02757
  20 4   C  1S         -0.00317  -0.00573  -0.00063   0.00423   0.00672
  21        2S         -0.00655  -0.01172  -0.00101   0.00699   0.01123
  22        2PX        -0.01318  -0.01991   0.00113   0.00183  -0.00272
  23        2PY        -0.01998  -0.03666   0.00209   0.01147   0.02429
  24        2PZ        -0.00079  -0.00129   0.09564  -0.00059  -0.00018
  25        3S          0.02318   0.04123   0.00296  -0.02102  -0.03375
  26        3PX        -0.02023  -0.02817   0.00155   0.00104  -0.00722
  27        3PY        -0.02821  -0.05337   0.00287   0.01705   0.03635
  28        3PZ        -0.00131  -0.00213   0.15317  -0.00087  -0.00019
  29        4S          0.00819   0.01536   0.00387  -0.01777  -0.02440
  30        4PX        -0.01480  -0.01236   0.00138  -0.00161  -0.00839
  31        4PY        -0.01244  -0.02948   0.00262   0.01536   0.02734
  32        4PZ        -0.00157  -0.00261   0.14257  -0.00049   0.00029
  33 5   H  1S          0.00206  -0.01572  -0.00035   0.01122   0.02342
  34        2S          0.00933  -0.02742   0.00047   0.02379   0.04454
  35        3S          0.00762  -0.01580   0.00035   0.01664   0.02793
  36 6   H  1S         -0.01453  -0.00571  -0.00036  -0.00911  -0.01831
  37        2S         -0.02818  -0.00504   0.00046  -0.01885  -0.03447
  38        3S         -0.01726  -0.00107   0.00033  -0.01020  -0.01785
                          16        17        18        19        20
  16        3S          0.02123
  17 3   H  1S         -0.01826   0.08194
  18        2S         -0.02767   0.10971   0.14903
  19        3S         -0.01306   0.03632   0.05161   0.02051
  20 4   C  1S          0.00371   0.00429   0.00675   0.00370   0.65947
  21        2S          0.00547   0.00708   0.01124   0.00544   0.56158
  22        2PX        -0.00353   0.00905   0.02232   0.01679   0.00115
  23        2PY         0.01769   0.00742   0.00971   0.00564   0.00180
  24        2PZ         0.00002  -0.00058  -0.00014   0.00006   0.00009
  25        3S         -0.01419  -0.02124  -0.03369  -0.01402  -0.08925
  26        3PX        -0.00704   0.01433   0.03505   0.02619  -0.00051
  27        3PY         0.02664   0.00952   0.01180   0.00704  -0.00108
  28        3PZ         0.00006  -0.00086  -0.00012   0.00011   0.00019
  29        4S         -0.00590  -0.01755  -0.02367  -0.00546  -0.08004
  30        4PX        -0.00704   0.01408   0.02773   0.01716  -0.00021
  31        4PY         0.01602   0.00652   0.00659   0.00191  -0.00023
  32        4PZ         0.00027  -0.00048   0.00033   0.00030  -0.00004
  33 5   H  1S          0.01630  -0.00907  -0.01824  -0.00953  -0.02017
  34        2S          0.02756  -0.01868  -0.03410  -0.01711  -0.02217
  35        3S          0.01472  -0.01010  -0.01763  -0.00905   0.00061
  36 6   H  1S         -0.00963   0.01122   0.02330   0.01602  -0.01995
  37        2S         -0.01741   0.02379   0.04434   0.02716  -0.02215
  38        3S         -0.00923   0.01662   0.02775   0.01451   0.00052
                          21        22        23        24        25
  21        2S          0.49209
  22        2PX         0.00165   0.08286
  23        2PY         0.00257   0.00369   0.08775
  24        2PZ         0.00013   0.00015   0.00021   0.06427
  25        3S         -0.15426  -0.00534  -0.00839  -0.00018   0.45371
  26        3PX        -0.00077   0.12880   0.00185   0.00009  -0.00009
  27        3PY        -0.00164   0.00189   0.13151   0.00010   0.00079
  28        3PZ         0.00032   0.00022   0.00034   0.10294  -0.00064
  29        4S         -0.11558   0.01376   0.02329   0.00069   0.27777
  30        4PX        -0.00147   0.07307  -0.00511   0.00047   0.00625
  31        4PY        -0.00229  -0.00507   0.06706   0.00086   0.01008
  32        4PZ        -0.00013   0.00083   0.00148   0.09579   0.00078
  33 5   H  1S         -0.03213  -0.03353   0.06371  -0.00132   0.08590
  34        2S         -0.03542  -0.04978   0.08847  -0.00104   0.09478
  35        3S         -0.00059  -0.02262   0.03343  -0.00009   0.00561
  36 6   H  1S         -0.03179   0.07135   0.00274  -0.00122   0.08500
  37        2S         -0.03541   0.10125   0.00092  -0.00090   0.09473
  38        3S         -0.00072   0.04042  -0.00306  -0.00004   0.00587
                          26        27        28        29        30
  26        3PX         0.20055
  27        3PY        -0.00266   0.19764
  28        3PZ         0.00012   0.00015   0.16486
  29        4S          0.02529   0.04258   0.00087   0.18573
  30        4PX         0.11421  -0.01065   0.00074   0.01550   0.06613
  31        4PY        -0.01064   0.10131   0.00137   0.02509  -0.01033
  32        4PZ         0.00105   0.00190   0.15341   0.00209   0.00118
  33 5   H  1S         -0.05359   0.09978  -0.00217   0.06702  -0.03442
  34        2S         -0.07999   0.13805  -0.00173   0.07714  -0.05184
  35        3S         -0.03680   0.05150  -0.00014   0.00923  -0.02403
  36 6   H  1S          0.11262   0.00350  -0.00203   0.06734   0.06566
  37        2S          0.15964  -0.00033  -0.00154   0.07852   0.09353
  38        3S          0.06342  -0.00627  -0.00007   0.01004   0.03750
                          31        32        33        34        35
  31        4PY         0.05348
  32        4PZ         0.00220   0.14279
  33 5   H  1S          0.05573  -0.00112   0.08104
  34        2S          0.07724  -0.00046   0.11006   0.15194
  35        3S          0.02894   0.00018   0.03799   0.05501   0.02273
  36 6   H  1S         -0.00188  -0.00106  -0.01244  -0.02599  -0.01991
  37        2S         -0.00621  -0.00038  -0.02609  -0.04819  -0.03152
  38        3S         -0.00633   0.00021  -0.02010  -0.03163  -0.01557
                          36        37        38
  36 6   H  1S          0.08026
  37        2S          0.10974   0.15244
  38        3S          0.03815   0.05552   0.02302
    Full Mulliken population analysis:
                           1         2         3         4         5
   1 1   C  1S          0.65940
   2        2S          0.49324   0.49197
   3        2PX         0.00000   0.00000   0.08400
   4        2PY         0.00000   0.00000   0.00000   0.08768
   5        2PZ         0.00000   0.00000   0.00000   0.00000   0.06447
   6        3S         -0.02927  -0.06441   0.00000   0.00000   0.00000
   7        3PX         0.00000   0.00000   0.08191   0.00000   0.00000
   8        3PY         0.00000   0.00000   0.00000   0.08248   0.00000
   9        3PZ         0.00000   0.00000   0.00000   0.00000   0.06518
  10        4S         -0.01223  -0.02144   0.00000   0.00000   0.00000
  11        4PX         0.00000   0.00000   0.01549   0.00000   0.00000
  12        4PY         0.00000   0.00000   0.00000   0.01442   0.00000
  13        4PZ         0.00000   0.00000   0.00000   0.00000   0.02110
  14 2   H  1S         -0.00022  -0.00032   0.00176   0.00552   0.00000
  15        2S         -0.00165  -0.00316   0.00427   0.01317   0.00000
  16        3S          0.00004  -0.00007   0.00070   0.00191   0.00000
  17 3   H  1S         -0.00024  -0.00035   0.00769   0.00000   0.00000
  18        2S         -0.00171  -0.00328   0.01763   0.00000   0.00001
  19        3S          0.00004  -0.00007   0.00257  -0.00000   0.00000
  20 4   C  1S          0.00000   0.00000  -0.00002  -0.00006   0.00000
  21        2S          0.00000  -0.00000  -0.00002  -0.00006   0.00000
  22        2PX        -0.00002  -0.00002   0.00011   0.00086   0.00000
  23        2PY        -0.00006  -0.00005   0.00086   0.00198   0.00000
  24        2PZ        -0.00000  -0.00000  -0.00000  -0.00000   0.00042
  25        3S         -0.00059  -0.00100   0.00255   0.00766  -0.00000
  26        3PX        -0.00055  -0.00100   0.00019   0.00557   0.00000
  27        3PY        -0.00164  -0.00301   0.00556   0.01071   0.00000
  28        3PZ        -0.00000  -0.00000  -0.00000  -0.00000   0.00614
  29        4S          0.00034   0.00031   0.00095   0.00288  -0.00000
  30        4PX        -0.00018  -0.00045  -0.00071   0.00146   0.00000
  31        4PY        -0.00053  -0.00134   0.00146   0.00096   0.00000
  32        4PZ        -0.00000  -0.00000  -0.00000  -0.00000   0.00904
  33 5   H  1S          0.00000   0.00000  -0.00000  -0.00000   0.00000
  34        2S          0.00001   0.00002   0.00000  -0.00032   0.00000
  35        3S          0.00008   0.00013   0.00001  -0.00070  -0.00000
  36 6   H  1S          0.00000   0.00000  -0.00000  -0.00000   0.00000
  37        2S          0.00001   0.00002  -0.00024  -0.00007   0.00000
  38        3S          0.00007   0.00013  -0.00057  -0.00012  -0.00000
                           6         7         8         9        10
   6        3S          0.45237
   7        3PX         0.00000   0.20212
   8        3PY         0.00000   0.00000   0.19657
   9        3PZ         0.00000   0.00000   0.00000   0.16649
  10        4S          0.21231   0.00000   0.00000   0.00000   0.18361
  11        4PX         0.00000   0.07157   0.00000   0.00000   0.00000
  12        4PY         0.00000   0.00000   0.06446   0.00000   0.00000
  13        4PZ         0.00000   0.00000   0.00000   0.10060   0.00000
  14 2   H  1S          0.01583   0.01061   0.03213   0.00002   0.01826
  15        2S          0.04089   0.01946   0.05762   0.00002   0.04711
  16        3S          0.00284   0.00398   0.01028   0.00000   0.00854
  17 3   H  1S          0.01663   0.04376   0.00001   0.00003   0.01846
  18        2S          0.04206   0.07719   0.00000   0.00003   0.04684
  19        3S          0.00289   0.01397  -0.00001   0.00000   0.00792
  20 4   C  1S         -0.00060  -0.00057  -0.00173   0.00000   0.00033
  21        2S         -0.00101  -0.00106  -0.00318   0.00000   0.00030
  22        2PX         0.00244   0.00018   0.00553   0.00000   0.00080
  23        2PY         0.00735   0.00553   0.01064   0.00000   0.00241
  24        2PZ         0.00000  -0.00000  -0.00000   0.00616   0.00000
  25        3S          0.02195   0.01340   0.04032  -0.00000   0.00036
  26        3PX         0.01264  -0.00127   0.01851   0.00000   0.00404
  27        3PY         0.03810   0.01849   0.02847   0.00000   0.01213
  28        3PZ         0.00000  -0.00000  -0.00000   0.03541   0.00000
  29        4S          0.00066   0.00487   0.01482  -0.00000  -0.02048
  30        4PX         0.00632  -0.00402   0.00583   0.00000   0.00192
  31        4PY         0.01886   0.00585   0.00123   0.00000   0.00549
  32        4PZ         0.00000  -0.00000  -0.00000   0.04932   0.00000
  33 5   H  1S         -0.00006  -0.00000  -0.00019   0.00000  -0.00080
  34        2S         -0.00122   0.00006  -0.00324  -0.00000  -0.00324
  35        3S         -0.00199   0.00011  -0.00424  -0.00000  -0.00126
  36 6   H  1S         -0.00005  -0.00013  -0.00005   0.00000  -0.00079
  37        2S         -0.00118  -0.00256  -0.00052  -0.00000  -0.00329
  38        3S         -0.00195  -0.00353  -0.00055  -0.00000  -0.00138
                          11        12        13        14        15
  11        4PX         0.06042
  12        4PY         0.00000   0.05106
  13        4PZ         0.00000   0.00000   0.14239
  14 2   H  1S          0.00631   0.01750   0.00001   0.08091
  15        2S          0.01539   0.04098   0.00001   0.07733   0.15020
  16        3S          0.00528   0.01194  -0.00000   0.01377   0.04168
  17 3   H  1S          0.02364  -0.00001   0.00001  -0.00001  -0.00064
  18        2S          0.05535  -0.00002   0.00001  -0.00064  -0.00534
  19        3S          0.01668  -0.00002  -0.00000  -0.00201  -0.00799
  20 4   C  1S         -0.00018  -0.00058   0.00000   0.00000   0.00002
  21        2S         -0.00047  -0.00144   0.00000   0.00000   0.00003
  22        2PX        -0.00071   0.00138   0.00000  -0.00000   0.00000
  23        2PY         0.00138   0.00094   0.00000  -0.00000  -0.00036
  24        2PZ        -0.00000  -0.00000   0.00901   0.00000   0.00000
  25        3S          0.00652   0.02007  -0.00000  -0.00007  -0.00147
  26        3PX        -0.00416   0.00557   0.00000  -0.00000   0.00004
  27        3PY         0.00558   0.00121   0.00000  -0.00022  -0.00354
  28        3PZ        -0.00000  -0.00000   0.04901   0.00000   0.00000
  29        4S          0.00248   0.00805  -0.00000  -0.00103  -0.00436
  30        4PX        -0.00714   0.00313   0.00000   0.00001   0.00017
  31        4PY         0.00315  -0.00562   0.00000  -0.00243  -0.01027
  32        4PZ        -0.00000  -0.00000   0.08959   0.00000  -0.00000
  33 5   H  1S          0.00003  -0.00234   0.00000   0.00000   0.00000
  34        2S          0.00027  -0.00987  -0.00000   0.00000   0.00016
  35        3S          0.00029  -0.00730  -0.00000   0.00023   0.00146
  36 6   H  1S         -0.00176  -0.00048   0.00000  -0.00000  -0.00004
  37        2S         -0.00830  -0.00103  -0.00000  -0.00004  -0.00091
  38        3S         -0.00656  -0.00028  -0.00000  -0.00046  -0.00247
                          16        17        18        19        20
  16        3S          0.02123
  17 3   H  1S         -0.00202   0.08194
  18        2S         -0.00802   0.07750   0.14903
  19        3S         -0.00676   0.01357   0.04072   0.02051
  20 4   C  1S          0.00009   0.00000   0.00002   0.00009   0.65947
  21        2S          0.00016   0.00000   0.00003   0.00016   0.49332
  22        2PX         0.00001  -0.00000  -0.00028  -0.00059   0.00000
  23        2PY        -0.00074  -0.00000  -0.00008  -0.00013   0.00000
  24        2PZ        -0.00000   0.00000   0.00000  -0.00000   0.00000
  25        3S         -0.00244  -0.00007  -0.00148  -0.00242  -0.02938
  26        3PX         0.00006  -0.00016  -0.00287  -0.00366   0.00000
  27        3PY        -0.00445  -0.00007  -0.00064  -0.00065   0.00000
  28        3PZ        -0.00000   0.00000   0.00000  -0.00000   0.00000
  29        4S         -0.00221  -0.00102  -0.00424  -0.00205  -0.01231
  30        4PX         0.00018  -0.00186  -0.00872  -0.00675   0.00000
  31        4PY        -0.00755  -0.00057  -0.00137  -0.00050   0.00000
  32        4PZ        -0.00000   0.00000  -0.00000  -0.00000   0.00000
  33 5   H  1S          0.00023  -0.00000  -0.00004  -0.00043  -0.00022
  34        2S          0.00145  -0.00004  -0.00091  -0.00237  -0.00160
  35        3S          0.00248  -0.00046  -0.00245  -0.00289   0.00005
  36 6   H  1S         -0.00043   0.00000   0.00000   0.00022  -0.00021
  37        2S         -0.00241   0.00000   0.00015   0.00142  -0.00157
  38        3S         -0.00294   0.00023   0.00145   0.00243   0.00004
                          21        22        23        24        25
  21        2S          0.49209
  22        2PX         0.00000   0.08286
  23        2PY         0.00000   0.00000   0.08775
  24        2PZ         0.00000   0.00000   0.00000   0.06427
  25        3S         -0.06460   0.00000   0.00000   0.00000   0.45371
  26        3PX         0.00000   0.08103   0.00000   0.00000   0.00000
  27        3PY         0.00000   0.00000   0.08273   0.00000   0.00000
  28        3PZ         0.00000   0.00000   0.00000   0.06476   0.00000
  29        4S         -0.02163   0.00000   0.00000   0.00000   0.21518
  30        4PX         0.00000   0.01609   0.00000   0.00000   0.00000
  31        4PY         0.00000   0.00000   0.01477   0.00000   0.00000
  32        4PZ         0.00000   0.00000   0.00000   0.02110   0.00000
  33 5   H  1S         -0.00031   0.00151   0.00574   0.00000   0.01554
  34        2S         -0.00305   0.00385   0.01368   0.00001   0.03955
  35        3S         -0.00006   0.00068   0.00200   0.00000   0.00258
  36 6   H  1S         -0.00029   0.00694   0.00002   0.00000   0.01506
  37        2S         -0.00300   0.01731   0.00001   0.00000   0.03907
  38        3S         -0.00007   0.00270  -0.00001   0.00000   0.00268
                          26        27        28        29        30
  26        3PX         0.20055
  27        3PY         0.00000   0.19764
  28        3PZ         0.00000   0.00000   0.16486
  29        4S          0.00000   0.00000   0.00000   0.18573
  30        4PX         0.07463   0.00000   0.00000   0.00000   0.06613
  31        4PY         0.00000   0.06620   0.00000   0.00000   0.00000
  32        4PZ         0.00000   0.00000   0.10025   0.00000   0.00000
  33 5   H  1S          0.00904   0.03364   0.00002   0.01762   0.00576
  34        2S          0.01742   0.06007   0.00003   0.04427   0.01462
  35        3S          0.00384   0.01073   0.00000   0.00695   0.00532
  36 6   H  1S          0.04179   0.00008   0.00002   0.01757   0.02448
  37        2S          0.07716  -0.00001   0.00002   0.04479   0.05889
  38        3S          0.01477  -0.00009   0.00000   0.00753   0.01858
                          31        32        33        34        35
  31        4PY         0.05348
  32        4PZ         0.00000   0.14279
  33 5   H  1S          0.01864   0.00001   0.08104
  34        2S          0.04354   0.00001   0.07775   0.15194
  35        3S          0.01281  -0.00000   0.01419   0.04340   0.02273
  36 6   H  1S         -0.00004   0.00001  -0.00001  -0.00080  -0.00235
  37        2S         -0.00024   0.00001  -0.00080  -0.00666  -0.00963
  38        3S         -0.00020  -0.00000  -0.00237  -0.00966  -0.00834
                          36        37        38
  36 6   H  1S          0.08026
  37        2S          0.07752   0.15244
  38        3S          0.01426   0.04380   0.02302
     Gross orbital populations:
                           1
   1 1   C  1S          1.10436
   2        2S          0.88585
   3        2PX         0.22615
   4        2PY         0.23594
   5        2PZ         0.16637
   6        3S          0.79241
   7        3PX         0.55994
   8        3PY         0.55519
   9        3PZ         0.42326
  10        4S          0.50593
  11        4PX         0.26053
  12        4PY         0.21173
  13        4PZ         0.41173
  14 2   H  1S          0.27277
  15        2S          0.46779
  16        3S          0.08680
  17 3   H  1S          0.27594
  18        2S          0.46593
  19        3S          0.08391
  20 4   C  1S          1.10440
  21        2S          0.88584
  22        2PX         0.22267
  23        2PY         0.23636
  24        2PZ         0.16574
  25        3S          0.79266
  26        3PX         0.55319
  27        3PY         0.55702
  28        3PZ         0.42052
  29        4S          0.50566
  30        4PX         0.27372
  31        4PY         0.21578
  32        4PZ         0.41211
  33 5   H  1S          0.27319
  34        2S          0.46912
  35        3S          0.08838
  36 6   H  1S          0.27079
  37        2S          0.47018
  38        3S          0.09014
          Condensed to atoms (all electrons):
               1          2          3          4          5          6
     1  C    5.033402   0.386971   0.387722   0.602202  -0.035762  -0.035151
     2  H    0.386971   0.517896  -0.033438  -0.040363   0.006004  -0.009712
     3  H    0.387722  -0.033438   0.515062  -0.039882  -0.009590   0.005902
     4  C    0.602202  -0.040363  -0.039882   5.055625   0.384276   0.383813
     5  H   -0.035762   0.006004  -0.009590   0.384276   0.526391  -0.040620
     6  H   -0.035151  -0.009712   0.005902   0.383813  -0.040620   0.526880
 Mulliken charges:
               1
     1  C   -0.339385
     2  H    0.172642
     3  H    0.174224
     4  C   -0.345670
     5  H    0.169301
     6  H    0.168888
 Sum of Mulliken charges =  -0.00000
 Mulliken charges with hydrogens summed into heavy atoms:
               1
     1  C    0.007481
     4  C   -0.007481
 Electronic spatial extent (au):  <R**2>=             83.7246
 Charge=             -0.0000 electrons
 Dipole moment (field-independent basis, Debye):
    X=              0.0043    Y=              0.0230    Z=             -0.1094  Tot=              0.1119
 Quadrupole moment (field-independent basis, Debye-Ang):
   XX=            -12.2074   YY=            -12.2181   ZZ=            -15.6693
   XY=              0.0185   XZ=              0.0005   YZ=             -0.0020
 Traceless Quadrupole moment (field-independent basis, Debye-Ang):
   XX=              1.1575   YY=              1.1468   ZZ=             -2.3043
   XY=              0.0185   XZ=              0.0005   YZ=             -0.0020
 Octapole moment (field-independent basis, Debye-Ang**2):
  XXX=             -0.3056  YYY=             -0.0028  ZZZ=             -0.0443  XYY=              0.1987
  XXY=             -0.0172  XXZ=             -0.1412  XZZ=             -0.0718  YZZ=             -0.0596
  YYZ=             -0.1875  XYZ=             -0.0406
 Hexadecapole moment (field-independent basis, Debye-Ang**3):
 XXXX=            -34.3074 YYYY=            -55.2046 ZZZZ=            -17.8076 XXXY=             -7.2318
 XXXZ=              0.0207 YYYX=            -10.6969 YYYZ=              0.0258 ZZZX=              0.0217
 ZZZY=              0.0399 XXYY=            -16.1978 XXZZ=             -9.9305 YYZZ=            -13.6444
 XXYZ=              0.0099 YYXZ=             -0.0003 ZZXY=             -3.2020
 N-N= 3.306907314228D+01 E-N=-2.478474000980D+02  KE= 7.815004643744D+01
 Orbital energies and kinetic energies (alpha):
                                 1                 2
   1         O               -10.289886         15.976995
   2         O               -10.288598         15.981372
   3         O                -0.863945          1.540099
   4         O                -0.672019          1.270224
   5         O                -0.558887          0.940918
   6         O                -0.509730          1.283624
   7         O                -0.436074          1.042720
   8         O                -0.357104          1.039071
   9         V                 0.080008          1.181725
  10         V                 0.140914          0.589213
  11         V                 0.164414          0.596246
  12         V                 0.169933          0.680514
  13         V                 0.240883          0.583794
  14         V                 0.374298          0.850951
  15         V                 0.392737          0.933073
  16         V                 0.399029          0.781451
  17         V                 0.463868          1.189965
  18         V                 0.487995          1.423624
  19         V                 0.493618          1.301124
  20         V                 0.591145          1.653618
  21         V                 0.665255          1.569842
  22         V                 0.690330          2.148511
  23         V                 0.773065          2.515081
  24         V                 0.775179          2.224242
  25         V                 0.841445          1.083797
  26         V                 0.953166          3.431299
  27         V                 2.231838          3.925834
  28         V                 2.289844          4.030316
  29         V                 2.332513          4.302067
  30         V                 2.405915          4.513841
  31         V                 2.671383          6.301282
  32         V                 2.817376          6.304822
  33         V                 2.878703          6.137177
  34         V                 2.951559          6.226996
  35         V                 3.141526          6.821443
  36         V                 3.317550          6.402662
  37         V                23.351582         60.073964
  38         V                23.706669         60.204569
 Total kinetic energy from orbitals= 7.815004643744D+01
 Calling FoFJK, ICntrl=      2127 FMM=F ISym2X=0 I1Cent= 0 IOpClX= 0 NMat=1 NMatS=1 NMatT=0.
 -------------------------------------------------------------------
 Center     Atomic                   Forces (Hartrees/Bohr)
 Number     Number              X              Y              Z
 -------------------------------------------------------------------
      1        6           0.010367849    0.004939153   -0.004632513
      2        1          -0.010125490    0.007861648    0.002306830
      3        1           0.005606431   -0.004205628    0.002146989
      4        6           0.008668365    0.009246951   -0.004652996
      5        1           0.001440097   -0.012312867    0.002361856
      6        1          -0.015957251   -0.005529257    0.002469833
 -------------------------------------------------------------------
 Cartesian Forces:  Max     0.015957251 RMS     0.007489221

 GradGradGradGradGradGradGradGradGradGradGradGradGradGradGradGradGradGrad
 Berny optimization.
 Search for a local minimum.
 Step number   1 out of a maximum of    2
 All quantities printed in internal units (Hartrees-Bohrs-Radians)
 Second derivative matrix not updated -- first step.
 The second derivative matrix:
                          X1        Y1        Z1        X2        Y2
           X1           0.75250
           Y1           0.10113   0.85682
           Z1           0.00629   0.00976   0.17122
           X2          -0.16246   0.09470   0.00232   0.13997
           Y2           0.10066  -0.28045  -0.00827  -0.11374   0.26944
           Z2           0.00368  -0.01041  -0.05491  -0.00334   0.00858
           X3          -0.34707  -0.00175  -0.00896  -0.00030  -0.00016
           Y3          -0.00763  -0.10927  -0.00219   0.03220   0.01866
           Z3          -0.01151  -0.00212  -0.05604   0.00169   0.00062
           X4          -0.26817  -0.17953  -0.00077   0.02280   0.01323
           Y4          -0.17983  -0.47537  -0.00127  -0.01317  -0.00764
           Z4           0.00151   0.00272  -0.09472  -0.00067  -0.00093
           X5           0.02355  -0.01360   0.00069  -0.00001   0.00000
           Y5           0.01176  -0.00679   0.00094   0.00001  -0.00000
           Z5          -0.00060   0.00038   0.01749   0.00029  -0.00015
           X6           0.00165  -0.00095   0.00043  -0.00001   0.00000
           Y6          -0.02609   0.01507   0.00104   0.00000  -0.00000
           Z6           0.00062  -0.00033   0.01696  -0.00029   0.00015
                          Z2        X3        Y3        Z3        X4
           Z2           0.02860
           X3          -0.00034   0.34717
           Y3           0.00180   0.00202   0.07525
           Z3           0.01047   0.00979   0.00149   0.02940
           X4           0.00055   0.00022  -0.02661  -0.00053   0.71657
           Y4          -0.00029  -0.00013   0.01537   0.00034   0.12177
           Z4           0.01580  -0.00049  -0.00110   0.01622  -0.00583
           X5          -0.00028  -0.00001   0.00001   0.00028  -0.14720
           Y5           0.00018   0.00001  -0.00000  -0.00018   0.09336
           Z5           0.00930   0.00029  -0.00019  -0.00945  -0.00345
           X6          -0.00028  -0.00001   0.00001   0.00029  -0.32421
           Y6           0.00015   0.00000  -0.00000  -0.00015  -0.02222
           Z6          -0.00926  -0.00029   0.00018   0.00940   0.01003
                          Y4        Z4        X5        Y5        Z5
           Y4           0.86372
           Z4          -0.01108   0.17723
           X5           0.08507  -0.00228   0.12575
           Y5          -0.29112   0.00824  -0.10411   0.28164
           Z5           0.01019  -0.05756   0.00308  -0.00878   0.02996
           X6          -0.01371   0.00776  -0.00208  -0.00103   0.00039
           Y6          -0.10495   0.00215   0.03263   0.01628  -0.00146
           Z6           0.00212  -0.05697  -0.00149  -0.00040   0.01026
                          X6        Y6        Z6
           X6           0.32466
           Y6           0.01568   0.07361
           Z6          -0.00859  -0.00173   0.02960
 ITU=  0
     Eigenvalues ---    0.03746   0.04375   0.09188   0.10096   0.13522
     Eigenvalues ---    0.17409   0.26491   0.28913   0.52777   0.69917
     Eigenvalues ---    0.96999   1.56770
 Angle between quadratic step and forces=  33.81 degrees.
 Linear search not attempted -- first point.
 B after Tr=     0.005828    0.006556   -0.011217
         Rot=    1.000000   -0.000063    0.000035   -0.000113 Ang=  -0.02 deg.
 Variable       Old X    -DE/DX   Delta X   Delta X   Delta X     New X
                                 (Linear)    (Quad)   (Total)
    X1       -0.63469   0.01037   0.00000   0.01851   0.02459  -0.61011
    Y1       -1.09801   0.00494   0.00000   0.02019   0.02661  -1.07141
    Z1        0.01313  -0.00463   0.00000  -0.02410  -0.03550  -0.02237
    X2        0.41030  -0.01013   0.00000  -0.03877  -0.03229   0.37801
    Y2       -2.89581   0.00786   0.00000   0.02623   0.03287  -2.86294
    Z2       -0.04845   0.00231   0.00000   0.02934   0.01779  -0.03066
    X3       -2.69451   0.00561   0.00000   0.03340   0.03948  -2.65503
    Y3       -1.11368  -0.00421   0.00000  -0.01724  -0.01129  -1.12497
    Z3       -0.05033   0.00215   0.00000   0.02885   0.01730  -0.03303
    X4        0.62871   0.00867   0.00000   0.00560   0.01118   0.63989
    Y4        1.08964   0.00925   0.00000   0.00698   0.01368   1.10331
    Z4        0.00933  -0.00465   0.00000  -0.02232  -0.03335  -0.02402
    X5       -0.30316   0.00144   0.00000  -0.01316  -0.00799  -0.31115
    Y5        2.95205  -0.01231   0.00000  -0.03996  -0.03347   2.91858
    Z5       -0.05387   0.00236   0.00000   0.02801   0.01714  -0.03673
    X6        2.72153  -0.01596   0.00000  -0.04053  -0.03497   2.68656
    Y6        1.22011  -0.00553   0.00000  -0.03556  -0.02839   1.19172
    Z6       -0.05211   0.00247   0.00000   0.02750   0.01661  -0.03550
         Item               Value     Threshold  Converged?
 Maximum Force            0.015957     0.000450     NO 
 RMS     Force            0.007489     0.000300     NO 
 Maximum Displacement     0.039483     0.001800     NO 
 RMS     Displacement     0.026040     0.001200     NO 
 Predicted change in Energy=-1.529414D-03
 GradGradGradGradGradGradGradGradGradGradGradGradGradGradGradGradGradGrad

 Unable to Open any file for archive entry.
 1\1\GINC-BHD0003\Force\RwB97XD\6-311G\C2H4\BWEIGHT\11-Jan-2023\0\\# WB
 97XD/6-311G SCF=XQC FORCE nosym pop=full guess=read\\MD Step 999\\0,1\
 C,-0.33586543,-0.58104412,0.00694902\H,0.21712366,-1.53239755,-0.02563
 689\H,-1.42587282,-0.58933391,-0.0266352\C,0.3326984,0.57661121,0.0049
 3624\H,-0.16042688,1.56215836,-0.02850788\H,1.44017407,0.64565705,-0.0
 27578\\Version=ES64L-G16RevC.01\HF=-78.5557992\RMSD=6.624e-09\RMSF=7.4
 89e-03\Dipole=0.0017109,0.0090396,-0.0430421\Quadrupole=0.8605659,0.85
 26422,-1.7132081,0.0137392,0.0004046,-0.0014792\PG=C01 [X(C2H4)]\\@
 The archive entry for this job was punched.


 IF YOU DON'T HAVE THE LAW - ARGUE THE FACTS.
 IF YOU DON'T HAVE THE FACTS - ARGUE THE LAW.
 IF YOU DON'T HAVE EITHER - POUND THE TABLE.
 Job cpu time:       0 days  0 hours  0 minutes 13.3 seconds.
 Elapsed time:       0 days  0 hours  0 minutes  3.5 seconds.
 File lengths (MBytes):  RWF=    272 Int=      0 D2E=      0 Chk=     32 Scr=     32
 Normal termination of Gaussian 16 at Wed Jan 11 19:53:51 2023.
