 Entering Gaussian System, Link 0=g16
 Initial command:
 /software/gaussian/g16-c01/avx2/g16/l1.exe "/gpfs/fs2/scratch/bweight/software/many_molecule_many_mode_NAMD/src/NAMD/TEST_NVT/TRAJ/traj-69/G16/GS_NEW/Gau-10925.inp" -scrdir="/gpfs/fs2/scratch/bweight/software/many_molecule_many_mode_NAMD/src/NAMD/TEST_NVT/TRAJ/traj-69/G16/GS_NEW/"
 Entering Link 1 = /software/gaussian/g16-c01/avx2/g16/l1.exe PID=     10926.
  
 Copyright (c) 1988-2019, Gaussian, Inc.  All Rights Reserved.
  
 This is part of the Gaussian(R) 16 program.  It is based on
 the Gaussian(R) 09 system (copyright 2009, Gaussian, Inc.),
 the Gaussian(R) 03 system (copyright 2003, Gaussian, Inc.),
 the Gaussian(R) 98 system (copyright 1998, Gaussian, Inc.),
 the Gaussian(R) 94 system (copyright 1995, Gaussian, Inc.),
 the Gaussian 92(TM) system (copyright 1992, Gaussian, Inc.),
 the Gaussian 90(TM) system (copyright 1990, Gaussian, Inc.),
 the Gaussian 88(TM) system (copyright 1988, Gaussian, Inc.),
 the Gaussian 86(TM) system (copyright 1986, Carnegie Mellon
 University), and the Gaussian 82(TM) system (copyright 1983,
 Carnegie Mellon University). Gaussian is a federally registered
 trademark of Gaussian, Inc.
  
 This software contains proprietary and confidential information,
 including trade secrets, belonging to Gaussian, Inc.
  
 This software is provided under written license and may be
 used, copied, transmitted, or stored only in accord with that
 written license.
  
 The following legend is applicable only to US Government
 contracts under FAR:
  
                    RESTRICTED RIGHTS LEGEND
  
 Use, reproduction and disclosure by the US Government is
 subject to restrictions as set forth in subparagraphs (a)
 and (c) of the Commercial Computer Software - Restricted
 Rights clause in FAR 52.227-19.
  
 Gaussian, Inc.
 340 Quinnipiac St., Bldg. 40, Wallingford CT 06492
  
  
 ---------------------------------------------------------------
 Warning -- This program may not be used in any manner that
 competes with the business of Gaussian, Inc. or will provide
 assistance to any competitor of Gaussian, Inc.  The licensee
 of this program is prohibited from giving any competitor of
 Gaussian, Inc. access to this program.  By using this program,
 the user acknowledges that Gaussian, Inc. is engaged in the
 business of creating and licensing software in the field of
 computational chemistry and represents and warrants to the
 licensee that it is not a competitor of Gaussian, Inc. and that
 it will not use this program in any manner prohibited above.
 ---------------------------------------------------------------
  

 Cite this work as:
 Gaussian 16, Revision C.01,
 M. J. Frisch, G. W. Trucks, H. B. Schlegel, G. E. Scuseria, 
 M. A. Robb, J. R. Cheeseman, G. Scalmani, V. Barone, 
 G. A. Petersson, H. Nakatsuji, X. Li, M. Caricato, A. V. Marenich, 
 J. Bloino, B. G. Janesko, R. Gomperts, B. Mennucci, H. P. Hratchian, 
 J. V. Ortiz, A. F. Izmaylov, J. L. Sonnenberg, D. Williams-Young, 
 F. Ding, F. Lipparini, F. Egidi, J. Goings, B. Peng, A. Petrone, 
 T. Henderson, D. Ranasinghe, V. G. Zakrzewski, J. Gao, N. Rega, 
 G. Zheng, W. Liang, M. Hada, M. Ehara, K. Toyota, R. Fukuda, 
 J. Hasegawa, M. Ishida, T. Nakajima, Y. Honda, O. Kitao, H. Nakai, 
 T. Vreven, K. Throssell, J. A. Montgomery, Jr., J. E. Peralta, 
 F. Ogliaro, M. J. Bearpark, J. J. Heyd, E. N. Brothers, K. N. Kudin, 
 V. N. Staroverov, T. A. Keith, R. Kobayashi, J. Normand, 
 K. Raghavachari, A. P. Rendell, J. C. Burant, S. S. Iyengar, 
 J. Tomasi, M. Cossi, J. M. Millam, M. Klene, C. Adamo, R. Cammi, 
 J. W. Ochterski, R. L. Martin, K. Morokuma, O. Farkas, 
 J. B. Foresman, and D. J. Fox, Gaussian, Inc., Wallingford CT, 2019.
 
 ******************************************
 Gaussian 16:  ES64L-G16RevC.01  3-Jul-2019
                11-Jan-2023 
 ******************************************
 %oldchk=../GS_OLD/geometry.chk
 %chk=geometry.chk
 %nprocshared=4
 Will use up to    4 processors via shared memory.
 %mem=5GB
 Copying data from "../GS_OLD/geometry.chk" to current chk file "geometry.chk"
 IOpt=  2 FromEx=T IUOpen= 4 IOptOp= 5 NList=   0 IFRang= 0 IUIn= 4 IUOut= 2.
 -------------------------------------------------------
 # WB97XD/6-311G SCF=XQC FORCE nosym pop=full guess=read
 -------------------------------------------------------
 1/10=7,30=1,38=1/1,3;
 2/12=2,15=1,17=6,18=5,40=1/2;
 3/5=4,6=6,11=2,25=1,30=1,71=1,74=-58,116=-2/1,2,3;
 4/5=1/1;
 5/5=2,8=3,13=1,38=6/2,8;
 6/7=3,28=1/1;
 7/29=1,30=1/1,2,3,16;
 1/10=7,30=1/3;
 99//99;
 -----------
 MD Step 999
 -----------
 Symbolic Z-matrix:
 Charge =  0 Multiplicity = 1
 C                    -0.33485  -0.5793    0.00669 
 H                     0.20662  -1.53089  -0.02314 
 H                    -1.41903  -0.6038   -0.02476 
 C                     0.33321   0.57786   0.00558 
 H                    -0.16823   1.56567  -0.02637 
 H                     1.44754   0.63349  -0.02455 
 

 GradGradGradGradGradGradGradGradGradGradGradGradGradGradGradGradGradGrad
 Berny optimization.
 Initialization pass.
 Trust Radius=3.00D-01 FncErr=1.00D-07 GrdErr=1.00D-07 EigMax=2.50D+02 EigMin=1.00D-04
 Number of steps in this run=      2 maximum allowed number of steps=      2.
 GradGradGradGradGradGradGradGradGradGradGradGradGradGradGradGradGradGrad

                          Input orientation:                          
 ---------------------------------------------------------------------
 Center     Atomic      Atomic             Coordinates (Angstroms)
 Number     Number       Type             X           Y           Z
 ---------------------------------------------------------------------
      1          6           0       -0.334850   -0.579298    0.006688
      2          1           0        0.206616   -1.530893   -0.023137
      3          1           0       -1.419033   -0.603797   -0.024762
      4          6           0        0.333209    0.577860    0.005577
      5          1           0       -0.168228    1.565667   -0.026369
      6          1           0        1.447537    0.633491   -0.024546
 ---------------------------------------------------------------------
                    Distance matrix (angstroms):
                    1          2          3          4          5
     1  C    0.000000
     2  H    1.095266   0.000000
     3  H    1.084916   1.871429   0.000000
     4  C    1.336158   2.112744   2.113666   0.000000
     5  H    2.151680   3.119167   2.504214   1.108252   0.000000
     6  H    2.156092   2.494883   3.122196   1.116123   1.865383
                    6
     6  H    0.000000
 Symmetry turned off by external request.
 Stoichiometry    C2H4
 Framework group  C1[X(C2H4)]
 Deg. of freedom    12
 Full point group                 C1      NOp   1
 Rotational constants (GHZ):         143.5053224          29.7042048          24.6180071
 Standard basis: 6-311G (5D, 7F)
    38 basis functions,    72 primitive gaussians,    38 cartesian basis functions
     8 alpha electrons        8 beta electrons
       nuclear repulsion energy        33.0748934788 Hartrees.
 NAtoms=    6 NActive=    6 NUniq=    6 SFac= 1.00D+00 NAtFMM=   60 NAOKFM=F Big=F
 Integral buffers will be    131072 words long.
 Raffenetti 2 integral format.
 Two-electron integral symmetry is turned off.
 Nuclear repulsion after empirical dispersion term =       33.0740539861 Hartrees.
 One-electron integrals computed using PRISM.
 NBasis=    38 RedAO= T EigKep=  6.40D-03  NBF=    38
 NBsUse=    38 1.00D-06 EigRej= -1.00D+00 NBFU=    38
 Initial guess from the checkpoint file:  "geometry.chk"
 B after Tr=    -0.000224   -0.000299   -0.000434
         Rot=    1.000000   -0.000003    0.000003    0.000005 Ang=  -0.00 deg.
 Keep R1 ints in memory in canonical form, NReq=4036876.
 Requested convergence on RMS density matrix=1.00D-08 within  32 cycles.
 Requested convergence on MAX density matrix=1.00D-06.
 Requested convergence on             energy=1.00D-06.
 No special actions if energy rises.
 SCF Done:  E(RwB97XD) =  -78.5559487138     A.U. after    8 cycles
            NFock=  8  Conv=0.49D-08     -V/T= 2.0052
 QCSCF skips out because SCF is already converged.

 **********************************************************************

            Population analysis using the SCF Density.

 **********************************************************************

 Alpha  occ. eigenvalues --  -10.29105 -10.28734  -0.86402  -0.67199  -0.55866
 Alpha  occ. eigenvalues --   -0.51022  -0.43597  -0.35722
 Alpha virt. eigenvalues --    0.08017   0.14097   0.16435   0.16994   0.24089
 Alpha virt. eigenvalues --    0.37750   0.39208   0.39691   0.46331   0.48794
 Alpha virt. eigenvalues --    0.49354   0.59120   0.66498   0.69046   0.77207
 Alpha virt. eigenvalues --    0.77652   0.84165   0.95380   2.23217   2.28889
 Alpha virt. eigenvalues --    2.33316   2.40654   2.67149   2.81745   2.87924
 Alpha virt. eigenvalues --    2.95122   3.14143   3.31706  23.35149  23.70726
     Molecular Orbital Coefficients:
                           1         2         3         4         5
                           O         O         O         O         O
     Eigenvalues --   -10.29105 -10.28734  -0.86402  -0.67199  -0.55866
   1 1   C  1S          0.06794   0.55928  -0.08860   0.06652  -0.00024
   2        2S          0.05612   0.46029  -0.14003   0.10657  -0.00040
   3        2PX         0.00016  -0.00001   0.02615   0.03800   0.13689
   4        2PY         0.00028  -0.00001   0.04620   0.06303  -0.07287
   5        2PZ         0.00000  -0.00001  -0.00124   0.00195   0.00027
   6        3S          0.00089   0.01462   0.37542  -0.29079   0.00107
   7        3PX        -0.00064   0.00039   0.03424   0.06075   0.21409
   8        3PY        -0.00109   0.00070   0.06003   0.10173  -0.11484
   9        3PZ        -0.00001  -0.00003  -0.00208   0.00347   0.00040
  10        4S          0.00422  -0.01448   0.19146  -0.22700   0.00025
  11        4PX         0.00160  -0.00146   0.00480   0.02459   0.11157
  12        4PY         0.00274  -0.00247   0.00836   0.04189  -0.06047
  13        4PZ         0.00000   0.00008  -0.00074   0.00173   0.00020
  14 2   H  1S         -0.00005  -0.00007   0.05266  -0.08888   0.10075
  15        2S         -0.00031   0.00009   0.05368  -0.10652   0.12754
  16        3S          0.00072   0.00173  -0.00156  -0.01558   0.04143
  17 3   H  1S         -0.00005  -0.00007   0.05364  -0.09223  -0.10409
  18        2S         -0.00030   0.00007   0.05433  -0.10963  -0.13078
  19        3S          0.00075   0.00175  -0.00163  -0.01632  -0.04239
  20 4   C  1S          0.55929  -0.06813  -0.08677  -0.06856  -0.00003
  21        2S          0.46032  -0.05587  -0.13703  -0.10991  -0.00002
  22        2PX        -0.00002  -0.00016  -0.02782   0.03600   0.11898
  23        2PY        -0.00003  -0.00028  -0.04743   0.06400  -0.07483
  24        2PZ        -0.00000   0.00000  -0.00102  -0.00189   0.00027
  25        3S          0.01423  -0.00263   0.36724   0.30025   0.00001
  26        3PX        -0.00026   0.00071  -0.03503   0.05876   0.18674
  27        3PY        -0.00043   0.00123  -0.05981   0.10393  -0.11637
  28        3PZ        -0.00003  -0.00001  -0.00175  -0.00342   0.00041
  29        4S         -0.01278   0.00763   0.18892   0.23788  -0.00123
  30        4PX         0.00100  -0.00184  -0.00535   0.02533   0.10213
  31        4PY         0.00174  -0.00325  -0.00926   0.04406  -0.06317
  32        4PZ         0.00007  -0.00001  -0.00071  -0.00178   0.00022
  33 5   H  1S         -0.00005  -0.00004   0.04936   0.09219  -0.09127
  34        2S         -0.00001  -0.00031   0.05075   0.11067  -0.11561
  35        3S          0.00178   0.00027  -0.00129   0.01653  -0.03717
  36 6   H  1S         -0.00004  -0.00004   0.04854   0.09028   0.08678
  37        2S         -0.00000  -0.00032   0.05022   0.10901   0.11045
  38        3S          0.00175   0.00025  -0.00131   0.01608   0.03588
                           6         7         8         9        10
                           O         O         O         V         V
     Eigenvalues --    -0.51022  -0.43597  -0.35722   0.08017   0.14097
   1 1   C  1S         -0.00493   0.00020  -0.00094   0.00259  -0.03215
   2        2S         -0.00755   0.00036  -0.00153   0.00430  -0.05154
   3        2PX         0.09323  -0.11260  -0.00332   0.00151  -0.03064
   4        2PY         0.16759   0.06652  -0.00555   0.00236  -0.06373
   5        2PZ         0.00495  -0.00004   0.17938  -0.18888  -0.00208
   6        3S          0.02647  -0.00091   0.00448  -0.01302   0.11151
   7        3PX         0.13550  -0.17948  -0.00470   0.00229  -0.03611
   8        3PY         0.24513   0.10627  -0.00783   0.00356  -0.07904
   9        3PZ         0.00783  -0.00004   0.28848  -0.27795  -0.00333
  10        4S         -0.04553  -0.00297   0.00648  -0.01423   1.18899
  11        4PX         0.06849  -0.11176  -0.00384   0.01254  -0.19333
  12        4PY         0.12499   0.06724  -0.00638   0.02024  -0.38813
  13        4PZ         0.00446   0.00002   0.26687  -0.69640  -0.01260
  14 2   H  1S         -0.08002  -0.11641   0.00016   0.00404  -0.01509
  15        2S         -0.10998  -0.17987   0.00200   0.00635  -0.04513
  16        3S         -0.04107  -0.08344   0.00117   0.01653  -0.81840
  17 3   H  1S         -0.07800   0.11398   0.00009   0.00405  -0.01118
  18        2S         -0.10655   0.17557   0.00191   0.00652  -0.03550
  19        3S         -0.03943   0.08139   0.00111   0.01648  -0.75239
  20 4   C  1S         -0.00706  -0.00046  -0.00079  -0.00259  -0.03731
  21        2S         -0.01097  -0.00076  -0.00129  -0.00430  -0.05993
  22        2PX        -0.09917   0.12298   0.00312   0.00153   0.04199
  23        2PY        -0.16289  -0.07256   0.00584   0.00297   0.06243
  24        2PZ         0.00510   0.00025   0.17933   0.18944  -0.00318
  25        3S          0.03642   0.00222   0.00381   0.01287   0.13263
  26        3PX        -0.14644   0.19747   0.00434   0.00232   0.05156
  27        3PY        -0.23885  -0.11605   0.00819   0.00451   0.07386
  28        3PZ         0.00807   0.00038   0.28699   0.27761  -0.00483
  29        4S         -0.03796   0.00267   0.00648   0.01539   1.27317
  30        4PX        -0.07600   0.12646   0.00332   0.01214   0.26572
  31        4PY        -0.12256  -0.07320   0.00643   0.02258   0.41014
  32        4PZ         0.00465   0.00022   0.26677   0.69751  -0.01830
  33 5   H  1S         -0.07565  -0.12334   0.00023  -0.00392  -0.01385
  34        2S         -0.10384  -0.19289   0.00203  -0.00659  -0.03945
  35        3S         -0.03860  -0.09074   0.00115  -0.01767  -0.83575
  36 6   H  1S         -0.08113   0.12327   0.00015  -0.00391  -0.01756
  37        2S         -0.11177   0.19348   0.00191  -0.00651  -0.04895
  38        3S         -0.04176   0.09093   0.00108  -0.01775  -0.90320
                          11        12        13        14        15
                           V         V         V         V         V
     Eigenvalues --     0.16435   0.16994   0.24089   0.37750   0.39208
   1 1   C  1S          0.00109  -0.04585  -0.00006   0.01267   0.00183
   2        2S          0.00175  -0.07470  -0.00009   0.01841   0.00317
   3        2PX         0.09693  -0.02132   0.10069  -0.03791  -0.02551
   4        2PY        -0.05296  -0.03863  -0.05777  -0.06990   0.00717
   5        2PZ         0.00015  -0.00648   0.00007  -0.00457  -0.00016
   6        3S         -0.00369   0.16808   0.00022   0.02383  -0.00772
   7        3PX         0.13916  -0.01312   0.10763  -0.05457  -0.11236
   8        3PY        -0.07705  -0.02612  -0.06253  -0.10582   0.03737
   9        3PZ         0.00022  -0.00898   0.00002  -0.00886  -0.00006
  10        4S         -0.05112   1.46102  -0.00340  -3.00055  -0.27648
  11        4PX         0.57086  -0.12916   1.16920  -1.61837  -0.53772
  12        4PY        -0.30322  -0.21781  -0.66148  -2.83799   0.16817
  13        4PZ         0.00104  -0.04242   0.00127  -0.04178  -0.00203
  14 2   H  1S         -0.03002  -0.02483   0.01259  -0.04958   0.07830
  15        2S         -0.08004  -0.01670  -0.02227  -0.57637   0.81090
  16        3S         -1.01747  -1.01779  -1.56292  -0.38538  -0.35221
  17 3   H  1S          0.02953  -0.02446  -0.01447  -0.04164  -0.07549
  18        2S          0.07970  -0.02058   0.01763  -0.51503  -0.74036
  19        3S          1.08393  -1.03322   1.57905  -0.45412   0.26247
  20 4   C  1S          0.00145   0.04197   0.00002  -0.01967   0.00032
  21        2S          0.00231   0.06836   0.00000  -0.03183   0.00092
  22        2PX         0.10161  -0.02223  -0.09978  -0.04329  -0.03025
  23        2PY        -0.06232  -0.03618   0.05715  -0.07621   0.01404
  24        2PZ         0.00026   0.00622  -0.00008   0.00370   0.00042
  25        3S         -0.00468  -0.15284   0.00028   0.03239  -0.01067
  26        3PX         0.14652  -0.01714  -0.11225  -0.09169  -0.10336
  27        3PY        -0.08860  -0.02547   0.06338  -0.16510   0.06560
  28        3PZ         0.00037   0.00857  -0.00006   0.00515   0.00095
  29        4S         -0.06540  -1.30767  -0.00213   3.49816   0.16074
  30        4PX         0.54474  -0.10935  -1.12043  -1.35322  -0.58313
  31        4PY        -0.33928  -0.19011   0.65592  -2.37033   0.00495
  32        4PZ         0.00156   0.04040  -0.00132   0.03713   0.00338
  33 5   H  1S          0.03174   0.02518   0.00708   0.01794  -0.07722
  34        2S          0.07110   0.02326  -0.03260   0.17352  -0.73721
  35        3S          1.08969   0.92071  -1.50363   0.46984   0.46950
  36 6   H  1S         -0.03146   0.02595  -0.00576   0.01326   0.08859
  37        2S         -0.07098   0.02079   0.03363   0.12726   0.91351
  38        3S         -1.00308   0.92342   1.49631   0.48262  -0.44480
                          16        17        18        19        20
                           V         V         V         V         V
     Eigenvalues --     0.39691   0.46331   0.48794   0.49354   0.59120
   1 1   C  1S         -0.01550   0.01283  -0.04676   0.00022  -0.00053
   2        2S         -0.02795   0.02951  -0.07829   0.00063  -0.00095
   3        2PX         0.01853  -0.06100   0.01165   0.00114   0.00202
   4        2PY         0.03771  -0.10733   0.01642   0.00159   0.00306
   5        2PZ        -0.00043  -0.00072   0.00304  -0.15153  -0.19276
   6        3S          0.07827  -0.33748   0.09396  -0.01016  -0.00042
   7        3PX         0.08444  -0.23920  -0.03182   0.00135   0.00688
   8        3PY         0.17450  -0.41902  -0.06207   0.00089   0.01035
   9        3PZ        -0.00512  -0.00486   0.01438  -0.62765  -0.68581
  10        4S          2.09814   0.00942   3.19982   0.05458   0.06569
  11        4PX        -0.07835   0.19349   0.79419   0.01901   0.01923
  12        4PY        -0.03812   0.35421   1.36042   0.03472   0.03650
  13        4PZ        -0.00673   0.00057  -0.07699   0.68545   1.24199
  14 2   H  1S         -0.02734  -0.03570  -0.07707  -0.00162  -0.00158
  15        2S         -0.56100  -0.33859  -0.93786  -0.01361  -0.01065
  16        3S          0.19688   0.06139   0.62864   0.02178   0.02214
  17 3   H  1S         -0.04254  -0.03652  -0.07588  -0.00158  -0.00157
  18        2S         -0.70945  -0.34625  -0.91231  -0.01333  -0.01046
  19        3S          0.23718   0.05919   0.60776   0.02143   0.02183
  20 4   C  1S         -0.00517  -0.00303   0.05085   0.00233   0.00066
  21        2S         -0.01197   0.00263   0.08839   0.00426   0.00123
  22        2PX         0.00097   0.05526   0.02769  -0.00013   0.00185
  23        2PY         0.00705   0.09411   0.04888  -0.00054   0.00364
  24        2PZ        -0.00304  -0.00151   0.00323  -0.15285   0.19229
  25        3S          0.08542  -0.28604  -0.23095  -0.01759  -0.00218
  26        3PX        -0.06268   0.23660   0.05367  -0.00018   0.00644
  27        3PY        -0.08483   0.40724   0.09199  -0.00166   0.01270
  28        3PZ        -0.00939  -0.00640   0.01087  -0.63161   0.68219
  29        4S         -0.22081   0.85140  -3.05098  -0.07296  -0.05935
  30        4PX         0.97250  -0.39557   0.64651   0.00890   0.02209
  31        4PY         1.81809  -0.67785   1.11764   0.01588   0.03466
  32        4PZ        -0.02572  -0.01443   0.04173   0.69437  -1.23802
  33 5   H  1S         -0.05431  -0.06260   0.06369   0.00154   0.00153
  34        2S         -0.89127  -0.62783   0.78006   0.02432   0.00683
  35        3S         -0.05091   0.28606  -0.56789  -0.00422  -0.02186
  36 6   H  1S         -0.03851  -0.06265   0.06306   0.00153   0.00152
  37        2S         -0.71958  -0.62968   0.77661   0.02390   0.00644
  38        3S         -0.11876   0.30272  -0.57646  -0.00476  -0.02206
                          21        22        23        24        25
                           V         V         V         V         V
     Eigenvalues --     0.66498   0.69046   0.77207   0.77652   0.84165
   1 1   C  1S          0.00074  -0.00068   0.05498   0.07090   0.00103
   2        2S          0.00155  -0.00144   0.11608   0.15117   0.00242
   3        2PX        -0.12068   0.20513  -0.02047   0.11484  -0.00775
   4        2PY         0.06983  -0.12262  -0.03502   0.18770   0.01446
   5        2PZ        -0.00011   0.00019   0.00084   0.00471   0.00011
   6        3S         -0.01271   0.01545  -0.79597  -1.31536  -0.02843
   7        3PX        -0.57767   0.72680  -0.15667   0.45503  -0.21609
   8        3PY         0.33091  -0.43493  -0.26806   0.73256   0.16484
   9        3PZ        -0.00061   0.00072   0.00306   0.01651   0.00024
  10        4S          0.01795  -0.04379   0.81488   2.46371   0.05870
  11        4PX         1.10217  -0.81416   0.14396  -0.78014   4.45882
  12        4PY        -0.62892   0.51325   0.14997  -1.01303  -2.51172
  13        4PZ         0.00096   0.00089   0.00668  -0.05369   0.00571
  14 2   H  1S          0.01931  -0.06031   0.01238   0.03160  -0.02573
  15        2S          0.07596  -0.64797   0.07762   0.09849  -1.52957
  16        3S         -0.98730   1.16830  -0.15215  -1.09695  -1.21831
  17 3   H  1S         -0.01849   0.05959   0.01259   0.03204   0.02951
  18        2S         -0.08692   0.67122   0.10913   0.05340   1.56700
  19        3S          0.98247  -1.12161  -0.13385  -1.24800   1.20912
  20 4   C  1S          0.00095  -0.00024   0.08537   0.02629   0.00051
  21        2S          0.00195  -0.00048   0.18165   0.05529   0.00094
  22        2PX        -0.16179  -0.17639  -0.09353   0.05622   0.01509
  23        2PY         0.09291   0.09808  -0.16847   0.10359   0.00011
  24        2PZ        -0.00017  -0.00021   0.00468  -0.00118  -0.00011
  25        3S         -0.01512  -0.00074  -1.51029  -0.29113   0.00036
  26        3PX        -0.71365  -0.58339  -0.33615   0.29047   0.26139
  27        3PY         0.41262   0.32123  -0.61255   0.53563  -0.10853
  28        3PZ        -0.00081  -0.00067   0.01655  -0.00436  -0.00011
  29        4S          0.01288   0.01678   2.69444  -0.03350  -0.06888
  30        4PX         1.26283   0.64281   0.48249  -0.23441  -4.21617
  31        4PY        -0.72713  -0.33236   0.97415  -0.70580   2.44652
  32        4PZ         0.00130  -0.00074  -0.04824   0.02635  -0.00542
  33 5   H  1S         -0.02902  -0.05382   0.03503   0.00088  -0.02405
  34        2S         -0.19542  -0.56336   0.06493   0.08182  -1.43457
  35        3S          1.15500   0.89342  -1.14393   0.35155  -1.10915
  36 6   H  1S          0.02974   0.05394   0.03466   0.00116   0.02303
  37        2S          0.18749   0.54243   0.07403   0.01273   1.42042
  38        3S         -1.15958  -0.92220  -1.06973   0.26388   1.12361
                          26        27        28        29        30
                           V         V         V         V         V
     Eigenvalues --     0.95380   2.23217   2.28889   2.33316   2.40654
   1 1   C  1S          0.09542  -0.01087  -0.01432  -0.00031  -0.00043
   2        2S          0.19824   0.00025  -0.01500  -0.00066  -0.00059
   3        2PX        -0.09212  -0.08948  -0.13096  -0.33050  -0.41678
   4        2PY        -0.15941  -0.16692  -0.23017   0.18725   0.23247
   5        2PZ         0.00009  -0.01350  -0.01710  -0.00023  -0.00083
   6        3S         -1.53336  -0.18142  -0.02708   0.00054  -0.00363
   7        3PX        -0.23704   0.09104   0.20846   0.39314   0.58088
   8        3PY        -0.40356   0.18171   0.37744  -0.22488  -0.32458
   9        3PZ        -0.00265   0.01358   0.02141   0.00016   0.00097
  10        4S          5.71712  -0.14025  -0.89862   0.00115  -0.00084
  11        4PX         1.20471   0.04833  -0.18210   0.00488   0.96286
  12        4PY         1.98674   0.06694  -0.35314   0.00584  -0.52283
  13        4PZ        -0.01684   0.00382   0.00786   0.00016   0.00190
  14 2   H  1S          0.01553  -0.73533  -0.76480   0.68821   0.67584
  15        2S         -0.29468   1.05269   1.15050  -1.04072  -1.48249
  16        3S         -0.09042  -0.31365  -0.45897   0.46535   0.38957
  17 3   H  1S          0.01603  -0.72469  -0.76362  -0.68208  -0.69438
  18        2S         -0.26553   1.03743   1.15602   1.03365   1.52207
  19        3S         -0.06595  -0.29336  -0.44166  -0.45672  -0.38009
  20 4   C  1S         -0.09430  -0.00968   0.01219  -0.00042   0.00022
  21        2S         -0.19571   0.00149   0.01177  -0.00052   0.00052
  22        2PX        -0.09283   0.12455  -0.13014  -0.31906   0.40833
  23        2PY        -0.16054   0.21617  -0.21687   0.18559  -0.23846
  24        2PZ         0.00024  -0.01350   0.01713  -0.00056   0.00049
  25        3S          1.51285  -0.17379   0.02374  -0.00107  -0.00056
  26        3PX        -0.23009  -0.15709   0.22176   0.40144  -0.57238
  27        3PY        -0.40320  -0.26885   0.36438  -0.23158   0.33605
  28        3PZ         0.00326   0.01446  -0.02188   0.00062  -0.00067
  29        4S         -5.69557  -0.13771   0.88138  -0.01366  -0.01341
  30        4PX         1.10960  -0.01787  -0.20935  -0.07345  -0.85891
  31        4PY         2.00571  -0.03635  -0.32670   0.04083   0.51377
  32        4PZ         0.01276   0.00359  -0.00627   0.00006  -0.00168
  33 5   H  1S         -0.01805  -0.76638   0.70518  -0.72361   0.66285
  34        2S          0.28515   1.10676  -1.07335   1.06801  -1.42904
  35        3S          0.05252  -0.34599   0.41856  -0.51721   0.40915
  36 6   H  1S         -0.01794  -0.76198   0.72366   0.70939  -0.66350
  37        2S          0.31000   1.09867  -1.09272  -1.04478   1.42264
  38        3S          0.06875  -0.34642   0.44531   0.51315  -0.41827
                          31        32        33        34        35
                           V         V         V         V         V
     Eigenvalues --     2.67149   2.81745   2.87924   2.95122   3.14143
   1 1   C  1S          0.00049   0.00237  -0.01307  -0.00004  -0.00922
   2        2S          0.00042   0.00703  -0.04459  -0.00037  -0.02836
   3        2PX         0.00582   0.06780  -0.45261  -0.74036   0.46673
   4        2PY         0.00841   0.11982  -0.82638   0.42042   0.80744
   5        2PZ        -0.92241  -0.93263  -0.13371  -0.00136   0.00793
   6        3S         -0.00182  -0.05890   0.39654   0.00522   0.23944
   7        3PX        -0.00477  -0.11897   0.81763   0.89323  -0.46538
   8        3PY        -0.00675  -0.20840   1.46235  -0.49329  -0.80085
   9        3PZ         0.93669   1.14008   0.16804   0.00181  -0.01024
  10        4S          0.01312   0.13458  -0.87755  -0.01297  -0.46232
  11        4PX        -0.00139   0.09644  -0.71153  -0.66740   0.25095
  12        4PY        -0.00212   0.16988  -1.26980   0.35628   0.42525
  13        4PZ        -0.33668  -0.61713  -0.10691  -0.00141   0.00681
  14 2   H  1S          0.01143  -0.02033   0.27103  -0.38151  -0.22258
  15        2S         -0.01323   0.01372  -0.23074   0.38754   0.16841
  16        3S         -0.00272   0.03906  -0.29971   0.27172   0.07191
  17 3   H  1S          0.01164  -0.02011   0.26361   0.38106  -0.22731
  18        2S         -0.01371   0.01276  -0.21819  -0.38365   0.17209
  19        3S         -0.00304   0.03873  -0.29684  -0.28672   0.08453
  20 4   C  1S          0.00048  -0.00238   0.01377   0.00044  -0.00746
  21        2S          0.00043  -0.00733   0.04780   0.00100  -0.02391
  22        2PX        -0.00618   0.06342  -0.42791  -0.79555  -0.48794
  23        2PY        -0.01227   0.11256  -0.75051   0.43670  -0.87179
  24        2PZ        -0.92710   0.92752   0.13506  -0.00007   0.01103
  25        3S         -0.00229   0.06282  -0.42885  -0.00720   0.20825
  26        3PX         0.00622  -0.11439   0.79187   0.94458   0.50990
  27        3PY         0.01218  -0.20160   1.38456  -0.51220   0.92085
  28        3PZ         0.94286  -1.13506  -0.17017   0.00008  -0.01379
  29        4S          0.01430  -0.13777   0.91002   0.02304  -0.40054
  30        4PX        -0.00020   0.09667  -0.71723  -0.69398  -0.29702
  31        4PY        -0.00128   0.16849  -1.24673   0.37457  -0.54537
  32        4PZ        -0.33993   0.61504   0.10877  -0.00012   0.01048
  33 5   H  1S          0.01130   0.02551  -0.29254   0.41214  -0.25534
  34        2S         -0.01380  -0.02025   0.26376  -0.42777   0.20050
  35        3S         -0.00141  -0.03630   0.28156  -0.24325   0.11359
  36 6   H  1S          0.01138   0.02532  -0.28777  -0.42458  -0.23955
  37        2S         -0.01420  -0.02067   0.26231   0.43910   0.18637
  38        3S         -0.00110  -0.03532   0.27210   0.24542   0.10244
                          36        37        38
                           V         V         V
     Eigenvalues --     3.31706  23.35149  23.70726
   1 1   C  1S         -0.00020  -1.41361  -1.45267
   2        2S         -0.00019   1.50751   1.57093
   3        2PX         0.77698  -0.00661   0.01208
   4        2PY        -0.43091  -0.01092   0.02106
   5        2PZ         0.00128  -0.00054  -0.00022
   6        3S         -0.00280  -0.29528  -0.39993
   7        3PX        -1.11306   0.02459  -0.05596
   8        3PY         0.61169   0.04113  -0.09705
   9        3PZ        -0.00195   0.00153   0.00066
  10        4S          0.01150   0.27047   0.77193
  11        4PX         1.95427  -0.02725   0.13423
  12        4PY        -1.06826  -0.04669   0.22895
  13        4PZ         0.00334  -0.00253  -0.00283
  14 2   H  1S          0.55039   0.01364   0.00720
  15        2S         -0.85472   0.00743  -0.01536
  16        3S         -0.45801  -0.08419  -0.03986
  17 3   H  1S         -0.56082   0.01515   0.00793
  18        2S          0.86999   0.00737  -0.01468
  19        3S          0.48439  -0.08622  -0.03910
  20 4   C  1S         -0.00004  -1.44784   1.41841
  21        2S         -0.00040   1.54421  -1.53407
  22        2PX        -0.71904   0.00579   0.01260
  23        2PY         0.41614   0.01037   0.02159
  24        2PZ        -0.00115  -0.00051   0.00014
  25        3S          0.00630  -0.30333   0.39134
  26        3PX         1.02068  -0.02164  -0.05681
  27        3PY        -0.60054  -0.03841  -0.09804
  28        3PZ         0.00172   0.00147  -0.00037
  29        4S         -0.03242   0.28279  -0.76215
  30        4PX        -1.79072   0.02221   0.13121
  31        4PY         1.06715   0.04028   0.22964
  32        4PZ        -0.00301  -0.00242   0.00222
  33 5   H  1S          0.49576   0.01256  -0.00427
  34        2S         -0.77468   0.00844   0.01298
  35        3S         -0.42935  -0.08297   0.03648
  36 6   H  1S         -0.49088   0.01142  -0.00355
  37        2S          0.76861   0.00915   0.01329
  38        3S          0.41606  -0.08121   0.03688
     Density Matrix:
                           1         2         3         4         5
   1 1   C  1S          0.65941
   2        2S          0.56155   0.49207
   3        2PX        -0.00059  -0.00080   0.08450
   4        2PY        -0.00135  -0.00189   0.00356   0.08792
   5        2PZ         0.00009   0.00013  -0.00010  -0.00025   0.06441
   6        3S         -0.08901  -0.15397   0.00294   0.00658  -0.00019
   7        3PX         0.00086   0.00132   0.13074   0.00121  -0.00006
   8        3PY         0.00123   0.00188   0.00126   0.13149  -0.00021
   9        3PZ         0.00017   0.00029  -0.00018  -0.00040   0.10359
  10        4S         -0.07931  -0.11419  -0.01503  -0.02669   0.00051
  11        4PX         0.00024   0.00155   0.07063  -0.00459  -0.00054
  12        4PY         0.00054   0.00285  -0.00473   0.06577  -0.00095
  13        4PZ        -0.00010  -0.00024  -0.00080  -0.00135   0.09579
  14 2   H  1S         -0.02054  -0.03271   0.03488  -0.06333  -0.00115
  15        2S         -0.02268  -0.03626   0.04962  -0.08787  -0.00084
  16        3S          0.00059  -0.00068   0.02120  -0.03303  -0.00002
  17 3   H  1S         -0.02100  -0.03341  -0.07292  -0.00248  -0.00130
  18        2S         -0.02300  -0.03672  -0.10072  -0.00212  -0.00102
  19        3S          0.00062  -0.00064  -0.03862   0.00157  -0.00008
  20 4   C  1S          0.00611   0.00985  -0.01078  -0.01876  -0.00041
  21        2S          0.00982   0.01535  -0.01724  -0.03002  -0.00066
  22        2PX         0.01050   0.01679  -0.01235  -0.03228   0.00040
  23        2PY         0.01820   0.02911  -0.03218  -0.04972   0.00082
  24        2PZ        -0.00046  -0.00074  -0.00042  -0.00062   0.06438
  25        3S         -0.02651  -0.04024   0.04830   0.08425   0.00199
  26        3PX         0.01621   0.02515  -0.01804  -0.04591   0.00051
  27        3PY         0.02810   0.04358  -0.04555  -0.07105   0.00108
  28        3PZ        -0.00078  -0.00125  -0.00073  -0.00109   0.10303
  29        4S          0.00533   0.00394   0.01989   0.03518   0.00241
  30        4PX         0.00314   0.00646  -0.01306  -0.02087   0.00060
  31        4PY         0.00530   0.01102  -0.02084  -0.03698   0.00126
  32        4PZ        -0.00066  -0.00107  -0.00107  -0.00170   0.09575
  33 5   H  1S          0.00420   0.00691  -0.00173  -0.01228  -0.00047
  34        2S          0.00638   0.01061   0.00348  -0.02499  -0.00004
  35        3S          0.00333   0.00488   0.00424  -0.01764   0.00009
  36 6   H  1S          0.00417   0.00685  -0.00973  -0.00758  -0.00048
  37        2S          0.00636   0.01060  -0.02327  -0.00946  -0.00008
  38        3S          0.00331   0.00488  -0.01729  -0.00523   0.00005
                           6         7         8         9        10
   6        3S          0.45287
   7        3PX        -0.00169   0.20258
   8        3PY        -0.00161  -0.00434   0.19717
   9        3PZ        -0.00057  -0.00012  -0.00032   0.16660
  10        4S          0.27301  -0.02571  -0.04634   0.00066   0.18107
  11        4PX        -0.00671   0.10980  -0.01016  -0.00089  -0.01484
  12        4PY        -0.01185  -0.01044   0.09907  -0.00152  -0.02762
  13        4PZ         0.00107  -0.00106  -0.00177   0.15406   0.00198
  14 2   H  1S          0.08742   0.05605  -0.09888  -0.00190   0.06855
  15        2S          0.09706   0.08009  -0.13670  -0.00141   0.08008
  16        3S          0.00602   0.03455  -0.05076  -0.00003   0.01071
  17 3   H  1S          0.08935  -0.11416  -0.00244  -0.00213   0.06879
  18        2S          0.09833  -0.15751  -0.00070  -0.00168   0.07919
  19        3S          0.00600  -0.06015   0.00417  -0.00012   0.00984
  20 4   C  1S         -0.02666  -0.01679  -0.02922  -0.00069   0.00523
  21        2S         -0.04037  -0.02607  -0.04541  -0.00112   0.00392
  22        2PX        -0.04702  -0.01763  -0.04587   0.00070  -0.01859
  23        2PY        -0.08144  -0.04567  -0.07085   0.00140  -0.03191
  24        2PZ         0.00221  -0.00058  -0.00082   0.10354   0.00232
  25        3S          0.10302   0.07065   0.12341   0.00333   0.00123
  26        3PX        -0.06813  -0.02591  -0.06503   0.00090  -0.02780
  27        3PY        -0.11793  -0.06444  -0.10120   0.00187  -0.04764
  28        3PZ         0.00368  -0.00101  -0.00146   0.16570   0.00386
  29        4S          0.00174   0.03003   0.05326   0.00401  -0.03246
  30        4PX        -0.02281  -0.01958  -0.02939   0.00100  -0.00722
  31        4PY        -0.03911  -0.02934  -0.05339   0.00209  -0.01180
  32        4PZ         0.00313  -0.00150  -0.00235   0.15398   0.00356
  33 5   H  1S         -0.02053  -0.00073  -0.01766  -0.00068  -0.01537
  34        2S         -0.03165   0.00850  -0.03677   0.00003  -0.02023
  35        3S         -0.01252   0.00810  -0.02648   0.00016  -0.00394
  36 6   H  1S         -0.02040  -0.01479  -0.00931  -0.00070  -0.01570
  37        2S         -0.03171  -0.03578  -0.01087  -0.00003  -0.02114
  38        3S         -0.01261  -0.02674  -0.00629   0.00011  -0.00450
                          11        12        13        14        15
  11        4PX         0.06055
  12        4PY        -0.00919   0.05135
  13        4PZ        -0.00132  -0.00218   0.14248
  14 2   H  1S          0.03367  -0.05441  -0.00098   0.08156
  15        2S          0.04886  -0.07516  -0.00032   0.10977   0.14990
  16        3S          0.02148  -0.02785   0.00022   0.03695   0.05278
  17 3   H  1S         -0.06341   0.00159  -0.00108  -0.01298  -0.02499
  18        2S         -0.08791   0.00449  -0.00044  -0.02496  -0.04389
  19        3S         -0.03388   0.00480   0.00018  -0.01845  -0.02811
  20 4   C  1S         -0.00308  -0.00561  -0.00061   0.00424   0.00664
  21        2S         -0.00641  -0.01153  -0.00098   0.00700   0.01108
  22        2PX        -0.01304  -0.02013   0.00100   0.00189  -0.00272
  23        2PY        -0.02014  -0.03693   0.00192   0.01151   0.02414
  24        2PZ        -0.00078  -0.00119   0.09575  -0.00053  -0.00013
  25        3S          0.02281   0.04074   0.00286  -0.02103  -0.03334
  26        3PX        -0.02001  -0.02836   0.00135   0.00096  -0.00746
  27        3PY        -0.02828  -0.05364   0.00264   0.01702   0.03607
  28        3PZ        -0.00127  -0.00196   0.15324  -0.00078  -0.00012
  29        4S          0.00733   0.01392   0.00367  -0.01718  -0.02328
  30        4PX        -0.01471  -0.01234   0.00124  -0.00176  -0.00868
  31        4PY        -0.01248  -0.02936   0.00248   0.01512   0.02682
  32        4PZ        -0.00151  -0.00240   0.14242  -0.00043   0.00032
  33 5   H  1S          0.00185  -0.01591  -0.00035   0.01124   0.02339
  34        2S          0.00901  -0.02782   0.00041   0.02390   0.04462
  35        3S          0.00750  -0.01600   0.00031   0.01674   0.02800
  36 6   H  1S         -0.01440  -0.00583  -0.00036  -0.00916  -0.01838
  37        2S         -0.02808  -0.00533   0.00038  -0.01898  -0.03466
  38        3S         -0.01726  -0.00123   0.00028  -0.01025  -0.01794
                          16        17        18        19        20
  16        3S          0.02123
  17 3   H  1S         -0.01853   0.08259
  18        2S         -0.02813   0.10992   0.14851
  19        3S         -0.01333   0.03636   0.05147   0.02050
  20 4   C  1S          0.00362   0.00429   0.00660   0.00360   0.65946
  21        2S          0.00534   0.00708   0.01099   0.00527   0.56153
  22        2PX        -0.00355   0.00911   0.02229   0.01667   0.00117
  23        2PY         0.01745   0.00756   0.00964   0.00546   0.00183
  24        2PZ         0.00004  -0.00052  -0.00008   0.00008   0.00008
  25        3S         -0.01384  -0.02116  -0.03291  -0.01349  -0.08915
  26        3PX        -0.00716   0.01439   0.03503   0.02607  -0.00049
  27        3PY         0.02631   0.00945   0.01133   0.00663  -0.00104
  28        3PZ         0.00009  -0.00076  -0.00004   0.00015   0.00017
  29        4S         -0.00541  -0.01682  -0.02224  -0.00483  -0.08022
  30        4PX        -0.00717   0.01418   0.02776   0.01711  -0.00022
  31        4PY         0.01571   0.00647   0.00629   0.00170  -0.00026
  32        4PZ         0.00028  -0.00042   0.00036   0.00031  -0.00004
  33 5   H  1S          0.01621  -0.00902  -0.01817  -0.00954  -0.02007
  34        2S          0.02753  -0.01867  -0.03411  -0.01718  -0.02230
  35        3S          0.01473  -0.01011  -0.01768  -0.00910   0.00054
  36 6   H  1S         -0.00968   0.01125   0.02336   0.01600  -0.01982
  37        2S         -0.01750   0.02383   0.04443   0.02722  -0.02222
  38        3S         -0.00926   0.01667   0.02778   0.01454   0.00045
                          21        22        23        24        25
  21        2S          0.49200
  22        2PX         0.00169   0.08238
  23        2PY         0.00261   0.00394   0.08755
  24        2PZ         0.00012   0.00015   0.00021   0.06438
  25        3S         -0.15407  -0.00546  -0.00854  -0.00014   0.45315
  26        3PX        -0.00074   0.12826   0.00200   0.00011  -0.00021
  27        3PY        -0.00158   0.00200   0.13114   0.00011   0.00061
  28        3PZ         0.00028   0.00023   0.00033   0.10303  -0.00057
  29        4S         -0.11588   0.01455   0.02476   0.00066   0.27850
  30        4PX        -0.00151   0.07262  -0.00509   0.00045   0.00638
  31        4PY        -0.00240  -0.00500   0.06660   0.00084   0.01052
  32        4PZ        -0.00014   0.00076   0.00138   0.09574   0.00078
  33 5   H  1S         -0.03199  -0.03316   0.06332  -0.00125   0.08555
  34        2S         -0.03564  -0.04920   0.08850  -0.00101   0.09533
  35        3S         -0.00069  -0.02224   0.03356  -0.00011   0.00583
  36 6   H  1S         -0.03160   0.07086   0.00251  -0.00111   0.08451
  37        2S         -0.03555   0.10110   0.00102  -0.00081   0.09508
  38        3S         -0.00082   0.04042  -0.00277  -0.00003   0.00612
                          26        27        28        29        30
  26        3PX         0.20002
  27        3PY        -0.00286   0.19701
  28        3PZ         0.00015   0.00016   0.16489
  29        4S          0.02651   0.04478   0.00082   0.18798
  30        4PX         0.11373  -0.01086   0.00071   0.01622   0.06577
  31        4PY        -0.01073   0.10060   0.00134   0.02652  -0.01040
  32        4PZ         0.00096   0.00176   0.15322   0.00199   0.00108
  33 5   H  1S         -0.05327   0.09927  -0.00206   0.06782  -0.03420
  34        2S         -0.07948   0.13824  -0.00169   0.07899  -0.05154
  35        3S         -0.03637   0.05176  -0.00017   0.00989  -0.02381
  36 6   H  1S          0.11207   0.00291  -0.00185   0.06790   0.06529
  37        2S          0.15971  -0.00053  -0.00139   0.08010   0.09348
  38        3S          0.06353  -0.00599  -0.00006   0.01070   0.03751
                          31        32        33        34        35
  31        4PY         0.05290
  32        4PZ         0.00209   0.14239
  33 5   H  1S          0.05534  -0.00107   0.08040
  34        2S          0.07714  -0.00048   0.10981   0.15236
  35        3S          0.02894   0.00014   0.03793   0.05515   0.02277
  36 6   H  1S         -0.00206  -0.00097  -0.01254  -0.02586  -0.01970
  37        2S         -0.00618  -0.00035  -0.02592  -0.04773  -0.03121
  38        3S         -0.00615   0.00019  -0.01983  -0.03127  -0.01540
                          36        37        38
  36 6   H  1S          0.07963
  37        2S          0.10957   0.15307
  38        3S          0.03820   0.05583   0.02313
    Full Mulliken population analysis:
                           1         2         3         4         5
   1 1   C  1S          0.65941
   2        2S          0.49329   0.49207
   3        2PX         0.00000   0.00000   0.08450
   4        2PY         0.00000   0.00000   0.00000   0.08792
   5        2PZ         0.00000   0.00000   0.00000   0.00000   0.06441
   6        3S         -0.02930  -0.06448   0.00000   0.00000   0.00000
   7        3PX         0.00000   0.00000   0.08225   0.00000   0.00000
   8        3PY         0.00000   0.00000   0.00000   0.08273   0.00000
   9        3PZ         0.00000   0.00000   0.00000   0.00000   0.06517
  10        4S         -0.01220  -0.02137   0.00000   0.00000   0.00000
  11        4PX         0.00000   0.00000   0.01556   0.00000   0.00000
  12        4PY         0.00000   0.00000   0.00000   0.01449   0.00000
  13        4PZ         0.00000   0.00000   0.00000   0.00000   0.02110
  14 2   H  1S         -0.00023  -0.00033   0.00179   0.00573   0.00000
  15        2S         -0.00166  -0.00318   0.00428   0.01332   0.00000
  16        3S          0.00005  -0.00006   0.00070   0.00191   0.00000
  17 3   H  1S         -0.00025  -0.00037   0.00793   0.00001   0.00000
  18        2S         -0.00172  -0.00330   0.01778   0.00001   0.00001
  19        3S          0.00005  -0.00006   0.00257  -0.00000   0.00000
  20 4   C  1S          0.00000   0.00000  -0.00002  -0.00006   0.00000
  21        2S          0.00000  -0.00000  -0.00002  -0.00006   0.00000
  22        2PX        -0.00002  -0.00002   0.00011   0.00087   0.00000
  23        2PY        -0.00006  -0.00005   0.00086   0.00199   0.00000
  24        2PZ        -0.00000  -0.00000  -0.00000  -0.00000   0.00042
  25        3S         -0.00060  -0.00101   0.00253   0.00765  -0.00000
  26        3PX        -0.00055  -0.00101   0.00019   0.00557   0.00000
  27        3PY        -0.00166  -0.00304   0.00553   0.01069   0.00000
  28        3PZ        -0.00000  -0.00000  -0.00000  -0.00000   0.00616
  29        4S          0.00034   0.00030   0.00090   0.00277  -0.00000
  30        4PX        -0.00018  -0.00046  -0.00071   0.00145   0.00000
  31        4PY        -0.00054  -0.00136   0.00144   0.00095   0.00000
  32        4PZ        -0.00000  -0.00000  -0.00000  -0.00000   0.00903
  33 5   H  1S          0.00000   0.00000  -0.00000  -0.00000   0.00000
  34        2S          0.00001   0.00002   0.00000  -0.00032   0.00000
  35        3S          0.00008   0.00013   0.00001  -0.00071  -0.00000
  36 6   H  1S          0.00000   0.00000  -0.00000  -0.00000   0.00000
  37        2S          0.00001   0.00002  -0.00024  -0.00007   0.00000
  38        3S          0.00008   0.00013  -0.00057  -0.00012  -0.00000
                           6         7         8         9        10
   6        3S          0.45287
   7        3PX         0.00000   0.20258
   8        3PY         0.00000   0.00000   0.19717
   9        3PZ         0.00000   0.00000   0.00000   0.16660
  10        4S          0.21150   0.00000   0.00000   0.00000   0.18107
  11        4PX         0.00000   0.07175   0.00000   0.00000   0.00000
  12        4PY         0.00000   0.00000   0.06474   0.00000   0.00000
  13        4PZ         0.00000   0.00000   0.00000   0.10067   0.00000
  14 2   H  1S          0.01613   0.01059   0.03284   0.00002   0.01816
  15        2S          0.04095   0.01936   0.05807   0.00002   0.04622
  16        3S          0.00278   0.00397   0.01026   0.00000   0.00809
  17 3   H  1S          0.01695   0.04443   0.00002   0.00002   0.01842
  18        2S          0.04215   0.07745   0.00001   0.00002   0.04608
  19        3S          0.00279   0.01395  -0.00002   0.00000   0.00747
  20 4   C  1S         -0.00060  -0.00057  -0.00172   0.00000   0.00033
  21        2S         -0.00102  -0.00105  -0.00317   0.00000   0.00030
  22        2PX         0.00247   0.00018   0.00557   0.00000   0.00084
  23        2PY         0.00740   0.00554   0.01066   0.00000   0.00251
  24        2PZ         0.00000  -0.00000  -0.00000   0.00619   0.00000
  25        3S          0.02206   0.01328   0.04018  -0.00000   0.00047
  26        3PX         0.01281  -0.00127   0.01858   0.00000   0.00429
  27        3PY         0.03840   0.01842   0.02843   0.00000   0.01273
  28        3PZ         0.00000  -0.00000  -0.00000   0.03548   0.00000
  29        4S          0.00066   0.00463   0.01423  -0.00000  -0.02041
  30        4PX         0.00641  -0.00403   0.00581   0.00000   0.00219
  31        4PY         0.01904   0.00580   0.00120   0.00000   0.00619
  32        4PZ         0.00000  -0.00000  -0.00000   0.04930   0.00000
  33 5   H  1S         -0.00006  -0.00000  -0.00019   0.00000  -0.00083
  34        2S         -0.00123   0.00006  -0.00324  -0.00000  -0.00340
  35        3S         -0.00204   0.00010  -0.00427  -0.00000  -0.00142
  36 6   H  1S         -0.00005  -0.00013  -0.00006   0.00000  -0.00084
  37        2S         -0.00122  -0.00259  -0.00054   0.00000  -0.00353
  38        3S         -0.00205  -0.00357  -0.00057  -0.00000  -0.00162
                          11        12        13        14        15
  11        4PX         0.06055
  12        4PY         0.00000   0.05135
  13        4PZ         0.00000   0.00000   0.14248
  14 2   H  1S          0.00623   0.01770   0.00001   0.08156
  15        2S          0.01522   0.04114   0.00001   0.07754   0.14990
  16        3S          0.00524   0.01194  -0.00000   0.01381   0.04164
  17 3   H  1S          0.02375  -0.00001   0.00001  -0.00001  -0.00070
  18        2S          0.05528  -0.00006   0.00001  -0.00070  -0.00572
  19        3S          0.01663  -0.00005  -0.00000  -0.00211  -0.00835
  20 4   C  1S         -0.00018  -0.00057   0.00000   0.00000   0.00002
  21        2S         -0.00046  -0.00142   0.00000   0.00000   0.00003
  22        2PX        -0.00071   0.00139   0.00000  -0.00000   0.00000
  23        2PY         0.00140   0.00095   0.00000  -0.00000  -0.00035
  24        2PZ        -0.00000  -0.00000   0.00903   0.00000   0.00000
  25        3S          0.00641   0.01983  -0.00000  -0.00007  -0.00145
  26        3PX        -0.00412   0.00561   0.00000  -0.00000   0.00004
  27        3PY         0.00559   0.00120   0.00000  -0.00022  -0.00351
  28        3PZ        -0.00000  -0.00000   0.04907   0.00000   0.00000
  29        4S          0.00222   0.00730  -0.00000  -0.00100  -0.00416
  30        4PX        -0.00710   0.00312   0.00000   0.00002   0.00020
  31        4PY         0.00315  -0.00561   0.00000  -0.00239  -0.01007
  32        4PZ        -0.00000  -0.00000   0.08954   0.00000  -0.00000
  33 5   H  1S          0.00002  -0.00237   0.00000   0.00000   0.00000
  34        2S          0.00025  -0.01001  -0.00000   0.00000   0.00016
  35        3S          0.00027  -0.00739  -0.00000   0.00023   0.00146
  36 6   H  1S         -0.00176  -0.00049   0.00000  -0.00000  -0.00004
  37        2S         -0.00834  -0.00108  -0.00000  -0.00004  -0.00093
  38        3S         -0.00660  -0.00032  -0.00000  -0.00047  -0.00249
                          16        17        18        19        20
  16        3S          0.02123
  17 3   H  1S         -0.00211   0.08259
  18        2S         -0.00836   0.07765   0.14851
  19        3S         -0.00701   0.01359   0.04061   0.02050
  20 4   C  1S          0.00009   0.00000   0.00002   0.00009   0.65946
  21        2S          0.00016   0.00000   0.00003   0.00015   0.49328
  22        2PX         0.00001  -0.00000  -0.00027  -0.00058   0.00000
  23        2PY        -0.00073  -0.00000  -0.00008  -0.00013   0.00000
  24        2PZ        -0.00000   0.00000   0.00000  -0.00000   0.00000
  25        3S         -0.00238  -0.00007  -0.00143  -0.00231  -0.02935
  26        3PX         0.00007  -0.00015  -0.00283  -0.00361   0.00000
  27        3PY        -0.00439  -0.00007  -0.00062  -0.00062   0.00000
  28        3PZ        -0.00000   0.00000   0.00000  -0.00000   0.00000
  29        4S         -0.00202  -0.00098  -0.00397  -0.00181  -0.01233
  30        4PX         0.00020  -0.00186  -0.00865  -0.00669   0.00000
  31        4PY        -0.00740  -0.00057  -0.00132  -0.00045   0.00000
  32        4PZ        -0.00000   0.00000  -0.00000  -0.00000   0.00000
  33 5   H  1S          0.00022  -0.00000  -0.00004  -0.00043  -0.00021
  34        2S          0.00144  -0.00004  -0.00089  -0.00236  -0.00158
  35        3S          0.00247  -0.00045  -0.00243  -0.00288   0.00004
  36 6   H  1S         -0.00044   0.00000   0.00000   0.00022  -0.00020
  37        2S         -0.00243   0.00000   0.00015   0.00142  -0.00155
  38        3S         -0.00296   0.00023   0.00145   0.00243   0.00003
                          21        22        23        24        25
  21        2S          0.49200
  22        2PX         0.00000   0.08238
  23        2PY         0.00000   0.00000   0.08755
  24        2PZ         0.00000   0.00000   0.00000   0.06438
  25        3S         -0.06452   0.00000   0.00000   0.00000   0.45315
  26        3PX         0.00000   0.08069   0.00000   0.00000   0.00000
  27        3PY         0.00000   0.00000   0.08250   0.00000   0.00000
  28        3PZ         0.00000   0.00000   0.00000   0.06482   0.00000
  29        4S         -0.02169   0.00000   0.00000   0.00000   0.21575
  30        4PX         0.00000   0.01599   0.00000   0.00000   0.00000
  31        4PY         0.00000   0.00000   0.01467   0.00000   0.00000
  32        4PZ         0.00000   0.00000   0.00000   0.02108   0.00000
  33 5   H  1S         -0.00030   0.00147   0.00555   0.00000   0.01523
  34        2S         -0.00303   0.00382   0.01355   0.00001   0.03943
  35        3S         -0.00006   0.00067   0.00200   0.00000   0.00266
  36 6   H  1S         -0.00028   0.00671   0.00001   0.00000   0.01472
  37        2S         -0.00296   0.01717   0.00001   0.00000   0.03886
  38        3S         -0.00008   0.00270  -0.00001   0.00000   0.00278
                          26        27        28        29        30
  26        3PX         0.20002
  27        3PY         0.00000   0.19701
  28        3PZ         0.00000   0.00000   0.16489
  29        4S          0.00000   0.00000   0.00000   0.18798
  30        4PX         0.07432   0.00000   0.00000   0.00000   0.06577
  31        4PY         0.00000   0.06574   0.00000   0.00000   0.00000
  32        4PZ         0.00000   0.00000   0.10012   0.00000   0.00000
  33 5   H  1S          0.00899   0.03302   0.00002   0.01773   0.00578
  34        2S          0.01744   0.05977   0.00002   0.04512   0.01471
  35        3S          0.00384   0.01077   0.00000   0.00742   0.00535
  36 6   H  1S          0.04114   0.00005   0.00002   0.01761   0.02435
  37        2S          0.07695  -0.00001   0.00002   0.04547   0.05894
  38        3S          0.01483  -0.00007   0.00000   0.00800   0.01865
                          31        32        33        34        35
  31        4PY         0.05290
  32        4PZ         0.00000   0.14239
  33 5   H  1S          0.01844   0.00001   0.08040
  34        2S          0.04339   0.00001   0.07757   0.15236
  35        3S          0.01280  -0.00000   0.01417   0.04351   0.02277
  36 6   H  1S         -0.00004   0.00001  -0.00001  -0.00074  -0.00226
  37        2S         -0.00019   0.00001  -0.00074  -0.00630  -0.00933
  38        3S         -0.00015  -0.00000  -0.00228  -0.00935  -0.00813
                          36        37        38
  36 6   H  1S          0.07963
  37        2S          0.07740   0.15307
  38        3S          0.01427   0.04404   0.02313
     Gross orbital populations:
                           1
   1 1   C  1S          1.10434
   2        2S          0.88586
   3        2PX         0.22739
   4        2PY         0.23671
   5        2PZ         0.16630
   6        3S          0.79330
   7        3PX         0.56114
   8        3PY         0.55671
   9        3PZ         0.42350
  10        4S          0.50123
  11        4PX         0.26025
  12        4PY         0.21139
  13        4PZ         0.41191
  14 2   H  1S          0.27480
  15        2S          0.46696
  16        3S          0.08599
  17 3   H  1S          0.27796
  18        2S          0.46481
  19        3S          0.08299
  20 4   C  1S          1.10441
  21        2S          0.88584
  22        2PX         0.22147
  23        2PY         0.23573
  24        2PZ         0.16593
  25        3S          0.79180
  26        3PX         0.55184
  27        3PY         0.55564
  28        3PZ         0.42062
  29        4S          0.51008
  30        4PX         0.27357
  31        4PY         0.21564
  32        4PZ         0.41149
  33 5   H  1S          0.27121
  34        2S          0.47016
  35        3S          0.08938
  36 6   H  1S          0.26882
  37        2S          0.47144
  38        3S          0.09135
          Condensed to atoms (all electrons):
               1          2          3          4          5          6
     1  C    5.034769   0.387279   0.387923   0.602702  -0.036527  -0.036098
     2  H    0.387279   0.518656  -0.035066  -0.039315   0.005992  -0.009801
     3  H    0.387923  -0.035066   0.515283  -0.038770  -0.009512   0.005900
     4  C    0.602702  -0.039315  -0.038770   5.052031   0.383914   0.383513
     5  H   -0.036527   0.005992  -0.009512   0.383914   0.526036  -0.039150
     6  H   -0.036098  -0.009801   0.005900   0.383513  -0.039150   0.527257
 Mulliken charges:
               1
     1  C   -0.340048
     2  H    0.172254
     3  H    0.174243
     4  C   -0.344075
     5  H    0.169247
     6  H    0.168379
 Sum of Mulliken charges =  -0.00000
 Mulliken charges with hydrogens summed into heavy atoms:
               1
     1  C    0.006449
     4  C   -0.006449
 Electronic spatial extent (au):  <R**2>=             83.7259
 Charge=              0.0000 electrons
 Dipole moment (field-independent basis, Debye):
    X=             -0.0042    Y=              0.0051    Z=             -0.1020  Tot=              0.1022
 Quadrupole moment (field-independent basis, Debye-Ang):
   XX=            -12.2109   YY=            -12.2094   ZZ=            -15.6670
   XY=              0.0266   XZ=              0.0015   YZ=             -0.0027
 Traceless Quadrupole moment (field-independent basis, Debye-Ang):
   XX=              1.1516   YY=              1.1530   ZZ=             -2.3046
   XY=              0.0266   XZ=              0.0015   YZ=             -0.0027
 Octapole moment (field-independent basis, Debye-Ang**2):
  XXX=             -0.2734  YYY=             -0.0817  ZZZ=             -0.0686  XYY=              0.0589
  XXY=             -0.0691  XXZ=             -0.1385  XZZ=             -0.0950  YZZ=             -0.0892
  YYZ=             -0.1826  XYZ=             -0.0378
 Hexadecapole moment (field-independent basis, Debye-Ang**3):
 XXXX=            -34.3015 YYYY=            -55.1763 ZZZZ=            -17.7988 XXXY=             -7.2233
 XXXZ=              0.0103 YYYX=            -10.6946 YYYZ=              0.0122 ZZZX=              0.0122
 ZZZY=              0.0286 XXYY=            -16.2012 XXZZ=             -9.9293 YYZZ=            -13.6447
 XXYZ=              0.0076 YYXZ=              0.0012 ZZXY=             -3.2039
 N-N= 3.307405398606D+01 E-N=-2.478585864628D+02  KE= 7.815160454848D+01
 Orbital energies and kinetic energies (alpha):
                                 1                 2
   1         O               -10.291054         15.979082
   2         O               -10.287338         15.979206
   3         O                -0.864018          1.541145
   4         O                -0.671985          1.270249
   5         O                -0.558662          0.941628
   6         O                -0.510218          1.283162
   7         O                -0.435966          1.042011
   8         O                -0.357224          1.039319
   9         V                 0.080170          1.181534
  10         V                 0.140966          0.589584
  11         V                 0.164347          0.597454
  12         V                 0.169936          0.679378
  13         V                 0.240891          0.583618
  14         V                 0.377499          0.861132
  15         V                 0.392081          0.930662
  16         V                 0.396914          0.769742
  17         V                 0.463311          1.193118
  18         V                 0.487945          1.423144
  19         V                 0.493543          1.300549
  20         V                 0.591199          1.653977
  21         V                 0.664979          1.573197
  22         V                 0.690460          2.144253
  23         V                 0.772070          2.442416
  24         V                 0.776517          2.295353
  25         V                 0.841654          1.085191
  26         V                 0.953796          3.434783
  27         V                 2.232173          3.922648
  28         V                 2.288891          4.034052
  29         V                 2.333162          4.300173
  30         V                 2.406544          4.517386
  31         V                 2.671486          6.301514
  32         V                 2.817453          6.305170
  33         V                 2.879238          6.134897
  34         V                 2.951217          6.226845
  35         V                 3.141429          6.822687
  36         V                 3.317062          6.401045
  37         V                23.351491         60.073783
  38         V                23.707256         60.205016
 Total kinetic energy from orbitals= 7.815160454848D+01
 Calling FoFJK, ICntrl=      2127 FMM=F ISym2X=0 I1Cent= 0 IOpClX= 0 NMat=1 NMatS=1 NMatT=0.
 -------------------------------------------------------------------
 Center     Atomic                   Forces (Hartrees/Bohr)
 Number     Number              X              Y              Z
 -------------------------------------------------------------------
      1        6           0.010479650    0.004724248   -0.004112622
      2        1          -0.006664309    0.005579896    0.002082832
      3        1           0.001720556   -0.002122678    0.001921302
      4        6           0.009771116    0.010536783   -0.004560565
      5        1           0.004445604   -0.014970916    0.002299369
      6        1          -0.019752617   -0.003747334    0.002369684
 -------------------------------------------------------------------
 Cartesian Forces:  Max     0.019752617 RMS     0.007910608

 GradGradGradGradGradGradGradGradGradGradGradGradGradGradGradGradGradGrad
 Berny optimization.
 Search for a local minimum.
 Step number   1 out of a maximum of    2
 All quantities printed in internal units (Hartrees-Bohrs-Radians)
 Second derivative matrix not updated -- first step.
 The second derivative matrix:
                          X1        Y1        Z1        X2        Y2
           X1           0.75979
           Y1           0.10436   0.86618
           Z1           0.00624   0.00943   0.17435
           X2          -0.16226   0.09549   0.00217   0.14001
           Y2           0.10223  -0.28747  -0.00774  -0.11490   0.27648
           Z2           0.00342  -0.00972  -0.05580  -0.00308   0.00806
           X3          -0.35348  -0.00545  -0.00856  -0.00078  -0.00044
           Y3          -0.01220  -0.11019  -0.00210   0.03271   0.01856
           Z3          -0.01092  -0.00204  -0.05735   0.00154   0.00054
           X4          -0.26873  -0.18014  -0.00089   0.02305   0.01310
           Y4          -0.18024  -0.47668  -0.00143  -0.01331  -0.00756
           Z4           0.00125   0.00230  -0.09510  -0.00063  -0.00086
           X5           0.02337  -0.01349   0.00064  -0.00001   0.00000
           Y5           0.01185  -0.00684   0.00089   0.00000  -0.00000
           Z5          -0.00056   0.00034   0.01739   0.00026  -0.00014
           X6           0.00131  -0.00076   0.00040  -0.00001   0.00000
           Y6          -0.02599   0.01500   0.00096   0.00000  -0.00000
           Z6           0.00057  -0.00031   0.01652  -0.00026   0.00014
                          Z2        X3        Y3        Z3        X4
           Z2           0.02911
           X3          -0.00034   0.35366
           Y3           0.00165   0.00624   0.07618
           Z3           0.01058   0.00936   0.00149   0.03007
           X4           0.00053   0.00062  -0.02676  -0.00052   0.71031
           Y4          -0.00029  -0.00036   0.01545   0.00032   0.12054
           Z4           0.01602  -0.00046  -0.00103   0.01680  -0.00504
           X5          -0.00027  -0.00001   0.00000   0.00028  -0.14681
           Y5           0.00017   0.00000  -0.00000  -0.00017   0.09180
           Z5           0.00935   0.00028  -0.00017  -0.00953  -0.00324
           X6          -0.00026  -0.00001   0.00000   0.00026  -0.31843
           Y6           0.00014   0.00000  -0.00000  -0.00014  -0.01854
           Z6          -0.00926  -0.00028   0.00017   0.00944   0.00917
                          Y4        Z4        X5        Y5        Z5
           Y4           0.85744
           Z4          -0.01003   0.17504
           X5           0.08410  -0.00215   0.12510
           Y5          -0.28486   0.00767  -0.10283   0.27540
           Z5           0.00952  -0.05691   0.00291  -0.00817   0.02954
           X6          -0.01072   0.00703  -0.00165  -0.00082   0.00034
           Y6          -0.10378   0.00194   0.03222   0.01631  -0.00137
           Z6           0.00192  -0.05586  -0.00142  -0.00039   0.01016
                          X6        Y6        Z6
           X6           0.31878
           Y6           0.01230   0.07247
           Z6          -0.00778  -0.00153   0.02900
 ITU=  0
     Eigenvalues ---    0.03760   0.04380   0.09231   0.10083   0.13534
     Eigenvalues ---    0.17393   0.26584   0.28871   0.52882   0.69699
     Eigenvalues ---    0.97218   1.57146
 Angle between quadratic step and forces=  34.68 degrees.
 Linear search not attempted -- first point.
 B after Tr=     0.005474    0.004857   -0.010410
         Rot=    1.000000   -0.000021    0.000012   -0.000098 Ang=  -0.01 deg.
 Variable       Old X    -DE/DX   Delta X   Delta X   Delta X     New X
                                 (Linear)    (Quad)   (Total)
    X1       -0.63277   0.01048   0.00000   0.01730   0.02298  -0.60979
    Y1       -1.09471   0.00472   0.00000   0.01641   0.02114  -1.07357
    Z1        0.01264  -0.00411   0.00000  -0.02183  -0.03230  -0.01966
    X2        0.39045  -0.00666   0.00000  -0.02263  -0.01659   0.37385
    Y2       -2.89297   0.00558   0.00000   0.01974   0.02467  -2.86829
    Z2       -0.04372   0.00208   0.00000   0.02694   0.01641  -0.02731
    X3       -2.68158   0.00172   0.00000   0.02113   0.02683  -2.65476
    Y3       -1.14101  -0.00212   0.00000   0.00096   0.00530  -1.13571
    Z3       -0.04679   0.00192   0.00000   0.02629   0.01577  -0.03103
    X4        0.62967   0.00977   0.00000   0.00535   0.01061   0.64028
    Y4        1.09200   0.01054   0.00000   0.00371   0.00869   1.10069
    Z4        0.01054  -0.00456   0.00000  -0.02126  -0.03161  -0.02107
    X5       -0.31791   0.00445   0.00000   0.00080   0.00570  -0.31220
    Y5        2.95868  -0.01497   0.00000  -0.04983  -0.04503   2.91365
    Z5       -0.04983   0.00230   0.00000   0.02653   0.01624  -0.03359
    X6        2.73545  -0.01975   0.00000  -0.05477  -0.04953   2.68592
    Y6        1.19712  -0.00375   0.00000  -0.02016  -0.01478   1.18234
    Z6       -0.04638   0.00237   0.00000   0.02579   0.01549  -0.03089
         Item               Value     Threshold  Converged?
 Maximum Force            0.019753     0.000450     NO 
 RMS     Force            0.007911     0.000300     NO 
 Maximum Displacement     0.049531     0.001800     NO 
 RMS     Displacement     0.024257     0.001200     NO 
 Predicted change in Energy=-1.483970D-03
 GradGradGradGradGradGradGradGradGradGradGradGradGradGradGradGradGradGrad

 Unable to Open any file for archive entry.
 1\1\GINC-BHD0014\Force\RwB97XD\6-311G\C2H4\BWEIGHT\11-Jan-2023\0\\# WB
 97XD/6-311G SCF=XQC FORCE nosym pop=full guess=read\\MD Step 999\\0,1\
 C,-0.33484976,-0.5792975,0.00668804\H,0.20661634,-1.53089264,-0.023137
 39\H,-1.41903344,-0.6037966,-0.02476238\C,0.33320871,0.57786005,0.0055
 7743\H,-0.16822827,1.56566688,-0.02636939\H,1.44753725,0.63349076,-0.0
 2454572\\Version=ES64L-G16RevC.01\HF=-78.5559487\RMSD=4.947e-09\RMSF=7
 .911e-03\Dipole=-0.0016654,0.0020147,-0.040111\Quadrupole=0.8561693,0.
 8572501,-1.7134194,0.0198052,0.0011069,-0.0020027\PG=C01 [X(C2H4)]\\@
 The archive entry for this job was punched.


 ON INDUCTION, OR "WHY DO YOU BELIEVE THE SUN WILL RISE TOMORROW?":

 ... THE FARMER WHO HAS FED THE CHICKEN EVERY DAY THROUGHOUT ITS
 LIFE AT LAST WRINGS ITS NECK INSTEAD, SHOWING THAT MORE REFINED VIEWS
 AS TO THE UNIFORMITY OF NATURE WOULD HAVE BEEN USEFUL TO THE CHICKEN.

                               -- BERTRAND RUSSELL
 Job cpu time:       0 days  0 hours  0 minutes 48.8 seconds.
 Elapsed time:       0 days  0 hours  0 minutes 17.8 seconds.
 File lengths (MBytes):  RWF=    272 Int=      0 D2E=      0 Chk=     32 Scr=     32
 Normal termination of Gaussian 16 at Wed Jan 11 16:38:03 2023.
