 Entering Gaussian System, Link 0=g16
 Initial command:
 /software/gaussian/g16-c01/avx2/g16/l1.exe "/gpfs/fs2/scratch/bweight/software/many_molecule_many_mode_NAMD/src/NAMD/TESTING/G16/GS_NEW/Gau-30821.inp" -scrdir="/gpfs/fs2/scratch/bweight/software/many_molecule_many_mode_NAMD/src/NAMD/TESTING/G16/GS_NEW/"
 Entering Link 1 = /software/gaussian/g16-c01/avx2/g16/l1.exe PID=     30822.
  
 Copyright (c) 1988-2019, Gaussian, Inc.  All Rights Reserved.
  
 This is part of the Gaussian(R) 16 program.  It is based on
 the Gaussian(R) 09 system (copyright 2009, Gaussian, Inc.),
 the Gaussian(R) 03 system (copyright 2003, Gaussian, Inc.),
 the Gaussian(R) 98 system (copyright 1998, Gaussian, Inc.),
 the Gaussian(R) 94 system (copyright 1995, Gaussian, Inc.),
 the Gaussian 92(TM) system (copyright 1992, Gaussian, Inc.),
 the Gaussian 90(TM) system (copyright 1990, Gaussian, Inc.),
 the Gaussian 88(TM) system (copyright 1988, Gaussian, Inc.),
 the Gaussian 86(TM) system (copyright 1986, Carnegie Mellon
 University), and the Gaussian 82(TM) system (copyright 1983,
 Carnegie Mellon University). Gaussian is a federally registered
 trademark of Gaussian, Inc.
  
 This software contains proprietary and confidential information,
 including trade secrets, belonging to Gaussian, Inc.
  
 This software is provided under written license and may be
 used, copied, transmitted, or stored only in accord with that
 written license.
  
 The following legend is applicable only to US Government
 contracts under FAR:
  
                    RESTRICTED RIGHTS LEGEND
  
 Use, reproduction and disclosure by the US Government is
 subject to restrictions as set forth in subparagraphs (a)
 and (c) of the Commercial Computer Software - Restricted
 Rights clause in FAR 52.227-19.
  
 Gaussian, Inc.
 340 Quinnipiac St., Bldg. 40, Wallingford CT 06492
  
  
 ---------------------------------------------------------------
 Warning -- This program may not be used in any manner that
 competes with the business of Gaussian, Inc. or will provide
 assistance to any competitor of Gaussian, Inc.  The licensee
 of this program is prohibited from giving any competitor of
 Gaussian, Inc. access to this program.  By using this program,
 the user acknowledges that Gaussian, Inc. is engaged in the
 business of creating and licensing software in the field of
 computational chemistry and represents and warrants to the
 licensee that it is not a competitor of Gaussian, Inc. and that
 it will not use this program in any manner prohibited above.
 ---------------------------------------------------------------
  

 Cite this work as:
 Gaussian 16, Revision C.01,
 M. J. Frisch, G. W. Trucks, H. B. Schlegel, G. E. Scuseria, 
 M. A. Robb, J. R. Cheeseman, G. Scalmani, V. Barone, 
 G. A. Petersson, H. Nakatsuji, X. Li, M. Caricato, A. V. Marenich, 
 J. Bloino, B. G. Janesko, R. Gomperts, B. Mennucci, H. P. Hratchian, 
 J. V. Ortiz, A. F. Izmaylov, J. L. Sonnenberg, D. Williams-Young, 
 F. Ding, F. Lipparini, F. Egidi, J. Goings, B. Peng, A. Petrone, 
 T. Henderson, D. Ranasinghe, V. G. Zakrzewski, J. Gao, N. Rega, 
 G. Zheng, W. Liang, M. Hada, M. Ehara, K. Toyota, R. Fukuda, 
 J. Hasegawa, M. Ishida, T. Nakajima, Y. Honda, O. Kitao, H. Nakai, 
 T. Vreven, K. Throssell, J. A. Montgomery, Jr., J. E. Peralta, 
 F. Ogliaro, M. J. Bearpark, J. J. Heyd, E. N. Brothers, K. N. Kudin, 
 V. N. Staroverov, T. A. Keith, R. Kobayashi, J. Normand, 
 K. Raghavachari, A. P. Rendell, J. C. Burant, S. S. Iyengar, 
 J. Tomasi, M. Cossi, J. M. Millam, M. Klene, C. Adamo, R. Cammi, 
 J. W. Ochterski, R. L. Martin, K. Morokuma, O. Farkas, 
 J. B. Foresman, and D. J. Fox, Gaussian, Inc., Wallingford CT, 2019.
 
 ******************************************
 Gaussian 16:  ES64L-G16RevC.01  3-Jul-2019
                29-Dec-2022 
 ******************************************
 %chk=geometry.chk
 %nprocshared=1
 Will use up to    1 processors via shared memory.
 %mem=5GB
 -----------------------------------------
 # BLYP/3-21G SCF=XQC FORCE nosym pop=full
 -----------------------------------------
 1/10=7,30=1,38=1/1,3;
 2/12=2,15=1,17=6,18=5,40=1/2;
 3/5=5,11=2,25=1,30=1,71=1,74=402/1,2,3;
 4//1;
 5/5=2,8=3,13=1,38=5/2,8;
 6/7=3,28=1/1;
 7/29=1,30=1/1,2,3,16;
 1/10=7,30=1/3;
 99//99;
 ---------
 MD Step 0
 ---------
 Symbolic Z-matrix:
 Charge =  0 Multiplicity = 1
 Li                    0.        0.        0. 
 F                     0.        0.        1. 
 

 GradGradGradGradGradGradGradGradGradGradGradGradGradGradGradGradGradGrad
 Berny optimization.
 Initialization pass.
 Trust Radius=3.00D-01 FncErr=1.00D-07 GrdErr=1.00D-07 EigMax=2.50D+02 EigMin=1.00D-04
 Number of steps in this run=      2 maximum allowed number of steps=      2.
 GradGradGradGradGradGradGradGradGradGradGradGradGradGradGradGradGradGrad

                          Input orientation:                          
 ---------------------------------------------------------------------
 Center     Atomic      Atomic             Coordinates (Angstroms)
 Number     Number       Type             X           Y           Z
 ---------------------------------------------------------------------
      1          3           0        0.000000    0.000000    0.000000
      2          9           0        0.000000    0.000000    1.000000
 ---------------------------------------------------------------------
 Symmetry turned off by external request.
 Stoichiometry    FLi
 Framework group  C*V[C*(LiF)]
 Deg. of freedom     1
 Full point group                 C*V     NOp   4
 Rotational constants (GHZ):           0.0000000          98.6334405          98.6334405
 Standard basis: 3-21G (6D, 7F)
    18 basis functions,    30 primitive gaussians,    18 cartesian basis functions
     6 alpha electrons        6 beta electrons
       nuclear repulsion energy        14.2877846948 Hartrees.
 NAtoms=    2 NActive=    2 NUniq=    2 SFac= 1.00D+00 NAtFMM=   60 NAOKFM=F Big=F
 Integral buffers will be    131072 words long.
 Raffenetti 2 integral format.
 Two-electron integral symmetry is turned off.
 One-electron integrals computed using PRISM.
 NBasis=    18 RedAO= T EigKep=  9.75D-02  NBF=    18
 NBsUse=    18 1.00D-06 EigRej= -1.00D+00 NBFU=    18
 ExpMin= 2.86D-02 ExpMax= 4.14D+02 ExpMxC= 4.14D+02 IAcc=3 IRadAn=         5 AccDes= 0.00D+00
 Harris functional with IExCor=  402 and IRadAn=       5 diagonalized for initial guess.
 HarFok:  IExCor=  402 AccDes= 0.00D+00 IRadAn=         5 IDoV= 1 UseB2=F ITyADJ=14
 ICtDFT=  3500011 ScaDFX=  1.000000  1.000000  1.000000  1.000000
 FoFCou: FMM=F IPFlag=           0 FMFlag=      100000 FMFlg1=           0
         NFxFlg=           0 DoJE=T BraDBF=F KetDBF=T FulRan=T
         wScrn=  0.000000 ICntrl=       500 IOpCl=  0 I1Cent=   200000004 NGrid=           0
         NMat0=    1 NMatS0=      1 NMatT0=    0 NMatD0=    1 NMtDS0=    0 NMtDT0=    0
 Symmetry not used in FoFCou.
 Keep J ints in memory in canonical form, NReq=877801.
 Requested convergence on RMS density matrix=1.00D-08 within  32 cycles.
 Requested convergence on MAX density matrix=1.00D-06.
 Requested convergence on             energy=1.00D-06.
 No special actions if energy rises.
 SCF Done:  E(RB-LYP) =  -106.460165511     A.U. after   10 cycles
            NFock= 10  Conv=0.14D-09     -V/T= 1.9898
 QCSCF skips out because SCF is already converged.

 **********************************************************************

            Population analysis using the SCF Density.

 **********************************************************************

 Alpha  occ. eigenvalues --  -24.05036  -1.89894  -0.90624  -0.30698  -0.30698
 Alpha  occ. eigenvalues --   -0.19559
 Alpha virt. eigenvalues --   -0.05717   0.01692   0.01692   0.03357   0.10943
 Alpha virt. eigenvalues --    0.17228   0.17228   0.29820   1.89241   1.89241
 Alpha virt. eigenvalues --    1.94065   3.49309
     Molecular Orbital Coefficients:
                           1         2         3         4         5
                           O         O         O         O         O
     Eigenvalues --   -24.05036  -1.89894  -0.90624  -0.30698  -0.30698
   1 1   Li 1S          0.00490   0.91228  -0.36360  -0.00000  -0.00000
   2        2S          0.01099   0.05054  -0.02189  -0.00000   0.00000
   3        2PX        -0.00000  -0.00000   0.00000   0.04717   0.24965
   4        2PY        -0.00000   0.00000   0.00000   0.24965  -0.04717
   5        2PZ         0.00983  -0.01565   0.06167  -0.00000   0.00000
   6        3S         -0.00303  -0.01915   0.02575   0.00000  -0.00000
   7        3PX         0.00000   0.00000  -0.00000  -0.00394  -0.02084
   8        3PY        -0.00000  -0.00000   0.00000  -0.02084   0.00394
   9        3PZ        -0.00250   0.00625  -0.00847   0.00000   0.00000
  10 2   F  1S          0.98095  -0.05259  -0.25374   0.00000  -0.00000
  11        2S          0.10419   0.04855   0.24513  -0.00000   0.00000
  12        2PX         0.00000   0.00000  -0.00000   0.09478   0.50166
  13        2PY        -0.00000  -0.00000   0.00000   0.50166  -0.09478
  14        2PZ        -0.00138  -0.07009  -0.00863  -0.00000  -0.00000
  15        3S         -0.04066   0.13389   0.80067   0.00000   0.00000
  16        3PX        -0.00000   0.00000  -0.00000   0.09919   0.52501
  17        3PY         0.00000  -0.00000  -0.00000   0.52501  -0.09919
  18        3PZ         0.00302  -0.05714  -0.02074  -0.00000  -0.00000
                           6         7         8         9        10
                           O         V         V         V         V
     Eigenvalues --    -0.19559  -0.05717   0.01692   0.01692   0.03357
   1 1   Li 1S          0.35391  -0.21681  -0.00000  -0.00000  -0.07901
   2        2S          0.07645   0.26401  -0.00000  -0.00000  -0.13583
   3        2PX        -0.00000  -0.00000  -0.00009   0.07302  -0.00000
   4        2PY        -0.00000   0.00000   0.07302   0.00009   0.00000
   5        2PZ        -0.14849  -0.21438   0.00000  -0.00000  -0.04636
   6        3S          0.14408   0.69232   0.00000   0.00000   0.49915
   7        3PX         0.00000   0.00000  -0.00111   0.95290  -0.00000
   8        3PY         0.00000   0.00000   0.95290   0.00111  -0.00000
   9        3PZ         0.14638  -0.24083   0.00000   0.00000   0.95840
  10 2   F  1S          0.00590   0.01646   0.00000   0.00000   0.03389
  11        2S         -0.01245  -0.01475  -0.00000  -0.00000  -0.03217
  12        2PX         0.00000  -0.00000   0.00015  -0.12638   0.00000
  13        2PY         0.00000  -0.00000  -0.12638  -0.00015   0.00000
  14        2PZ         0.57014  -0.09171  -0.00000  -0.00000  -0.11231
  15        3S         -0.01612  -0.09744  -0.00000  -0.00000  -0.19114
  16        3PX        -0.00000   0.00000   0.00018  -0.15266   0.00000
  17        3PY        -0.00000  -0.00000  -0.15266  -0.00018   0.00000
  18        3PZ         0.59349  -0.09908  -0.00000  -0.00000  -0.13291
                          11        12        13        14        15
                           V         V         V         V         V
     Eigenvalues --     0.10943   0.17228   0.17228   0.29820   1.89241
   1 1   Li 1S         -0.13360   0.00000   0.00000   0.13045  -0.00000
   2        2S          1.30331  -0.00000  -0.00000   1.23639  -0.00000
   3        2PX         0.00000   0.02939   1.28970  -0.00000  -0.36492
   4        2PY         0.00000   1.28970  -0.02939   0.00000   0.09870
   5        2PZ        -0.64628  -0.00000   0.00000   1.41196   0.00000
   6        3S         -1.23025   0.00000   0.00000  -0.63037   0.00000
   7        3PX        -0.00000  -0.01833  -0.80440   0.00000   0.10126
   8        3PY        -0.00000  -0.80440   0.01833  -0.00000  -0.02739
   9        3PZ         0.50747   0.00000   0.00000  -0.63133   0.00000
  10 2   F  1S         -0.00475  -0.00000   0.00000   0.10071  -0.00000
  11        2S         -0.00842   0.00000   0.00000  -0.06053   0.00000
  12        2PX         0.00000  -0.00495  -0.21728  -0.00000  -0.97433
  13        2PY        -0.00000  -0.21728   0.00495  -0.00000   0.26353
  14        2PZ         0.00870   0.00000  -0.00000   0.05793   0.00000
  15        3S          0.06880   0.00000  -0.00000  -0.98528   0.00000
  16        3PX        -0.00000  -0.00792  -0.34765   0.00000   1.05696
  17        3PY        -0.00000  -0.34765   0.00792  -0.00000  -0.28588
  18        3PZ        -0.05748   0.00000  -0.00000   0.09443  -0.00000
                          16        17        18
                           V         V         V
     Eigenvalues --     1.89241   1.94065   3.49309
   1 1   Li 1S         -0.00000   0.36082  -0.29948
   2        2S         -0.00000   0.22365  -0.61102
   3        2PX        -0.09870  -0.00000   0.00000
   4        2PY        -0.36492  -0.00000   0.00000
   5        2PZ         0.00000  -0.05628  -0.55064
   6        3S          0.00000  -0.17319   0.17868
   7        3PX         0.02739   0.00000  -0.00000
   8        3PY         0.10126   0.00000   0.00000
   9        3PZ         0.00000  -0.04838   0.14526
  10 2   F  1S         -0.00000   0.02030   0.10809
  11        2S          0.00000  -0.06736  -1.59876
  12        2PX        -0.26353  -0.00000   0.00000
  13        2PY        -0.97433  -0.00000  -0.00000
  14        2PZ         0.00000  -0.99793   0.06990
  15        3S          0.00000  -0.02405   1.86845
  16        3PX         0.28588   0.00000  -0.00000
  17        3PY         1.05696   0.00000   0.00000
  18        3PZ        -0.00000   1.12342  -0.20357
     Density Matrix:
                           1         2         3         4         5
   1 1   Li 1S          2.17945
   2        2S          0.16235   0.01800
   3        2PX        -0.00000  -0.00000   0.12910
   4        2PY        -0.00000  -0.00000   0.00000   0.12910
   5        2PZ        -0.17840  -0.02677   0.00000   0.00000   0.05239
   6        3S          0.04828   0.01890  -0.00000  -0.00000  -0.03908
   7        3PX         0.00000   0.00000  -0.01078  -0.00000  -0.00000
   8        3PY         0.00000   0.00000  -0.00000  -0.01078  -0.00000
   9        3PZ         0.12115   0.02333   0.00000  -0.00000  -0.04476
  10 2   F  1S          0.10236   0.02826  -0.00000  -0.00000  -0.01212
  11        2S         -0.09747  -0.00544   0.00000   0.00000   0.03446
  12        2PX         0.00000   0.00000   0.25942   0.00000  -0.00000
  13        2PY         0.00000  -0.00000   0.00000   0.25942  -0.00000
  14        2PZ         0.28194   0.08044   0.00000  -0.00000  -0.16822
  15        3S         -0.34976  -0.02489   0.00000   0.00000   0.09855
  16        3PX         0.00000   0.00000   0.27150   0.00000   0.00000
  17        3PY         0.00000  -0.00000   0.00000   0.27150  -0.00000
  18        3PZ         0.33094   0.08594  -0.00000  -0.00000  -0.17697
                           6         7         8         9        10
   6        3S          0.04360
   7        3PX         0.00000   0.00090
   8        3PY         0.00000   0.00000   0.00090
   9        3PZ         0.04152   0.00000   0.00000   0.04309
  10 2   F  1S         -0.01529   0.00000  -0.00000   0.00047   2.05888
  11        2S          0.00654   0.00000   0.00000  -0.00771   0.07476
  12        2PX         0.00000  -0.02166  -0.00000   0.00000   0.00000
  13        2PY         0.00000  -0.00000  -0.02166   0.00000  -0.00000
  14        2PZ         0.16654   0.00000   0.00000   0.16619   0.01579
  15        3S          0.03170  -0.00000   0.00000  -0.01642  -0.50037
  16        3PX        -0.00000  -0.02266  -0.00000   0.00000  -0.00000
  17        3PY         0.00000  -0.00000  -0.02266   0.00000   0.00000
  18        3PZ         0.17213   0.00000   0.00000   0.17337   0.02946
                          11        12        13        14        15
  11        2S          0.14691
  12        2PX         0.00000   0.52129
  13        2PY        -0.00000   0.00000   0.52129
  14        2PZ        -0.02552   0.00000   0.00000   0.66009
  15        3S          0.39747  -0.00000   0.00000  -0.05087   1.32184
  16        3PX        -0.00000   0.54555   0.00000  -0.00000  -0.00000
  17        3PY        -0.00000   0.00000   0.54555  -0.00000  -0.00000
  18        3PZ        -0.02987   0.00000   0.00000   0.68510  -0.06790
                          16        17        18
  16        3PX         0.57094
  17        3PY         0.00000   0.57094
  18        3PZ        -0.00000  -0.00000   0.71187
    Full Mulliken population analysis:
                           1         2         3         4         5
   1 1   Li 1S          2.17945
   2        2S          0.02877   0.01800
   3        2PX         0.00000   0.00000   0.12910
   4        2PY         0.00000   0.00000   0.00000   0.12910
   5        2PZ         0.00000   0.00000   0.00000   0.00000   0.05239
   6        3S          0.00679   0.01479   0.00000   0.00000   0.00000
   7        3PX         0.00000   0.00000  -0.00634   0.00000   0.00000
   8        3PY         0.00000   0.00000   0.00000  -0.00634   0.00000
   9        3PZ         0.00000   0.00000   0.00000   0.00000  -0.02635
  10 2   F  1S          0.00056   0.00111   0.00000   0.00000  -0.00071
  11        2S         -0.00547  -0.00107   0.00000   0.00000   0.00971
  12        2PX         0.00000   0.00000   0.02205   0.00000   0.00000
  13        2PY         0.00000   0.00000   0.00000   0.02205   0.00000
  14        2PZ        -0.02383  -0.00071   0.00000   0.00000   0.00305
  15        3S         -0.07460  -0.01131   0.00000   0.00000   0.05247
  16        3PX         0.00000   0.00000   0.11013   0.00000   0.00000
  17        3PY         0.00000   0.00000   0.00000   0.11013   0.00000
  18        3PZ        -0.13569  -0.00951   0.00000   0.00000  -0.01457
                           6         7         8         9        10
   6        3S          0.04360
   7        3PX         0.00000   0.00090
   8        3PY         0.00000   0.00000   0.00090
   9        3PZ         0.00000   0.00000   0.00000   0.04309
  10 2   F  1S         -0.00032   0.00000   0.00000   0.00001   2.05888
  11        2S          0.00072   0.00000   0.00000  -0.00053   0.01605
  12        2PX         0.00000  -0.00045   0.00000   0.00000   0.00000
  13        2PY         0.00000   0.00000  -0.00045   0.00000   0.00000
  14        2PZ        -0.00110   0.00000   0.00000   0.00273   0.00000
  15        3S          0.00897   0.00000   0.00000  -0.00280  -0.09186
  16        3PX         0.00000  -0.00295   0.00000   0.00000   0.00000
  17        3PY         0.00000   0.00000  -0.00295   0.00000   0.00000
  18        3PZ        -0.00714   0.00000   0.00000   0.01819   0.00000
                          11        12        13        14        15
  11        2S          0.14691
  12        2PX         0.00000   0.52129
  13        2PY         0.00000   0.00000   0.52129
  14        2PZ         0.00000   0.00000   0.00000   0.66009
  15        3S          0.29103   0.00000   0.00000   0.00000   1.32184
  16        3PX         0.00000   0.26643   0.00000   0.00000   0.00000
  17        3PY         0.00000   0.00000   0.26643   0.00000   0.00000
  18        3PZ         0.00000   0.00000   0.00000   0.33458   0.00000
                          16        17        18
  16        3PX         0.57094
  17        3PY         0.00000   0.57094
  18        3PZ         0.00000   0.00000   0.71187
     Gross orbital populations:
                           1
   1 1   Li 1S          1.97597
   2        2S          0.04007
   3        2PX         0.25494
   4        2PY         0.25494
   5        2PZ         0.07598
   6        3S          0.06631
   7        3PX        -0.00884
   8        3PY        -0.00884
   9        3PZ         0.03434
  10 2   F  1S          1.98371
  11        2S          0.45735
  12        2PX         0.80933
  13        2PY         0.80933
  14        2PZ         0.97483
  15        3S          1.49372
  16        3PX         0.94456
  17        3PY         0.94456
  18        3PZ         0.89772
          Condensed to atoms (all electrons):
               1          2
     1  Li   2.619175   0.065716
     2  F    0.065716   9.249394
 Mulliken charges:
               1
     1  Li   0.315110
     2  F   -0.315110
 Sum of Mulliken charges =  -0.00000
 Mulliken charges with hydrogens summed into heavy atoms:
               1
     1  Li   0.315110
     2  F   -0.315110
 Electronic spatial extent (au):  <R**2>=             52.1978
 Charge=             -0.0000 electrons
 Dipole moment (field-independent basis, Debye):
    X=              0.0000    Y=              0.0000    Z=             -3.1403  Tot=              3.1403
 Quadrupole moment (field-independent basis, Debye-Ang):
   XX=             -8.0397   YY=             -8.0397   ZZ=            -10.8996
   XY=              0.0000   XZ=             -0.0000   YZ=             -0.0000
 Traceless Quadrupole moment (field-independent basis, Debye-Ang):
   XX=              0.9533   YY=              0.9533   ZZ=             -1.9066
   XY=              0.0000   XZ=             -0.0000   YZ=             -0.0000
 Octapole moment (field-independent basis, Debye-Ang**2):
  XXX=              0.0000  YYY=             -0.0000  ZZZ=            -21.2142  XYY=              0.0000
  XXY=             -0.0000  XXZ=             -6.3173  XZZ=              0.0000  YZZ=             -0.0000
  YYZ=             -6.3173  XYZ=             -0.0000
 Hexadecapole moment (field-independent basis, Debye-Ang**3):
 XXXX=            -14.2787 YYYY=            -14.2787 ZZZZ=            -56.7832 XXXY=              0.0000
 XXXZ=             -0.0000 YYYX=              0.0000 YYYZ=             -0.0000 ZZZX=             -0.0000
 ZZZY=             -0.0000 XXYY=             -4.7596 XXZZ=            -11.4960 YYZZ=            -11.4960
 XXYZ=             -0.0000 YYXZ=             -0.0000 ZZXY=             -0.0000
 N-N= 1.428778469484D+01 E-N=-2.847035953855D+02  KE= 1.075572986714D+02
 Orbital energies and kinetic energies (alpha):
                                 1                 2
   1         O               -24.050362         36.766047
   2         O                -1.898942          3.262247
   3         O                -0.906243          4.384056
   4         O                -0.306978          2.801849
   5         O                -0.306978          2.801849
   6         O                -0.195595          3.762601
   7         V                -0.057170          0.355187
   8         V                 0.016919          0.244209
   9         V                 0.016919          0.244209
  10         V                 0.033570          0.303072
  11         V                 0.109432          0.373156
  12         V                 0.172282          0.874238
  13         V                 0.172282          0.874238
  14         V                 0.298200          1.108825
  15         V                 1.892413          6.475215
  16         V                 1.892413          6.475215
  17         V                 1.940654          6.617644
  18         V                 3.493095          8.820540
 Total kinetic energy from orbitals= 1.075572986714D+02
 Calling FoFJK, ICntrl=      2527 FMM=F ISym2X=0 I1Cent= 0 IOpClX= 0 NMat=1 NMatS=1 NMatT=0.
 -------------------------------------------------------------------
 Center     Atomic                   Forces (Hartrees/Bohr)
 Number     Number              X              Y              Z
 -------------------------------------------------------------------
      1        3          -0.000000000    0.000000000   -1.171158801
      2        9           0.000000000   -0.000000000    1.171158801
 -------------------------------------------------------------------
 Cartesian Forces:  Max     1.171158801 RMS     0.676168849

 GradGradGradGradGradGradGradGradGradGradGradGradGradGradGradGradGradGrad
 Berny optimization.
 Search for a local minimum.
 Step number   1 out of a maximum of    2
 All quantities printed in internal units (Hartrees-Bohrs-Radians)
 Second derivative matrix not updated -- first step.
 The second derivative matrix:
                          X1        Y1        Z1        X2        Y2
           X1           1.00000
           Y1           0.00000   1.00000
           Z1           0.00000   0.00000   3.32740
           X2           0.00000   0.00000   0.00000   1.00000
           Y2           0.00000   0.00000   0.00000   0.00000   1.00000
           Z2           0.00000   0.00000  -3.32740   0.00000   0.00000
                          Z2
           Z2           3.32740
 ITU=  0
     Eigenvalues ---    6.20901
 Angle between quadratic step and forces=  15.00 degrees.
 Linear search not attempted -- first point.
 B after Tr=     0.000000    0.000000    0.047156
         Rot=    1.000000    0.000000    0.000000    0.000000 Ang=   0.00 deg.
 Variable       Old X    -DE/DX   Delta X   Delta X   Delta X     New X
                                 (Linear)    (Quad)   (Total)
    X1        0.00000  -0.00000   0.00000   0.00000   0.00000   0.00000
    Y1        0.00000   0.00000   0.00000   0.00000   0.00000   0.00000
    Z1        0.00000  -1.17116   0.00000  -0.22314  -0.17599  -0.17599
    X2        0.00000   0.00000   0.00000   0.00000   0.00000   0.00000
    Y2        0.00000  -0.00000   0.00000   0.00000   0.00000   0.00000
    Z2        1.88973   1.17116   0.00000   0.12883   0.17599   2.06571
         Item               Value     Threshold  Converged?
 Maximum Force            1.171159     0.000450     NO 
 RMS     Force            0.676169     0.000300     NO 
 Maximum Displacement     0.175987     0.001800     NO 
 RMS     Displacement     0.101606     0.001200     NO 
 Predicted change in Energy=-2.061089D-01
 GradGradGradGradGradGradGradGradGradGradGradGradGradGradGradGradGradGrad

 Unable to Open any file for archive entry.
 1\1\GINC-BHD0001\Force\RBLYP\3-21G\F1Li1\BWEIGHT\29-Dec-2022\0\\# BLYP
 /3-21G SCF=XQC FORCE nosym pop=full\\MD Step 0\\0,1\Li,0.,0.,0.\F,0.,0
 .,1.\\Version=ES64L-G16RevC.01\HF=-106.4601655\RMSD=1.399e-10\RMSF=6.7
 62e-01\Dipole=0.,0.,-1.2354708\Quadrupole=0.7087599,0.7087599,-1.41751
 97,0.,0.,0.\PG=C*V [C*(Li1F1)]\\@
 The archive entry for this job was punched.


 IF NO USE IS MADE OF THE LABOR OF PAST AGES,
 THE WORLD MUST REMAIN ALWAYS IN THE INFANCY OF KNOWLEDGE.

                          -- CICERO
 Job cpu time:       0 days  0 hours  0 minutes  4.0 seconds.
 Elapsed time:       0 days  0 hours  0 minutes  4.4 seconds.
 File lengths (MBytes):  RWF=    272 Int=      0 D2E=      0 Chk=     32 Scr=     32
 Normal termination of Gaussian 16 at Thu Dec 29 19:35:40 2022.
