 Entering Gaussian System, Link 0=g16
 Initial command:
 /software/gaussian/g16-c01/avx2/g16/l1.exe "/gpfs/fs2/scratch/bweight/software/many_molecule_many_mode_NAMD/src/NAMD/TEST_NVT/TRAJ/traj-68/G16/GS_NEW/Gau-7673.inp" -scrdir="/gpfs/fs2/scratch/bweight/software/many_molecule_many_mode_NAMD/src/NAMD/TEST_NVT/TRAJ/traj-68/G16/GS_NEW/"
 Entering Link 1 = /software/gaussian/g16-c01/avx2/g16/l1.exe PID=      7674.
  
 Copyright (c) 1988-2019, Gaussian, Inc.  All Rights Reserved.
  
 This is part of the Gaussian(R) 16 program.  It is based on
 the Gaussian(R) 09 system (copyright 2009, Gaussian, Inc.),
 the Gaussian(R) 03 system (copyright 2003, Gaussian, Inc.),
 the Gaussian(R) 98 system (copyright 1998, Gaussian, Inc.),
 the Gaussian(R) 94 system (copyright 1995, Gaussian, Inc.),
 the Gaussian 92(TM) system (copyright 1992, Gaussian, Inc.),
 the Gaussian 90(TM) system (copyright 1990, Gaussian, Inc.),
 the Gaussian 88(TM) system (copyright 1988, Gaussian, Inc.),
 the Gaussian 86(TM) system (copyright 1986, Carnegie Mellon
 University), and the Gaussian 82(TM) system (copyright 1983,
 Carnegie Mellon University). Gaussian is a federally registered
 trademark of Gaussian, Inc.
  
 This software contains proprietary and confidential information,
 including trade secrets, belonging to Gaussian, Inc.
  
 This software is provided under written license and may be
 used, copied, transmitted, or stored only in accord with that
 written license.
  
 The following legend is applicable only to US Government
 contracts under FAR:
  
                    RESTRICTED RIGHTS LEGEND
  
 Use, reproduction and disclosure by the US Government is
 subject to restrictions as set forth in subparagraphs (a)
 and (c) of the Commercial Computer Software - Restricted
 Rights clause in FAR 52.227-19.
  
 Gaussian, Inc.
 340 Quinnipiac St., Bldg. 40, Wallingford CT 06492
  
  
 ---------------------------------------------------------------
 Warning -- This program may not be used in any manner that
 competes with the business of Gaussian, Inc. or will provide
 assistance to any competitor of Gaussian, Inc.  The licensee
 of this program is prohibited from giving any competitor of
 Gaussian, Inc. access to this program.  By using this program,
 the user acknowledges that Gaussian, Inc. is engaged in the
 business of creating and licensing software in the field of
 computational chemistry and represents and warrants to the
 licensee that it is not a competitor of Gaussian, Inc. and that
 it will not use this program in any manner prohibited above.
 ---------------------------------------------------------------
  

 Cite this work as:
 Gaussian 16, Revision C.01,
 M. J. Frisch, G. W. Trucks, H. B. Schlegel, G. E. Scuseria, 
 M. A. Robb, J. R. Cheeseman, G. Scalmani, V. Barone, 
 G. A. Petersson, H. Nakatsuji, X. Li, M. Caricato, A. V. Marenich, 
 J. Bloino, B. G. Janesko, R. Gomperts, B. Mennucci, H. P. Hratchian, 
 J. V. Ortiz, A. F. Izmaylov, J. L. Sonnenberg, D. Williams-Young, 
 F. Ding, F. Lipparini, F. Egidi, J. Goings, B. Peng, A. Petrone, 
 T. Henderson, D. Ranasinghe, V. G. Zakrzewski, J. Gao, N. Rega, 
 G. Zheng, W. Liang, M. Hada, M. Ehara, K. Toyota, R. Fukuda, 
 J. Hasegawa, M. Ishida, T. Nakajima, Y. Honda, O. Kitao, H. Nakai, 
 T. Vreven, K. Throssell, J. A. Montgomery, Jr., J. E. Peralta, 
 F. Ogliaro, M. J. Bearpark, J. J. Heyd, E. N. Brothers, K. N. Kudin, 
 V. N. Staroverov, T. A. Keith, R. Kobayashi, J. Normand, 
 K. Raghavachari, A. P. Rendell, J. C. Burant, S. S. Iyengar, 
 J. Tomasi, M. Cossi, J. M. Millam, M. Klene, C. Adamo, R. Cammi, 
 J. W. Ochterski, R. L. Martin, K. Morokuma, O. Farkas, 
 J. B. Foresman, and D. J. Fox, Gaussian, Inc., Wallingford CT, 2019.
 
 ******************************************
 Gaussian 16:  ES64L-G16RevC.01  3-Jul-2019
                11-Jan-2023 
 ******************************************
 %oldchk=../GS_OLD/geometry.chk
 %chk=geometry.chk
 %nprocshared=4
 Will use up to    4 processors via shared memory.
 %mem=5GB
 Copying data from "../GS_OLD/geometry.chk" to current chk file "geometry.chk"
 IOpt=  2 FromEx=T IUOpen= 4 IOptOp= 5 NList=   0 IFRang= 0 IUIn= 4 IUOut= 2.
 -------------------------------------------------------
 # WB97XD/6-311G SCF=XQC FORCE nosym pop=full guess=read
 -------------------------------------------------------
 1/10=7,30=1,38=1/1,3;
 2/12=2,15=1,17=6,18=5,40=1/2;
 3/5=4,6=6,11=2,25=1,30=1,71=1,74=-58,116=-2/1,2,3;
 4/5=1/1;
 5/5=2,8=3,13=1,38=6/2,8;
 6/7=3,28=1/1;
 7/29=1,30=1/1,2,3,16;
 1/10=7,30=1/3;
 99//99;
 ------------
 MD Step 1000
 ------------
 Symbolic Z-matrix:
 Charge =  0 Multiplicity = 1
 C                    -0.33467  -0.57931   0.00443 
 H                     0.20315  -1.53563  -0.01308 
 H                    -1.4205   -0.60198  -0.01356 
 C                     0.33395   0.57866   0.00392 
 H                    -0.1727    1.55691  -0.01436 
 H                     1.443     0.63288  -0.01409 
 

 GradGradGradGradGradGradGradGradGradGradGradGradGradGradGradGradGradGrad
 Berny optimization.
 Initialization pass.
 Trust Radius=3.00D-01 FncErr=1.00D-07 GrdErr=1.00D-07 EigMax=2.50D+02 EigMin=1.00D-04
 Number of steps in this run=      2 maximum allowed number of steps=      2.
 GradGradGradGradGradGradGradGradGradGradGradGradGradGradGradGradGradGrad

                          Input orientation:                          
 ---------------------------------------------------------------------
 Center     Atomic      Atomic             Coordinates (Angstroms)
 Number     Number       Type             X           Y           Z
 ---------------------------------------------------------------------
      1          6           0       -0.334667   -0.579314    0.004425
      2          1           0        0.203149   -1.535631   -0.013076
      3          1           0       -1.420503   -0.601979   -0.013557
      4          6           0        0.333951    0.578663    0.003924
      5          1           0       -0.172704    1.556909   -0.014361
      6          1           0        1.442996    0.632875   -0.014088
 ---------------------------------------------------------------------
                    Distance matrix (angstroms):
                    1          2          3          4          5
     1  C    0.000000
     2  H    1.097312   0.000000
     3  H    1.086221   1.872953   0.000000
     4  C    1.337147   2.118404   2.114789   0.000000
     5  H    2.142437   3.115297   2.493552   1.101817   0.000000
     6  H    2.151705   2.497928   3.118412   1.110515   1.861270
                    6
     6  H    0.000000
 Symmetry turned off by external request.
 Stoichiometry    C2H4
 Framework group  C1[X(C2H4)]
 Deg. of freedom    12
 Full point group                 C1      NOp   1
 Rotational constants (GHZ):         143.7939845          29.7150965          24.6287668
 Standard basis: 6-311G (5D, 7F)
    38 basis functions,    72 primitive gaussians,    38 cartesian basis functions
     8 alpha electrons        8 beta electrons
       nuclear repulsion energy        33.0925364002 Hartrees.
 NAtoms=    6 NActive=    6 NUniq=    6 SFac= 1.00D+00 NAtFMM=   60 NAOKFM=F Big=F
 Integral buffers will be    131072 words long.
 Raffenetti 2 integral format.
 Two-electron integral symmetry is turned off.
 Nuclear repulsion after empirical dispersion term =       33.0916968166 Hartrees.
 One-electron integrals computed using PRISM.
 NBasis=    38 RedAO= T EigKep=  6.42D-03  NBF=    38
 NBsUse=    38 1.00D-06 EigRej= -1.00D+00 NBFU=    38
 Initial guess from the checkpoint file:  "geometry.chk"
 B after Tr=    -0.000279   -0.000379   -0.000402
         Rot=    1.000000   -0.000002    0.000002    0.000006 Ang=  -0.00 deg.
 Keep R1 ints in memory in canonical form, NReq=4036876.
 Requested convergence on RMS density matrix=1.00D-08 within  32 cycles.
 Requested convergence on MAX density matrix=1.00D-06.
 Requested convergence on             energy=1.00D-06.
 No special actions if energy rises.
 SCF Done:  E(RwB97XD) =  -78.5564613412     A.U. after    8 cycles
            NFock=  8  Conv=0.47D-08     -V/T= 2.0051
 QCSCF skips out because SCF is already converged.

 **********************************************************************

            Population analysis using the SCF Density.

 **********************************************************************

 Alpha  occ. eigenvalues --  -10.28995 -10.28756  -0.86391  -0.67251  -0.55915
 Alpha  occ. eigenvalues --   -0.50989  -0.43689  -0.35696
 Alpha virt. eigenvalues --    0.08019   0.14124   0.16489   0.17037   0.24100
 Alpha virt. eigenvalues --    0.37750   0.39321   0.39614   0.46448   0.48816
 Alpha virt. eigenvalues --    0.49374   0.59123   0.66581   0.69161   0.77326
 Alpha virt. eigenvalues --    0.77613   0.84467   0.95302   2.23184   2.28949
 Alpha virt. eigenvalues --    2.33312   2.40819   2.67143   2.81828   2.87829
 Alpha virt. eigenvalues --    2.95211   3.14102   3.32070  23.35277  23.70698
     Molecular Orbital Coefficients:
                           1         2         3         4         5
                           O         O         O         O         O
     Eigenvalues --   -10.28995 -10.28756  -0.86391  -0.67251  -0.55915
   1 1   C  1S          0.10612   0.55331  -0.08828   0.06693  -0.00038
   2        2S          0.08754   0.45536  -0.13950   0.10723  -0.00062
   3        2PX         0.00016  -0.00002   0.02597   0.03772   0.13505
   4        2PY         0.00028  -0.00003   0.04629   0.06237  -0.07267
   5        2PZ         0.00000  -0.00000  -0.00071   0.00112   0.00011
   6        3S          0.00189   0.01451   0.37399  -0.29265   0.00174
   7        3PX        -0.00061   0.00043   0.03387   0.06035   0.21121
   8        3PY        -0.00104   0.00077   0.06008   0.10078  -0.11440
   9        3PZ        -0.00001  -0.00002  -0.00118   0.00199   0.00016
  10        4S          0.00322  -0.01470   0.19109  -0.22794   0.00126
  11        4PX         0.00149  -0.00154   0.00477   0.02432   0.11045
  12        4PY         0.00256  -0.00266   0.00860   0.04186  -0.06066
  13        4PZ         0.00000   0.00004  -0.00043   0.00100   0.00008
  14 2   H  1S         -0.00005  -0.00006   0.05209  -0.08889   0.09951
  15        2S         -0.00030   0.00011   0.05326  -0.10656   0.12583
  16        3S          0.00083   0.00167  -0.00154  -0.01547   0.04070
  17 3   H  1S         -0.00006  -0.00007   0.05339  -0.09210  -0.10242
  18        2S         -0.00030   0.00009   0.05407  -0.10964  -0.12862
  19        3S          0.00085   0.00170  -0.00157  -0.01629  -0.04155
  20 4   C  1S          0.55330  -0.10631  -0.08705  -0.06827  -0.00020
  21        2S          0.45541  -0.08729  -0.13748  -0.10945  -0.00031
  22        2PX        -0.00003  -0.00016  -0.02764   0.03621   0.12107
  23        2PY        -0.00004  -0.00028  -0.04668   0.06474  -0.07516
  24        2PZ        -0.00000   0.00000  -0.00062  -0.00113   0.00010
  25        3S          0.01405  -0.00360   0.36841   0.29896   0.00085
  26        3PX        -0.00021   0.00073  -0.03503   0.05891   0.18984
  27        3PY        -0.00033   0.00126  -0.05906   0.10469  -0.11686
  28        3PZ        -0.00002  -0.00000  -0.00106  -0.00204   0.00015
  29        4S         -0.01227   0.00847   0.18925   0.23569  -0.00014
  30        4PX         0.00088  -0.00192  -0.00540   0.02549   0.10322
  31        4PY         0.00149  -0.00335  -0.00904   0.04402  -0.06280
  32        4PZ         0.00004  -0.00001  -0.00042  -0.00104   0.00008
  33 5   H  1S         -0.00007  -0.00004   0.05044   0.09253  -0.09287
  34        2S         -0.00002  -0.00031   0.05153   0.11065  -0.11723
  35        3S          0.00182   0.00014  -0.00124   0.01653  -0.03764
  36 6   H  1S         -0.00005  -0.00004   0.04927   0.09065   0.08893
  37        2S         -0.00003  -0.00032   0.05085   0.10895   0.11273
  38        3S          0.00178   0.00013  -0.00131   0.01597   0.03649
                           6         7         8         9        10
                           O         O         O         V         V
     Eigenvalues --    -0.50989  -0.43689  -0.35696   0.08019   0.14124
   1 1   C  1S         -0.00500   0.00016  -0.00053   0.00150  -0.03317
   2        2S         -0.00766   0.00027  -0.00087   0.00249  -0.05320
   3        2PX         0.09417  -0.11395  -0.00193   0.00085  -0.03157
   4        2PY         0.16735   0.06757  -0.00325   0.00141  -0.06391
   5        2PZ         0.00289  -0.00002   0.17938  -0.18908  -0.00133
   6        3S          0.02681  -0.00059   0.00254  -0.00755   0.11565
   7        3PX         0.13704  -0.18156  -0.00272   0.00130  -0.03718
   8        3PY         0.24492   0.10818  -0.00458   0.00213  -0.07873
   9        3PZ         0.00458  -0.00002   0.28831  -0.27813  -0.00210
  10        4S         -0.04540  -0.00296   0.00380  -0.00823   1.21130
  11        4PX         0.06941  -0.11289  -0.00219   0.00712  -0.20060
  12        4PY         0.12500   0.06782  -0.00371   0.01199  -0.39212
  13        4PZ         0.00261   0.00001   0.26708  -0.69672  -0.00790
  14 2   H  1S         -0.07982  -0.11743   0.00008   0.00232  -0.01547
  15        2S         -0.10982  -0.18161   0.00112   0.00368  -0.04510
  16        3S         -0.04102  -0.08430   0.00066   0.00967  -0.83143
  17 3   H  1S         -0.07840   0.11519   0.00008   0.00235  -0.01196
  18        2S         -0.10722   0.17739   0.00114   0.00377  -0.03690
  19        3S         -0.03973   0.08212   0.00067   0.00962  -0.77445
  20 4   C  1S         -0.00706  -0.00043  -0.00048  -0.00150  -0.03637
  21        2S         -0.01098  -0.00071  -0.00078  -0.00249  -0.05841
  22        2PX        -0.09863   0.12218   0.00189   0.00095   0.04059
  23        2PY        -0.16333  -0.07200   0.00336   0.00166   0.06182
  24        2PZ         0.00298   0.00007   0.17930   0.18944  -0.00174
  25        3S          0.03634   0.00202   0.00231   0.00748   0.12882
  26        3PX        -0.14558   0.19583   0.00264   0.00144   0.04979
  27        3PY        -0.23945  -0.11465   0.00472   0.00253   0.07347
  28        3PZ         0.00471   0.00009   0.28722   0.27792  -0.00265
  29        4S         -0.03670   0.00272   0.00376   0.00872   1.25873
  30        4PX        -0.07550   0.12414   0.00206   0.00735   0.25799
  31        4PY        -0.12288  -0.07206   0.00375   0.01283   0.40585
  32        4PZ         0.00271   0.00005   0.26710   0.69752  -0.01018
  33 5   H  1S         -0.07555  -0.12282   0.00010  -0.00228  -0.01313
  34        2S         -0.10346  -0.19105   0.00115  -0.00376  -0.03866
  35        3S         -0.03850  -0.08944   0.00065  -0.00992  -0.82705
  36 6   H  1S         -0.08091   0.12239   0.00010  -0.00230  -0.01641
  37        2S         -0.11117   0.19134   0.00116  -0.00384  -0.04700
  38        3S         -0.04151   0.08963   0.00065  -0.01020  -0.88567
                          11        12        13        14        15
                           V         V         V         V         V
     Eigenvalues --     0.16489   0.17037   0.24100   0.37750   0.39321
   1 1   C  1S          0.00121  -0.04519   0.00007   0.01315   0.00253
   2        2S          0.00196  -0.07363   0.00011   0.01930   0.00437
   3        2PX         0.09769  -0.02008   0.10018  -0.03913  -0.02648
   4        2PY        -0.05408  -0.03857  -0.05737  -0.07111   0.00723
   5        2PZ         0.00009  -0.00371   0.00001  -0.00264  -0.00007
   6        3S         -0.00424   0.16553   0.00022   0.02031  -0.00894
   7        3PX         0.13980  -0.01180   0.10728  -0.05818  -0.11542
   8        3PY        -0.07852  -0.02636  -0.06235  -0.11088   0.03362
   9        3PZ         0.00012  -0.00513  -0.00000  -0.00502   0.00021
  10        4S         -0.05262   1.43662  -0.01998  -3.04363  -0.37734
  11        4PX         0.57266  -0.11755   1.16420  -1.62118  -0.52558
  12        4PY        -0.30798  -0.21562  -0.66676  -2.82843   0.17966
  13        4PZ         0.00066  -0.02433   0.00038  -0.02444  -0.00092
  14 2   H  1S         -0.02971  -0.02499   0.01201  -0.04821   0.08101
  15        2S         -0.07785  -0.01759  -0.02580  -0.55971   0.85302
  16        3S         -1.02152  -1.01269  -1.54884  -0.39021  -0.37364
  17 3   H  1S          0.02925  -0.02444  -0.01385  -0.04087  -0.07318
  18        2S          0.07712  -0.01946   0.02079  -0.50063  -0.70314
  19        3S          1.09097  -1.00674   1.57627  -0.45978   0.26241
  20 4   C  1S          0.00097   0.04262  -0.00011  -0.01931   0.00063
  21        2S          0.00154   0.06942  -0.00019  -0.03109   0.00154
  22        2PX         0.10072  -0.02232  -0.09979  -0.04298  -0.02999
  23        2PY        -0.06048  -0.03678   0.05719  -0.07659   0.01220
  24        2PZ         0.00005   0.00363   0.00000   0.00222   0.00037
  25        3S         -0.00296  -0.15502   0.00031   0.02767  -0.01215
  26        3PX         0.14481  -0.01672  -0.11158  -0.08965  -0.10208
  27        3PY        -0.08609  -0.02578   0.06281  -0.16342   0.06624
  28        3PZ         0.00008   0.00501   0.00003   0.00321   0.00096
  29        4S         -0.04959  -1.34015   0.01396   3.48763   0.14543
  30        4PX         0.54774  -0.11463  -1.13396  -1.37197  -0.64141
  31        4PY        -0.33349  -0.19622   0.65553  -2.41613  -0.07054
  32        4PZ         0.00036   0.02370  -0.00030   0.02173   0.00307
  33 5   H  1S          0.03067   0.02494   0.00821   0.02011  -0.07294
  34        2S          0.07009   0.02156  -0.03174   0.19575  -0.68135
  35        3S          1.08190   0.94504  -1.52810   0.47484   0.44200
  36 6   H  1S         -0.03107   0.02535  -0.00689   0.01468   0.09050
  37        2S         -0.07100   0.01971   0.03323   0.14603   0.95263
  38        3S         -1.01688   0.94412   1.50994   0.48570  -0.41328
                          16        17        18        19        20
                           V         V         V         V         V
     Eigenvalues --     0.39614   0.46448   0.48816   0.49374   0.59123
   1 1   C  1S         -0.01506   0.01070  -0.04763   0.00027  -0.00033
   2        2S         -0.02731   0.02598  -0.08019   0.00061  -0.00059
   3        2PX         0.01626  -0.06089   0.01529   0.00060   0.00120
   4        2PY         0.03650  -0.10569   0.02129   0.00089   0.00182
   5        2PZ        -0.00033  -0.00041   0.00132  -0.15185  -0.19259
   6        3S          0.08004  -0.33403   0.11338  -0.00615  -0.00000
   7        3PX         0.07735  -0.24326  -0.01774   0.00080   0.00404
   8        3PY         0.17369  -0.42016  -0.04079   0.00086   0.00618
   9        3PZ        -0.00308  -0.00271   0.00655  -0.62871  -0.68504
  10        4S          1.95458   0.15203   3.19625   0.02131   0.03791
  11        4PX        -0.16023   0.22537   0.77830   0.00826   0.01198
  12        4PY        -0.12328   0.42379   1.35048   0.01543   0.02075
  13        4PZ        -0.00421  -0.00106  -0.04237   0.68754   1.24100
  14 2   H  1S         -0.02427  -0.03857  -0.07600  -0.00069  -0.00094
  15        2S         -0.53047  -0.37080  -0.91827  -0.00477  -0.00646
  16        3S          0.16517   0.09409   0.63367   0.01046   0.01302
  17 3   H  1S         -0.04755  -0.04087  -0.07389  -0.00067  -0.00089
  18        2S         -0.76053  -0.39820  -0.89326  -0.00487  -0.00561
  19        3S          0.24121   0.09470   0.60156   0.01034   0.01266
  20 4   C  1S         -0.00560  -0.00056   0.05064   0.00119   0.00038
  21        2S         -0.01264   0.00687   0.08759   0.00218   0.00070
  22        2PX        -0.00202   0.05590   0.02483  -0.00024   0.00111
  23        2PY         0.00538   0.09671   0.04583  -0.00044   0.00210
  24        2PZ        -0.00166  -0.00079   0.00138  -0.15270   0.19230
  25        3S          0.08440  -0.29738  -0.21198  -0.00939  -0.00106
  26        3PX        -0.07034   0.23738   0.04066  -0.00058   0.00390
  27        3PY        -0.08551   0.41421   0.07409  -0.00118   0.00726
  28        3PZ        -0.00529  -0.00350   0.00440  -0.63129   0.68275
  29        4S         -0.06848   0.72760  -3.11455  -0.03267  -0.03518
  30        4PX         0.88460  -0.37019   0.67446   0.00347   0.01185
  31        4PY         1.73355  -0.61701   1.14820   0.00536   0.02061
  32        4PZ        -0.01466  -0.00779   0.02749   0.69226  -1.23834
  33 5   H  1S         -0.05814  -0.05972   0.06573   0.00067   0.00089
  34        2S         -0.92293  -0.60401   0.81167   0.01155   0.00411
  35        3S         -0.02021   0.24976  -0.56906  -0.00031  -0.01279
  36 6   H  1S         -0.03353  -0.05841   0.06612   0.00069   0.00091
  37        2S         -0.66447  -0.58531   0.80996   0.01136   0.00448
  38        3S         -0.12936   0.26336  -0.59039  -0.00069  -0.01289
                          21        22        23        24        25
                           V         V         V         V         V
     Eigenvalues --     0.66581   0.69161   0.77326   0.77613   0.84467
   1 1   C  1S          0.00075  -0.00043   0.05585   0.07004   0.00079
   2        2S          0.00155  -0.00097   0.11800   0.14936   0.00180
   3        2PX        -0.12929   0.19971  -0.01891   0.11507  -0.00704
   4        2PY         0.07532  -0.11947  -0.03296   0.18879   0.01148
   5        2PZ        -0.00004   0.00009   0.00050   0.00273   0.00007
   6        3S         -0.01202   0.01363  -0.81508  -1.30243  -0.01931
   7        3PX        -0.60715   0.70218  -0.15003   0.45460  -0.21649
   8        3PY         0.35049  -0.42026  -0.26088   0.73819   0.15438
   9        3PZ        -0.00021   0.00035   0.00179   0.00957   0.00029
  10        4S          0.01762  -0.06712   0.87391   2.44540  -0.03077
  11        4PX         1.12274  -0.81801   0.12654  -0.75223   4.43995
  12        4PY        -0.65029   0.49353   0.16314  -1.03668  -2.54938
  13        4PZ         0.00030   0.00052   0.00350  -0.03110   0.00165
  14 2   H  1S          0.02175  -0.05887   0.01282   0.03138  -0.02652
  15        2S          0.10759  -0.61894   0.07983   0.08775  -1.53331
  16        3S         -1.02992   1.12641  -0.15578  -1.10409  -1.20730
  17 3   H  1S         -0.02107   0.05846   0.01274   0.03208   0.02939
  18        2S         -0.11815   0.64935   0.10042   0.06069   1.57034
  19        3S          1.02193  -1.09513  -0.14823  -1.23346   1.20790
  20 4   C  1S          0.00094  -0.00038   0.08585   0.02535   0.00059
  21        2S          0.00191  -0.00070   0.18268   0.05323   0.00119
  22        2PX        -0.15445  -0.18346  -0.09292   0.05785   0.01188
  23        2PY         0.08839   0.10218  -0.16725   0.10572  -0.00032
  24        2PZ        -0.00001  -0.00008   0.00275  -0.00072  -0.00010
  25        3S         -0.01402  -0.00086  -1.51492  -0.27270  -0.00574
  26        3PX        -0.69137  -0.61879  -0.33352   0.29746   0.24591
  27        3PY         0.39816   0.34245  -0.60519   0.54152  -0.10922
  28        3PZ        -0.00010  -0.00028   0.00971  -0.00262  -0.00031
  29        4S          0.01407   0.04373   2.67121  -0.06577   0.01579
  30        4PX         1.24835   0.71645   0.49815  -0.27001  -4.27733
  31        4PY        -0.71501  -0.39662   0.96546  -0.69969   2.43166
  32        4PZ         0.00009  -0.00048  -0.02798   0.01562  -0.00104
  33 5   H  1S         -0.02699  -0.05494   0.03474   0.00018  -0.02492
  34        2S         -0.17284  -0.57491   0.08099   0.07210  -1.46152
  35        3S          1.12946   0.96183  -1.14489   0.35794  -1.12979
  36 6   H  1S          0.02752   0.05482   0.03435   0.00077   0.02469
  37        2S          0.16597   0.54582   0.08118   0.02038   1.44755
  38        3S         -1.13284  -0.97717  -1.08181   0.28594   1.13773
                          26        27        28        29        30
                           V         V         V         V         V
     Eigenvalues --     0.95302   2.23184   2.28949   2.33312   2.40819
   1 1   C  1S          0.09535  -0.01072  -0.01419  -0.00028  -0.00043
   2        2S          0.19807   0.00033  -0.01464  -0.00071  -0.00049
   3        2PX        -0.09177  -0.09260  -0.13175  -0.33043  -0.41507
   4        2PY        -0.15902  -0.17062  -0.22748   0.18889   0.23601
   5        2PZ         0.00003  -0.00771  -0.00999   0.00003  -0.00037
   6        3S         -1.53249  -0.18021  -0.02853   0.00176  -0.00418
   7        3PX        -0.23520   0.09635   0.20923   0.39537   0.57756
   8        3PY        -0.40053   0.18926   0.37384  -0.22845  -0.33070
   9        3PZ        -0.00157   0.00779   0.01252  -0.00008   0.00041
  10        4S          5.71476  -0.13610  -0.89723   0.00263  -0.02051
  11        4PX         1.19618   0.04835  -0.18757   0.00302   0.96632
  12        4PY         1.98452   0.06139  -0.34890   0.00665  -0.53782
  13        4PZ        -0.00956   0.00212   0.00446   0.00011   0.00072
  14 2   H  1S          0.01582  -0.73433  -0.76199   0.69833   0.66877
  15        2S         -0.29487   1.05033   1.14786  -1.05533  -1.47519
  16        3S         -0.08817  -0.31690  -0.45567   0.47328   0.38393
  17 3   H  1S          0.01615  -0.72732  -0.76369  -0.68540  -0.68820
  18        2S         -0.26737   1.04203   1.15379   1.03915   1.51604
  19        3S         -0.07097  -0.29686  -0.44402  -0.46112  -0.37643
  20 4   C  1S         -0.09441  -0.01018   0.01266  -0.00045   0.00025
  21        2S         -0.19594   0.00069   0.01255  -0.00063   0.00046
  22        2PX        -0.09256   0.12159  -0.12962  -0.31864   0.41269
  23        2PY        -0.15974   0.21233  -0.21635   0.18463  -0.23666
  24        2PZ         0.00011  -0.00797   0.01002  -0.00014   0.00009
  25        3S          1.51484  -0.17307   0.02345  -0.00018   0.00006
  26        3PX        -0.22922  -0.15104   0.21943   0.39633  -0.57776
  27        3PY        -0.40115  -0.25924   0.36060  -0.22765   0.33139
  28        3PZ         0.00187   0.00844  -0.01272   0.00013  -0.00013
  29        4S         -5.69917  -0.14716   0.88856  -0.01614   0.00671
  30        4PX         1.11482  -0.01941  -0.20299  -0.06501  -0.89227
  31        4PY         2.00190  -0.04215  -0.32825   0.03738   0.52019
  32        4PZ         0.00780   0.00228  -0.00382   0.00009  -0.00057
  33 5   H  1S         -0.01758  -0.76733   0.70558  -0.71746   0.66949
  34        2S          0.28345   1.10836  -1.07254   1.06163  -1.45153
  35        3S          0.06195  -0.34061   0.41722  -0.50769   0.40261
  36 6   H  1S         -0.01757  -0.76020   0.72838   0.70247  -0.66776
  37        2S          0.30691   1.09590  -1.10211  -1.03629   1.44185
  38        3S          0.07093  -0.34128   0.44377   0.50315  -0.40940
                          31        32        33        34        35
                           V         V         V         V         V
     Eigenvalues --     2.67143   2.81828   2.87829   2.95211   3.14102
   1 1   C  1S          0.00028   0.00141  -0.01329   0.00002  -0.00916
   2        2S          0.00024   0.00419  -0.04518  -0.00022  -0.02812
   3        2PX         0.00320   0.04039  -0.45733  -0.74795   0.46553
   4        2PY         0.00510   0.07090  -0.82569   0.41932   0.81335
   5        2PZ        -0.92358  -0.93777  -0.07961  -0.00074   0.00464
   6        3S         -0.00103  -0.03520   0.40104   0.00375   0.23739
   7        3PX        -0.00259  -0.07097   0.82601   0.90155  -0.46481
   8        3PY        -0.00416  -0.12364   1.46418  -0.49230  -0.81040
   9        3PZ         0.93826   1.14665   0.10004   0.00102  -0.00595
  10        4S          0.00757   0.08018  -0.88564  -0.01170  -0.45816
  11        4PX        -0.00093   0.05785  -0.71812  -0.67620   0.25036
  12        4PY        -0.00102   0.10110  -1.27456   0.35971   0.43352
  13        4PZ        -0.33731  -0.62183  -0.06349  -0.00081   0.00399
  14 2   H  1S          0.00665  -0.01261   0.27385  -0.38564  -0.22591
  15        2S         -0.00771   0.00877  -0.23518   0.39490   0.17154
  16        3S         -0.00143   0.02295  -0.29822   0.26898   0.07621
  17 3   H  1S          0.00675  -0.01228   0.26330   0.38779  -0.22595
  18        2S         -0.00799   0.00796  -0.21703  -0.39288   0.17095
  19        3S         -0.00173   0.02331  -0.29976  -0.28544   0.08341
  20 4   C  1S          0.00028  -0.00141   0.01369   0.00052  -0.00782
  21        2S          0.00026  -0.00433   0.04754   0.00122  -0.02455
  22        2PX        -0.00390   0.03812  -0.42921  -0.78928  -0.48878
  23        2PY        -0.00688   0.06749  -0.76438   0.43711  -0.86641
  24        2PZ        -0.92607   0.93508   0.08057   0.00047   0.00639
  25        3S         -0.00141   0.03697  -0.42606  -0.00936   0.21130
  26        3PX         0.00391  -0.06844   0.79398   0.94149   0.50978
  27        3PY         0.00676  -0.12059   1.40430  -0.51367   0.91217
  28        3PZ         0.94158  -1.14406  -0.10141  -0.00057  -0.00805
  29        4S          0.00846  -0.08148   0.90760   0.02664  -0.40491
  30        4PX        -0.00012   0.05757  -0.71850  -0.69394  -0.29651
  31        4PY        -0.00059   0.10072  -1.25830   0.37342  -0.53592
  32        4PZ        -0.33907   0.62076   0.06459   0.00038   0.00607
  33 5   H  1S          0.00655   0.01467  -0.28823   0.40945  -0.25160
  34        2S         -0.00791  -0.01132   0.25550  -0.42219   0.19555
  35        3S         -0.00096  -0.02231   0.29099  -0.25152   0.11008
  36 6   H  1S          0.00666   0.01491  -0.28607  -0.41971  -0.24062
  37        2S         -0.00828  -0.01197   0.25923   0.43193   0.18659
  38        3S         -0.00078  -0.02126   0.27561   0.25299   0.10344
                          36        37        38
                           V         V         V
     Eigenvalues --     3.32070  23.35277  23.70698
   1 1   C  1S         -0.00037  -1.41891  -1.44747
   2        2S         -0.00052   1.51325   1.56531
   3        2PX         0.76947  -0.00661   0.01206
   4        2PY        -0.43068  -0.01087   0.02119
   5        2PZ         0.00047  -0.00031  -0.00012
   6        3S          0.00001  -0.29687  -0.39833
   7        3PX        -1.10168   0.02432  -0.05566
   8        3PY         0.61326   0.04051  -0.09694
   9        3PZ        -0.00072   0.00088   0.00036
  10        4S         -0.01065   0.27352   0.76910
  11        4PX         1.94555  -0.02657   0.13271
  12        4PY        -1.08507  -0.04510   0.22890
  13        4PZ         0.00118  -0.00146  -0.00160
  14 2   H  1S          0.54544   0.01342   0.00672
  15        2S         -0.85185   0.00766  -0.01476
  16        3S         -0.45831  -0.08391  -0.03920
  17 3   H  1S         -0.55629   0.01503   0.00781
  18        2S          0.86731   0.00731  -0.01487
  19        3S          0.48118  -0.08585  -0.03944
  20 4   C  1S          0.00014  -1.44268   1.42368
  21        2S         -0.00005   1.53871  -1.53969
  22        2PX        -0.72624   0.00593   0.01261
  23        2PY         0.41562   0.01071   0.02142
  24        2PZ        -0.00030  -0.00031   0.00009
  25        3S          0.00339  -0.30228   0.39223
  26        3PX         1.03360  -0.02203  -0.05666
  27        3PY        -0.59935  -0.03934  -0.09730
  28        3PZ         0.00047   0.00088  -0.00024
  29        4S         -0.01023   0.28082  -0.76247
  30        4PX        -1.82845   0.02282   0.13188
  31        4PY         1.06674   0.04205   0.22813
  32        4PZ        -0.00083  -0.00144   0.00135
  33 5   H  1S          0.50553   0.01340  -0.00527
  34        2S         -0.79148   0.00786   0.01382
  35        3S         -0.43989  -0.08362   0.03772
  36 6   H  1S         -0.50079   0.01210  -0.00417
  37        2S          0.78605   0.00897   0.01336
  38        3S          0.42983  -0.08186   0.03708
     Density Matrix:
                           1         2         3         4         5
   1 1   C  1S          0.65942
   2        2S          0.56154   0.49206
   3        2PX        -0.00060  -0.00082   0.08438
   4        2PY        -0.00139  -0.00195   0.00361   0.08779
   5        2PZ         0.00005   0.00008  -0.00007  -0.00014   0.06437
   6        3S         -0.08902  -0.15398   0.00299   0.00674  -0.00012
   7        3PX         0.00086   0.00132   0.13056   0.00131  -0.00004
   8        3PY         0.00119   0.00183   0.00132   0.13139  -0.00012
   9        3PZ         0.00010   0.00017  -0.00011  -0.00023   0.10347
  10        4S         -0.07938  -0.11433  -0.01482  -0.02654   0.00032
  11        4PX         0.00021   0.00148   0.07073  -0.00459  -0.00031
  12        4PY         0.00051   0.00281  -0.00467   0.06586  -0.00054
  13        4PZ        -0.00005  -0.00013  -0.00047  -0.00079   0.09583
  14 2   H  1S         -0.02049  -0.03262   0.03460  -0.06332  -0.00068
  15        2S         -0.02267  -0.03624   0.04941  -0.08796  -0.00051
  16        3S          0.00057  -0.00069   0.02123  -0.03311  -0.00002
  17 3   H  1S         -0.02095  -0.03333  -0.07286  -0.00233  -0.00073
  18        2S         -0.02296  -0.03667  -0.10083  -0.00190  -0.00057
  19        3S          0.00061  -0.00065  -0.03873   0.00166  -0.00003
  20 4   C  1S          0.00609   0.00981  -0.01077  -0.01865  -0.00024
  21        2S          0.00979   0.01529  -0.01723  -0.02984  -0.00039
  22        2PX         0.01047   0.01675  -0.01243  -0.03215   0.00025
  23        2PY         0.01825   0.02919  -0.03221  -0.04974   0.00046
  24        2PZ        -0.00026  -0.00043  -0.00024  -0.00037   0.06434
  25        3S         -0.02639  -0.04005   0.04830   0.08371   0.00119
  26        3PX         0.01620   0.02513  -0.01816  -0.04576   0.00032
  27        3PY         0.02821   0.04376  -0.04572  -0.07109   0.00061
  28        3PZ        -0.00045  -0.00072  -0.00041  -0.00065   0.10307
  29        4S          0.00527   0.00387   0.02002   0.03500   0.00139
  30        4PX         0.00314   0.00647  -0.01300  -0.02083   0.00038
  31        4PY         0.00535   0.01108  -0.02084  -0.03711   0.00073
  32        4PZ        -0.00038  -0.00061  -0.00061  -0.00100   0.09584
  33 5   H  1S          0.00422   0.00693  -0.00172  -0.01218  -0.00028
  34        2S          0.00643   0.01069   0.00341  -0.02484  -0.00003
  35        3S          0.00336   0.00493   0.00415  -0.01756   0.00005
  36 6   H  1S          0.00416   0.00685  -0.00971  -0.00759  -0.00029
  37        2S          0.00633   0.01054  -0.02324  -0.00944  -0.00004
  38        3S          0.00331   0.00486  -0.01725  -0.00522   0.00004
                           6         7         8         9        10
   6        3S          0.45291
   7        3PX        -0.00170   0.20229
   8        3PY        -0.00144  -0.00422   0.19714
   9        3PZ        -0.00034  -0.00008  -0.00018   0.16630
  10        4S          0.27352  -0.02544  -0.04621   0.00042   0.18156
  11        4PX        -0.00647   0.10994  -0.01021  -0.00050  -0.01458
  12        4PY        -0.01174  -0.01034   0.09928  -0.00087  -0.02763
  13        4PZ         0.00060  -0.00062  -0.00103   0.15403   0.00117
  14 2   H  1S          0.08719   0.05560  -0.09893  -0.00113   0.06862
  15        2S          0.09698   0.07974  -0.13696  -0.00086   0.08030
  16        3S          0.00600   0.03459  -0.05095  -0.00004   0.01075
  17 3   H  1S          0.08915  -0.11408  -0.00220  -0.00120   0.06857
  18        2S          0.09822  -0.15770  -0.00033  -0.00093   0.07901
  19        3S          0.00604  -0.06033   0.00433  -0.00005   0.00980
  20 4   C  1S         -0.02653  -0.01676  -0.02904  -0.00041   0.00518
  21        2S         -0.04018  -0.02603  -0.04512  -0.00067   0.00384
  22        2PX        -0.04688  -0.01777  -0.04562   0.00043  -0.01852
  23        2PY        -0.08173  -0.04574  -0.07098   0.00079  -0.03225
  24        2PZ         0.00127  -0.00032  -0.00049   0.10342   0.00137
  25        3S          0.10249   0.07059   0.12252   0.00198   0.00141
  26        3PX        -0.06802  -0.02609  -0.06474   0.00056  -0.02771
  27        3PY        -0.11850  -0.06475  -0.10140   0.00106  -0.04817
  28        3PZ         0.00211  -0.00056  -0.00087   0.16566   0.00228
  29        4S          0.00185   0.03016   0.05290   0.00232  -0.03210
  30        4PX        -0.02284  -0.01947  -0.02928   0.00064  -0.00723
  31        4PY        -0.03932  -0.02936  -0.05367   0.00121  -0.01196
  32        4PZ         0.00180  -0.00085  -0.00138   0.15404   0.00210
  33 5   H  1S         -0.02066  -0.00075  -0.01762  -0.00041  -0.01555
  34        2S         -0.03196   0.00834  -0.03671   0.00000  -0.02050
  35        3S         -0.01268   0.00793  -0.02642   0.00008  -0.00407
  36 6   H  1S         -0.02038  -0.01477  -0.00931  -0.00041  -0.01565
  37        2S         -0.03153  -0.03574  -0.01079  -0.00001  -0.02097
  38        3S         -0.01252  -0.02668  -0.00624   0.00007  -0.00444
                          11        12        13        14        15
  11        4PX         0.06077
  12        4PY        -0.00921   0.05152
  13        4PZ        -0.00075  -0.00126   0.14268
  14 2   H  1S          0.03359  -0.05450  -0.00058   0.08136
  15        2S          0.04887  -0.07537  -0.00022   0.10972   0.15013
  16        3S          0.02156  -0.02796   0.00011   0.03704   0.05300
  17 3   H  1S         -0.06349   0.00166  -0.00061  -0.01298  -0.02508
  18        2S         -0.08817   0.00459  -0.00023  -0.02501  -0.04412
  19        3S         -0.03405   0.00485   0.00012  -0.01848  -0.02825
  20 4   C  1S         -0.00311  -0.00562  -0.00036   0.00421   0.00658
  21        2S         -0.00644  -0.01153  -0.00058   0.00696   0.01098
  22        2PX        -0.01304  -0.02023   0.00061   0.00183  -0.00290
  23        2PY        -0.02033  -0.03689   0.00110   0.01165   0.02435
  24        2PZ        -0.00042  -0.00069   0.09579  -0.00031  -0.00008
  25        3S          0.02288   0.04070   0.00170  -0.02087  -0.03297
  26        3PX        -0.01997  -0.02856   0.00083   0.00091  -0.00766
  27        3PY        -0.02867  -0.05353   0.00151   0.01713   0.03624
  28        3PZ        -0.00070  -0.00115   0.15344  -0.00045  -0.00007
  29        4S          0.00745   0.01406   0.00212  -0.01699  -0.02302
  30        4PX        -0.01452  -0.01252   0.00078  -0.00165  -0.00853
  31        4PY        -0.01261  -0.02935   0.00144   0.01528   0.02702
  32        4PZ        -0.00084  -0.00140   0.14268  -0.00025   0.00018
  33 5   H  1S          0.00171  -0.01567  -0.00021   0.01123   0.02349
  34        2S          0.00875  -0.02741   0.00023   0.02375   0.04452
  35        3S          0.00733  -0.01582   0.00017   0.01659   0.02781
  36 6   H  1S         -0.01434  -0.00598  -0.00021  -0.00911  -0.01838
  37        2S         -0.02795  -0.00553   0.00023  -0.01882  -0.03451
  38        3S         -0.01717  -0.00133   0.00017  -0.01014  -0.01780
                          16        17        18        19        20
  16        3S          0.02138
  17 3   H  1S         -0.01864   0.08248
  18        2S         -0.02835   0.10999   0.14890
  19        3S         -0.01345   0.03649   0.05174   0.02064
  20 4   C  1S          0.00358   0.00428   0.00662   0.00359   0.65946
  21        2S          0.00527   0.00706   0.01102   0.00526   0.56155
  22        2PX        -0.00369   0.00919   0.02243   0.01675   0.00111
  23        2PY         0.01756   0.00751   0.00958   0.00544   0.00170
  24        2PZ         0.00003  -0.00030  -0.00005   0.00005   0.00005
  25        3S         -0.01362  -0.02114  -0.03301  -0.01351  -0.08916
  26        3PX        -0.00733   0.01446   0.03516   0.02615  -0.00052
  27        3PY         0.02642   0.00948   0.01140   0.00669  -0.00112
  28        3PZ         0.00005  -0.00044  -0.00003   0.00008   0.00010
  29        4S         -0.00532  -0.01680  -0.02233  -0.00489  -0.08000
  30        4PX        -0.00711   0.01402   0.02751   0.01699  -0.00024
  31        4PY         0.01578   0.00646   0.00632   0.00174  -0.00026
  32        4PZ         0.00016  -0.00024   0.00021   0.00018  -0.00003
  33 5   H  1S          0.01633  -0.00909  -0.01832  -0.00962  -0.02027
  34        2S          0.02758  -0.01866  -0.03413  -0.01718  -0.02237
  35        3S          0.01467  -0.01004  -0.01755  -0.00903   0.00058
  36 6   H  1S         -0.00972   0.01123   0.02335   0.01603  -0.02000
  37        2S         -0.01749   0.02378   0.04433   0.02718  -0.02233
  38        3S         -0.00922   0.01660   0.02767   0.01447   0.00048
                          21        22        23        24        25
  21        2S          0.49204
  22        2PX         0.00159   0.08278
  23        2PY         0.00240   0.00371   0.08778
  24        2PZ         0.00007   0.00008   0.00012   0.06432
  25        3S         -0.15411  -0.00517  -0.00796  -0.00009   0.45328
  26        3PX        -0.00078   0.12875   0.00174   0.00006  -0.00005
  27        3PY        -0.00171   0.00179   0.13140   0.00007   0.00101
  28        3PZ         0.00017   0.00013   0.00019   0.10304  -0.00033
  29        4S         -0.11548   0.01449   0.02449   0.00036   0.27732
  30        4PX        -0.00154   0.07237  -0.00491   0.00028   0.00650
  31        4PY        -0.00237  -0.00487   0.06653   0.00050   0.01042
  32        4PZ        -0.00010   0.00045   0.00080   0.09580   0.00050
  33 5   H  1S         -0.03228  -0.03368   0.06360  -0.00072   0.08634
  34        2S         -0.03574  -0.04949   0.08845  -0.00057   0.09565
  35        3S         -0.00065  -0.02211   0.03337  -0.00005   0.00580
  36 6   H  1S         -0.03189   0.07124   0.00258  -0.00068   0.08527
  37        2S         -0.03570   0.10106   0.00118  -0.00051   0.09550
  38        3S         -0.00078   0.04016  -0.00264  -0.00003   0.00605
                          26        27        28        29        30
  26        3PX         0.20058
  27        3PY        -0.00306   0.19722
  28        3PZ         0.00008   0.00010   0.16505
  29        4S          0.02624   0.04404   0.00045   0.18591
  30        4PX         0.11318  -0.01044   0.00043   0.01612   0.06490
  31        4PY        -0.01046   0.10036   0.00080   0.02591  -0.00993
  32        4PZ         0.00058   0.00103   0.15346   0.00116   0.00067
  33 5   H  1S         -0.05400   0.09947  -0.00119   0.06761  -0.03408
  34        2S         -0.07978   0.13784  -0.00095   0.07826  -0.05092
  35        3S         -0.03608   0.05136  -0.00008   0.00963  -0.02330
  36 6   H  1S          0.11249   0.00306  -0.00113   0.06796   0.06505
  37        2S          0.15939  -0.00017  -0.00086   0.07978   0.09257
  38        3S          0.06302  -0.00569  -0.00005   0.01052   0.03689
                          31        32        33        34        35
  31        4PY         0.05257
  32        4PZ         0.00123   0.14270
  33 5   H  1S          0.05517  -0.00062   0.08105
  34        2S          0.07651  -0.00026   0.11001   0.15169
  35        3S          0.02857   0.00009   0.03771   0.05450   0.02235
  36 6   H  1S         -0.00183  -0.00059  -0.01261  -0.02574  -0.01948
  37        2S         -0.00573  -0.00022  -0.02585  -0.04718  -0.03068
  38        3S         -0.00586   0.00010  -0.01970  -0.03081  -0.01504
                          36        37        38
  36 6   H  1S          0.08016
  37        2S          0.10964   0.15227
  38        3S          0.03791   0.05510   0.02270
    Full Mulliken population analysis:
                           1         2         3         4         5
   1 1   C  1S          0.65942
   2        2S          0.49329   0.49206
   3        2PX         0.00000   0.00000   0.08438
   4        2PY         0.00000   0.00000   0.00000   0.08779
   5        2PZ         0.00000   0.00000   0.00000   0.00000   0.06437
   6        3S         -0.02930  -0.06449   0.00000   0.00000   0.00000
   7        3PX         0.00000   0.00000   0.08213   0.00000   0.00000
   8        3PY         0.00000   0.00000   0.00000   0.08266   0.00000
   9        3PZ         0.00000   0.00000   0.00000   0.00000   0.06509
  10        4S         -0.01221  -0.02140   0.00000   0.00000   0.00000
  11        4PX         0.00000   0.00000   0.01558   0.00000   0.00000
  12        4PY         0.00000   0.00000   0.00000   0.01451   0.00000
  13        4PZ         0.00000   0.00000   0.00000   0.00000   0.02111
  14 2   H  1S         -0.00023  -0.00033   0.00175   0.00569   0.00000
  15        2S         -0.00165  -0.00316   0.00422   0.01335   0.00000
  16        3S          0.00005  -0.00007   0.00069   0.00193   0.00000
  17 3   H  1S         -0.00025  -0.00036   0.00788   0.00001   0.00000
  18        2S         -0.00172  -0.00329   0.01778   0.00001   0.00000
  19        3S          0.00005  -0.00006   0.00258  -0.00000   0.00000
  20 4   C  1S          0.00000   0.00000  -0.00002  -0.00006   0.00000
  21        2S          0.00000  -0.00000  -0.00002  -0.00005   0.00000
  22        2PX        -0.00002  -0.00002   0.00011   0.00086   0.00000
  23        2PY        -0.00006  -0.00005   0.00086   0.00198   0.00000
  24        2PZ        -0.00000  -0.00000  -0.00000  -0.00000   0.00042
  25        3S         -0.00059  -0.00100   0.00253   0.00758  -0.00000
  26        3PX        -0.00055  -0.00101   0.00019   0.00554   0.00000
  27        3PY        -0.00166  -0.00304   0.00554   0.01068   0.00000
  28        3PZ        -0.00000  -0.00000  -0.00000  -0.00000   0.00614
  29        4S          0.00033   0.00029   0.00091   0.00275  -0.00000
  30        4PX        -0.00018  -0.00046  -0.00070   0.00144   0.00000
  31        4PY        -0.00054  -0.00136   0.00144   0.00096   0.00000
  32        4PZ        -0.00000  -0.00000  -0.00000  -0.00000   0.00903
  33 5   H  1S          0.00000   0.00000  -0.00000  -0.00000   0.00000
  34        2S          0.00001   0.00002   0.00000  -0.00033   0.00000
  35        3S          0.00008   0.00014   0.00001  -0.00071  -0.00000
  36 6   H  1S          0.00000   0.00000  -0.00000  -0.00000   0.00000
  37        2S          0.00001   0.00002  -0.00024  -0.00007   0.00000
  38        3S          0.00008   0.00013  -0.00057  -0.00012  -0.00000
                           6         7         8         9        10
   6        3S          0.45291
   7        3PX         0.00000   0.20229
   8        3PY         0.00000   0.00000   0.19714
   9        3PZ         0.00000   0.00000   0.00000   0.16630
  10        4S          0.21189   0.00000   0.00000   0.00000   0.18156
  11        4PX         0.00000   0.07184   0.00000   0.00000   0.00000
  12        4PY         0.00000   0.00000   0.06488   0.00000   0.00000
  13        4PZ         0.00000   0.00000   0.00000   0.10065   0.00000
  14 2   H  1S          0.01600   0.01038   0.03283   0.00001   0.01814
  15        2S          0.04079   0.01909   0.05829   0.00001   0.04627
  16        3S          0.00276   0.00395   0.01034   0.00000   0.00811
  17 3   H  1S          0.01686   0.04431   0.00002   0.00001   0.01834
  18        2S          0.04202   0.07751   0.00000   0.00001   0.04593
  19        3S          0.00280   0.01400  -0.00002   0.00000   0.00744
  20 4   C  1S         -0.00060  -0.00057  -0.00171   0.00000   0.00033
  21        2S         -0.00101  -0.00105  -0.00314   0.00000   0.00029
  22        2PX         0.00245   0.00019   0.00553   0.00000   0.00084
  23        2PY         0.00740   0.00554   0.01067   0.00000   0.00254
  24        2PZ         0.00000  -0.00000  -0.00000   0.00616   0.00000
  25        3S          0.02190   0.01325   0.03983  -0.00000   0.00054
  26        3PX         0.01277  -0.00127   0.01849   0.00000   0.00427
  27        3PY         0.03852   0.01849   0.02849   0.00000   0.01286
  28        3PZ         0.00000  -0.00000  -0.00000   0.03539   0.00000
  29        4S          0.00070   0.00465   0.01413  -0.00000  -0.02017
  30        4PX         0.00642  -0.00400   0.00579   0.00000   0.00219
  31        4PY         0.01914   0.00581   0.00123   0.00000   0.00627
  32        4PZ         0.00000  -0.00000  -0.00000   0.04927   0.00000
  33 5   H  1S         -0.00006  -0.00000  -0.00020   0.00000  -0.00085
  34        2S         -0.00128   0.00006  -0.00332  -0.00000  -0.00350
  35        3S         -0.00210   0.00010  -0.00430  -0.00000  -0.00148
  36 6   H  1S         -0.00005  -0.00013  -0.00006   0.00000  -0.00084
  37        2S         -0.00123  -0.00261  -0.00054   0.00000  -0.00353
  38        3S         -0.00204  -0.00357  -0.00057  -0.00000  -0.00160
                          11        12        13        14        15
  11        4PX         0.06077
  12        4PY         0.00000   0.05152
  13        4PZ         0.00000   0.00000   0.14268
  14 2   H  1S          0.00616   0.01778   0.00000   0.08136
  15        2S          0.01510   0.04140   0.00000   0.07750   0.15013
  16        3S          0.00522   0.01204  -0.00000   0.01384   0.04182
  17 3   H  1S          0.02379  -0.00001   0.00000  -0.00001  -0.00070
  18        2S          0.05547  -0.00006   0.00000  -0.00070  -0.00573
  19        3S          0.01673  -0.00005  -0.00000  -0.00210  -0.00838
  20 4   C  1S         -0.00018  -0.00057   0.00000   0.00000   0.00002
  21        2S         -0.00046  -0.00142   0.00000   0.00000   0.00003
  22        2PX        -0.00071   0.00140   0.00000  -0.00000   0.00000
  23        2PY         0.00141   0.00095   0.00000  -0.00000  -0.00035
  24        2PZ        -0.00000  -0.00000   0.00902   0.00000   0.00000
  25        3S          0.00643   0.01981  -0.00000  -0.00007  -0.00142
  26        3PX        -0.00411   0.00565   0.00000  -0.00000   0.00005
  27        3PY         0.00567   0.00123   0.00000  -0.00022  -0.00348
  28        3PZ        -0.00000  -0.00000   0.04908   0.00000   0.00000
  29        4S          0.00226   0.00738  -0.00000  -0.00098  -0.00408
  30        4PX        -0.00700   0.00317   0.00000   0.00002   0.00020
  31        4PY         0.00319  -0.00558   0.00000  -0.00239  -0.01008
  32        4PZ        -0.00000  -0.00000   0.08964   0.00000  -0.00000
  33 5   H  1S          0.00002  -0.00236   0.00000   0.00000   0.00000
  34        2S          0.00024  -0.00996  -0.00000   0.00000   0.00016
  35        3S          0.00026  -0.00735  -0.00000   0.00023   0.00146
  36 6   H  1S         -0.00177  -0.00050   0.00000  -0.00000  -0.00004
  37        2S         -0.00833  -0.00112  -0.00000  -0.00004  -0.00091
  38        3S         -0.00658  -0.00035  -0.00000  -0.00046  -0.00246
                          16        17        18        19        20
  16        3S          0.02138
  17 3   H  1S         -0.00212   0.08248
  18        2S         -0.00841   0.07770   0.14890
  19        3S         -0.00707   0.01364   0.04082   0.02064
  20 4   C  1S          0.00009   0.00000   0.00002   0.00009   0.65946
  21        2S          0.00015   0.00000   0.00003   0.00015   0.49329
  22        2PX         0.00001  -0.00000  -0.00027  -0.00058   0.00000
  23        2PY        -0.00073  -0.00000  -0.00008  -0.00013   0.00000
  24        2PZ        -0.00000   0.00000   0.00000  -0.00000   0.00000
  25        3S         -0.00232  -0.00007  -0.00143  -0.00231  -0.02935
  26        3PX         0.00008  -0.00015  -0.00283  -0.00362   0.00000
  27        3PY        -0.00439  -0.00007  -0.00062  -0.00062   0.00000
  28        3PZ        -0.00000   0.00000   0.00000  -0.00000   0.00000
  29        4S         -0.00198  -0.00097  -0.00398  -0.00183  -0.01230
  30        4PX         0.00021  -0.00183  -0.00857  -0.00664   0.00000
  31        4PY        -0.00741  -0.00057  -0.00132  -0.00046   0.00000
  32        4PZ        -0.00000   0.00000  -0.00000  -0.00000   0.00000
  33 5   H  1S          0.00023  -0.00000  -0.00004  -0.00044  -0.00022
  34        2S          0.00145  -0.00004  -0.00092  -0.00239  -0.00161
  35        3S          0.00247  -0.00046  -0.00244  -0.00289   0.00005
  36 6   H  1S         -0.00044   0.00000   0.00000   0.00022  -0.00021
  37        2S         -0.00242   0.00000   0.00015   0.00142  -0.00158
  38        3S         -0.00294   0.00023   0.00145   0.00243   0.00004
                          21        22        23        24        25
  21        2S          0.49204
  22        2PX         0.00000   0.08278
  23        2PY         0.00000   0.00000   0.08778
  24        2PZ         0.00000   0.00000   0.00000   0.06432
  25        3S         -0.06454   0.00000   0.00000   0.00000   0.45328
  26        3PX         0.00000   0.08100   0.00000   0.00000   0.00000
  27        3PY         0.00000   0.00000   0.08266   0.00000   0.00000
  28        3PZ         0.00000   0.00000   0.00000   0.06482   0.00000
  29        4S         -0.02161   0.00000   0.00000   0.00000   0.21484
  30        4PX         0.00000   0.01594   0.00000   0.00000   0.00000
  31        4PY         0.00000   0.00000   0.01465   0.00000   0.00000
  32        4PZ         0.00000   0.00000   0.00000   0.02110   0.00000
  33 5   H  1S         -0.00031   0.00157   0.00571   0.00000   0.01565
  34        2S         -0.00308   0.00394   0.01360   0.00000   0.03996
  35        3S         -0.00006   0.00068   0.00198   0.00000   0.00266
  36 6   H  1S         -0.00029   0.00692   0.00001   0.00000   0.01509
  37        2S         -0.00302   0.01729   0.00001   0.00000   0.03937
  38        3S         -0.00007   0.00268  -0.00001   0.00000   0.00276
                          26        27        28        29        30
  26        3PX         0.20058
  27        3PY         0.00000   0.19722
  28        3PZ         0.00000   0.00000   0.16505
  29        4S          0.00000   0.00000   0.00000   0.18591
  30        4PX         0.07396   0.00000   0.00000   0.00000   0.06490
  31        4PY         0.00000   0.06558   0.00000   0.00000   0.00000
  32        4PZ         0.00000   0.00000   0.10028   0.00000   0.00000
  33 5   H  1S          0.00938   0.03335   0.00001   0.01779   0.00586
  34        2S          0.01787   0.05960   0.00001   0.04493   0.01476
  35        3S          0.00387   0.01063   0.00000   0.00725   0.00530
  36 6   H  1S          0.04175   0.00006   0.00001   0.01773   0.02428
  37        2S          0.07709  -0.00000   0.00001   0.04549   0.05835
  38        3S          0.01470  -0.00006   0.00000   0.00789   0.01830
                          31        32        33        34        35
  31        4PY         0.05257
  32        4PZ         0.00000   0.14270
  33 5   H  1S          0.01833   0.00000   0.08105
  34        2S          0.04283   0.00000   0.07771   0.15169
  35        3S          0.01255  -0.00000   0.01409   0.04300   0.02235
  36 6   H  1S         -0.00003   0.00000  -0.00001  -0.00075  -0.00225
  37        2S         -0.00018   0.00000  -0.00075  -0.00629  -0.00921
  38        3S         -0.00014  -0.00000  -0.00228  -0.00925  -0.00797
                          36        37        38
  36 6   H  1S          0.08016
  37        2S          0.07745   0.15227
  38        3S          0.01417   0.04347   0.02270
     Gross orbital populations:
                           1
   1 1   C  1S          1.10435
   2        2S          0.88585
   3        2PX         0.22703
   4        2PY         0.23639
   5        2PZ         0.16616
   6        3S          0.79318
   7        3PX         0.56038
   8        3PY         0.55646
   9        3PZ         0.42290
  10        4S          0.50224
  11        4PX         0.26100
  12        4PY         0.21235
  13        4PZ         0.41219
  14 2   H  1S          0.27418
  15        2S          0.46743
  16        3S          0.08651
  17 3   H  1S          0.27762
  18        2S          0.46540
  19        3S          0.08342
  20 4   C  1S          1.10440
  21        2S          0.88584
  22        2PX         0.22259
  23        2PY         0.23635
  24        2PZ         0.16585
  25        3S          0.79235
  26        3PX         0.55367
  27        3PY         0.55643
  28        3PZ         0.42079
  29        4S          0.50736
  30        4PX         0.27170
  31        4PY         0.21448
  32        4PZ         0.41203
  33 5   H  1S          0.27323
  34        2S          0.46914
  35        3S          0.08795
  36 6   H  1S          0.27047
  37        2S          0.47034
  38        3S          0.08998
          Condensed to atoms (all electrons):
               1          2          3          4          5          6
     1  C    5.035666   0.386901   0.387700   0.603260  -0.036848  -0.036187
     2  H    0.386901   0.519191  -0.035217  -0.039055   0.006011  -0.009717
     3  H    0.387700  -0.035217   0.516334  -0.038674  -0.009621   0.005915
     4  C    0.603260  -0.039055  -0.038674   5.049242   0.384835   0.384230
     5  H   -0.036848   0.006011  -0.009621   0.384835   0.524695  -0.038747
     6  H   -0.036187  -0.009717   0.005915   0.384230  -0.038747   0.525296
 Mulliken charges:
               1
     1  C   -0.340494
     2  H    0.171885
     3  H    0.173562
     4  C   -0.343839
     5  H    0.169675
     6  H    0.169210
 Sum of Mulliken charges =   0.00000
 Mulliken charges with hydrogens summed into heavy atoms:
               1
     1  C    0.004954
     4  C   -0.004954
 Electronic spatial extent (au):  <R**2>=             83.6476
 Charge=              0.0000 electrons
 Dipole moment (field-independent basis, Debye):
    X=             -0.0051    Y=              0.0088    Z=             -0.0595  Tot=              0.0603
 Quadrupole moment (field-independent basis, Debye-Ang):
   XX=            -12.2010   YY=            -12.2070   ZZ=            -15.6635
   XY=              0.0204   XZ=             -0.0002   YZ=             -0.0014
 Traceless Quadrupole moment (field-independent basis, Debye-Ang):
   XX=              1.1562   YY=              1.1501   ZZ=             -2.3063
   XY=              0.0204   XZ=             -0.0002   YZ=             -0.0014
 Octapole moment (field-independent basis, Debye-Ang**2):
  XXX=             -0.2271  YYY=             -0.0710  ZZZ=             -0.0689  XYY=              0.0595
  XXY=             -0.0351  XXZ=             -0.0884  XZZ=             -0.0794  YZZ=             -0.0638
  YYZ=             -0.1132  XYZ=             -0.0221
 Hexadecapole moment (field-independent basis, Debye-Ang**3):
 XXXX=            -34.2306 YYYY=            -55.1138 ZZZZ=            -17.7867 XXXY=             -7.2280
 XXXZ=              0.0044 YYYX=            -10.6937 YYYZ=              0.0064 ZZZX=              0.0073
 ZZZY=              0.0128 XXYY=            -16.1742 XXZZ=             -9.9134 YYZZ=            -13.6253
 XXYZ=              0.0024 YYXZ=              0.0005 ZZXY=             -3.2007
 N-N= 3.309169681657D+01 E-N=-2.479012204624D+02  KE= 7.815995931435D+01
 Orbital energies and kinetic energies (alpha):
                                 1                 2
   1         O               -10.289951         15.978227
   2         O               -10.287563         15.979867
   3         O                -0.863914          1.539603
   4         O                -0.672509          1.272044
   5         O                -0.559154          0.942102
   6         O                -0.509894          1.284785
   7         O                -0.436893          1.044739
   8         O                -0.356961          1.038612
   9         V                 0.080195          1.181490
  10         V                 0.141235          0.587732
  11         V                 0.164886          0.594240
  12         V                 0.170371          0.677974
  13         V                 0.241004          0.581661
  14         V                 0.377505          0.863192
  15         V                 0.393207          0.930731
  16         V                 0.396136          0.769766
  17         V                 0.464477          1.189321
  18         V                 0.488161          1.428044
  19         V                 0.493744          1.300954
  20         V                 0.591227          1.652971
  21         V                 0.665812          1.572534
  22         V                 0.691606          2.148193
  23         V                 0.773264          2.451663
  24         V                 0.776131          2.291294
  25         V                 0.844674          1.087556
  26         V                 0.953019          3.430180
  27         V                 2.231840          3.923389
  28         V                 2.289485          4.033889
  29         V                 2.333119          4.302480
  30         V                 2.408187          4.524454
  31         V                 2.671432          6.301460
  32         V                 2.818276          6.307717
  33         V                 2.878290          6.133183
  34         V                 2.952113          6.226066
  35         V                 3.141021          6.822662
  36         V                 3.320698          6.401072
  37         V                23.352767         60.074329
  38         V                23.706980         60.204471
 Total kinetic energy from orbitals= 7.815995931435D+01
 Calling FoFJK, ICntrl=      2127 FMM=F ISym2X=0 I1Cent= 0 IOpClX= 0 NMat=1 NMatS=1 NMatT=0.
 -------------------------------------------------------------------
 Center     Atomic                   Forces (Hartrees/Bohr)
 Number     Number              X              Y              Z
 -------------------------------------------------------------------
      1        6           0.010411024    0.004107070   -0.002386584
      2        1          -0.006944687    0.006978562    0.001219267
      3        1           0.002562227   -0.002090883    0.001127939
      4        6           0.007196947    0.005427634   -0.002603337
      5        1           0.003554477   -0.011238828    0.001282348
      6        1          -0.016779988   -0.003183555    0.001360367
 -------------------------------------------------------------------
 Cartesian Forces:  Max     0.016779988 RMS     0.006513892

 GradGradGradGradGradGradGradGradGradGradGradGradGradGradGradGradGradGrad
 Berny optimization.
 Search for a local minimum.
 Step number   1 out of a maximum of    2
 All quantities printed in internal units (Hartrees-Bohrs-Radians)
 Second derivative matrix not updated -- first step.
 The second derivative matrix:
                          X1        Y1        Z1        X2        Y2
           X1           0.75609
           Y1           0.10447   0.86357
           Z1           0.00354   0.00552   0.17362
           X2          -0.16051   0.09394   0.00125   0.13816
           Y2           0.10080  -0.28688  -0.00449  -0.11337   0.27597
           Z2           0.00197  -0.00564  -0.05572  -0.00178   0.00469
           X3          -0.35218  -0.00505  -0.00487  -0.00070  -0.00039
           Y3          -0.01179  -0.10985  -0.00120   0.03274   0.01840
           Z3          -0.00622  -0.00117  -0.05686   0.00089   0.00031
           X4          -0.26807  -0.17912  -0.00054   0.02305   0.01296
           Y4          -0.17949  -0.47492  -0.00091  -0.01331  -0.00748
           Z4           0.00071   0.00127  -0.09491  -0.00037  -0.00050
           X5           0.02339  -0.01350   0.00038  -0.00000   0.00000
           Y5           0.01211  -0.00699   0.00052   0.00000  -0.00000
           Z5          -0.00032   0.00019   0.01720   0.00015  -0.00008
           X6           0.00128  -0.00074   0.00024  -0.00000   0.00000
           Y6          -0.02610   0.01507   0.00057   0.00000  -0.00000
           Z6           0.00032  -0.00018   0.01667  -0.00015   0.00008
                          Z2        X3        Y3        Z3        X4
           Z2           0.02889
           X3          -0.00019   0.35232
           Y3           0.00094   0.00576   0.07604
           Z3           0.01056   0.00533   0.00085   0.02971
           X4           0.00031   0.00056  -0.02671  -0.00031   0.71968
           Y4          -0.00017  -0.00032   0.01542   0.00019   0.11627
           Z4           0.01621  -0.00026  -0.00059   0.01664  -0.00312
           X5          -0.00016  -0.00000   0.00000   0.00016  -0.15077
           Y5           0.00009   0.00000  -0.00000  -0.00010   0.09529
           Z5           0.00933   0.00016  -0.00010  -0.00948  -0.00194
           X6          -0.00015  -0.00000   0.00000   0.00016  -0.32445
           Y6           0.00009   0.00000  -0.00000  -0.00009  -0.01868
           Z6          -0.00928  -0.00016   0.00010   0.00942   0.00560
                          Y4        Z4        X5        Y5        Z5
           Y4           0.86142
           Z4          -0.00589   0.17500
           X5           0.08761  -0.00127   0.12899
           Y5          -0.28934   0.00454  -0.10657   0.27953
           Z5           0.00564  -0.05678   0.00173  -0.00481   0.02945
           X6          -0.01075   0.00432  -0.00160  -0.00083   0.00021
           Y6          -0.10510   0.00117   0.03246   0.01680  -0.00084
           Z6           0.00115  -0.05617  -0.00084  -0.00024   0.01029
                          X6        Y6        Z6
           X6           0.32478
           Y6           0.01231   0.07324
           Z6          -0.00477  -0.00091   0.02906
 ITU=  0
     Eigenvalues ---    0.03752   0.04393   0.09417   0.09951   0.13551
     Eigenvalues ---    0.17512   0.26574   0.29008   0.53115   0.70457
     Eigenvalues ---    0.97552   1.56935
 Angle between quadratic step and forces=  30.28 degrees.
 Linear search not attempted -- first point.
 B after Tr=     0.004290    0.003725   -0.006058
         Rot=    1.000000   -0.000008    0.000004   -0.000103 Ang=  -0.01 deg.
 Variable       Old X    -DE/DX   Delta X   Delta X   Delta X     New X
                                 (Linear)    (Quad)   (Total)
    X1       -0.63243   0.01041   0.00000   0.01536   0.01988  -0.61255
    Y1       -1.09475   0.00411   0.00000   0.01475   0.01835  -1.07640
    Z1        0.00836  -0.00239   0.00000  -0.01263  -0.01871  -0.01035
    X2        0.38390  -0.00694   0.00000  -0.02005  -0.01516   0.36873
    Y2       -2.90192   0.00698   0.00000   0.02642   0.03022  -2.87170
    Z2       -0.02471   0.00122   0.00000   0.01548   0.00937  -0.01534
    X3       -2.68436   0.00256   0.00000   0.02247   0.02700  -2.65736
    Y3       -1.13758  -0.00209   0.00000  -0.00322  -0.00005  -1.13762
    Z3       -0.02562   0.00113   0.00000   0.01540   0.00930  -0.01632
    X4        0.63108   0.00720   0.00000   0.00239   0.00645   0.63753
    Y4        1.09351   0.00543   0.00000   0.00068   0.00453   1.09805
    Z4        0.00742  -0.00260   0.00000  -0.01244  -0.01848  -0.01106
    X5       -0.32636   0.00355   0.00000   0.00222   0.00591  -0.32046
    Y5        2.94213  -0.01124   0.00000  -0.03803  -0.03437   2.90776
    Z5       -0.02714   0.00128   0.00000   0.01531   0.00929  -0.01784
    X6        2.72687  -0.01678   0.00000  -0.04811  -0.04407   2.68280
    Y6        1.19596  -0.00318   0.00000  -0.02296  -0.01868   1.17728
    Z6       -0.02662   0.00136   0.00000   0.01524   0.00922  -0.01740
         Item               Value     Threshold  Converged?
 Maximum Force            0.016780     0.000450     NO 
 RMS     Force            0.006514     0.000300     NO 
 Maximum Displacement     0.044066     0.001800     NO 
 RMS     Displacement     0.020014     0.001200     NO 
 Predicted change in Energy=-1.042057D-03
 GradGradGradGradGradGradGradGradGradGradGradGradGradGradGradGradGradGrad

 Unable to Open any file for archive entry.
 1\1\GINC-BHD0014\Force\RwB97XD\6-311G\C2H4\BWEIGHT\11-Jan-2023\0\\# WB
 97XD/6-311G SCF=XQC FORCE nosym pop=full guess=read\\MD Step 1000\\0,1
 \C,-0.33466681,-0.57931442,0.00442526\H,0.20314921,-1.53563125,-0.0130
 7639\H,-1.42050265,-0.60197939,-0.01355691\C,0.33395148,0.57866267,0.0
 0392435\H,-0.17270355,1.55690925,-0.01436098\H,1.44299645,0.63287542,-
 0.01408808\\Version=ES64L-G16RevC.01\HF=-78.5564613\RMSD=4.668e-09\RMS
 F=6.514e-03\Dipole=-0.0020155,0.0034513,-0.0233901\Quadrupole=0.859604
 9,0.855081,-1.714686,0.0151899,-0.000129,-0.0010081\PG=C01 [X(C2H4)]\\
 @
 The archive entry for this job was punched.


 KEEP CLOSE TO NATURES HEART, YOURSELF;
 AND BREAK CLEAR AWAY, ONCE IN A WHILE, AND
 CLIMB A MOUNTAIN OR SPEND A WEEK IN THE
 WOODS.  WASH YOUR SPIRIT CLEAN...
                                         -- JOHN MUIR
 Job cpu time:       0 days  0 hours  0 minutes 48.7 seconds.
 Elapsed time:       0 days  0 hours  0 minutes 16.9 seconds.
 File lengths (MBytes):  RWF=    272 Int=      0 D2E=      0 Chk=     32 Scr=     32
 Normal termination of Gaussian 16 at Wed Jan 11 16:33:18 2023.
