2
MD Step 0
Li  0.00000000 0.00000000 0.00000000
H  0.00000000 0.00000000 3.00000000
2
MD Step 1
Li  0.00152102 0.00152103 0.00281281
H  0.00399308 0.00399392 2.99508999
2
MD Step 2
Li  0.00304419 0.00304421 0.00822083
H  0.00797137 0.00797305 2.97229184
2
MD Step 3
Li  0.00457174 0.00457177 0.01626663
H  0.01191944 0.01192194 2.93131216
2
MD Step 4
Li  0.00610612 0.00610617 0.02702298
H  0.01582041 0.01582372 2.87164930
2
MD Step 5
Li  0.00765010 0.00765018 0.04059096
H  0.01965520 0.01965930 2.79260662
2
MD Step 6
Li  0.00920690 0.00920700 0.05709547
H  0.02340166 0.02340652 2.69332318
2
MD Step 7
Li  0.01078026 0.01078039 0.07667553
H  0.02703399 0.02703956 2.57284071
2
MD Step 8
Li  0.01237451 0.01237467 0.09946321
H  0.03052235 0.03052860 2.43024889
2
MD Step 9
Li  0.01399435 0.01399457 0.12553960
H  0.03383423 0.03384109 2.26498879
2
MD Step 10
Li  0.01564409 0.01564436 0.15483902
H  0.03694011 0.03694751 2.07751321
2
MD Step 11
Li  0.01732476 0.01732509 0.18693121
H  0.03983277 0.03984064 1.87078775
2
MD Step 12
Li  0.01902565 0.01902605 0.22053644
H  0.04258604 0.04259434 1.65363329
2
MD Step 13
Li  0.02070057 0.02070104 0.25256151
H  0.04551832 0.04552711 1.44737045
2
MD Step 14
Li  0.02221181 0.02221229 0.27670795
H  0.04957879 0.04958844 1.29541301
2
MD Step 15
Li  0.02327029 0.02327063 0.28399742
H  0.05676005 0.05677161 1.25964656
2
MD Step 16
Li  0.02364355 0.02364351 0.27132822
H  0.06866437 0.06867942 1.36145021
2
MD Step 17
Li  0.02350087 0.02350028 0.24616600
H  0.08412494 0.08414467 1.54936509
2
MD Step 18
Li  0.02315532 0.02315413 0.21664269
H  0.10098379 0.10100867 1.76733989
2
MD Step 19
Li  0.02282082 0.02281901 0.18733929
H  0.11776654 0.11779654 1.98379894
2
MD Step 20
Li  0.02260663 0.02260425 0.16031237
H  0.13372000 0.13375485 2.18456675
2
MD Step 21
Li  0.02256033 0.02255744 0.13634413
H  0.14851619 0.14855551 2.36425186
2
MD Step 22
Li  0.02269905 0.02269572 0.11564849
H  0.16203709 0.16208044 2.52137973
2
MD Step 23
Li  0.02302599 0.02302227 0.09820253
H  0.17426068 0.17430763 2.65610839
2
MD Step 24
Li  0.02353833 0.02353428 0.08389248
H  0.18520636 0.18525648 2.76922202
2
MD Step 25
Li  0.02423111 0.02422679 0.07257957
H  0.19490832 0.19496119 2.86167710
2
MD Step 26
Li  0.02509911 0.02509458 0.06412969
H  0.20340247 0.20345769 2.93439797
2
MD Step 27
Li  0.02613789 0.02613321 0.05842880
H  0.21071953 0.21077671 2.98817084
2
MD Step 28
Li  0.02734433 0.02733956 0.05538914
H  0.21688091 0.21693966 3.02360039
2
MD Step 29
Li  0.02871698 0.02871218 0.05495229
H  0.22189664 0.22195657 3.04108953
2
MD Step 30
Li  0.03025622 0.03025143 0.05709028
H  0.22576415 0.22582487 3.04083090
2
MD Step 31
Li  0.03196438 0.03195966 0.06180599
H  0.22846736 0.22852850 3.02280463
2
MD Step 32
Li  0.03384584 0.03384126 0.06913311
H  0.22997601 0.23003715 2.98677867
