2
MD Step 0
Li  0.00000000 0.00000000 0.00000000
H  0.00000000 0.00000000 3.00000000
2
MD Step 1
Li  0.00152102 0.00152103 0.00281281
H  0.00399308 0.00399392 2.99508999
2
MD Step 2
Li  0.00304419 0.00304421 0.00822083
H  0.00797137 0.00797305 2.97229184
2
MD Step 3
Li  0.00457174 0.00457177 0.01626663
H  0.01191944 0.01192194 2.93131216
2
MD Step 4
Li  0.00610612 0.00610617 0.02702298
H  0.01582041 0.01582372 2.87164930
2
MD Step 5
Li  0.00765010 0.00765018 0.04059096
H  0.01965520 0.01965930 2.79260662
2
MD Step 6
Li  0.00920690 0.00920700 0.05709547
H  0.02340166 0.02340652 2.69332318
2
MD Step 7
Li  0.01078026 0.01078039 0.07667553
H  0.02703399 0.02703956 2.57284071
2
MD Step 8
Li  0.01237451 0.01237467 0.09946321
H  0.03052235 0.03052860 2.43024889
2
MD Step 9
Li  0.01399435 0.01399457 0.12553960
H  0.03383423 0.03384109 2.26498879
2
MD Step 10
Li  0.01564409 0.01564436 0.15483902
H  0.03694011 0.03694751 2.07751321
2
MD Step 11
Li  0.01732476 0.01732509 0.18693121
H  0.03983277 0.03984064 1.87078775
2
MD Step 12
Li  0.01902565 0.01902605 0.22053644
H  0.04258604 0.04259434 1.65363329
2
MD Step 13
Li  0.02070057 0.02070104 0.25256151
H  0.04551832 0.04552711 1.44737045
2
MD Step 14
Li  0.02221181 0.02221229 0.27670795
H  0.04957879 0.04958844 1.29541301
2
MD Step 15
Li  0.02327029 0.02327063 0.28399742
H  0.05676005 0.05677161 1.25964656
2
MD Step 16
Li  0.02364355 0.02364351 0.27132822
H  0.06866437 0.06867942 1.36145021
2
MD Step 17
Li  0.02350087 0.02350028 0.24616600
H  0.08412494 0.08414467 1.54936509
2
MD Step 18
Li  0.02315532 0.02315413 0.21664269
H  0.10098379 0.10100867 1.76733989
2
MD Step 19
Li  0.02282082 0.02281901 0.18733929
H  0.11776654 0.11779654 1.98379894
2
MD Step 20
Li  0.02260663 0.02260425 0.16031237
H  0.13372000 0.13375485 2.18456675
2
MD Step 21
Li  0.02256033 0.02255744 0.13634413
H  0.14851619 0.14855551 2.36425186
2
MD Step 22
Li  0.02269905 0.02269572 0.11564849
H  0.16203709 0.16208044 2.52137973
2
MD Step 23
Li  0.02302599 0.02302227 0.09820253
H  0.17426068 0.17430763 2.65610839
2
MD Step 24
Li  0.02353833 0.02353428 0.08389248
H  0.18520636 0.18525648 2.76922202
2
MD Step 25
Li  0.02423111 0.02422679 0.07257957
H  0.19490832 0.19496119 2.86167710
2
MD Step 26
Li  0.02509911 0.02509458 0.06412969
H  0.20340247 0.20345769 2.93439797
2
MD Step 27
Li  0.02613789 0.02613321 0.05842880
H  0.21071953 0.21077671 2.98817084
2
MD Step 28
Li  0.02734433 0.02733956 0.05538914
H  0.21688091 0.21693966 3.02360039
2
MD Step 29
Li  0.02871698 0.02871218 0.05495229
H  0.22189664 0.22195657 3.04108953
2
MD Step 30
Li  0.03025622 0.03025143 0.05709028
H  0.22576415 0.22582487 3.04083090
2
MD Step 31
Li  0.03196438 0.03195966 0.06180599
H  0.22846736 0.22852850 3.02280463
2
MD Step 32
Li  0.03384584 0.03384126 0.06913311
H  0.22997601 0.23003715 2.98677867
2
MD Step 33
Li  0.03590714 0.03590276 0.07913559
H  0.23024504 0.23030578 2.93231207
2
MD Step 34
Li  0.03815700 0.03815287 0.09190616
H  0.22921445 0.22927435 2.85876572
2
MD Step 35
Li  0.04060617 0.04060236 0.10756290
H  0.22681000 0.22686859 2.76532571
2
MD Step 36
Li  0.04326705 0.04326364 0.12624160
H  0.22294631 0.22300311 2.65105605
2
MD Step 37
Li  0.04615264 0.04614970 0.14807796
H  0.21753373 0.21758822 2.51502146
2
MD Step 38
Li  0.04927417 0.04927178 0.17317290
H  0.21049490 0.21054653 2.35652631
2
MD Step 39
Li  0.05263552 0.05263375 0.20151561
H  0.20180305 0.20185128 2.17564504
2
MD Step 40
Li  0.05621999 0.05621893 0.23281117
H  0.19157329 0.19161759 1.97441059
2
MD Step 41
Li  0.05995877 0.05995846 0.26609223
H  0.18027992 0.18031994 1.75949055
2
MD Step 42
Li  0.06366044 0.06366087 0.29891278
H  0.16924232 0.16927814 1.54774465
2
MD Step 43
Li  0.06687920 0.06688021 0.32602185
H  0.16153332 0.16156606 1.37536660
2
MD Step 44
Li  0.06880667 0.06880783 0.33881727
H  0.16272480 0.16275744 1.30164895
2
MD Step 45
Li  0.06876633 0.06876699 0.33143776
H  0.17747992 0.17751702 1.36699208
2
MD Step 46
Li  0.06715865 0.06715826 0.30912959
H  0.20303838 0.20308355 1.53523472
2
MD Step 47
Li  0.06486340 0.06486175 0.28061751
H  0.23333604 0.23339086 1.74623936
2
MD Step 48
Li  0.06248502 0.06248207 0.25138232
H  0.26420671 0.26427140 1.96222827
2
MD Step 49
Li  0.06032561 0.06032144 0.22400420
H  0.29356810 0.29364213 2.16541681
2
MD Step 50
Li  0.05851309 0.05850781 0.19951350
H  0.32053844 0.32062101 2.34870313
2
MD Step 51
Li  0.05709184 0.05708559 0.17823205
H  0.34481186 0.34490207 2.50986883
2
MD Step 52
Li  0.05606931 0.05606222 0.16018169
H  0.36633701 0.36643394 2.64876346
2
MD Step 53
Li  0.05543756 0.05542976 0.14526578
H  0.38516856 0.38527131 2.76605312
2
MD Step 54
Li  0.05518326 0.05517487 0.13334965
H  0.40139851 0.40150620 2.86266605
2
MD Step 55
Li  0.05529218 0.05528333 0.12429716
H  0.41512483 0.41523663 2.93954058
2
MD Step 56
Li  0.05575185 0.05574266 0.11798892
H  0.42643353 0.42654862 2.99749970
2
MD Step 57
Li  0.05655262 0.05654320 0.11433037
H  0.43539112 0.43550871 3.03719518
2
MD Step 58
Li  0.05768823 0.05767870 0.11325530
H  0.44204071 0.44216003 3.05908332
2
MD Step 59
Li  0.05915618 0.05914664 0.11472746
H  0.44639962 0.44651991 3.06341411
2
MD Step 60
Li  0.06095786 0.06094842 0.11874097
H  0.44845819 0.44857868 3.05022801
2
MD Step 61
Li  0.06309870 0.06308948 0.12532038
H  0.44817898 0.44829887 3.01935573
2
MD Step 62
Li  0.06558824 0.06557936 0.13452038
H  0.44549630 0.44561479 2.97042047
2
MD Step 63
Li  0.06844004 0.06843162 0.14642458
H  0.44031661 0.44043288 2.90284577
2
MD Step 64
Li  0.07167146 0.07166363 0.16114278
H  0.43252034 0.43263349 2.81587491
2
MD Step 65
Li  0.07530306 0.07529594 0.17880493
H  0.42196575 0.42207487 2.70861206
2
MD Step 66
Li  0.07935671 0.07935045 0.19954699
H  0.40850206 0.40860616 2.58012020
2
MD Step 67
Li  0.08385195 0.08384670 0.22348288
H  0.39199455 0.39209262 2.42961409
2
MD Step 68
Li  0.08879758 0.08879350 0.25064334
H  0.37238261 0.37247361 2.25688184
2
MD Step 69
Li  0.09417248 0.09416969 0.28084057
H  0.34981192 0.34989486 2.06321786
2
MD Step 70
Li  0.09988060 0.09987923 0.31336118
H  0.32494433 0.32501843 1.85353935
2
MD Step 71
Li  0.10565108 0.10565115 0.34630856
H  0.29964693 0.29971205 1.64091927
2
MD Step 72
Li  0.11084654 0.11084786 0.37541853
H  0.27831302 0.27837049 1.45474955
2
MD Step 73
Li  0.11424788 0.11424983 0.39296504
H  0.26934556 0.26939953 1.34828383
2
MD Step 74
Li  0.11452897 0.11453053 0.39129379
H  0.28188512 0.28194281 1.37428129
2
MD Step 75
Li  0.11192286 0.11192304 0.37266402
H  0.31432553 0.31439359 1.51716968
2
MD Step 76
Li  0.10786134 0.10785966 0.34580500
H  0.35679766 0.35687947 1.71678022
2
MD Step 77
Li  0.10346366 0.10346001 0.31709474
H  0.40158685 0.40168318 1.92915088
2
MD Step 78
Li  0.09931040 0.09930486 0.28970615
H  0.44469132 0.44480162 2.13241161
2
MD Step 79
Li  0.09565310 0.09564583 0.26496366
H  0.48437726 0.48450036 2.31743343
2
MD Step 80
Li  0.09258274 0.09257395 0.24332020
H  0.52001755 0.52015211 2.48109440
2
MD Step 81
Li  0.09011920 0.09010908 0.22485362
H  0.55147525 0.55161986 2.62285788
2
MD Step 82
Li  0.08825269 0.08824145 0.20949030
H  0.57881772 0.57897100 2.74323147
2
MD Step 83
Li  0.08696241 0.08695023 0.19710319
H  0.60218842 0.60234905 2.84309070
2
MD Step 84
Li  0.08622527 0.08621235 0.18755660
H  0.62174642 0.62191311 2.92337094
2
MD Step 85
Li  0.08602010 0.08600662 0.18072760
H  0.63763766 0.63780918 2.98491958
2
MD Step 86
Li  0.08632983 0.08631595 0.17651614
H  0.64997987 0.65015503 3.02842612
2
MD Step 87
Li  0.08714246 0.08712835 0.17484920
H  0.65885573 0.65903337 3.05439390
2
MD Step 88
Li  0.08845156 0.08843739 0.17568279
H  0.66430954 0.66448851 3.06312618
2
MD Step 89
Li  0.09025651 0.09024245 0.17900263
H  0.66634552 0.66652468 3.05472134
2
MD Step 90
Li  0.09256266 0.09254888 0.18482427
H  0.66492690 0.66510509 3.02907220
2
MD Step 91
Li  0.09538135 0.09536801 0.19319287
H  0.65997550 0.66015153 2.98586753
2
MD Step 92
Li  0.09872987 0.09871716 0.20418230
H  0.65137201 0.65154466 2.92459813
2
MD Step 93
Li  0.10263122 0.10261932 0.21789288
H  0.63895810 0.63912608 2.84457255
2
MD Step 94
Li  0.10711320 0.10710230 0.23444694
H  0.62254205 0.62270403 2.74494756
2
MD Step 95
Li  0.11220626 0.11219657 0.25397748
H  0.60191393 0.60206850 2.62480640
2
MD Step 96
Li  0.11793912 0.11793086 0.27660553
H  0.57687583 0.57702150 2.48331486
2
MD Step 97
Li  0.12432882 0.12432220 0.30239188
H  0.54731033 0.54744559 2.32005397
2
MD Step 98
Li  0.13135863 0.13135387 0.33123166
H  0.51333267 0.51345603 2.13574657
2
MD Step 99
Li  0.13892675 0.13892403 0.36261449
H  0.47564459 0.47575482 1.93391056
2
MD Step 100
Li  0.14673078 0.14673018 0.39509816
H  0.43633050 0.43642705 1.72448667
2
MD Step 101
Li  0.15403728 0.15403864 0.42529802
H  0.40044566 0.40052967 1.53080462
2
MD Step 102
Li  0.15936095 0.15936359 0.44660177
H  0.37822807 0.37830413 1.39844115
2
MD Step 103
Li  0.16071262 0.16071521 0.45063104
H  0.38338842 0.38346571 1.38514642
2
MD Step 104
Li  0.15771591 0.15771700 0.43641040
H  0.41852108 0.41860966 1.49764373
2
MD Step 105
Li  0.15218209 0.15218083 0.41186653
H  0.47114143 0.47124716 1.68129651
2
MD Step 106
Li  0.14585615 0.14585227 0.38417016
H  0.52922165 0.52934636 1.88667865
2
MD Step 107
Li  0.13970032 0.13969388 0.35714055
H  0.58612930 0.58627260 2.08746503
2
MD Step 108
Li  0.13414574 0.13413694 0.33244132
H  0.63889272 0.63905321 2.27218869
2
MD Step 109
Li  0.12935602 0.12934511 0.31068143
H  0.68638420 0.68656012 2.43665219
2
MD Step 110
Li  0.12537469 0.12536195 0.29200686
H  0.72830361 0.72849309 2.57984934
2
MD Step 111
Li  0.12219474 0.12218043 0.27637313
H  0.76469931 0.76490050 2.70208675
2
MD Step 112
Li  0.11978964 0.11977403 0.26366475
H  0.79575412 0.79596522 2.80416044
2
MD Step 113
Li  0.11812767 0.11811100 0.25374940
H  0.82168676 0.82190607 2.88698245
2
MD Step 114
Li  0.11717862 0.11716114 0.24650250
H  0.84270540 0.84293126 2.95141155
2
MD Step 115
Li  0.11691740 0.11689933 0.24181992
H  0.85898306 0.85921388 2.99816540
2
MD Step 116
Li  0.11732536 0.11730693 0.23962299
H  0.87064817 0.87088240 3.02778627
2
MD Step 117
Li  0.11839115 0.11837258 0.23986085
H  0.87777900 0.87801512 3.04062473
2
MD Step 118
Li  0.12011109 0.12009260 0.24251138
H  0.88040100 0.88063750 3.03683331
2
MD Step 119
Li  0.12248931 0.12247112 0.24758137
H  0.87848563 0.87872099 3.01636512
2
MD Step 120
Li  0.12553786 0.12552019 0.25510643
H  0.87194985 0.87218252 2.97897480
2
MD Step 121
Li  0.12927664 0.12925973 0.26515032
H  0.86065646 0.86088484 2.92422276
2
MD Step 122
Li  0.13373302 0.13371711 0.27780326
H  0.84441680 0.84463923 2.85148715
2
MD Step 123
Li  0.13894100 0.13892634 0.29317828
H  0.82299657 0.82321132 2.75998900
2
MD Step 124
Li  0.14493914 0.14492599 0.31140270
H  0.79612998 0.79633522 2.64885064
2
MD Step 125
Li  0.15176542 0.15175406 0.33259964
H  0.76355525 0.76374907 2.51722337
2
MD Step 126
Li  0.15944696 0.15943768 0.35685062
H  0.72508538 0.72526580 2.36454540
2
MD Step 127
Li  0.16797706 0.16797014 0.38411352
H  0.68076662 0.68093168 2.19110703
2
MD Step 128
Li  0.17726236 0.17725806 0.41403760
H  0.63124248 0.63139042 1.99932580
2
MD Step 129
Li  0.18700258 0.18700105 0.44555029
H  0.57858262 0.57871240 1.79659466
2
MD Step 130
Li  0.19644158 0.19644271 0.47602361
H  0.52799907 0.52811139 1.60102771
2
MD Step 131
Li  0.20396849 0.20397165 0.50000905
H  0.49059506 0.49069434 1.45018006
2
MD Step 132
Li  0.20706489 0.20706859 0.50930733
H  0.48372941 0.48382590 1.40056731
2
MD Step 133
Li  0.20440521 0.20440751 0.50006277
H  0.51653905 0.51664606 1.47876577
2
MD Step 134
Li  0.19781676 0.19781636 0.47849940
H  0.57642863 0.57655525 1.64187470
2
MD Step 135
Li  0.18972997 0.18972636 0.45233202
H  0.64664596 0.64679565 1.83671794
2
MD Step 136
Li  0.18160693 0.18160009 0.42605476
H  0.71711317 0.71728601 2.03231850
2
MD Step 137
Li  0.17412963 0.17411977 0.40171443
H  0.78312944 0.78332395 2.21456833
2
MD Step 138
Li  0.16756863 0.16755608 0.38010171
H  0.84282985 0.84304390 2.37801741
2
MD Step 139
Li  0.16200633 0.16199142 0.36144387
H  0.89564646 0.89587775 2.52109928
2
MD Step 140
Li  0.15744494 0.15742799 0.34573242
H  0.94156411 0.94181031 2.64387237
2
MD Step 141
Li  0.15385484 0.15383619 0.33286772
H  0.98078684 0.98104572 2.74702357
2
MD Step 142
Li  0.15119658 0.15117654 0.32272337
H  1.01358664 1.01385604 2.83142402
2
MD Step 143
Li  0.14943094 0.14940980 0.31517549
H  1.04023387 1.04051172 2.89792770
2
MD Step 144
Li  0.14852410 0.14850216 0.31011760
H  1.06096158 1.06124589 2.94726848
2
MD Step 145
Li  0.14845003 0.14842757 0.30746664
H  1.07594920 1.07623805 2.98001887
2
MD Step 146
Li  0.14919159 0.14916888 0.30716586
H  1.08531492 1.08560643 2.99657006
2
MD Step 147
Li  0.15074103 0.15071833 0.30918601
H  1.08911215 1.08940443 2.99712363
2
MD Step 148
Li  0.15310021 0.15307781 0.31352564
H  1.08732797 1.08761916 2.98168964
2
MD Step 149
Li  0.15628074 0.15625890 0.32021101
H  1.07988250 1.08017069 2.95008705
2
MD Step 150
Li  0.16030388 0.16028290 0.32929570
H  1.06662907 1.06691232 2.90194658
2
MD Step 151
Li  0.16520029 0.16518046 0.34085923
H  1.04735638 1.04763268 2.83672004
2
MD Step 152
Li  0.17100915 0.17099076 0.35500411
H  1.02179452 1.02206173 2.75370089
2
MD Step 153
Li  0.17777595 0.17775934 0.37184978
H  0.98962969 0.98988562 2.65206590
2
MD Step 154
Li  0.18554754 0.18553303 0.39151755
H  0.95053916 0.95078147 2.53097889
2
MD Step 155
Li  0.19436194 0.19434989 0.41410175
H  0.90426082 0.90448711 2.38978962
2
MD Step 156
Li  0.20422568 0.20421644 0.43960633
H  0.85074961 0.85095744 2.22847090
2
MD Step 157
Li  0.21506261 0.21505651 0.46780360
H  0.79053045 0.79071757 2.04859210
2
MD Step 158
Li  0.22659664 0.22659391 0.49791580
H  0.72550633 0.72567113 1.85551422
2
MD Step 159
Li  0.23810083 0.23810147 0.52794679
H  0.66068787 0.66083041 1.66299609
2
MD Step 160
Li  0.24795517 0.24795861 0.55354644
H  0.60724150 0.60736562 1.50102213
2
MD Step 161
Li  0.25332136 0.25332610 0.56731055
H  0.58473078 0.58484684 1.42062749
2
MD Step 162
Li  0.25179956 0.25180329 0.56333922
H  0.60969725 0.60982122 1.46247891
2
MD Step 163
Li  0.24471229 0.24471314 0.54538583
H  0.67302515 0.67316993 1.60070514
2
MD Step 164
Li  0.23512636 0.23512349 0.52127594
H  0.75357562 0.75374698 1.78136659
2
MD Step 165
Li  0.22512791 0.22512118 0.49616337
H  0.83696953 0.83716844 1.96893929
2
MD Step 166
Li  0.21573764 0.21572725 0.47251477
H  0.91617141 0.91639646 2.14642118
2
MD Step 167
Li  0.20737787 0.20736416 0.45132885
H  0.98827035 0.98851915 2.30692847
2
MD Step 168
Li  0.20019001 0.20017339 0.43292772
H  1.05229153 1.05256137 2.44824084
2
MD Step 169
Li  0.19419430 0.19417516 0.41734613
H  1.10809561 1.10838372 2.57011888
2
MD Step 170
Li  0.18936180 0.18934053 0.40450457
H  1.15588191 1.15618559 2.67311058
2
MD Step 171
Li  0.18564664 0.18562363 0.39428565
H  1.19596663 1.19628330 2.75802499
2
MD Step 172
Li  0.18300077 0.18297637 0.38656854
H  1.22868105 1.22900824 2.82569510
2
MD Step 173
Li  0.18138147 0.18135602 0.38124600
H  1.25431960 1.25465492 2.87686008
2
MD Step 174
Li  0.18075478 0.18072862 0.37823222
H  1.27311627 1.27345742 2.91211130
2
MD Step 175
Li  0.18109696 0.18107041 0.37746584
H  1.28523482 1.28557956 2.93187174
2
MD Step 176
Li  0.18239525 0.18236864 0.37891143
H  1.29076312 1.29110923 2.93638565
2
MD Step 177
Li  0.18464825 0.18462189 0.38255996
H  1.28971083 1.29005609 2.92571526
2
MD Step 178
Li  0.18786603 0.18784025 0.38842880
H  1.28200858 1.28235076 2.89974080
2
MD Step 179
Li  0.19207011 0.19204525 0.39656143
H  1.26750798 1.26784479 2.85816264
2
MD Step 180
Li  0.19729317 0.19726956 0.40702639
H  1.24598385 1.24631293 2.80050829
2
MD Step 181
Li  0.20357813 0.20355614 0.41991509
H  1.21714026 1.21745915 2.72614769
2
MD Step 182
Li  0.21097645 0.21095644 0.43533720
H  1.18062259 1.18092871 2.63432489
2
MD Step 183
Li  0.21954308 0.21952545 0.45340883
H  1.13605205 1.13634269 2.52423965
2
MD Step 184
Li  0.22932680 0.22931196 0.47423044
H  1.08309242 1.08336475 2.39519949
2
MD Step 185
Li  0.24034870 0.24033706 0.49783794
H  1.02159829 1.02184946 2.24695689
2
MD Step 186
Li  0.25255449 0.25254646 0.52409603
H  0.95194389 0.95217113 2.08044443
2
MD Step 187
Li  0.26570484 0.26570073 0.55245602
H  0.87577894 0.87598007 1.89944406
2
MD Step 188
Li  0.27913494 0.27913484 0.58143369
H  0.79768569 0.79786007 1.71418617
2
MD Step 189
Li  0.29129968 0.29130317 0.60764725
H  0.72831426 0.72846481 1.54798066
2
MD Step 190
Li  0.29925310 0.29925878 0.62479922
H  0.68797035 0.68810684 1.44423438
2
MD Step 191
Li  0.29963918 0.29964448 0.62599906
H  0.69978633 0.69992633 1.45044222
2
MD Step 192
Li  0.29273063 0.29273310 0.61216965
H  0.76188231 0.76204275 1.56024289
2
MD Step 193
Li  0.28200778 0.28200613 0.59063217
H  0.85026933 0.85045907 1.72317338
2
MD Step 194
Li  0.27028800 0.27028189 0.56710779
H  0.94552799 0.94574934 1.89979906
2
MD Step 195
Li  0.25903322 0.25902282 0.54450118
H  1.03758144 1.03783331 2.07009878
2
MD Step 196
Li  0.24887347 0.24885914 0.52404031
H  1.12208720 1.12236706 2.22560847
2
MD Step 197
Li  0.24003540 0.24001760 0.50615492
H  1.19748287 1.19778765 2.36336596
2
MD Step 198
Li  0.23256868 0.23254786 0.49092963
H  1.26342619 1.26375269 2.48278813
2
MD Step 199
Li  0.22644996 0.22642657 0.47830899
H  1.32007809 1.32042320 2.58425706
2
MD Step 200
Li  0.22162898 0.22160347 0.46818735
H  1.36778498 1.36814568 2.66850100
2
MD Step 201
Li  0.21804970 0.21802248 0.46044937
H  1.40693320 1.40730659 2.73631491
2
MD Step 202
Li  0.21566044 0.21563191 0.45498944
H  1.43787884 1.43826217 2.78842685
2
MD Step 203
Li  0.21441875 0.21438930 0.45172044
H  1.46091460 1.46130521 2.82543729
2
MD Step 204
Li  0.21429359 0.21426360 0.45057767
H  1.47625436 1.47664965 2.84779211
2
MD Step 205
Li  0.21526646 0.21523629 0.45152068
H  1.48402575 1.48442317 2.85577013
2
MD Step 206
Li  0.21733175 0.21730178 0.45453381
H  1.48426727 1.48466427 2.84947943
2
MD Step 207
Li  0.22049698 0.22046757 0.45962617
H  1.47692722 1.47732126 2.82885703
2
MD Step 208
Li  0.22478276 0.22475429 0.46683154
H  1.46186350 1.46225198 2.79367022
2
MD Step 209
Li  0.23022263 0.23019549 0.47620766
H  1.43884496 1.43922518 2.74352094
2
MD Step 210
Li  0.23686225 0.23683685 0.48783445
H  1.40755677 1.40792595 2.67785838
2
MD Step 211
Li  0.24475759 0.24473435 0.50181021
H  1.36761326 1.36796849 2.59600498
2
MD Step 212
Li  0.25397061 0.25394997 0.51824354
H  1.31858729 1.31892550 2.49721211
2
MD Step 213
Li  0.26456002 0.26454244 0.53723534
H  1.26007426 1.26039225 2.38078435
2
MD Step 214
Li  0.27656155 0.27654752 0.55884222
H  1.19182775 1.19212226 2.24633151
2
MD Step 215
Li  0.28994468 0.28993465 0.58299636
H  1.11405830 1.11432610 2.09432109
2
MD Step 216
Li  0.30451321 0.30450759 0.60932435
H  1.02811817 1.02835650 1.92732675
2
MD Step 217
Li  0.31968308 0.31968207 0.63674771
H  0.93803311 0.93824059 1.75278239
2
MD Step 218
Li  0.33403956 0.33404289 0.66270297
H  0.85355455 0.85373307 1.58835723
2
MD Step 219
Li  0.34470369 0.34471011 0.68207932
H  0.79452648 0.79468461 1.46927893
2
MD Step 220
Li  0.34764932 0.34765623 0.68794795
H  0.78870003 0.78885574 1.44330588
2
MD Step 221
Li  0.34169971 0.34170409 0.67858229
H  0.84418634 0.84436033 1.52233904
2
MD Step 222
Li  0.33031609 0.33031613 0.66009213
H  0.93712785 0.93733276 1.66426512
2
MD Step 223
Li  0.31710315 0.31709822 0.63857476
H  1.04267846 1.04291855 1.82705695
2
MD Step 224
Li  0.30407841 0.30406857 0.61736566
H  1.14693186 1.14720668 1.98772401
2
MD Step 225
Li  0.29214840 0.29213403 0.59793645
H  1.24363949 1.24394649 2.13612274
2
MD Step 226
Li  0.28165837 0.28163995 0.58083510
H  1.33042174 1.33075757 2.26847605
2
MD Step 227
Li  0.27270232 0.27268036 0.56620219
H  1.40663072 1.40699181 2.38381509
2
MD Step 228
Li  0.26526899 0.26524402 0.55401011
H  1.47234389 1.47272670 2.48233000
2
MD Step 229
Li  0.25930656 0.25927907 0.54416783
H  1.52791849 1.52831959 2.56464839
2
MD Step 230
Li  0.25475223 0.25472269 0.53656815
H  1.57378747 1.57420359 2.63150908
2
MD Step 231
Li  0.25154537 0.25151425 0.53110857
H  1.61036861 1.61079661 2.68361861
2
MD Step 232
Li  0.24963494 0.24960267 0.52770265
H  1.63801384 1.63845069 2.72157278
2
MD Step 233
Li  0.24898222 0.24894922 0.52628412
H  1.65698999 1.65743277 2.74582837
2
MD Step 234
Li  0.24956219 0.24952888 0.52680877
H  1.66746949 1.66791532 2.75669010
2
MD Step 235
Li  0.25136422 0.25133102 0.52925530
H  1.66952561 1.66997165 2.75430477
2
MD Step 236
Li  0.25439232 0.25435963 0.53362548
H  1.66313078 1.66357417 2.73866020
2
MD Step 237
Li  0.25866517 0.25863342 0.53994400
H  1.64815621 1.64859405 2.70958618
2
MD Step 238
Li  0.26421594 0.26418556 0.54825796
H  1.62437321 1.62480253 2.66675815
2
MD Step 239
Li  0.27109157 0.27106301 0.55863544
H  1.59145827 1.59187597 2.60970674
2
MD Step 240
Li  0.27935131 0.27932504 0.57116303
H  1.54900306 1.54940593 2.53783524
2
MD Step 241
Li  0.28906294 0.28903945 0.58593957
H  1.49654027 1.49692492 2.45046218
2
MD Step 242
Li  0.30029386 0.30027366 0.60306215
H  1.43360542 1.43396832 2.34691853
2
MD Step 243
Li  0.31309382 0.31307744 0.62259903
H  1.35985558 1.36019307 2.22673370
2
MD Step 244
Li  0.32745602 0.32744399 0.64452996
H  1.27533764 1.27564607 2.09004725
2
MD Step 245
Li  0.34322923 0.34322203 0.66861269
H  1.18109390 1.18137000 1.93852898
2
MD Step 246
Li  0.35991879 0.35991672 0.69408427
H  1.08053403 1.08077565 1.77743771
2
MD Step 247
Li  0.37627254 0.37627549 0.71905104
H  0.98228881 0.98249673 1.61982603
2
MD Step 248
Li  0.38960315 0.38961010 0.73952434
H  0.90488134 0.90506263 1.49318663
2
MD Step 249
Li  0.39556222 0.39557067 0.74921577
H  0.87828405 0.87845589 1.44086407
2
MD Step 250
Li  0.39140350 0.39141003 0.74441053
H  0.92142613 0.92161214 1.48846337
2
MD Step 251
Li  0.37995586 0.37995800 0.72937297
H  1.01480900 1.01502619 1.60659154
2
MD Step 252
Li  0.36556171 0.36555847 0.71026402
H  1.12850133 1.12875659 1.75278274
2
MD Step 253
Li  0.35091282 0.35090410 0.69080701
H  1.24394956 1.24424347 1.90137309
2
MD Step 254
Li  0.33727538 0.33726153 0.67272106
H  1.35242612 1.35275633 2.04051302
2
MD Step 255
Li  0.32515526 0.32513679 0.65667952
H  1.45044422 1.45080718 2.16556134
2
MD Step 256
Li  0.31470996 0.31468744 0.64288373
H  1.53691818 1.53730998 2.27513031
2
MD Step 257
Li  0.30594884 0.30592284 0.63133715
H  1.61178346 1.61220017 2.36919601
2
MD Step 258
Li  0.29882252 0.29879360 0.62196624
H  1.67538046 1.67581825 2.44826535
2
MD Step 259
Li  0.29326280 0.29323148 0.61467379
H  1.72817936 1.72863458 2.51300837
2
MD Step 260
Li  0.28920105 0.28916785 0.60936319
H  1.77065307 1.77112221 2.56409103
2
MD Step 261
Li  0.28657755 0.28654295 0.60595029
H  1.80321329 1.80369299 2.60209329
2
MD Step 262
Li  0.28534540 0.28530987 0.60436860
H  1.82618333 1.82667034 2.62747344
2
MD Step 263
Li  0.28547251 0.28543652 0.60457163
H  1.83978424 1.84027538 2.64055204
2
MD Step 264
Li  0.28694254 0.28690653 0.60653372
H  1.84412882 1.84462096 2.64150582
2
MD Step 265
Li  0.28975510 0.28971954 0.61025029
H  1.83921959 1.83970958 2.63036643
2
MD Step 266
Li  0.29392594 0.29389128 0.61573770
H  1.82494817 1.82543284 2.60702108
2
MD Step 267
Li  0.29948676 0.29945349 0.62303295
H  1.80109586 1.80157196 2.57121470
2
MD Step 268
Li  0.30648479 0.30645338 0.63219280
H  1.76733731 1.76780147 2.52255616
2
MD Step 269
Li  0.31498114 0.31495211 0.64329154
H  1.72325115 1.72369987 2.46053333
2
MD Step 270
Li  0.32504767 0.32502154 0.65641648
H  1.66834219 1.66877182 2.38454441
2
MD Step 271
Li  0.33675930 0.33673663 0.67165783
H  1.60209395 1.60250062 2.29396756
2
MD Step 272
Li  0.35017837 0.35015975 0.68908833
H  1.52407669 1.52445641 2.18830143
2
MD Step 273
Li  0.36532054 0.36530655 0.70871943
H  1.43418256 1.43453131 2.06746720
2
MD Step 274
Li  0.38207829 0.38206947 0.73040426
H  1.33315271 1.33346670 1.93247703
2
MD Step 275
Li  0.40004669 0.40004346 0.75361927
H  1.22377808 1.22405448 1.78693980
2
MD Step 276
Li  0.41814927 0.41815168 0.77700261
H  1.11347858 1.11371708 1.64024225
2
MD Step 277
Li  0.43396603 0.43397329 0.79754819
H  1.01893473 1.01914068 1.51310469
2
MD Step 278
Li  0.44314503 0.44315489 0.80997436
H  0.97014325 0.97033218 1.44193220
2
MD Step 279
Li  0.44156729 0.44157610 0.80950150
H  0.99549528 0.99569240 1.45966945
2
MD Step 280
Li  0.43076344 0.43076806 0.79819957
H  1.08444061 1.08466754 1.55204883
2
MD Step 281
Li  0.41559187 0.41559081 0.78186067
H  1.20349156 1.20375855 1.67914686
2
MD Step 282
Li  0.39952317 0.39951613 0.76450008
H  1.32872623 1.32903538 1.81328708
2
MD Step 283
Li  0.38427885 0.38426611 0.74806999
H  1.44827858 1.44862796 1.94101358
2
MD Step 284
Li  0.37057757 0.37055964 0.73336993
H  1.55719524 1.55758122 2.05681544
2
MD Step 285
Li  0.35866455 0.35864206 0.72066434
H  1.65378578 1.65420418 2.15886987
2
MD Step 286
Li  0.34858062 0.34855419 0.70998995
H  1.73776886 1.73821538 2.24692378
2
MD Step 287
Li  0.34028370 0.34025393 0.70129263
H  1.80943455 1.80990499 2.32135021
2
MD Step 288
Li  0.33370257 0.33367004 0.69448730
H  1.86927378 1.86976411 2.38273569
2
MD Step 289
Li  0.32876145 0.32872673 0.68948493
H  1.91780873 1.91831512 2.43169379
2
MD Step 290
Li  0.32539203 0.32535565 0.68620572
H  1.95551039 1.95602915 2.46877454
2
MD Step 291
Li  0.32353923 0.32350171 0.68458501
H  1.98275838 1.98328594 2.49442371
2
MD Step 292
Li  0.32316356 0.32312540 0.68457553
H  1.99982487 2.00035776 2.50896702
2
MD Step 293
Li  0.32424231 0.32420400 0.68614862
H  2.00686643 2.00740125 2.51260211
2
MD Step 294
Li  0.32677000 0.32673204 0.68929451
H  2.00392078 2.00445412 2.50539626
2
MD Step 295
Li  0.33075855 0.33072144 0.69402230
H  1.99090577 1.99143419 2.48728679
2
MD Step 296
Li  0.33623722 0.33620146 0.70035970
H  1.96761981 1.96813982 2.45808265
2
MD Step 297
Li  0.34325209 0.34321821 0.70835232
H  1.93374512 1.93425311 2.41746954
2
MD Step 298
Li  0.35186488 0.35183342 0.71806199
H  1.88885639 1.88934860 2.36502117
2
MD Step 299
Li  0.36215033 0.36212186 0.72956390
H  1.83243845 1.83291097 2.30021938
2
MD Step 300
Li  0.37418915 0.37416427 0.74293884
H  1.76393497 1.76438367 2.22250726
2
MD Step 301
Li  0.38805443 0.38803377 0.75825831
H  1.68284212 1.68326272 2.13139196
2
MD Step 302
Li  0.40378192 0.40376610 0.77555271
H  1.58891354 1.58930167 2.02666400
2
MD Step 303
Li  0.42130451 0.42129415 0.79474216
H  1.48261179 1.48296322 1.90887392
2
MD Step 304
Li  0.44030232 0.44029792 0.81548024
H  1.36614171 1.36645297 1.78040946
2
MD Step 305
Li  0.45987300 0.45987476 0.83681540
H  1.24572296 1.24599271 1.64782954
2
MD Step 306
Li  0.47789914 0.47790652 0.85655658
H  1.13595041 1.13618228 1.52623651
2
MD Step 307
Li  0.49026232 0.49027341 0.87053477
H  1.06521115 1.06541845 1.44436629
2
MD Step 308
Li  0.49189597 0.49190710 0.87380429
H  1.06842789 1.06863584 1.43630836
2
MD Step 309
Li  0.48251941 0.48252681 0.86633146
H  1.14753529 1.14776981 1.50229466
2
MD Step 310
Li  0.46706819 0.46706980 0.85304927
H  1.26851380 1.26878919 1.60832351
2
MD Step 311
Li  0.44984896 0.44984417 0.83810088
H  1.40167872 1.40199914 1.72583702
2
MD Step 312
Li  0.43314191 0.43313090 0.82363016
H  1.53131336 1.53167760 1.84005810
2
MD Step 313
Li  0.41793978 0.41792306 0.81055236
H  1.65057493 1.65097945 1.94467812
2
MD Step 314
Li  0.40460551 0.40458371 0.79919312
H  1.75696186 1.75740226 2.03745252
2
MD Step 315
Li  0.39322479 0.39319859 0.78962257
H  1.84988341 1.85035508 2.11789794
2
MD Step 316
Li  0.38376886 0.38373892 0.78180715
H  1.92953785 1.93003627 2.18624568
2
MD Step 317
Li  0.37616619 0.37613313 0.77567558
H  1.99641829 1.99693908 2.24298705
2
MD Step 318
Li  0.37033529 0.37029973 0.77114867
H  2.05108630 2.05162529 2.28866795
2
MD Step 319
Li  0.36619991 0.36616242 0.76815264
H  2.09406755 2.09462075 2.32379681
2
MD Step 320
Li  0.36369682 0.36365796 0.76662616
H  2.12579783 2.12636139 2.34879643
2
MD Step 321
Li  0.36277885 0.36273917 0.76652292
H  2.14660223 2.14717242 2.36398604
2
MD Step 322
Li  0.36341650 0.36337652 0.76781276
H  2.15668416 2.15725731 2.36957347
2
MD Step 323
Li  0.36559857 0.36555883 0.77048209
H  2.15612076 2.15669323 2.36565246
2
MD Step 324
Li  0.36933240 0.36929342 0.77453386
H  2.14486151 2.14542964 2.35220263
2
MD Step 325
Li  0.37464382 0.37460613 0.77998739
H  2.12272833 2.12328841 2.32909078
2
MD Step 326
Li  0.38157684 0.38154101 0.78687790
H  2.08941785 2.08996606 2.29607423
2
MD Step 327
Li  0.39019253 0.39015914 0.79525536
H  2.04450911 2.04504147 2.25280848
2
MD Step 328
Li  0.40056672 0.40053636 0.80518229
H  1.98747949 1.98799187 2.19886265
2
MD Step 329
Li  0.41278443 0.41275773 0.81672831
H  1.91774298 1.91823103 2.13375682
2
MD Step 330
Li  0.42692744 0.42690507 0.82995922
H  1.83473578 1.83519496 2.05703742
2
MD Step 331
Li  0.44304908 0.44303171 0.84491473
H  1.73809046 1.73851610 1.96843084
2
MD Step 332
Li  0.46111840 0.46110669 0.86155995
H  1.62802022 1.62840773 1.86817747
2
MD Step 333
Li  0.48089342 0.48088796 0.87967658
H  1.50619302 1.50653839 1.75778204
2
MD Step 334
Li  0.50163682 0.50163794 0.89862254
H  1.37769104 1.37799197 1.64167025
2
MD Step 335
Li  0.52154273 0.52155015 0.91685821
H  1.25496163 1.25522010 1.53045438
2
MD Step 336
Li  0.53687663 0.53688878 0.93126878
H  1.16374599 1.16397279 1.44560388
2
MD Step 337
Li  0.54212486 0.54213828 0.93740412
H  1.14204834 1.14226726 1.41779249
2
MD Step 338
Li  0.53499719 0.53500765 0.93362975
H  1.20565468 1.20589494 1.45828628
2
MD Step 339
Li  0.51986373 0.51986848 0.92359234
H  1.32444297 1.32472347 1.54194969
2
MD Step 340
Li  0.50183392 0.50183198 0.91132888
H  1.46319502 1.46352261 1.64095662
2
MD Step 341
Li  0.48385298 0.48384435 0.89910248
H  1.60161029 1.60198485 1.73970813
2
MD Step 342
Li  0.46726054 0.46724572 0.88792032
H  1.73045490 1.73087314 1.83126202
2
MD Step 343
Li  0.45257384 0.45255346 0.87816131
H  1.84616375 1.84662119 1.91300639
2
MD Step 344
Li  0.43994031 0.43991509 0.86992696
H  1.94772063 1.94821240 1.98424175
2
MD Step 345
Li  0.42935214 0.42932277 0.86320422
H  2.03517932 2.03570058 2.04505791
2