 Entering Gaussian System, Link 0=g16
 Initial command:
 /software/gaussian/g16-c01/avx2/g16/l1.exe "/gpfs/fs2/scratch/bweight/software/many_molecule_many_mode_NAMD/src/NAMD/TEST_NVT/TRAJ/traj-45/G16/GS_NEW/Gau-30266.inp" -scrdir="/gpfs/fs2/scratch/bweight/software/many_molecule_many_mode_NAMD/src/NAMD/TEST_NVT/TRAJ/traj-45/G16/GS_NEW/"
 Entering Link 1 = /software/gaussian/g16-c01/avx2/g16/l1.exe PID=     30267.
  
 Copyright (c) 1988-2019, Gaussian, Inc.  All Rights Reserved.
  
 This is part of the Gaussian(R) 16 program.  It is based on
 the Gaussian(R) 09 system (copyright 2009, Gaussian, Inc.),
 the Gaussian(R) 03 system (copyright 2003, Gaussian, Inc.),
 the Gaussian(R) 98 system (copyright 1998, Gaussian, Inc.),
 the Gaussian(R) 94 system (copyright 1995, Gaussian, Inc.),
 the Gaussian 92(TM) system (copyright 1992, Gaussian, Inc.),
 the Gaussian 90(TM) system (copyright 1990, Gaussian, Inc.),
 the Gaussian 88(TM) system (copyright 1988, Gaussian, Inc.),
 the Gaussian 86(TM) system (copyright 1986, Carnegie Mellon
 University), and the Gaussian 82(TM) system (copyright 1983,
 Carnegie Mellon University). Gaussian is a federally registered
 trademark of Gaussian, Inc.
  
 This software contains proprietary and confidential information,
 including trade secrets, belonging to Gaussian, Inc.
  
 This software is provided under written license and may be
 used, copied, transmitted, or stored only in accord with that
 written license.
  
 The following legend is applicable only to US Government
 contracts under FAR:
  
                    RESTRICTED RIGHTS LEGEND
  
 Use, reproduction and disclosure by the US Government is
 subject to restrictions as set forth in subparagraphs (a)
 and (c) of the Commercial Computer Software - Restricted
 Rights clause in FAR 52.227-19.
  
 Gaussian, Inc.
 340 Quinnipiac St., Bldg. 40, Wallingford CT 06492
  
  
 ---------------------------------------------------------------
 Warning -- This program may not be used in any manner that
 competes with the business of Gaussian, Inc. or will provide
 assistance to any competitor of Gaussian, Inc.  The licensee
 of this program is prohibited from giving any competitor of
 Gaussian, Inc. access to this program.  By using this program,
 the user acknowledges that Gaussian, Inc. is engaged in the
 business of creating and licensing software in the field of
 computational chemistry and represents and warrants to the
 licensee that it is not a competitor of Gaussian, Inc. and that
 it will not use this program in any manner prohibited above.
 ---------------------------------------------------------------
  

 Cite this work as:
 Gaussian 16, Revision C.01,
 M. J. Frisch, G. W. Trucks, H. B. Schlegel, G. E. Scuseria, 
 M. A. Robb, J. R. Cheeseman, G. Scalmani, V. Barone, 
 G. A. Petersson, H. Nakatsuji, X. Li, M. Caricato, A. V. Marenich, 
 J. Bloino, B. G. Janesko, R. Gomperts, B. Mennucci, H. P. Hratchian, 
 J. V. Ortiz, A. F. Izmaylov, J. L. Sonnenberg, D. Williams-Young, 
 F. Ding, F. Lipparini, F. Egidi, J. Goings, B. Peng, A. Petrone, 
 T. Henderson, D. Ranasinghe, V. G. Zakrzewski, J. Gao, N. Rega, 
 G. Zheng, W. Liang, M. Hada, M. Ehara, K. Toyota, R. Fukuda, 
 J. Hasegawa, M. Ishida, T. Nakajima, Y. Honda, O. Kitao, H. Nakai, 
 T. Vreven, K. Throssell, J. A. Montgomery, Jr., J. E. Peralta, 
 F. Ogliaro, M. J. Bearpark, J. J. Heyd, E. N. Brothers, K. N. Kudin, 
 V. N. Staroverov, T. A. Keith, R. Kobayashi, J. Normand, 
 K. Raghavachari, A. P. Rendell, J. C. Burant, S. S. Iyengar, 
 J. Tomasi, M. Cossi, J. M. Millam, M. Klene, C. Adamo, R. Cammi, 
 J. W. Ochterski, R. L. Martin, K. Morokuma, O. Farkas, 
 J. B. Foresman, and D. J. Fox, Gaussian, Inc., Wallingford CT, 2019.
 
 ******************************************
 Gaussian 16:  ES64L-G16RevC.01  3-Jul-2019
                11-Jan-2023 
 ******************************************
 %oldchk=../GS_OLD/geometry.chk
 %chk=geometry.chk
 %nprocshared=4
 Will use up to    4 processors via shared memory.
 %mem=5GB
 Copying data from "../GS_OLD/geometry.chk" to current chk file "geometry.chk"
 IOpt=  2 FromEx=T IUOpen= 4 IOptOp= 5 NList=   0 IFRang= 0 IUIn= 4 IUOut= 2.
 -------------------------------------------------------
 # WB97XD/6-311G SCF=XQC FORCE nosym pop=full guess=read
 -------------------------------------------------------
 1/10=7,30=1,38=1/1,3;
 2/12=2,15=1,17=6,18=5,40=1/2;
 3/5=4,6=6,11=2,25=1,30=1,71=1,74=-58,116=-2/1,2,3;
 4/5=1/1;
 5/5=2,8=3,13=1,38=6/2,8;
 6/7=3,28=1/1;
 7/29=1,30=1/1,2,3,16;
 1/10=7,30=1/3;
 99//99;
 -----------
 MD Step 999
 -----------
 Symbolic Z-matrix:
 Charge =  0 Multiplicity = 1
 C                    -0.33638  -0.5821    0.0115 
 H                     0.21847  -1.52692  -0.04657 
 H                    -1.42122  -0.58173  -0.04767 
 C                     0.33243   0.57559   0.00806 
 H                    -0.15746   1.56676  -0.05224 
 H                     1.44314   0.65541  -0.05068 
 

 GradGradGradGradGradGradGradGradGradGradGradGradGradGradGradGradGradGrad
 Berny optimization.
 Initialization pass.
 Trust Radius=3.00D-01 FncErr=1.00D-07 GrdErr=1.00D-07 EigMax=2.50D+02 EigMin=1.00D-04
 Number of steps in this run=      2 maximum allowed number of steps=      2.
 GradGradGradGradGradGradGradGradGradGradGradGradGradGradGradGradGradGrad

                          Input orientation:                          
 ---------------------------------------------------------------------
 Center     Atomic      Atomic             Coordinates (Angstroms)
 Number     Number       Type             X           Y           Z
 ---------------------------------------------------------------------
      1          6           0       -0.336377   -0.582100    0.011498
      2          1           0        0.218473   -1.526918   -0.046571
      3          1           0       -1.421219   -0.581731   -0.047675
      4          6           0        0.332432    0.575589    0.008064
      5          1           0       -0.157465    1.566758   -0.052241
      6          1           0        1.443139    0.655411   -0.050684
 ---------------------------------------------------------------------
                    Distance matrix (angstroms):
                    1          2          3          4          5
     1  C    0.000000
     2  H    1.097229   0.000000
     3  H    1.086455   1.892609   0.000000
     4  C    1.336997   2.106302   2.101854   0.000000
     5  H    2.157235   3.116439   2.492609   1.107272   0.000000
     6  H    2.168404   2.502476   3.120109   1.115120   1.841871
                    6
     6  H    0.000000
 Symmetry turned off by external request.
 Stoichiometry    C2H4
 Framework group  C1[X(C2H4)]
 Deg. of freedom    12
 Full point group                 C1      NOp   1
 Rotational constants (GHZ):         143.3072757          29.6784179          24.6153813
 Standard basis: 6-311G (5D, 7F)
    38 basis functions,    72 primitive gaussians,    38 cartesian basis functions
     8 alpha electrons        8 beta electrons
       nuclear repulsion energy        33.0636449820 Hartrees.
 NAtoms=    6 NActive=    6 NUniq=    6 SFac= 1.00D+00 NAtFMM=   60 NAOKFM=F Big=F
 Integral buffers will be    131072 words long.
 Raffenetti 2 integral format.
 Two-electron integral symmetry is turned off.
 Nuclear repulsion after empirical dispersion term =       33.0628045244 Hartrees.
 One-electron integrals computed using PRISM.
 NBasis=    38 RedAO= T EigKep=  6.40D-03  NBF=    38
 NBsUse=    38 1.00D-06 EigRej= -1.00D+00 NBFU=    38
 Initial guess from the checkpoint file:  "geometry.chk"
 B after Tr=    -0.000209   -0.000330   -0.000508
         Rot=    1.000000    0.000002   -0.000000    0.000006 Ang=   0.00 deg.
 Keep R1 ints in memory in canonical form, NReq=4036876.
 Requested convergence on RMS density matrix=1.00D-08 within  32 cycles.
 Requested convergence on MAX density matrix=1.00D-06.
 Requested convergence on             energy=1.00D-06.
 No special actions if energy rises.
 SCF Done:  E(RwB97XD) =  -78.5548003632     A.U. after    8 cycles
            NFock=  8  Conv=0.64D-08     -V/T= 2.0052
 QCSCF skips out because SCF is already converged.

 **********************************************************************

            Population analysis using the SCF Density.

 **********************************************************************

 Alpha  occ. eigenvalues --  -10.29079 -10.28821  -0.86412  -0.67204  -0.55883
 Alpha  occ. eigenvalues --   -0.50997  -0.43537  -0.35716
 Alpha virt. eigenvalues --    0.07926   0.14079   0.16421   0.16988   0.24089
 Alpha virt. eigenvalues --    0.37333   0.39192   0.40097   0.46343   0.48910
 Alpha virt. eigenvalues --    0.49363   0.59108   0.66474   0.68993   0.77215
 Alpha virt. eigenvalues --    0.77566   0.83181   0.95297   2.23165   2.28972
 Alpha virt. eigenvalues --    2.33294   2.40233   2.67158   2.81524   2.88141
 Alpha virt. eigenvalues --    2.94975   3.14169   3.31245  23.35125  23.70644
     Molecular Orbital Coefficients:
                           1         2         3         4         5
                           O         O         O         O         O
     Eigenvalues --   -10.29079 -10.28821  -0.86412  -0.67204  -0.55883
   1 1   C  1S          0.09829   0.55475  -0.08852   0.06658  -0.00041
   2        2S          0.08110   0.45654  -0.13993   0.10663  -0.00068
   3        2PX         0.00016  -0.00001   0.02610   0.03600   0.13851
   4        2PY         0.00028  -0.00000   0.04659   0.05936  -0.07527
   5        2PZ         0.00000  -0.00001  -0.00244   0.00360   0.00032
   6        3S          0.00168   0.01455   0.37534  -0.29090   0.00192
   7        3PX        -0.00061   0.00043   0.03456   0.05784   0.21725
   8        3PY        -0.00104   0.00077   0.06141   0.09637  -0.11874
   9        3PZ        -0.00002  -0.00006  -0.00408   0.00643   0.00047
  10        4S          0.00336  -0.01469   0.19209  -0.22590   0.00168
  11        4PX         0.00149  -0.00154   0.00475   0.02300   0.11199
  12        4PY         0.00259  -0.00267   0.00860   0.03973  -0.06204
  13        4PZ         0.00001   0.00015  -0.00142   0.00323   0.00022
  14 2   H  1S         -0.00004  -0.00006   0.05263  -0.08717   0.10378
  15        2S         -0.00030   0.00010   0.05386  -0.10503   0.13171
  16        3S          0.00082   0.00168  -0.00183  -0.01509   0.04274
  17 3   H  1S         -0.00005  -0.00007   0.05398  -0.09022  -0.10631
  18        2S         -0.00030   0.00009   0.05471  -0.10804  -0.13409
  19        3S          0.00084   0.00172  -0.00184  -0.01594  -0.04352
  20 4   C  1S          0.55475  -0.09848  -0.08676  -0.06842  -0.00024
  21        2S          0.45660  -0.08085  -0.13699  -0.10974  -0.00038
  22        2PX        -0.00002  -0.00016  -0.02786   0.03790   0.11700
  23        2PY        -0.00002  -0.00029  -0.04703   0.06741  -0.07227
  24        2PZ        -0.00000   0.00000  -0.00189  -0.00375   0.00034
  25        3S          0.01406  -0.00340   0.36697   0.29987   0.00107
  26        3PX        -0.00022   0.00073  -0.03482   0.06149   0.18317
  27        3PY        -0.00035   0.00126  -0.05854   0.10887  -0.11227
  28        3PZ        -0.00006  -0.00001  -0.00326  -0.00677   0.00052
  29        4S         -0.01229   0.00835   0.18856   0.23916   0.00005
  30        4PX         0.00090  -0.00191  -0.00547   0.02698   0.10137
  31        4PY         0.00150  -0.00332  -0.00902   0.04637  -0.06127
  32        4PZ         0.00013  -0.00003  -0.00137  -0.00352   0.00026
  33 5   H  1S         -0.00006  -0.00004   0.04942   0.09376  -0.08796
  34        2S         -0.00001  -0.00032   0.05054   0.11190  -0.11117
  35        3S          0.00179   0.00015  -0.00107   0.01690  -0.03585
  36 6   H  1S         -0.00005  -0.00004   0.04827   0.09229   0.08425
  37        2S         -0.00002  -0.00032   0.04990   0.11056   0.10683
  38        3S          0.00175   0.00015  -0.00116   0.01639   0.03471
                           6         7         8         9        10
                           O         O         O         V         V
     Eigenvalues --    -0.50997  -0.43537  -0.35716   0.07926   0.14079
   1 1   C  1S         -0.00318   0.00010  -0.00190   0.00505  -0.03289
   2        2S         -0.00470   0.00018  -0.00309   0.00838  -0.05274
   3        2PX         0.09501  -0.10926  -0.00619   0.00266  -0.03232
   4        2PY         0.16789   0.06519  -0.01064   0.00454  -0.06391
   5        2PZ         0.00939   0.00009   0.17923  -0.18850  -0.00456
   6        3S          0.01863  -0.00026   0.00902  -0.02536   0.11439
   7        3PX         0.13793  -0.17442  -0.00874   0.00400  -0.03847
   8        3PY         0.24502   0.10460  -0.01502   0.00676  -0.07906
   9        3PZ         0.01490   0.00019   0.28828  -0.27724  -0.00727
  10        4S         -0.05570  -0.00276   0.01282  -0.02898   1.21415
  11        4PX         0.06935  -0.10932  -0.00720   0.02281  -0.19479
  12        4PY         0.12404   0.06573  -0.01244   0.03909  -0.37572
  13        4PZ         0.00846   0.00019   0.26660  -0.69233  -0.02655
  14 2   H  1S         -0.08080  -0.11382   0.00028   0.00789  -0.01663
  15        2S         -0.11187  -0.17600   0.00376   0.01254  -0.04638
  16        3S         -0.04175  -0.08160   0.00223   0.03286  -0.81810
  17 3   H  1S         -0.07971   0.11161   0.00011   0.00790  -0.01353
  18        2S         -0.10977   0.17181   0.00351   0.01254  -0.03920
  19        3S         -0.04066   0.07932   0.00210   0.03215  -0.76882
  20 4   C  1S         -0.00891  -0.00043  -0.00143  -0.00481  -0.03665
  21        2S         -0.01398  -0.00070  -0.00234  -0.00797  -0.05887
  22        2PX        -0.09745   0.12579   0.00609   0.00311   0.04012
  23        2PY        -0.16179  -0.07424   0.01118   0.00562   0.06235
  24        2PZ         0.00985   0.00039   0.17890   0.18902  -0.00554
  25        3S          0.04486   0.00199   0.00691   0.02391   0.13012
  26        3PX        -0.14427   0.20157   0.00849   0.00477   0.04893
  27        3PY        -0.23808  -0.11815   0.01569   0.00866   0.07407
  28        3PZ         0.01558   0.00059   0.28626   0.27712  -0.00841
  29        4S         -0.02694   0.00264   0.01197   0.02681   1.24869
  30        4PX        -0.07538   0.12985   0.00646   0.02402   0.26306
  31        4PY        -0.12321  -0.07576   0.01215   0.04232   0.42232
  32        4PZ         0.00902   0.00037   0.26693   0.69364  -0.03280
  33 5   H  1S         -0.07428  -0.12575   0.00049  -0.00727  -0.01252
  34        2S         -0.10130  -0.19660   0.00401  -0.01212  -0.03877
  35        3S         -0.03780  -0.09279   0.00225  -0.03182  -0.83609
  36 6   H  1S         -0.07966   0.12491   0.00030  -0.00727  -0.01540
  37        2S         -0.10898   0.19630   0.00372  -0.01228  -0.04597
  38        3S         -0.04077   0.09276   0.00205  -0.03245  -0.88654
                          11        12        13        14        15
                           V         V         V         V         V
     Eigenvalues --     0.16421   0.16988   0.24089   0.37333   0.39192
   1 1   C  1S          0.00110  -0.04571   0.00013   0.00928   0.00024
   2        2S          0.00178  -0.07450   0.00019   0.01255   0.00020
   3        2PX         0.09645  -0.01924   0.10031  -0.03559  -0.02172
   4        2PY        -0.05397  -0.03751  -0.05732  -0.06432   0.01152
   5        2PZ         0.00022  -0.01233   0.00002  -0.00863  -0.00035
   6        3S         -0.00395   0.16843   0.00027   0.03473   0.00443
   7        3PX         0.13843  -0.01048   0.10621  -0.04259  -0.09908
   8        3PY        -0.07851  -0.02440  -0.06149  -0.08251   0.05750
   9        3PZ         0.00030  -0.01712  -0.00006  -0.01790  -0.00070
  10        4S         -0.04688   1.44689  -0.02635  -2.54273  -0.10593
  11        4PX         0.58021  -0.11116   1.16082  -1.54894  -0.53552
  12        4PY        -0.31648  -0.21034  -0.66880  -2.70127   0.14446
  13        4PZ         0.00160  -0.08065   0.00113  -0.07796  -0.00473
  14 2   H  1S         -0.02963  -0.02533   0.01393  -0.05934   0.07370
  15        2S         -0.08307  -0.01886  -0.01982  -0.67803   0.73898
  16        3S         -1.02948  -1.01955  -1.54136  -0.29645  -0.30673
  17 3   H  1S          0.02916  -0.02485  -0.01571  -0.05220  -0.07701
  18        2S          0.08225  -0.01991   0.01421  -0.61771  -0.78133
  19        3S          1.09061  -1.00815   1.57333  -0.36650   0.25844
  20 4   C  1S          0.00077   0.04192  -0.00016  -0.02037  -0.00027
  21        2S          0.00122   0.06823  -0.00027  -0.03361  -0.00046
  22        2PX         0.10250  -0.02281  -0.10060  -0.03993  -0.03183
  23        2PY        -0.06095  -0.03763   0.05764  -0.07221   0.01318
  24        2PZ         0.00023   0.01184  -0.00005   0.00594   0.00042
  25        3S         -0.00228  -0.15108   0.00039   0.04820   0.00151
  26        3PX         0.14744  -0.01772  -0.11520  -0.09180  -0.11155
  27        3PY        -0.08701  -0.02777   0.06483  -0.16883   0.05122
  28        3PZ         0.00032   0.01630  -0.00001   0.00680   0.00071
  29        4S         -0.04097  -1.32714   0.01911   3.28303   0.13899
  30        4PX         0.53858  -0.11592  -1.11501  -1.13415  -0.50873
  31        4PY        -0.32469  -0.19475   0.64106  -1.99855   0.16889
  32        4PZ         0.00149   0.07706  -0.00127   0.06333   0.00299
  33 5   H  1S          0.03182   0.02469   0.00496   0.00778  -0.08265
  34        2S          0.06889   0.02200  -0.03282   0.03675  -0.82270
  35        3S          1.06461   0.93126  -1.51886   0.44512   0.49204
  36 6   H  1S         -0.03234   0.02505  -0.00385   0.00138   0.08704
  37        2S         -0.06995   0.02108   0.03397  -0.01667   0.86762
  38        3S         -1.00991   0.93344   1.49828   0.46843  -0.47988
                          16        17        18        19        20
                           V         V         V         V         V
     Eigenvalues --     0.40097   0.46343   0.48910   0.49363   0.59108
   1 1   C  1S         -0.01918   0.01282  -0.04603  -0.00204  -0.00098
   2        2S         -0.03358   0.02949  -0.07685  -0.00291  -0.00176
   3        2PX         0.02954  -0.06166   0.01059   0.00254   0.00374
   4        2PY         0.05202  -0.10612   0.01274   0.00363   0.00565
   5        2PZ         0.00081  -0.00108   0.01393  -0.15101  -0.19262
   6        3S          0.07656  -0.33629   0.08713  -0.01439  -0.00150
   7        3PX         0.11045  -0.24008  -0.03929  -0.00048   0.01243
   8        3PY         0.19778  -0.41167  -0.07956  -0.00298   0.01907
   9        3PZ        -0.00645  -0.00897   0.06141  -0.62478  -0.68538
  10        4S          2.83634   0.12140   3.07212   0.25789   0.12846
  11        4PX         0.33132   0.22529   0.80463   0.07781   0.04113
  12        4PY         0.56360   0.42657   1.40436   0.13871   0.06883
  13        4PZ        -0.00210   0.00438  -0.18391   0.67352   1.24073
  14 2   H  1S         -0.02754  -0.03243  -0.07613  -0.00717  -0.00312
  15        2S         -0.54806  -0.30900  -0.91058  -0.07388  -0.02383
  16        3S          0.33724   0.05928   0.63793   0.07581   0.04292
  17 3   H  1S         -0.02932  -0.03542  -0.07374  -0.00698  -0.00294
  18        2S         -0.55568  -0.34485  -0.88684  -0.07259  -0.02015
  19        3S          0.33351   0.06455   0.60375   0.07275   0.04209
  20 4   C  1S          0.00024  -0.00359   0.05060   0.00719   0.00130
  21        2S         -0.00325   0.00152   0.08824   0.01291   0.00243
  22        2PX         0.01035   0.05399   0.02726   0.00088   0.00368
  23        2PY         0.01813   0.09417   0.05016   0.00153   0.00718
  24        2PZ        -0.00707  -0.00365   0.01431  -0.15205   0.19224
  25        3S          0.08063  -0.28066  -0.23710  -0.04674  -0.00499
  26        3PX        -0.03932   0.23130   0.05824   0.00172   0.01305
  27        3PY        -0.06640   0.40619   0.10556   0.00236   0.02498
  28        3PZ        -0.01975  -0.01454   0.05461  -0.62917   0.68208
  29        4S         -1.05158   0.78743  -3.05511  -0.29884  -0.11195
  30        4PX         1.33064  -0.33727   0.59501   0.04549   0.03909
  31        4PY         2.36224  -0.55253   1.00067   0.07532   0.06847
  32        4PZ        -0.06089  -0.03064   0.04323   0.70133  -1.23769
  33 5   H  1S         -0.04303  -0.06625   0.06270   0.00638   0.00283
  34        2S         -0.80924  -0.68469   0.80126   0.09179   0.00995
  35        3S         -0.23737   0.28024  -0.53455  -0.03494  -0.04158
  36 6   H  1S         -0.04096  -0.06439   0.06322   0.00651   0.00295
  37        2S         -0.78040  -0.65758   0.79641   0.09116   0.01183
  38        3S         -0.23240   0.29245  -0.55617  -0.03807  -0.04225
                          21        22        23        24        25
                           V         V         V         V         V
     Eigenvalues --     0.66474   0.68993   0.77215   0.77566   0.83181
   1 1   C  1S          0.00064  -0.00040   0.05494   0.07017   0.00114
   2        2S          0.00130  -0.00093   0.11601   0.14965   0.00251
   3        2PX        -0.12944   0.19999  -0.01936   0.11416  -0.01356
   4        2PY         0.07560  -0.11935  -0.03424   0.18754   0.01398
   5        2PZ        -0.00006   0.00030   0.00173   0.00882   0.00029
   6        3S         -0.01011   0.01365  -0.79633  -1.30660  -0.02305
   7        3PX        -0.60418   0.70042  -0.14958   0.44932  -0.24064
   8        3PY         0.34999  -0.41760  -0.26300   0.73097   0.16290
   9        3PZ        -0.00042   0.00118   0.00646   0.03076   0.00119
  10        4S          0.01865  -0.07539   0.83081   2.43380  -0.05315
  11        4PX         1.07238  -0.72817   0.09917  -0.73408   4.46519
  12        4PY        -0.62379   0.43125   0.15060  -1.01882  -2.58323
  13        4PZ         0.00019   0.00158   0.01129  -0.10212   0.00411
  14 2   H  1S          0.02290  -0.05950   0.01211   0.03204  -0.02480
  15        2S          0.12623  -0.66548   0.08720   0.08054  -1.54909
  16        3S         -1.02613   1.09586  -0.15570  -1.10263  -1.22861
  17 3   H  1S         -0.02237   0.05922   0.01198   0.03273   0.02762
  18        2S         -0.13702   0.69765   0.09836   0.05428   1.58373
  19        3S          1.01729  -1.07111  -0.15658  -1.22454   1.22652
  20 4   C  1S          0.00087  -0.00055   0.08574   0.02651   0.00068
  21        2S          0.00174  -0.00104   0.18246   0.05567   0.00145
  22        2PX        -0.15404  -0.18228  -0.09418   0.05795   0.01346
  23        2PY         0.08816   0.10195  -0.16821   0.10543  -0.00280
  24        2PZ        -0.00013  -0.00037   0.00907  -0.00243  -0.00027
  25        3S         -0.01220   0.00146  -1.51479  -0.29320  -0.00979
  26        3PX        -0.69187  -0.60929  -0.33983   0.29968   0.24560
  27        3PY         0.39797   0.33873  -0.60957   0.54280  -0.11437
  28        3PZ        -0.00067  -0.00130   0.03208  -0.00916  -0.00089
  29        4S          0.01011   0.04754   2.70877  -0.04342   0.03955
  30        4PX         1.29034   0.65877   0.51969  -0.28989  -4.11898
  31        4PY        -0.73667  -0.37377   0.96490  -0.71332   2.31618
  32        4PZ         0.00130  -0.00079  -0.09226   0.05184  -0.00342
  33 5   H  1S         -0.02615  -0.05508   0.03469   0.00108  -0.02056
  34        2S         -0.15128  -0.57584   0.07419   0.07002  -1.37081
  35        3S          1.12525   0.95327  -1.13101   0.35451  -1.08432
  36 6   H  1S          0.02655   0.05473   0.03441   0.00180   0.02100
  37        2S          0.14644   0.54589   0.06962   0.02286   1.36360
  38        3S         -1.12714  -0.95942  -1.08529   0.28953   1.09388
                          26        27        28        29        30
                           V         V         V         V         V
     Eigenvalues --     0.95297   2.23165   2.28972   2.33294   2.40233
   1 1   C  1S          0.09590  -0.01003  -0.01456   0.00026  -0.00041
   2        2S          0.19934   0.00179  -0.01453   0.00072  -0.00040
   3        2PX        -0.09165  -0.07542  -0.13491   0.34967  -0.39947
   4        2PY        -0.15875  -0.14068  -0.23138  -0.20021   0.22915
   5        2PZ         0.00036  -0.02481  -0.03373  -0.00027  -0.00107
   6        3S         -1.54477  -0.18694  -0.03674  -0.00210  -0.00448
   7        3PX        -0.23484   0.07004   0.21296  -0.41982   0.55891
   8        3PY        -0.40083   0.14343   0.37812   0.24252  -0.32369
   9        3PZ        -0.00453   0.02482   0.04206   0.00050   0.00121
  10        4S          5.71911  -0.10522  -0.88803  -0.00207  -0.02894
  11        4PX         1.19025   0.05599  -0.19439  -0.06031   0.93575
  12        4PY         2.00291   0.07270  -0.35587   0.02655  -0.52740
  13        4PZ        -0.03500   0.00545   0.01532  -0.00042   0.00206
  14 2   H  1S          0.01537  -0.70171  -0.79747  -0.71474   0.64880
  15        2S         -0.28521   0.99637   1.19606   1.10736  -1.43747
  16        3S         -0.08926  -0.29727  -0.47419  -0.47285   0.37258
  17 3   H  1S          0.01544  -0.69437  -0.80086   0.70002  -0.66915
  18        2S         -0.26558   0.98793   1.20319  -1.08929   1.47873
  19        3S         -0.08020  -0.27648  -0.46514   0.45935  -0.36730
  20 4   C  1S         -0.09381  -0.01029   0.01198   0.00040   0.00023
  21        2S         -0.19458   0.00023   0.01202   0.00054   0.00040
  22        2PX        -0.09292   0.13691  -0.12274   0.29859   0.41734
  23        2PY        -0.16018   0.24063  -0.20577  -0.17255  -0.23690
  24        2PZ         0.00063  -0.02693   0.03192   0.00061   0.00040
  25        3S          1.50364  -0.16713   0.01607   0.00014  -0.00033
  26        3PX        -0.22941  -0.17615   0.21154  -0.37432  -0.58633
  27        3PY        -0.39953  -0.30588   0.34997   0.21423   0.33215
  28        3PZ         0.00668   0.02908  -0.04090  -0.00068  -0.00060
  29        4S         -5.69249  -0.17482   0.88946   0.01558   0.01369
  30        4PX         1.12013  -0.01408  -0.19386   0.12189  -0.81095
  31        4PY         1.97649  -0.03099  -0.31858  -0.07052   0.46557
  32        4PZ         0.02265   0.00860  -0.01170  -0.00020  -0.00166
  33 5   H  1S         -0.01801  -0.79483   0.66599   0.70183   0.69308
  34        2S          0.29773   1.15715  -1.01902  -1.01268  -1.44666
  35        3S          0.06076  -0.36088   0.39786   0.51156   0.44794
  36 6   H  1S         -0.01815  -0.78657   0.68938  -0.68681  -0.69296
  37        2S          0.31159   1.14300  -1.05062   0.98739   1.44092
  38        3S          0.06035  -0.35941   0.42230  -0.50634  -0.45285
                          31        32        33        34        35
                           V         V         V         V         V
     Eigenvalues --     2.67158   2.81524   2.88141   2.94975   3.14169
   1 1   C  1S          0.00093   0.00442  -0.01282  -0.00002  -0.00970
   2        2S          0.00074   0.01267  -0.04269  -0.00029  -0.02989
   3        2PX         0.00910   0.12656  -0.46367  -0.72684   0.44146
   4        2PY         0.01464   0.22282  -0.83644   0.40150   0.77789
   5        2PZ        -0.92326  -0.90939  -0.24073  -0.00201   0.01178
   6        3S         -0.00300  -0.10451   0.37581   0.00413   0.25195
   7        3PX        -0.00660  -0.21878   0.81944   0.87470  -0.42015
   8        3PY        -0.01071  -0.38177   1.45201  -0.46961  -0.74182
   9        3PZ         0.93826   1.11064   0.30250   0.00277  -0.01517
  10        4S          0.02431   0.24407  -0.85040  -0.01462  -0.49478
  11        4PX        -0.00382   0.17500  -0.69938  -0.66228   0.20761
  12        4PY        -0.00515   0.30600  -1.24244   0.34710   0.36611
  13        4PZ        -0.33827  -0.59738  -0.19315  -0.00221   0.00881
  14 2   H  1S          0.02236  -0.03234   0.26291  -0.36880  -0.21426
  15        2S         -0.02550   0.01924  -0.22063   0.37962   0.16261
  16        3S         -0.00559   0.07067  -0.29357   0.27206   0.05644
  17 3   H  1S          0.02259  -0.03075   0.25033   0.37310  -0.21040
  18        2S         -0.02611   0.01620  -0.19979  -0.37911   0.15895
  19        3S         -0.00639   0.07153  -0.29456  -0.28973   0.06020
  20 4   C  1S          0.00092  -0.00429   0.01317   0.00057  -0.00705
  21        2S          0.00088  -0.01338   0.04695   0.00139  -0.02224
  22        2PX        -0.01372   0.11018  -0.38759  -0.81046  -0.50840
  23        2PY        -0.02479   0.19843  -0.70011   0.45040  -0.89794
  24        2PZ        -0.92552   0.90529   0.24590   0.00091   0.02473
  25        3S         -0.00494   0.11521  -0.42456  -0.01111   0.19274
  26        3PX         0.01427  -0.20203   0.73985   0.96544   0.54891
  27        3PY         0.02540  -0.35973   1.31939  -0.52626   0.97660
  28        3PZ         0.94126  -1.10586  -0.31037  -0.00114  -0.03118
  29        4S          0.02820  -0.24905   0.88244   0.03028  -0.36736
  30        4PX        -0.00156   0.17237  -0.68936  -0.70062  -0.33939
  31        4PY        -0.00359   0.30420  -1.21367   0.37300  -0.60569
  32        4PZ        -0.33979   0.59443   0.19983   0.00073   0.02470
  33 5   H  1S          0.02102   0.04730  -0.29502   0.42057  -0.26679
  34        2S         -0.02610  -0.03891   0.27194  -0.43170   0.21088
  35        3S         -0.00235  -0.06551   0.27582  -0.23933   0.12815
  36 6   H  1S          0.02134   0.04798  -0.29225  -0.43035  -0.25828
  37        2S         -0.02711  -0.04075   0.27496   0.44095   0.20467
  38        3S         -0.00159  -0.06152   0.25900   0.24240   0.12439
                          36        37        38
                           V         V         V
     Eigenvalues --     3.31245  23.35125  23.70644
   1 1   C  1S         -0.00044  -1.41233  -1.45393
   2        2S         -0.00070   1.50618   1.57230
   3        2PX         0.79184  -0.00647   0.01205
   4        2PY        -0.44428  -0.01061   0.02121
   5        2PZ         0.00132  -0.00101  -0.00046
   6        3S          0.00177  -0.29555  -0.40040
   7        3PX        -1.12895   0.02399  -0.05578
   8        3PY         0.63168   0.03993  -0.09724
   9        3PZ        -0.00205   0.00286   0.00139
  10        4S         -0.02184   0.27387   0.77106
  11        4PX         1.93267  -0.02594   0.13304
  12        4PY        -1.08812  -0.04401   0.23080
  13        4PZ         0.00331  -0.00483  -0.00571
  14 2   H  1S          0.56097   0.01317   0.00721
  15        2S         -0.85906   0.00749  -0.01476
  16        3S         -0.45800  -0.08442  -0.03924
  17 3   H  1S         -0.57171   0.01472   0.00839
  18        2S          0.87392   0.00713  -0.01528
  19        3S          0.47879  -0.08618  -0.03995
  20 4   C  1S          0.00016  -1.44910   1.41710
  21        2S         -0.00001   1.54550  -1.53257
  22        2PX        -0.70746   0.00596   0.01271
  23        2PY         0.40140   0.01072   0.02155
  24        2PZ        -0.00106  -0.00100   0.00023
  25        3S          0.00245  -0.30312   0.39042
  26        3PX         1.00644  -0.02216  -0.05693
  27        3PY        -0.57800  -0.03942  -0.09757
  28        3PZ         0.00162   0.00287  -0.00058
  29        4S         -0.00284   0.27943  -0.76135
  30        4PX        -1.73459   0.02320   0.13220
  31        4PY         0.99927   0.04275   0.22700
  32        4PZ        -0.00264  -0.00465   0.00398
  33 5   H  1S          0.47395   0.01295  -0.00434
  34        2S         -0.72742   0.00810   0.01387
  35        3S         -0.41534  -0.08262   0.03727
  36 6   H  1S         -0.47029   0.01176  -0.00322
  37        2S          0.72409   0.00932   0.01300
  38        3S          0.40970  -0.08116   0.03610
     Density Matrix:
                           1         2         3         4         5
   1 1   C  1S          0.65939
   2        2S          0.56150   0.49198
   3        2PX        -0.00052  -0.00069   0.08433
   4        2PY        -0.00124  -0.00172   0.00364   0.08782
   5        2PZ         0.00016   0.00024  -0.00023  -0.00050   0.06446
   6        3S         -0.08888  -0.15376   0.00267   0.00618  -0.00034
   7        3PX         0.00088   0.00135   0.13058   0.00114  -0.00018
   8        3PY         0.00122   0.00188   0.00114   0.13127  -0.00045
   9        3PZ         0.00032   0.00053  -0.00040  -0.00080   0.10368
  10        4S         -0.07943  -0.11436  -0.01591  -0.02851   0.00099
  11        4PX         0.00028   0.00161   0.07008  -0.00450  -0.00108
  12        4PY         0.00064   0.00307  -0.00452   0.06534  -0.00191
  13        4PZ        -0.00021  -0.00050  -0.00151  -0.00259   0.09575
  14 2   H  1S         -0.02060  -0.03281   0.03473  -0.06304  -0.00225
  15        2S         -0.02291  -0.03664   0.04889  -0.08787  -0.00172
  16        3S          0.00055  -0.00074   0.02053  -0.03310  -0.00007
  17 3   H  1S         -0.02105  -0.03349  -0.07266  -0.00189  -0.00242
  18        2S         -0.02320  -0.03706  -0.10051  -0.00207  -0.00191
  19        3S          0.00058  -0.00072  -0.03838   0.00113  -0.00013
  20 4   C  1S          0.00610   0.00983  -0.01092  -0.01888  -0.00075
  21        2S          0.00979   0.01531  -0.01748  -0.03021  -0.00122
  22        2PX         0.01032   0.01649  -0.01240  -0.03216   0.00086
  23        2PY         0.01801   0.02880  -0.03228  -0.04974   0.00163
  24        2PZ        -0.00090  -0.00147  -0.00070  -0.00112   0.06430
  25        3S         -0.02636  -0.04003   0.04905   0.08482   0.00369
  26        3PX         0.01589   0.02462  -0.01822  -0.04586   0.00110
  27        3PY         0.02771   0.04295  -0.04594  -0.07131   0.00213
  28        3PZ        -0.00153  -0.00246  -0.00123  -0.00197   0.10287
  29        4S          0.00543   0.00404   0.02123   0.03699   0.00459
  30        4PX         0.00301   0.00626  -0.01304  -0.02109   0.00121
  31        4PY         0.00516   0.01077  -0.02111  -0.03762   0.00237
  32        4PZ        -0.00131  -0.00211  -0.00193  -0.00319   0.09583
  33 5   H  1S          0.00420   0.00689  -0.00168  -0.01237  -0.00086
  34        2S          0.00628   0.01044   0.00356  -0.02500  -0.00001
  35        3S          0.00321   0.00469   0.00430  -0.01753   0.00018
  36 6   H  1S          0.00415   0.00680  -0.00993  -0.00770  -0.00088
  37        2S          0.00616   0.01024  -0.02349  -0.00938  -0.00006
  38        3S          0.00314   0.00460  -0.01731  -0.00502   0.00013
                           6         7         8         9        10
   6        3S          0.45230
   7        3PX        -0.00179   0.20252
   8        3PY        -0.00160  -0.00484   0.19672
   9        3PZ        -0.00105  -0.00033  -0.00069   0.16677
  10        4S          0.27338  -0.02677  -0.04863   0.00126   0.18287
  11        4PX        -0.00691   0.10904  -0.01025  -0.00176  -0.01544
  12        4PY        -0.01260  -0.01027   0.09835  -0.00307  -0.02926
  13        4PZ         0.00218  -0.00202  -0.00343   0.15402   0.00388
  14 2   H  1S          0.08767   0.05606  -0.09839  -0.00374   0.06959
  15        2S          0.09804   0.07927  -0.13666  -0.00290   0.08212
  16        3S          0.00615   0.03361  -0.05088  -0.00013   0.01137
  17 3   H  1S          0.08958  -0.11382  -0.00123  -0.00397   0.06941
  18        2S          0.09929  -0.15725  -0.00021  -0.00314   0.08074
  19        3S          0.00626  -0.05980   0.00364  -0.00020   0.01045
  20 4   C  1S         -0.02668  -0.01706  -0.02951  -0.00128   0.00516
  21        2S         -0.04037  -0.02652  -0.04589  -0.00207   0.00389
  22        2PX        -0.04611  -0.01758  -0.04552   0.00148  -0.01711
  23        2PY        -0.08060  -0.04578  -0.07077   0.00278  -0.03004
  24        2PZ         0.00436  -0.00096  -0.00150   0.10341   0.00446
  25        3S          0.10276   0.07205   0.12477   0.00618   0.00087
  26        3PX        -0.06652  -0.02597  -0.06470   0.00192  -0.02539
  27        3PY        -0.11621  -0.06497  -0.10140   0.00368  -0.04451
  28        3PZ         0.00724  -0.00170  -0.00267   0.16545   0.00741
  29        4S          0.00182   0.03218   0.05627   0.00764  -0.03264
  30        4PX        -0.02222  -0.01942  -0.02952   0.00201  -0.00604
  31        4PY        -0.03841  -0.02966  -0.05422   0.00392  -0.01006
  32        4PZ         0.00617  -0.00270  -0.00443   0.15413   0.00691
  33 5   H  1S         -0.02048  -0.00059  -0.01769  -0.00126  -0.01468
  34        2S         -0.03120   0.00870  -0.03672   0.00014  -0.01903
  35        3S         -0.01208   0.00820  -0.02637   0.00033  -0.00338
  36 6   H  1S         -0.02016  -0.01494  -0.00920  -0.00128  -0.01467
  37        2S         -0.03056  -0.03595  -0.01038   0.00009  -0.01926
  38        3S         -0.01179  -0.02675  -0.00586   0.00026  -0.00365
                          11        12        13        14        15
  11        4PX         0.05982
  12        4PY        -0.00896   0.05075
  13        4PZ        -0.00252  -0.00430   0.14232
  14 2   H  1S          0.03341  -0.05391  -0.00193   0.08124
  15        2S          0.04809  -0.07475  -0.00073   0.10946   0.14958
  16        3S          0.02088  -0.02768   0.00038   0.03663   0.05231
  17 3   H  1S         -0.06291   0.00185  -0.00203  -0.01318  -0.02469
  18        2S         -0.08733   0.00426  -0.00083  -0.02461  -0.04262
  19        3S         -0.03351   0.00439   0.00035  -0.01793  -0.02712
  20 4   C  1S         -0.00319  -0.00574  -0.00113   0.00424   0.00675
  21        2S         -0.00657  -0.01174  -0.00182   0.00702   0.01126
  22        2PX        -0.01342  -0.01977   0.00202   0.00186  -0.00257
  23        2PY        -0.01990  -0.03666   0.00373   0.01135   0.02415
  24        2PZ        -0.00141  -0.00233   0.09554  -0.00106  -0.00032
  25        3S          0.02326   0.04131   0.00534  -0.02112  -0.03388
  26        3PX        -0.02069  -0.02795   0.00274   0.00107  -0.00703
  27        3PY        -0.02811  -0.05342   0.00511   0.01693   0.03623
  28        3PZ        -0.00232  -0.00384   0.15287  -0.00155  -0.00033
  29        4S          0.00826   0.01549   0.00694  -0.01808  -0.02472
  30        4PX        -0.01504  -0.01231   0.00245  -0.00161  -0.00835
  31        4PY        -0.01236  -0.02967   0.00466   0.01541   0.02747
  32        4PZ        -0.00279  -0.00469   0.14246  -0.00087   0.00052
  33 5   H  1S          0.00227  -0.01576  -0.00062   0.01123   0.02335
  34        2S          0.00961  -0.02752   0.00088   0.02386   0.04455
  35        3S          0.00776  -0.01585   0.00062   0.01673   0.02803
  36 6   H  1S         -0.01479  -0.00564  -0.00064  -0.00908  -0.01814
  37        2S         -0.02860  -0.00493   0.00084  -0.01892  -0.03440
  38        3S         -0.01745  -0.00099   0.00057  -0.01030  -0.01794
                          16        17        18        19        20
  16        3S          0.02094
  17 3   H  1S         -0.01812   0.08233
  18        2S         -0.02726   0.10976   0.14845
  19        3S         -0.01277   0.03612   0.05111   0.02021
  20 4   C  1S          0.00375   0.00431   0.00680   0.00376   0.65948
  21        2S          0.00553   0.00713   0.01135   0.00554   0.56157
  22        2PX        -0.00341   0.00889   0.02205   0.01662   0.00122
  23        2PY         0.01763   0.00735   0.00976   0.00574   0.00192
  24        2PZ         0.00006  -0.00104  -0.00026   0.00011   0.00015
  25        3S         -0.01433  -0.02142  -0.03405  -0.01429  -0.08927
  26        3PX        -0.00688   0.01419   0.03478   0.02597  -0.00047
  27        3PY         0.02657   0.00949   0.01196   0.00720  -0.00102
  28        3PZ         0.00014  -0.00153  -0.00024   0.00021   0.00033
  29        4S         -0.00602  -0.01792  -0.02414  -0.00565  -0.08029
  30        4PX        -0.00700   0.01399   0.02760   0.01709  -0.00020
  31        4PY         0.01609   0.00642   0.00652   0.00193  -0.00021
  32        4PZ         0.00051  -0.00087   0.00056   0.00054  -0.00006
  33 5   H  1S          0.01620  -0.00911  -0.01816  -0.00942  -0.01999
  34        2S          0.02750  -0.01883  -0.03413  -0.01701  -0.02202
  35        3S          0.01474  -0.01023  -0.01773  -0.00905   0.00060
  36 6   H  1S         -0.00949   0.01123   0.02316   0.01584  -0.01978
  37        2S         -0.01731   0.02391   0.04432   0.02701  -0.02204
  38        3S         -0.00925   0.01674   0.02786   0.01450   0.00049
                          21        22        23        24        25
  21        2S          0.49207
  22        2PX         0.00176   0.08252
  23        2PY         0.00274   0.00381   0.08758
  24        2PZ         0.00022   0.00026   0.00038   0.06424
  25        3S         -0.15426  -0.00563  -0.00890  -0.00028   0.45372
  26        3PX        -0.00070   0.12839   0.00203   0.00015  -0.00032
  27        3PY        -0.00154   0.00211   0.13134   0.00016   0.00045
  28        3PZ         0.00055   0.00039   0.00059   0.10280  -0.00110
  29        4S         -0.11604   0.01369   0.02309   0.00125   0.27918
  30        4PX        -0.00147   0.07351  -0.00524   0.00081   0.00626
  31        4PY        -0.00226  -0.00522   0.06735   0.00151   0.00993
  32        4PZ        -0.00023   0.00146   0.00261   0.09572   0.00139
  33 5   H  1S         -0.03185  -0.03338   0.06342  -0.00234   0.08516
  34        2S         -0.03519  -0.05002   0.08846  -0.00182   0.09415
  35        3S         -0.00060  -0.02300   0.03362  -0.00016   0.00559
  36 6   H  1S         -0.03153   0.07097   0.00296  -0.00218   0.08431
  37        2S         -0.03523   0.10127   0.00097  -0.00161   0.09421
  38        3S         -0.00074   0.04074  -0.00323  -0.00009   0.00585
                          26        27        28        29        30
  26        3PX         0.20012
  27        3PY        -0.00233   0.19755
  28        3PZ         0.00019   0.00022   0.16449
  29        4S          0.02536   0.04260   0.00155   0.18770
  30        4PX         0.11504  -0.01084   0.00128   0.01570   0.06725
  31        4PY        -0.01091   0.10185   0.00240   0.02521  -0.01075
  32        4PZ         0.00184   0.00333   0.15316   0.00370   0.00206
  33 5   H  1S         -0.05339   0.09948  -0.00386   0.06683  -0.03476
  34        2S         -0.08045   0.13823  -0.00305   0.07708  -0.05279
  35        3S         -0.03745   0.05185  -0.00026   0.00923  -0.02471
  36 6   H  1S          0.11220   0.00395  -0.00364   0.06732   0.06599
  37        2S          0.15990  -0.00013  -0.00274   0.07871   0.09453
  38        3S          0.06401  -0.00653  -0.00016   0.01010   0.03820
                          31        32        33        34        35
  31        4PY         0.05413
  32        4PZ         0.00388   0.14269
  33 5   H  1S          0.05595  -0.00201   0.08060
  34        2S          0.07794  -0.00081   0.11003   0.15273
  35        3S          0.02941   0.00032   0.03832   0.05581   0.02324
  36 6   H  1S         -0.00193  -0.00192  -0.01232  -0.02617  -0.02018
  37        2S         -0.00653  -0.00069  -0.02630  -0.04904  -0.03220
  38        3S         -0.00667   0.00034  -0.02042  -0.03236  -0.01605
                          36        37        38
  36 6   H  1S          0.07979
  37        2S          0.10963   0.15309
  38        3S          0.03843   0.05624   0.02350
    Full Mulliken population analysis:
                           1         2         3         4         5
   1 1   C  1S          0.65939
   2        2S          0.49324   0.49198
   3        2PX         0.00000   0.00000   0.08433
   4        2PY         0.00000   0.00000   0.00000   0.08782
   5        2PZ         0.00000   0.00000   0.00000   0.00000   0.06446
   6        3S         -0.02926  -0.06439   0.00000   0.00000   0.00000
   7        3PX         0.00000   0.00000   0.08215   0.00000   0.00000
   8        3PY         0.00000   0.00000   0.00000   0.08258   0.00000
   9        3PZ         0.00000   0.00000   0.00000   0.00000   0.06523
  10        4S         -0.01221  -0.02140   0.00000   0.00000   0.00000
  11        4PX         0.00000   0.00000   0.01543   0.00000   0.00000
  12        4PY         0.00000   0.00000   0.00000   0.01439   0.00000
  13        4PZ         0.00000   0.00000   0.00000   0.00000   0.02109
  14 2   H  1S         -0.00023  -0.00033   0.00181   0.00560   0.00001
  15        2S         -0.00167  -0.00320   0.00430   0.01317   0.00002
  16        3S          0.00004  -0.00007   0.00069   0.00190   0.00000
  17 3   H  1S         -0.00025  -0.00037   0.00785  -0.00000   0.00001
  18        2S         -0.00173  -0.00332   0.01770  -0.00000   0.00002
  19        3S          0.00005  -0.00007   0.00255   0.00000   0.00000
  20 4   C  1S          0.00000   0.00000  -0.00002  -0.00006   0.00000
  21        2S          0.00000  -0.00000  -0.00002  -0.00006   0.00000
  22        2PX        -0.00002  -0.00002   0.00011   0.00086   0.00000
  23        2PY        -0.00006  -0.00005   0.00086   0.00198   0.00000
  24        2PZ        -0.00000  -0.00000  -0.00000  -0.00000   0.00042
  25        3S         -0.00059  -0.00100   0.00257   0.00769  -0.00000
  26        3PX        -0.00054  -0.00099   0.00019   0.00556   0.00000
  27        3PY        -0.00163  -0.00299   0.00557   0.01071   0.00000
  28        3PZ        -0.00000  -0.00000  -0.00000  -0.00000   0.00613
  29        4S          0.00034   0.00031   0.00096   0.00291  -0.00000
  30        4PX        -0.00018  -0.00044  -0.00071   0.00146   0.00000
  31        4PY        -0.00052  -0.00133   0.00146   0.00097   0.00000
  32        4PZ        -0.00000  -0.00000  -0.00000  -0.00000   0.00903
  33 5   H  1S          0.00000   0.00000  -0.00000  -0.00000   0.00000
  34        2S          0.00001   0.00002   0.00000  -0.00031   0.00000
  35        3S          0.00007   0.00013   0.00001  -0.00070  -0.00000
  36 6   H  1S          0.00000   0.00000  -0.00000  -0.00000   0.00000
  37        2S          0.00001   0.00002  -0.00023  -0.00006   0.00000
  38        3S          0.00007   0.00012  -0.00056  -0.00011  -0.00000
                           6         7         8         9        10
   6        3S          0.45230
   7        3PX         0.00000   0.20252
   8        3PY         0.00000   0.00000   0.19672
   9        3PZ         0.00000   0.00000   0.00000   0.16677
  10        4S          0.21178   0.00000   0.00000   0.00000   0.18287
  11        4PX         0.00000   0.07125   0.00000   0.00000   0.00000
  12        4PY         0.00000   0.00000   0.06427   0.00000   0.00000
  13        4PZ         0.00000   0.00000   0.00000   0.10065   0.00000
  14 2   H  1S          0.01609   0.01080   0.03227   0.00008   0.01840
  15        2S          0.04125   0.01958   0.05747   0.00007   0.04732
  16        3S          0.00283   0.00396   0.01020   0.00000   0.00858
  17 3   H  1S          0.01693   0.04414  -0.00000   0.00008   0.01856
  18        2S          0.04246   0.07719  -0.00000   0.00008   0.04693
  19        3S          0.00290   0.01386   0.00000   0.00000   0.00792
  20 4   C  1S         -0.00060  -0.00058  -0.00173   0.00000   0.00033
  21        2S         -0.00101  -0.00107  -0.00319   0.00000   0.00030
  22        2PX         0.00241   0.00018   0.00552   0.00000   0.00078
  23        2PY         0.00730   0.00555   0.01063   0.00000   0.00236
  24        2PZ         0.00000  -0.00000  -0.00000   0.00616   0.00000
  25        3S          0.02196   0.01353   0.04056  -0.00001   0.00033
  26        3PX         0.01249  -0.00126   0.01849   0.00000   0.00392
  27        3PY         0.03778   0.01856   0.02847   0.00001   0.01189
  28        3PZ         0.00001  -0.00000  -0.00000   0.03536   0.00001
  29        4S          0.00069   0.00496   0.01503  -0.00001  -0.02051
  30        4PX         0.00625  -0.00399   0.00584   0.00000   0.00183
  31        4PY         0.01869   0.00587   0.00123   0.00000   0.00528
  32        4PZ         0.00001  -0.00000  -0.00000   0.04931   0.00001
  33 5   H  1S         -0.00005  -0.00000  -0.00019   0.00000  -0.00078
  34        2S         -0.00119   0.00006  -0.00319  -0.00000  -0.00318
  35        3S         -0.00196   0.00011  -0.00423  -0.00000  -0.00121
  36 6   H  1S         -0.00005  -0.00012  -0.00005   0.00000  -0.00076
  37        2S         -0.00113  -0.00250  -0.00050  -0.00000  -0.00316
  38        3S         -0.00188  -0.00350  -0.00053  -0.00000  -0.00130
                          11        12        13        14        15
  11        4PX         0.05982
  12        4PY         0.00000   0.05075
  13        4PZ         0.00000   0.00000   0.14232
  14 2   H  1S          0.00632   0.01738   0.00004   0.08124
  15        2S          0.01533   0.04057   0.00002   0.07732   0.14958
  16        3S          0.00521   0.01177  -0.00001   0.01369   0.04127
  17 3   H  1S          0.02354   0.00000   0.00004  -0.00001  -0.00064
  18        2S          0.05488   0.00000   0.00003  -0.00064  -0.00530
  19        3S          0.01645   0.00000  -0.00001  -0.00199  -0.00788
  20 4   C  1S         -0.00019  -0.00058   0.00000   0.00000   0.00002
  21        2S         -0.00047  -0.00144   0.00000   0.00000   0.00003
  22        2PX        -0.00073   0.00137   0.00000  -0.00000   0.00000
  23        2PY         0.00138   0.00094   0.00000  -0.00000  -0.00036
  24        2PZ        -0.00000  -0.00000   0.00900   0.00000   0.00000
  25        3S          0.00654   0.02010  -0.00001  -0.00007  -0.00151
  26        3PX        -0.00425   0.00553   0.00000  -0.00000   0.00004
  27        3PY         0.00556   0.00121   0.00001  -0.00023  -0.00358
  28        3PZ        -0.00000  -0.00000   0.04890   0.00000   0.00000
  29        4S          0.00250   0.00813  -0.00001  -0.00106  -0.00446
  30        4PX        -0.00725   0.00311   0.00000   0.00001   0.00017
  31        4PY         0.00313  -0.00565   0.00001  -0.00246  -0.01038
  32        4PZ        -0.00000  -0.00001   0.08951   0.00000  -0.00001
  33 5   H  1S          0.00003  -0.00232   0.00000   0.00000   0.00000
  34        2S          0.00029  -0.00983  -0.00001   0.00000   0.00016
  35        3S          0.00030  -0.00730  -0.00001   0.00023   0.00147
  36 6   H  1S         -0.00176  -0.00047   0.00000  -0.00000  -0.00004
  37        2S         -0.00832  -0.00100  -0.00001  -0.00004  -0.00090
  38        3S         -0.00659  -0.00026  -0.00001  -0.00046  -0.00247
                          16        17        18        19        20
  16        3S          0.02094
  17 3   H  1S         -0.00201   0.08233
  18        2S         -0.00792   0.07753   0.14845
  19        3S         -0.00662   0.01350   0.04032   0.02021
  20 4   C  1S          0.00009   0.00000   0.00002   0.00009   0.65948
  21        2S          0.00016   0.00000   0.00003   0.00017   0.49331
  22        2PX         0.00001  -0.00000  -0.00028  -0.00059   0.00000
  23        2PY        -0.00074  -0.00000  -0.00008  -0.00013   0.00000
  24        2PZ        -0.00000   0.00000   0.00000  -0.00000   0.00000
  25        3S         -0.00248  -0.00007  -0.00153  -0.00249  -0.02939
  26        3PX         0.00006  -0.00016  -0.00291  -0.00365   0.00000
  27        3PY        -0.00446  -0.00007  -0.00066  -0.00067   0.00000
  28        3PZ        -0.00000   0.00000   0.00000  -0.00000   0.00000
  29        4S         -0.00227  -0.00106  -0.00438  -0.00214  -0.01235
  30        4PX         0.00018  -0.00188  -0.00876  -0.00676   0.00000
  31        4PY        -0.00760  -0.00057  -0.00137  -0.00050   0.00000
  32        4PZ        -0.00001   0.00000  -0.00001  -0.00001   0.00000
  33 5   H  1S          0.00023  -0.00000  -0.00004  -0.00043  -0.00021
  34        2S          0.00144  -0.00004  -0.00092  -0.00237  -0.00157
  35        3S          0.00248  -0.00047  -0.00247  -0.00289   0.00005
  36 6   H  1S         -0.00043   0.00000   0.00000   0.00022  -0.00020
  37        2S         -0.00238   0.00000   0.00015   0.00141  -0.00154
  38        3S         -0.00293   0.00023   0.00145   0.00243   0.00004
                          21        22        23        24        25
  21        2S          0.49207
  22        2PX         0.00000   0.08252
  23        2PY         0.00000   0.00000   0.08758
  24        2PZ         0.00000   0.00000   0.00000   0.06424
  25        3S         -0.06460   0.00000   0.00000   0.00000   0.45372
  26        3PX         0.00000   0.08077   0.00000   0.00000   0.00000
  27        3PY         0.00000   0.00000   0.08263   0.00000   0.00000
  28        3PZ         0.00000   0.00000   0.00000   0.06467   0.00000
  29        4S         -0.02172   0.00000   0.00000   0.00000   0.21628
  30        4PX         0.00000   0.01619   0.00000   0.00000   0.00000
  31        4PY         0.00000   0.00000   0.01483   0.00000   0.00000
  32        4PZ         0.00000   0.00000   0.00000   0.02108   0.00000
  33 5   H  1S         -0.00030   0.00146   0.00560   0.00001   0.01520
  34        2S         -0.00300   0.00381   0.01362   0.00002   0.03900
  35        3S         -0.00006   0.00068   0.00201   0.00000   0.00256
  36 6   H  1S         -0.00028   0.00674   0.00002   0.00001   0.01473
  37        2S         -0.00294   0.01718   0.00001   0.00001   0.03856
  38        3S         -0.00007   0.00271  -0.00002   0.00000   0.00266
                          26        27        28        29        30
  26        3PX         0.20012
  27        3PY         0.00000   0.19755
  28        3PZ         0.00000   0.00000   0.16449
  29        4S          0.00000   0.00000   0.00000   0.18770
  30        4PX         0.07517   0.00000   0.00000   0.00000   0.06725
  31        4PY         0.00000   0.06656   0.00000   0.00000   0.00000
  32        4PZ         0.00000   0.00000   0.10008   0.00000   0.00000
  33 5   H  1S          0.00883   0.03329   0.00008   0.01749   0.00575
  34        2S          0.01727   0.06005   0.00008   0.04407   0.01474
  35        3S          0.00387   0.01083   0.00000   0.00693   0.00542
  36 6   H  1S          0.04117   0.00010   0.00007   0.01747   0.02455
  37        2S          0.07691  -0.00000   0.00007   0.04472   0.05946
  38        3S          0.01490  -0.00011   0.00000   0.00756   0.01894
                          31        32        33        34        35
  31        4PY         0.05413
  32        4PZ         0.00000   0.14269
  33 5   H  1S          0.01873   0.00004   0.08060
  34        2S          0.04402   0.00003   0.07772   0.15273
  35        3S          0.01306  -0.00001   0.01432   0.04403   0.02324
  36 6   H  1S         -0.00005   0.00004  -0.00001  -0.00081  -0.00239
  37        2S         -0.00030   0.00002  -0.00082  -0.00681  -0.00986
  38        3S         -0.00024  -0.00001  -0.00242  -0.00991  -0.00861
                          36        37        38
  36 6   H  1S          0.07979
  37        2S          0.07744   0.15309
  38        3S          0.01436   0.04437   0.02350
     Gross orbital populations:
                           1
   1 1   C  1S          1.10435
   2        2S          0.88586
   3        2PX         0.22703
   4        2PY         0.23629
   5        2PZ         0.16641
   6        3S          0.79261
   7        3PX         0.56125
   8        3PY         0.55565
   9        3PZ         0.42380
  10        4S          0.50487
  11        4PX         0.25842
  12        4PY         0.21067
  13        4PZ         0.41156
  14 2   H  1S          0.27378
  15        2S          0.46676
  16        3S          0.08583
  17 3   H  1S          0.27715
  18        2S          0.46491
  19        3S          0.08289
  20 4   C  1S          1.10441
  21        2S          0.88584
  22        2PX         0.22167
  23        2PY         0.23588
  24        2PZ         0.16563
  25        3S          0.79224
  26        3PX         0.55153
  27        3PY         0.55639
  28        3PZ         0.41994
  29        4S          0.50810
  30        4PX         0.27636
  31        4PY         0.21701
  32        4PZ         0.41180
  33 5   H  1S          0.27183
  34        2S          0.47003
  35        3S          0.08964
  36 6   H  1S          0.26930
  37        2S          0.47093
  38        3S          0.09137
          Condensed to atoms (all electrons):
               1          2          3          4          5          6
     1  C    5.031673   0.387597   0.388429   0.601145  -0.035432  -0.034650
     2  H    0.387597   0.516316  -0.033014  -0.040893   0.006019  -0.009650
     3  H    0.388429  -0.033014   0.513697  -0.040426  -0.009639   0.005905
     4  C    0.601145  -0.040893  -0.040426   5.060597   0.383475   0.382916
     5  H   -0.035432   0.006019  -0.009639   0.383475   0.528715  -0.041646
     6  H   -0.034650  -0.009650   0.005905   0.382916  -0.041646   0.528729
 Mulliken charges:
               1
     1  C   -0.338761
     2  H    0.173624
     3  H    0.175047
     4  C   -0.346814
     5  H    0.168508
     6  H    0.168395
 Sum of Mulliken charges =  -0.00000
 Mulliken charges with hydrogens summed into heavy atoms:
               1
     1  C    0.009911
     4  C   -0.009911
 Electronic spatial extent (au):  <R**2>=             83.7567
 Charge=              0.0000 electrons
 Dipole moment (field-independent basis, Debye):
    X=              0.0038    Y=              0.0244    Z=             -0.1954  Tot=              0.1969
 Quadrupole moment (field-independent basis, Debye-Ang):
   XX=            -12.2223   YY=            -12.2291   ZZ=            -15.6616
   XY=              0.0232   XZ=             -0.0005   YZ=             -0.0051
 Traceless Quadrupole moment (field-independent basis, Debye-Ang):
   XX=              1.1487   YY=              1.1419   ZZ=             -2.2906
   XY=              0.0232   XZ=             -0.0005   YZ=             -0.0051
 Octapole moment (field-independent basis, Debye-Ang**2):
  XXX=             -0.3600  YYY=             -0.0564  ZZZ=             -0.0392  XYY=              0.2328
  XXY=             -0.0171  XXZ=             -0.2406  XZZ=             -0.0895  YZZ=             -0.0897
  YYZ=             -0.3254  XYZ=             -0.0727
 Hexadecapole moment (field-independent basis, Debye-Ang**3):
 XXXX=            -34.3653 YYYY=            -55.2850 ZZZZ=            -17.8383 XXXY=             -7.2538
 XXXZ=              0.0370 YYYX=            -10.6908 YYYZ=              0.0471 ZZZX=              0.0450
 ZZZY=              0.0796 XXYY=            -16.2044 XXZZ=             -9.9280 YYZZ=            -13.6453
 XXYZ=              0.0160 YYXZ=             -0.0018 ZZXY=             -3.2060
 N-N= 3.306280452435D+01 E-N=-2.478306144145D+02  KE= 7.814789358338D+01
 Orbital energies and kinetic energies (alpha):
                                 1                 2
   1         O               -10.290789         15.978641
   2         O               -10.288214         15.979802
   3         O                -0.864122          1.539946
   4         O                -0.672040          1.269527
   5         O                -0.558829          0.941636
   6         O                -0.509975          1.282978
   7         O                -0.435371          1.041620
   8         O                -0.357163          1.039798
   9         V                 0.079259          1.182345
  10         V                 0.140789          0.589563
  11         V                 0.164206          0.597788
  12         V                 0.169880          0.680011
  13         V                 0.240885          0.585451
  14         V                 0.373330          0.850401
  15         V                 0.391923          0.930739
  16         V                 0.400967          0.786518
  17         V                 0.463428          1.195292
  18         V                 0.489098          1.415519
  19         V                 0.493627          1.302551
  20         V                 0.591084          1.654727
  21         V                 0.664736          1.570099
  22         V                 0.689933          2.145536
  23         V                 0.772148          2.447621
  24         V                 0.775661          2.290354
  25         V                 0.831813          1.073048
  26         V                 0.952970          3.429825
  27         V                 2.231653          3.928374
  28         V                 2.289721          4.030103
  29         V                 2.332940          4.301392
  30         V                 2.402329          4.501974
  31         V                 2.671577          6.300769
  32         V                 2.815240          6.297813
  33         V                 2.881405          6.145472
  34         V                 2.949748          6.227076
  35         V                 3.141689          6.820751
  36         V                 3.312450          6.404030
  37         V                23.351253         60.073968
  38         V                23.706438         60.204484
 Total kinetic energy from orbitals= 7.814789358338D+01
 Calling FoFJK, ICntrl=      2127 FMM=F ISym2X=0 I1Cent= 0 IOpClX= 0 NMat=1 NMatS=1 NMatT=0.
 -------------------------------------------------------------------
 Center     Atomic                   Forces (Hartrees/Bohr)
 Number     Number              X              Y              Z
 -------------------------------------------------------------------
      1        6           0.012737396    0.008238291   -0.007972983
      2        1          -0.009594276    0.005460778    0.003995703
      3        1           0.002785060   -0.005132586    0.003653316
      4        6           0.010831879    0.013450759   -0.008656844
      5        1           0.001568438   -0.014918821    0.004404097
      6        1          -0.018328497   -0.007098420    0.004576711
 -------------------------------------------------------------------
 Cartesian Forces:  Max     0.018328497 RMS     0.009140418

 GradGradGradGradGradGradGradGradGradGradGradGradGradGradGradGradGradGrad
 Berny optimization.
 Search for a local minimum.
 Step number   1 out of a maximum of    2
 All quantities printed in internal units (Hartrees-Bohrs-Radians)
 Second derivative matrix not updated -- first step.
 The second derivative matrix:
                          X1        Y1        Z1        X2        Y2
           X1           0.75845
           Y1           0.09714   0.85833
           Z1           0.01129   0.01768   0.17133
           X2          -0.16476   0.09670   0.00426   0.14215
           Y2           0.10244  -0.28196  -0.01499  -0.11576   0.27097
           Z2           0.00668  -0.01880  -0.05537  -0.00611   0.01550
           X3          -0.35113   0.00029  -0.01614  -0.00016  -0.00006
           Y3          -0.00532  -0.10969  -0.00389   0.03222   0.01872
           Z3          -0.02067  -0.00375  -0.05634   0.00305   0.00115
           X4          -0.26800  -0.17943  -0.00140   0.02283   0.01334
           Y4          -0.17987  -0.47500  -0.00232  -0.01319  -0.00771
           Z4           0.00266   0.00479  -0.09391  -0.00120  -0.00166
           X5           0.02352  -0.01358   0.00124  -0.00003   0.00001
           Y5           0.01156  -0.00667   0.00166   0.00002  -0.00001
           Z5          -0.00104   0.00065   0.01730   0.00051  -0.00027
           X6           0.00192  -0.00111   0.00076  -0.00003   0.00001
           Y6          -0.02595   0.01500   0.00186   0.00001  -0.00001
           Z6           0.00109  -0.00058   0.01698  -0.00051   0.00027
                          Z2        X3        Y3        Z3        X4
           Z2           0.02925
           X3          -0.00057   0.35130
           Y3           0.00325  -0.00023   0.07557
           Z3           0.01048   0.01757   0.00258   0.03006
           X4           0.00101   0.00004  -0.02671  -0.00098   0.70714
           Y4          -0.00054  -0.00003   0.01542   0.00061   0.12579
           Z4           0.01561  -0.00086  -0.00194   0.01582  -0.01022
           X5          -0.00050  -0.00003   0.00002   0.00051  -0.14404
           Y5           0.00032   0.00002  -0.00001  -0.00032   0.09100
           Z5           0.00926   0.00051  -0.00032  -0.00939  -0.00609
           X6          -0.00051  -0.00003   0.00002   0.00052  -0.31798
           Y6           0.00027   0.00001  -0.00001  -0.00027  -0.02401
           Z6          -0.00924  -0.00051   0.00032   0.00937   0.01768
                          Y4        Z4        X5        Y5        Z5
           Y4           0.85810
           Z4          -0.01953   0.17739
           X5           0.08268  -0.00403   0.12303
           Y5          -0.28695   0.01451  -0.10143   0.27783
           Z5           0.01797  -0.05763   0.00539  -0.01550   0.03036
           X6          -0.01538   0.01365  -0.00246  -0.00117   0.00072
           Y6          -0.10387   0.00383   0.03230   0.01581  -0.00253
           Z6           0.00381  -0.05728  -0.00260  -0.00067   0.01010
                          X6        Y6        Z6
           X6           0.31857
           Y6           0.01762   0.07308
           Z6          -0.01514  -0.00315   0.03007
 ITU=  0
     Eigenvalues ---    0.03742   0.04371   0.08809   0.10382   0.13519
     Eigenvalues ---    0.17322   0.26248   0.28996   0.52805   0.69459
     Eigenvalues ---    0.97069   1.56540
 Angle between quadratic step and forces=  39.60 degrees.
 Linear search not attempted -- first point.
 B after Tr=     0.006918    0.008986   -0.020210
         Rot=    1.000000   -0.000105    0.000056   -0.000127 Ang=  -0.02 deg.
 Variable       Old X    -DE/DX   Delta X   Delta X   Delta X     New X
                                 (Linear)    (Quad)   (Total)
    X1       -0.63566   0.01274   0.00000   0.02103   0.02823  -0.60743
    Y1       -1.10001   0.00824   0.00000   0.02510   0.03393  -1.06608
    Z1        0.02173  -0.00797   0.00000  -0.04323  -0.06373  -0.04200
    X2        0.41285  -0.00959   0.00000  -0.03762  -0.02997   0.38288
    Y2       -2.88546   0.00546   0.00000   0.01809   0.02717  -2.85828
    Z2       -0.08801   0.00400   0.00000   0.05316   0.03239  -0.05561
    X3       -2.68572   0.00279   0.00000   0.02432   0.03153  -2.65418
    Y3       -1.09931  -0.00513   0.00000  -0.02545  -0.01714  -1.11645
    Z3       -0.09009   0.00365   0.00000   0.05149   0.03075  -0.05935
    X4        0.62821   0.01083   0.00000   0.00759   0.01424   0.64244
    Y4        1.08770   0.01345   0.00000   0.01215   0.02130   1.10901
    Z4        0.01524  -0.00866   0.00000  -0.04040  -0.06031  -0.04507
    X5       -0.29757   0.00157   0.00000  -0.01358  -0.00740  -0.30496
    Y5        2.96074  -0.01492   0.00000  -0.04129  -0.03238   2.92837
    Z5       -0.09872   0.00440   0.00000   0.05093   0.03129  -0.06743
    X6        2.72714  -0.01833   0.00000  -0.04324  -0.03662   2.69051
    Y6        1.23855  -0.00710   0.00000  -0.04257  -0.03289   1.20565
    Z6       -0.09578   0.00458   0.00000   0.04927   0.02961  -0.06617
         Item               Value     Threshold  Converged?
 Maximum Force            0.018328     0.000450     NO 
 RMS     Force            0.009140     0.000300     NO 
 Maximum Displacement     0.063732     0.001800     NO 
 RMS     Displacement     0.033833     0.001200     NO 
 Predicted change in Energy=-2.306211D-03
 GradGradGradGradGradGradGradGradGradGradGradGradGradGradGradGradGradGrad

 Unable to Open any file for archive entry.
 1\1\GINC-BHD0009\Force\RwB97XD\6-311G\C2H4\BWEIGHT\11-Jan-2023\0\\# WB
 97XD/6-311G SCF=XQC FORCE nosym pop=full guess=read\\MD Step 999\\0,1\
 C,-0.33637702,-0.58209984,0.01149766\H,0.21847263,-1.52691844,-0.04657
 102\H,-1.42121942,-0.58173123,-0.0476747\C,0.33243202,0.57558856,0.008
 06444\H,-0.15746484,1.56675769,-0.05224146\H,1.44313895,0.65541098,-0.
 05068447\\Version=ES64L-G16RevC.01\HF=-78.5548004\RMSD=6.411e-09\RMSF=
 9.140e-03\Dipole=0.0014932,0.0095876,-0.0768721\Quadrupole=0.8540294,0
 .8489703,-1.7029997,0.0172431,-0.0003715,-0.0037884\PG=C01 [X(C2H4)]\\
 @
 The archive entry for this job was punched.


 Life may have no meaning.  Or even worse, it may have a
 meaning of which I disapprove.
                                 -- Ashleigh Brilliant
 Job cpu time:       0 days  0 hours  0 minutes 26.4 seconds.
 Elapsed time:       0 days  0 hours  0 minutes  8.7 seconds.
 File lengths (MBytes):  RWF=    272 Int=      0 D2E=      0 Chk=     32 Scr=     32
 Normal termination of Gaussian 16 at Wed Jan 11 18:48:31 2023.
