 Entering Gaussian System, Link 0=g16
 Initial command:
 /software/gaussian/g16-c01/avx2/g16/l1.exe "/gpfs/fs2/scratch/bweight/software/many_molecule_many_mode_NAMD/src/NAMD/TEST_NVT/TRAJ/traj-31/G16/GS_NEW/Gau-15011.inp" -scrdir="/gpfs/fs2/scratch/bweight/software/many_molecule_many_mode_NAMD/src/NAMD/TEST_NVT/TRAJ/traj-31/G16/GS_NEW/"
 Entering Link 1 = /software/gaussian/g16-c01/avx2/g16/l1.exe PID=     15012.
  
 Copyright (c) 1988-2019, Gaussian, Inc.  All Rights Reserved.
  
 This is part of the Gaussian(R) 16 program.  It is based on
 the Gaussian(R) 09 system (copyright 2009, Gaussian, Inc.),
 the Gaussian(R) 03 system (copyright 2003, Gaussian, Inc.),
 the Gaussian(R) 98 system (copyright 1998, Gaussian, Inc.),
 the Gaussian(R) 94 system (copyright 1995, Gaussian, Inc.),
 the Gaussian 92(TM) system (copyright 1992, Gaussian, Inc.),
 the Gaussian 90(TM) system (copyright 1990, Gaussian, Inc.),
 the Gaussian 88(TM) system (copyright 1988, Gaussian, Inc.),
 the Gaussian 86(TM) system (copyright 1986, Carnegie Mellon
 University), and the Gaussian 82(TM) system (copyright 1983,
 Carnegie Mellon University). Gaussian is a federally registered
 trademark of Gaussian, Inc.
  
 This software contains proprietary and confidential information,
 including trade secrets, belonging to Gaussian, Inc.
  
 This software is provided under written license and may be
 used, copied, transmitted, or stored only in accord with that
 written license.
  
 The following legend is applicable only to US Government
 contracts under FAR:
  
                    RESTRICTED RIGHTS LEGEND
  
 Use, reproduction and disclosure by the US Government is
 subject to restrictions as set forth in subparagraphs (a)
 and (c) of the Commercial Computer Software - Restricted
 Rights clause in FAR 52.227-19.
  
 Gaussian, Inc.
 340 Quinnipiac St., Bldg. 40, Wallingford CT 06492
  
  
 ---------------------------------------------------------------
 Warning -- This program may not be used in any manner that
 competes with the business of Gaussian, Inc. or will provide
 assistance to any competitor of Gaussian, Inc.  The licensee
 of this program is prohibited from giving any competitor of
 Gaussian, Inc. access to this program.  By using this program,
 the user acknowledges that Gaussian, Inc. is engaged in the
 business of creating and licensing software in the field of
 computational chemistry and represents and warrants to the
 licensee that it is not a competitor of Gaussian, Inc. and that
 it will not use this program in any manner prohibited above.
 ---------------------------------------------------------------
  

 Cite this work as:
 Gaussian 16, Revision C.01,
 M. J. Frisch, G. W. Trucks, H. B. Schlegel, G. E. Scuseria, 
 M. A. Robb, J. R. Cheeseman, G. Scalmani, V. Barone, 
 G. A. Petersson, H. Nakatsuji, X. Li, M. Caricato, A. V. Marenich, 
 J. Bloino, B. G. Janesko, R. Gomperts, B. Mennucci, H. P. Hratchian, 
 J. V. Ortiz, A. F. Izmaylov, J. L. Sonnenberg, D. Williams-Young, 
 F. Ding, F. Lipparini, F. Egidi, J. Goings, B. Peng, A. Petrone, 
 T. Henderson, D. Ranasinghe, V. G. Zakrzewski, J. Gao, N. Rega, 
 G. Zheng, W. Liang, M. Hada, M. Ehara, K. Toyota, R. Fukuda, 
 J. Hasegawa, M. Ishida, T. Nakajima, Y. Honda, O. Kitao, H. Nakai, 
 T. Vreven, K. Throssell, J. A. Montgomery, Jr., J. E. Peralta, 
 F. Ogliaro, M. J. Bearpark, J. J. Heyd, E. N. Brothers, K. N. Kudin, 
 V. N. Staroverov, T. A. Keith, R. Kobayashi, J. Normand, 
 K. Raghavachari, A. P. Rendell, J. C. Burant, S. S. Iyengar, 
 J. Tomasi, M. Cossi, J. M. Millam, M. Klene, C. Adamo, R. Cammi, 
 J. W. Ochterski, R. L. Martin, K. Morokuma, O. Farkas, 
 J. B. Foresman, and D. J. Fox, Gaussian, Inc., Wallingford CT, 2019.
 
 ******************************************
 Gaussian 16:  ES64L-G16RevC.01  3-Jul-2019
                11-Jan-2023 
 ******************************************
 %oldchk=../GS_OLD/geometry.chk
 %chk=geometry.chk
 %nprocshared=4
 Will use up to    4 processors via shared memory.
 %mem=5GB
 Copying data from "../GS_OLD/geometry.chk" to current chk file "geometry.chk"
 IOpt=  2 FromEx=T IUOpen= 4 IOptOp= 5 NList=   0 IFRang= 0 IUIn= 4 IUOut= 2.
 -------------------------------------------------------
 # WB97XD/6-311G SCF=XQC FORCE nosym pop=full guess=read
 -------------------------------------------------------
 1/10=7,30=1,38=1/1,3;
 2/12=2,15=1,17=6,18=5,40=1/2;
 3/5=4,6=6,11=2,25=1,30=1,71=1,74=-58,116=-2/1,2,3;
 4/5=1/1;
 5/5=2,8=3,13=1,38=6/2,8;
 6/7=3,28=1/1;
 7/29=1,30=1/1,2,3,16;
 1/10=7,30=1/3;
 99//99;
 ------------
 MD Step 1000
 ------------
 Symbolic Z-matrix:
 Charge =  0 Multiplicity = 1
 C                    -0.33632  -0.58209   0.00578 
 H                     0.21959  -1.5283   -0.01705 
 H                    -1.422    -0.58587  -0.01778 
 C                     0.33374   0.57795   0.00456 
 H                    -0.16105   1.56727  -0.0198 
 H                     1.44389   0.64591  -0.01893 
 

 GradGradGradGradGradGradGradGradGradGradGradGradGradGradGradGradGradGrad
 Berny optimization.
 Initialization pass.
 Trust Radius=3.00D-01 FncErr=1.00D-07 GrdErr=1.00D-07 EigMax=2.50D+02 EigMin=1.00D-04
 Number of steps in this run=      2 maximum allowed number of steps=      2.
 GradGradGradGradGradGradGradGradGradGradGradGradGradGradGradGradGradGrad

                          Input orientation:                          
 ---------------------------------------------------------------------
 Center     Atomic      Atomic             Coordinates (Angstroms)
 Number     Number       Type             X           Y           Z
 ---------------------------------------------------------------------
      1          6           0       -0.336320   -0.582093    0.005785
      2          1           0        0.219591   -1.528295   -0.017046
      3          1           0       -1.421998   -0.585875   -0.017778
      4          6           0        0.333741    0.577954    0.004558
      5          1           0       -0.161051    1.567274   -0.019801
      6          1           0        1.443886    0.645907   -0.018933
 ---------------------------------------------------------------------
                    Distance matrix (angstroms):
                    1          2          3          4          5
     1  C    0.000000
     2  H    1.097660   0.000000
     3  H    1.085940   1.892874   0.000000
     4  C    1.339661   2.109451   2.106565   0.000000
     5  H    2.156653   3.118885   2.495204   1.106420   0.000000
     6  H    2.162806   2.495207   3.119388   1.112472   1.850605
                    6
     6  H    0.000000
 Symmetry turned off by external request.
 Stoichiometry    C2H4
 Framework group  C1[X(C2H4)]
 Deg. of freedom    12
 Full point group                 C1      NOp   1
 Rotational constants (GHZ):         143.0336975          29.6438622          24.5594091
 Standard basis: 6-311G (5D, 7F)
    38 basis functions,    72 primitive gaussians,    38 cartesian basis functions
     8 alpha electrons        8 beta electrons
       nuclear repulsion energy        33.0420047045 Hartrees.
 NAtoms=    6 NActive=    6 NUniq=    6 SFac= 1.00D+00 NAtFMM=   60 NAOKFM=F Big=F
 Integral buffers will be    131072 words long.
 Raffenetti 2 integral format.
 Two-electron integral symmetry is turned off.
 Nuclear repulsion after empirical dispersion term =       33.0411615004 Hartrees.
 One-electron integrals computed using PRISM.
 NBasis=    38 RedAO= T EigKep=  6.47D-03  NBF=    38
 NBsUse=    38 1.00D-06 EigRej= -1.00D+00 NBFU=    38
 Initial guess from the checkpoint file:  "geometry.chk"
 B after Tr=    -0.000238   -0.000448   -0.000334
         Rot=    1.000000   -0.000002    0.000002    0.000004 Ang=  -0.00 deg.
 Keep R1 ints in memory in canonical form, NReq=4036876.
 Requested convergence on RMS density matrix=1.00D-08 within  32 cycles.
 Requested convergence on MAX density matrix=1.00D-06.
 Requested convergence on             energy=1.00D-06.
 No special actions if energy rises.
 SCF Done:  E(RwB97XD) =  -78.5557111429     A.U. after    8 cycles
            NFock=  8  Conv=0.64D-08     -V/T= 2.0053
 QCSCF skips out because SCF is already converged.

 **********************************************************************

            Population analysis using the SCF Density.

 **********************************************************************

 Alpha  occ. eigenvalues --  -10.29069 -10.28830  -0.86342  -0.67204  -0.55934
 Alpha  occ. eigenvalues --   -0.50883  -0.43676  -0.35660
 Alpha virt. eigenvalues --    0.07958   0.14079   0.16464   0.17003   0.24063
 Alpha virt. eigenvalues --    0.37304   0.39349   0.39843   0.46409   0.48775
 Alpha virt. eigenvalues --    0.49393   0.59084   0.66562   0.69071   0.77236
 Alpha virt. eigenvalues --    0.77534   0.84406   0.95080   2.23164   2.29053
 Alpha virt. eigenvalues --    2.33217   2.40703   2.67076   2.81803   2.87786
 Alpha virt. eigenvalues --    2.95229   3.13907   3.31958  23.35219  23.70452
     Molecular Orbital Coefficients:
                           1         2         3         4         5
                           O         O         O         O         O
     Eigenvalues --   -10.29069 -10.28830  -0.86342  -0.67204  -0.55934
   1 1   C  1S          0.10392   0.55373  -0.08838   0.06677  -0.00043
   2        2S          0.08573   0.45570  -0.13970   0.10694  -0.00070
   3        2PX         0.00016  -0.00001   0.02592   0.03656   0.13768
   4        2PY         0.00028  -0.00002   0.04617   0.05980  -0.07447
   5        2PZ         0.00000  -0.00000  -0.00096   0.00143   0.00015
   6        3S          0.00184   0.01450   0.37479  -0.29189   0.00190
   7        3PX        -0.00060   0.00043   0.03435   0.05853   0.21575
   8        3PY        -0.00103   0.00077   0.06082   0.09685  -0.11752
   9        3PZ        -0.00001  -0.00002  -0.00161   0.00255   0.00022
  10        4S          0.00319  -0.01466   0.19210  -0.22648   0.00154
  11        4PX         0.00148  -0.00155   0.00490   0.02353   0.11185
  12        4PY         0.00254  -0.00267   0.00856   0.04003  -0.06163
  13        4PZ         0.00000   0.00006  -0.00056   0.00128   0.00011
  14 2   H  1S         -0.00005  -0.00006   0.05262  -0.08725   0.10296
  15        2S         -0.00030   0.00011   0.05391  -0.10530   0.13042
  16        3S          0.00083   0.00168  -0.00176  -0.01511   0.04213
  17 3   H  1S         -0.00005  -0.00007   0.05393  -0.09087  -0.10545
  18        2S         -0.00030   0.00009   0.05478  -0.10874  -0.13253
  19        3S          0.00086   0.00171  -0.00175  -0.01599  -0.04278
  20 4   C  1S          0.55372  -0.10411  -0.08677  -0.06846  -0.00002
  21        2S          0.45576  -0.08548  -0.13702  -0.10978  -0.00002
  22        2PX        -0.00002  -0.00017  -0.02743   0.03786   0.11769
  23        2PY        -0.00003  -0.00029  -0.04667   0.06656  -0.07325
  24        2PZ        -0.00000   0.00000  -0.00077  -0.00151   0.00016
  25        3S          0.01402  -0.00353   0.36717   0.30007   0.00005
  26        3PX        -0.00020   0.00073  -0.03444   0.06128   0.18428
  27        3PY        -0.00033   0.00125  -0.05854   0.10739  -0.11386
  28        3PZ        -0.00002  -0.00000  -0.00134  -0.00272   0.00024
  29        4S         -0.01219   0.00841   0.18907   0.23827  -0.00109
  30        4PX         0.00086  -0.00190  -0.00546   0.02666   0.10142
  31        4PY         0.00147  -0.00333  -0.00911   0.04573  -0.06205
  32        4PZ         0.00005  -0.00001  -0.00055  -0.00140   0.00013
  33 5   H  1S         -0.00006  -0.00004   0.04964   0.09325  -0.08947
  34        2S         -0.00002  -0.00031   0.05089   0.11152  -0.11294
  35        3S          0.00180   0.00014  -0.00112   0.01672  -0.03623
  36 6   H  1S         -0.00005  -0.00004   0.04885   0.09212   0.08531
  37        2S         -0.00003  -0.00032   0.05046   0.11049   0.10798
  38        3S          0.00177   0.00013  -0.00112   0.01633   0.03494
                           6         7         8         9        10
                           O         O         O         V         V
     Eigenvalues --    -0.50883  -0.43676  -0.35660   0.07958   0.14079
   1 1   C  1S         -0.00355   0.00015  -0.00074   0.00200  -0.03316
   2        2S         -0.00530   0.00028  -0.00120   0.00333  -0.05319
   3        2PX         0.09482  -0.11044  -0.00250   0.00108  -0.03176
   4        2PY         0.16792   0.06593  -0.00424   0.00179  -0.06421
   5        2PZ         0.00375   0.00000   0.17940  -0.18916  -0.00180
   6        3S          0.02036  -0.00059   0.00350  -0.01007   0.11564
   7        3PX         0.13785  -0.17619  -0.00353   0.00163  -0.03759
   8        3PY         0.24553   0.10555  -0.00598   0.00268  -0.07939
   9        3PZ         0.00594   0.00003   0.28845  -0.27812  -0.00288
  10        4S         -0.05278  -0.00318   0.00512  -0.01138   1.21592
  11        4PX         0.06951  -0.10974  -0.00289   0.00924  -0.19420
  12        4PY         0.12492   0.06633  -0.00492   0.01551  -0.38055
  13        4PZ         0.00338   0.00005   0.26738  -0.69448  -0.01049
  14 2   H  1S         -0.08028  -0.11482   0.00011   0.00313  -0.01678
  15        2S         -0.11132  -0.17729   0.00147   0.00495  -0.04681
  16        3S         -0.04172  -0.08192   0.00088   0.01304  -0.82443
  17 3   H  1S         -0.07943   0.11227   0.00006   0.00313  -0.01345
  18        2S         -0.10951   0.17256   0.00142   0.00499  -0.03928
  19        3S         -0.04072   0.07947   0.00085   0.01278  -0.76994
  20 4   C  1S         -0.00846  -0.00044  -0.00060  -0.00194  -0.03655
  21        2S         -0.01324  -0.00072  -0.00097  -0.00322  -0.05871
  22        2PX        -0.09832   0.12492   0.00244   0.00122   0.04028
  23        2PY        -0.16198  -0.07406   0.00448   0.00227   0.06198
  24        2PZ         0.00395   0.00016   0.17915   0.18960  -0.00224
  25        3S          0.04282   0.00210   0.00288   0.00965   0.12981
  26        3PX        -0.14557   0.19994   0.00341   0.00187   0.04923
  27        3PY        -0.23839  -0.11795   0.00629   0.00349   0.07362
  28        3PZ         0.00624   0.00024   0.28669   0.27793  -0.00339
  29        4S         -0.02865   0.00227   0.00483   0.01109   1.24881
  30        4PX        -0.07601   0.12802   0.00263   0.00946   0.26234
  31        4PY        -0.12338  -0.07487   0.00495   0.01706   0.41592
  32        4PZ         0.00362   0.00015   0.26764   0.69567  -0.01325
  33 5   H  1S         -0.07423  -0.12509   0.00017  -0.00296  -0.01276
  34        2S         -0.10156  -0.19513   0.00157  -0.00495  -0.03873
  35        3S         -0.03801  -0.09162   0.00087  -0.01293  -0.83002
  36 6   H  1S         -0.08003   0.12435   0.00012  -0.00295  -0.01578
  37        2S         -0.10983   0.19466   0.00149  -0.00494  -0.04682
  38        3S         -0.04125   0.09134   0.00083  -0.01299  -0.88517
                          11        12        13        14        15
                           V         V         V         V         V
     Eigenvalues --     0.16464   0.17003   0.24063   0.37304   0.39349
   1 1   C  1S         -0.00016  -0.04572   0.00005   0.00976   0.00100
   2        2S         -0.00028  -0.07451   0.00007   0.01340   0.00159
   3        2PX         0.09633  -0.02237   0.10002  -0.03640  -0.02382
   4        2PY        -0.05471  -0.03594  -0.05738  -0.06626   0.00953
   5        2PZ        -0.00005  -0.00490   0.00002  -0.00343  -0.00014
   6        3S          0.00088   0.16853   0.00015   0.03239  -0.00109
   7        3PX         0.13824  -0.01490   0.10587  -0.04610  -0.10603
   8        3PY        -0.07858  -0.02256  -0.06160  -0.08864   0.04920
   9        3PZ        -0.00007  -0.00680  -0.00001  -0.00697  -0.00020
  10        4S         -0.01120   1.44339  -0.01677  -2.59107  -0.17891
  11        4PX         0.57841  -0.13200   1.16873  -1.55416  -0.54192
  12        4PY        -0.32019  -0.19919  -0.66774  -2.70948   0.14640
  13        4PZ        -0.00020  -0.03201   0.00063  -0.03134  -0.00178
  14 2   H  1S         -0.02991  -0.02502   0.01352  -0.05831   0.07536
  15        2S         -0.08140  -0.01660  -0.02427  -0.66130   0.76836
  16        3S         -1.05592  -0.98248  -1.54549  -0.30609  -0.32277
  17 3   H  1S          0.02793  -0.02589  -0.01560  -0.05136  -0.07630
  18        2S          0.07921  -0.02259   0.01848  -0.60627  -0.76670
  19        3S          1.06624  -1.04175   1.57141  -0.37768   0.25044
  20 4   C  1S          0.00215   0.04230  -0.00005  -0.01991  -0.00021
  21        2S          0.00347   0.06886  -0.00010  -0.03267  -0.00018
  22        2PX         0.10093  -0.02538  -0.10033  -0.04115  -0.03149
  23        2PY        -0.06218  -0.03595   0.05755  -0.07321   0.01375
  24        2PZ         0.00027   0.00476  -0.00003   0.00251   0.00022
  25        3S         -0.00736  -0.15306   0.00023   0.04246  -0.00327
  26        3PX         0.14530  -0.02146  -0.11388  -0.09289  -0.10927
  27        3PY        -0.08780  -0.02530   0.06439  -0.16810   0.05795
  28        3PZ         0.00037   0.00657  -0.00001   0.00309   0.00044
  29        4S         -0.08281  -1.33290   0.00620   3.28484   0.15701
  30        4PX         0.53651  -0.12899  -1.12297  -1.17043  -0.55694
  31        4PY        -0.33497  -0.18798   0.65089  -2.05421   0.10598
  32        4PZ         0.00164   0.03091  -0.00064   0.02572   0.00181
  33 5   H  1S          0.03198   0.02432   0.00582   0.00984  -0.08102
  34        2S          0.06885   0.02090  -0.03519   0.06029  -0.79895
  35        3S          1.09690   0.90820  -1.51860   0.44991   0.47935
  36 6   H  1S         -0.03062   0.02627  -0.00491   0.00488   0.08730
  37        2S         -0.06775   0.02213   0.03555   0.01607   0.88801
  38        3S         -0.98370   0.96658   1.50825   0.46622  -0.45132
                          16        17        18        19        20
                           V         V         V         V         V
     Eigenvalues --     0.39843   0.46409   0.48775   0.49393   0.59084
   1 1   C  1S         -0.01817   0.01297  -0.04643  -0.00011  -0.00040
   2        2S         -0.03189   0.02977  -0.07753   0.00002  -0.00072
   3        2PX         0.02652  -0.06140   0.01168   0.00084   0.00152
   4        2PY         0.04863  -0.10708   0.01542   0.00120   0.00231
   5        2PZ         0.00023  -0.00035   0.00326  -0.15191  -0.19247
   6        3S          0.07288  -0.33713   0.08881  -0.00726  -0.00042
   7        3PX         0.10115  -0.24091  -0.03583   0.00040   0.00509
   8        3PY         0.19041  -0.41795  -0.07124  -0.00015   0.00776
   9        3PZ        -0.00276  -0.00315   0.01494  -0.62857  -0.68470
  10        4S          2.64951   0.06415   3.12008   0.05715   0.04999
  11        4PX         0.23662   0.22219   0.81807   0.01891   0.01535
  12        4PY         0.44841   0.41114   1.42148   0.03405   0.02737
  13        4PZ        -0.00113   0.00133  -0.06238   0.68636   1.24015
  14 2   H  1S         -0.02654  -0.03319  -0.07628  -0.00172  -0.00122
  15        2S         -0.53570  -0.31308  -0.91042  -0.01590  -0.00886
  16        3S          0.30886   0.06196   0.64514   0.02038   0.01700
  17 3   H  1S         -0.03356  -0.03477  -0.07476  -0.00169  -0.00118
  18        2S         -0.59962  -0.33154  -0.89016  -0.01571  -0.00815
  19        3S          0.31930   0.06022   0.61612   0.01986   0.01664
  20 4   C  1S         -0.00095  -0.00341   0.05102   0.00209   0.00051
  21        2S         -0.00511   0.00190   0.08885   0.00379   0.00094
  22        2PX         0.00887   0.05431   0.02856   0.00001   0.00150
  23        2PY         0.01770   0.09387   0.05115  -0.00009   0.00287
  24        2PZ        -0.00273  -0.00126   0.00335  -0.15288   0.19218
  25        3S          0.07827  -0.28271  -0.23578  -0.01510  -0.00178
  26        3PX        -0.04266   0.23493   0.05958   0.00005   0.00524
  27        3PY        -0.06341   0.40856   0.10475  -0.00049   0.00998
  28        3PZ        -0.00772  -0.00513   0.01211  -0.63189   0.68204
  29        4S         -0.84839   0.80595  -3.08561  -0.07190  -0.04421
  30        4PX         1.24148  -0.36089   0.61546   0.00922   0.01576
  31        4PY         2.22999  -0.60886   1.05612   0.01589   0.02642
  32        4PZ        -0.02416  -0.01241   0.02771   0.69332  -1.23688
  33 5   H  1S         -0.04849  -0.06452   0.06326   0.00153   0.00115
  34        2S         -0.84833  -0.65648   0.79464   0.02326   0.00449
  35        3S         -0.18188   0.28289  -0.55096  -0.00580  -0.01661
  36 6   H  1S         -0.04096  -0.06359   0.06348   0.00155   0.00117
  37        2S         -0.76338  -0.64439   0.79443   0.02314   0.00477
  38        3S         -0.21056   0.29311  -0.56428  -0.00635  -0.01676
                          21        22        23        24        25
                           V         V         V         V         V
     Eigenvalues --     0.66562   0.69071   0.77236   0.77534   0.84406
   1 1   C  1S          0.00066  -0.00080   0.04796   0.07511   0.00107
   2        2S          0.00138  -0.00173   0.10108   0.16012   0.00244
   3        2PX        -0.13012   0.19965  -0.03109   0.11283  -0.00825
   4        2PY         0.07599  -0.11948  -0.05407   0.18374   0.01265
   5        2PZ        -0.00006   0.00011   0.00030   0.00357   0.00010
   6        3S         -0.01170   0.01848  -0.66718  -1.37506  -0.02495
   7        3PX        -0.60737   0.70235  -0.19538   0.43537  -0.22365
   8        3PY         0.35120  -0.41976  -0.33851   0.69929   0.16004
   9        3PZ        -0.00032   0.00044   0.00120   0.01250   0.00036
  10        4S          0.02293  -0.06503   0.61618   2.47018  -0.01027
  11        4PX         1.08570  -0.79866   0.18905  -0.74559   4.51490
  12        4PY        -0.62594   0.48880   0.27200  -1.00337  -2.58035
  13        4PZ         0.00028   0.00072   0.00863  -0.03971   0.00281
  14 2   H  1S          0.02268  -0.05935   0.00880   0.03303  -0.02716
  15        2S          0.12324  -0.63495   0.07241   0.09650  -1.57333
  16        3S         -1.02787   1.12116  -0.03785  -1.10419  -1.22829
  17 3   H  1S         -0.02211   0.05858   0.00887   0.03379   0.03047
  18        2S         -0.13716   0.66342   0.09138   0.06754   1.61179
  19        3S          1.02112  -1.08253  -0.02784  -1.24450   1.22786
  20 4   C  1S          0.00090  -0.00065   0.08238   0.03536   0.00093
  21        2S          0.00183  -0.00128   0.17543   0.07446   0.00191
  22        2PX        -0.15361  -0.18301  -0.10035   0.04811   0.01015
  23        2PY         0.08844   0.10248  -0.17830   0.08867   0.00025
  24        2PZ        -0.00007  -0.00014   0.00374  -0.00060  -0.00009
  25        3S         -0.01285   0.00464  -1.47276  -0.44972  -0.01064
  26        3PX        -0.69018  -0.61691  -0.36901   0.26167   0.23724
  27        3PY         0.39941   0.34242  -0.65957   0.47890  -0.10633
  28        3PZ        -0.00035  -0.00047   0.01324  -0.00236  -0.00019
  29        4S          0.00630   0.02346   2.65707   0.26746  -0.00393
  30        4PX         1.28571   0.73451   0.54954  -0.22631  -4.17706
  31        4PY        -0.73816  -0.40450   1.03952  -0.62874   2.38810
  32        4PZ         0.00070  -0.00034  -0.03887   0.01673  -0.00246
  33 5   H  1S         -0.02597  -0.05499   0.03440   0.00449  -0.02343
  34        2S         -0.15084  -0.55414   0.07112   0.07769  -1.41640
  35        3S          1.12527   0.97007  -1.16186   0.24167  -1.09789
  36 6   H  1S          0.02661   0.05463   0.03418   0.00509   0.02344
  37        2S          0.14822   0.53220   0.07559   0.02375   1.40739
  38        3S         -1.12858  -0.98282  -1.11313   0.17170   1.10600
                          26        27        28        29        30
                           V         V         V         V         V
     Eigenvalues --     0.95080   2.23164   2.29053   2.33217   2.40703
   1 1   C  1S          0.09581  -0.01012  -0.01448   0.00037  -0.00044
   2        2S          0.19907   0.00152  -0.01444   0.00079  -0.00054
   3        2PX        -0.09085  -0.07917  -0.13102   0.34491  -0.40982
   4        2PY        -0.15740  -0.14723  -0.23007  -0.19610   0.23207
   5        2PZ         0.00013  -0.00986  -0.01333   0.00008  -0.00048
   6        3S         -1.54396  -0.18569  -0.03699  -0.00112  -0.00416
   7        3PX        -0.23076   0.07558   0.20733  -0.41305   0.57154
   8        3PY        -0.39287   0.15414   0.37606   0.23711  -0.32526
   9        3PZ        -0.00183   0.00988   0.01663  -0.00000   0.00055
  10        4S          5.71401  -0.10791  -0.88465   0.00184  -0.01703
  11        4PX         1.19749   0.05355  -0.18912  -0.04647   0.98368
  12        4PY         1.98551   0.06837  -0.35738   0.01837  -0.54526
  13        4PZ        -0.01372   0.00222   0.00593  -0.00021   0.00110
  14 2   H  1S          0.01549  -0.71091  -0.79318  -0.70185   0.65638
  15        2S         -0.28946   1.01006   1.18763   1.08154  -1.46705
  16        3S         -0.09850  -0.30385  -0.47486  -0.46618   0.36792
  17 3   H  1S          0.01573  -0.70169  -0.79057   0.69625  -0.67567
  18        2S         -0.26130   0.99869   1.18834  -1.07681   1.50816
  19        3S         -0.08090  -0.28188  -0.45796   0.45675  -0.35968
  20 4   C  1S         -0.09396  -0.01026   0.01220   0.00031   0.00019
  21        2S         -0.19487   0.00033   0.01211   0.00039   0.00038
  22        2PX        -0.09193   0.13396  -0.12293   0.30689   0.41563
  23        2PY        -0.15871   0.23281  -0.20713  -0.17766  -0.23947
  24        2PZ         0.00021  -0.01078   0.01291   0.00025   0.00026
  25        3S          1.50784  -0.16896   0.01961   0.00068  -0.00047
  26        3PX        -0.22465  -0.17012   0.21078  -0.38364  -0.58221
  27        3PY        -0.39242  -0.29347   0.35033   0.22041   0.33607
  28        3PZ         0.00259   0.01160  -0.01649  -0.00029  -0.00036
  29        4S         -5.68994  -0.16663   0.88500   0.01120  -0.00098
  30        4PX         1.10402  -0.01653  -0.19807   0.10658  -0.86150
  31        4PY         1.98092  -0.03019  -0.32034  -0.06101   0.50397
  32        4PZ         0.00943   0.00334  -0.00464  -0.00001  -0.00087
  33 5   H  1S         -0.01801  -0.78779   0.67917   0.70698   0.68257
  34        2S          0.29022   1.14286  -1.03620  -1.02748  -1.45433
  35        3S          0.06271  -0.35737   0.40483   0.51195   0.42403
  36 6   H  1S         -0.01784  -0.78239   0.69699  -0.69552  -0.68182
  37        2S          0.31198   1.13420  -1.05817   1.00877   1.44810
  38        3S          0.07367  -0.35570   0.42685  -0.50816  -0.42938
                          31        32        33        34        35
                           V         V         V         V         V
     Eigenvalues --     2.67076   2.81803   2.87786   2.95229   3.13907
   1 1   C  1S          0.00037   0.00188  -0.01346   0.00002  -0.00974
   2        2S          0.00029   0.00540  -0.04427  -0.00022  -0.02961
   3        2PX         0.00378   0.05375  -0.47260  -0.72859   0.44842
   4        2PY         0.00581   0.09463  -0.85325   0.40877   0.78473
   5        2PZ        -0.92404  -0.93491  -0.10299  -0.00088   0.00489
   6        3S         -0.00116  -0.04457   0.38707   0.00393   0.24762
   7        3PX        -0.00278  -0.09316   0.83687   0.87829  -0.43205
   8        3PY        -0.00424  -0.16262   1.48432  -0.47942  -0.75495
   9        3PZ         0.93932   1.14255   0.12921   0.00120  -0.00628
  10        4S          0.00951   0.10364  -0.87372  -0.01206  -0.48295
  11        4PX        -0.00143   0.07484  -0.71507  -0.66952   0.21630
  12        4PY        -0.00204   0.13114  -1.26901   0.35515   0.37948
  13        4PZ        -0.33791  -0.61897  -0.08175  -0.00096   0.00377
  14 2   H  1S          0.00888  -0.01462   0.26167  -0.37594  -0.21491
  15        2S         -0.01014   0.00908  -0.21742   0.38838   0.16364
  16        3S         -0.00214   0.03036  -0.29999   0.27270   0.05883
  17 3   H  1S          0.00897  -0.01419   0.25224   0.37731  -0.21375
  18        2S         -0.01036   0.00801  -0.20087  -0.38547   0.16046
  19        3S         -0.00248   0.03061  -0.30109  -0.28990   0.06583
  20 4   C  1S          0.00037  -0.00184   0.01379   0.00043  -0.00740
  21        2S          0.00036  -0.00568   0.04810   0.00105  -0.02293
  22        2PX        -0.00533   0.04803  -0.41115  -0.80618  -0.50195
  23        2PY        -0.00990   0.08549  -0.73009   0.44674  -0.89214
  24        2PZ        -0.92539   0.93313   0.10536   0.00024   0.00965
  25        3S         -0.00203   0.04859  -0.43067  -0.00829   0.19645
  26        3PX         0.00552  -0.08739   0.77387   0.96164   0.53719
  27        3PY         0.01014  -0.15429   1.36382  -0.52477   0.96264
  28        3PZ         0.94126  -1.14077  -0.13264  -0.00031  -0.01217
  29        4S          0.01138  -0.10573   0.90295   0.02470  -0.37354
  30        4PX        -0.00056   0.07442  -0.71084  -0.70020  -0.32394
  31        4PY        -0.00146   0.13014  -1.24121   0.37636  -0.58982
  32        4PZ        -0.33893   0.61800   0.08452   0.00019   0.00950
  33 5   H  1S          0.00849   0.02014  -0.29314   0.41950  -0.26377
  34        2S         -0.01048  -0.01630   0.26657  -0.43105   0.20823
  35        3S         -0.00096  -0.02813   0.28168  -0.24307   0.12504
  36 6   H  1S          0.00856   0.02019  -0.28976  -0.42976  -0.25104
  37        2S         -0.01076  -0.01679   0.26748   0.44024   0.19596
  38        3S         -0.00076  -0.02712   0.27041   0.24687   0.11735
                          36        37        38
                           V         V         V
     Eigenvalues --     3.31958  23.35219  23.70452
   1 1   C  1S         -0.00040  -1.41420  -1.45208
   2        2S         -0.00059   1.50823   1.57018
   3        2PX         0.78677  -0.00664   0.01213
   4        2PY        -0.43851  -0.01085   0.02129
   5        2PZ         0.00069  -0.00040  -0.00018
   6        3S          0.00031  -0.29615  -0.39901
   7        3PX        -1.12367   0.02416  -0.05541
   8        3PY         0.62328   0.04003  -0.09646
   9        3PZ        -0.00107   0.00114   0.00054
  10        4S         -0.00883   0.27402   0.76687
  11        4PX         1.97688  -0.02602   0.13289
  12        4PY        -1.09816  -0.04394   0.22875
  13        4PZ         0.00182  -0.00190  -0.00223
  14 2   H  1S          0.56151   0.01312   0.00712
  15        2S         -0.87638   0.00766  -0.01474
  16        3S         -0.46447  -0.08412  -0.03973
  17 3   H  1S         -0.57301   0.01482   0.00825
  18        2S          0.89260   0.00737  -0.01480
  19        3S          0.48903  -0.08630  -0.03984
  20 4   C  1S         -0.00001  -1.44731   1.41891
  21        2S         -0.00030   1.54364  -1.53441
  22        2PX        -0.70941   0.00616   0.01266
  23        2PY         0.40508   0.01091   0.02164
  24        2PZ        -0.00055  -0.00040   0.00010
  25        3S          0.00468  -0.30305   0.39008
  26        3PX         1.00929  -0.02241  -0.05629
  27        3PY        -0.58457  -0.03948  -0.09688
  28        3PZ         0.00084   0.00116  -0.00026
  29        4S         -0.01921   0.27967  -0.75813
  30        4PX        -1.78205   0.02350   0.13054
  31        4PY         1.04203   0.04241   0.22643
  32        4PZ        -0.00146  -0.00188   0.00163
  33 5   H  1S          0.48431   0.01294  -0.00444
  34        2S         -0.75824   0.00834   0.01340
  35        3S         -0.42807  -0.08281   0.03729
  36 6   H  1S         -0.48191   0.01203  -0.00373
  37        2S          0.75551   0.00917   0.01328
  38        3S          0.42053  -0.08157   0.03705
     Density Matrix:
                           1         2         3         4         5
   1 1   C  1S          0.65940
   2        2S          0.56150   0.49199
   3        2PX        -0.00050  -0.00066   0.08432
   4        2PY        -0.00124  -0.00171   0.00356   0.08763
   5        2PZ         0.00006   0.00010  -0.00009  -0.00020   0.06440
   6        3S         -0.08894  -0.15384   0.00259   0.00615  -0.00014
   7        3PX         0.00088   0.00136   0.13055   0.00113  -0.00007
   8        3PY         0.00122   0.00188   0.00115   0.13113  -0.00018
   9        3PZ         0.00013   0.00021  -0.00016  -0.00032   0.10355
  10        4S         -0.07941  -0.11438  -0.01551  -0.02776   0.00043
  11        4PX         0.00025   0.00156   0.07021  -0.00449  -0.00042
  12        4PY         0.00060   0.00298  -0.00454   0.06550  -0.00075
  13        4PZ        -0.00008  -0.00019  -0.00061  -0.00104   0.09596
  14 2   H  1S         -0.02058  -0.03278   0.03483  -0.06301  -0.00088
  15        2S         -0.02291  -0.03664   0.04905  -0.08781  -0.00067
  16        3S          0.00056  -0.00073   0.02058  -0.03306  -0.00002
  17 3   H  1S         -0.02107  -0.03353  -0.07275  -0.00205  -0.00097
  18        2S         -0.02323  -0.03710  -0.10049  -0.00224  -0.00077
  19        3S          0.00059  -0.00069  -0.03832   0.00109  -0.00005
  20 4   C  1S          0.00605   0.00975  -0.01083  -0.01878  -0.00031
  21        2S          0.00971   0.01518  -0.01733  -0.03005  -0.00050
  22        2PX         0.01035   0.01655  -0.01250  -0.03210   0.00034
  23        2PY         0.01800   0.02878  -0.03211  -0.04964   0.00065
  24        2PZ        -0.00036  -0.00058  -0.00029  -0.00045   0.06430
  25        3S         -0.02614  -0.03968   0.04864   0.08442   0.00151
  26        3PX         0.01597   0.02475  -0.01834  -0.04585   0.00043
  27        3PY         0.02775   0.04302  -0.04573  -0.07127   0.00085
  28        3PZ        -0.00060  -0.00097  -0.00050  -0.00079   0.10290
  29        4S          0.00537   0.00400   0.02096   0.03675   0.00184
  30        4PX         0.00309   0.00637  -0.01311  -0.02109   0.00049
  31        4PY         0.00524   0.01089  -0.02110  -0.03748   0.00098
  32        4PZ        -0.00051  -0.00083  -0.00078  -0.00127   0.09605
  33 5   H  1S          0.00419   0.00687  -0.00170  -0.01236  -0.00035
  34        2S          0.00630   0.01047   0.00352  -0.02499  -0.00001
  35        3S          0.00323   0.00472   0.00421  -0.01756   0.00007
  36 6   H  1S          0.00414   0.00681  -0.00988  -0.00766  -0.00036
  37        2S          0.00622   0.01035  -0.02340  -0.00944  -0.00003
  38        3S          0.00318   0.00467  -0.01724  -0.00517   0.00005
                           6         7         8         9        10
   6        3S          0.45263
   7        3PX        -0.00179   0.20243
   8        3PY        -0.00154  -0.00465   0.19671
   9        3PZ        -0.00043  -0.00012  -0.00028   0.16649
  10        4S          0.27370  -0.02613  -0.04754   0.00056   0.18250
  11        4PX        -0.00674   0.10921  -0.01014  -0.00069  -0.01504
  12        4PY        -0.01228  -0.01022   0.09868  -0.00120  -0.02860
  13        4PZ         0.00085  -0.00082  -0.00137   0.15430   0.00158
  14 2   H  1S          0.08764   0.05615  -0.09836  -0.00147   0.06926
  15        2S          0.09807   0.07942  -0.13660  -0.00114   0.08170
  16        3S          0.00612   0.03365  -0.05083  -0.00004   0.01119
  17 3   H  1S          0.08971  -0.11390  -0.00156  -0.00159   0.06923
  18        2S          0.09939  -0.15716  -0.00061  -0.00126   0.08037
  19        3S          0.00617  -0.05969   0.00352  -0.00008   0.01019
  20 4   C  1S         -0.02641  -0.01692  -0.02935  -0.00052   0.00515
  21        2S         -0.03997  -0.02629  -0.04564  -0.00084   0.00389
  22        2PX        -0.04635  -0.01781  -0.04560   0.00058  -0.01771
  23        2PY        -0.08060  -0.04561  -0.07080   0.00111  -0.03068
  24        2PZ         0.00172  -0.00040  -0.00059   0.10339   0.00181
  25        3S          0.10177   0.07141   0.12417   0.00252   0.00084
  26        3PX        -0.06700  -0.02629  -0.06495   0.00076  -0.02631
  27        3PY        -0.11649  -0.06479  -0.10159   0.00147  -0.04555
  28        3PZ         0.00285  -0.00070  -0.00106   0.16545   0.00300
  29        4S          0.00169   0.03170   0.05580   0.00305  -0.03255
  30        4PX        -0.02255  -0.01958  -0.02967   0.00082  -0.00656
  31        4PY        -0.03875  -0.02972  -0.05413   0.00162  -0.01075
  32        4PZ         0.00243  -0.00109  -0.00176   0.15444   0.00278
  33 5   H  1S         -0.02044  -0.00067  -0.01773  -0.00052  -0.01481
  34        2S         -0.03129   0.00856  -0.03675   0.00004  -0.01932
  35        3S         -0.01216   0.00805  -0.02640   0.00012  -0.00350
  36 6   H  1S         -0.02024  -0.01493  -0.00931  -0.00053  -0.01503
  37        2S         -0.03097  -0.03589  -0.01069   0.00002  -0.01995
  38        3S         -0.01202  -0.02666  -0.00617   0.00009  -0.00393
                          11        12        13        14        15
  11        4PX         0.05995
  12        4PY        -0.00897   0.05103
  13        4PZ        -0.00101  -0.00170   0.14301
  14 2   H  1S          0.03348  -0.05406  -0.00076   0.08122
  15        2S          0.04817  -0.07493  -0.00028   0.10949   0.14966
  16        3S          0.02087  -0.02774   0.00015   0.03664   0.05232
  17 3   H  1S         -0.06302   0.00170  -0.00081  -0.01321  -0.02468
  18        2S         -0.08733   0.00408  -0.00033  -0.02459  -0.04256
  19        3S         -0.03345   0.00432   0.00014  -0.01791  -0.02709
  20 4   C  1S         -0.00319  -0.00576  -0.00046   0.00423   0.00674
  21        2S         -0.00658  -0.01175  -0.00074   0.00699   0.01125
  22        2PX        -0.01326  -0.01996   0.00081   0.00184  -0.00263
  23        2PY        -0.02000  -0.03678   0.00150   0.01140   0.02418
  24        2PZ        -0.00056  -0.00091   0.09582  -0.00042  -0.00013
  25        3S          0.02326   0.04134   0.00218  -0.02107  -0.03387
  26        3PX        -0.02037  -0.02828   0.00109   0.00109  -0.00702
  27        3PY        -0.02829  -0.05365   0.00206   0.01701   0.03629
  28        3PZ        -0.00093  -0.00150   0.15335  -0.00061  -0.00014
  29        4S          0.00825   0.01544   0.00278  -0.01783  -0.02448
  30        4PX        -0.01478  -0.01248   0.00100  -0.00154  -0.00821
  31        4PY        -0.01255  -0.02963   0.00192   0.01529   0.02723
  32        4PZ        -0.00112  -0.00184   0.14314  -0.00034   0.00020
  33 5   H  1S          0.00199  -0.01580  -0.00026   0.01117   0.02326
  34        2S          0.00918  -0.02755   0.00034   0.02375   0.04435
  35        3S          0.00750  -0.01587   0.00024   0.01665   0.02786
  36 6   H  1S         -0.01452  -0.00580  -0.00027  -0.00907  -0.01815
  37        2S         -0.02815  -0.00523   0.00032  -0.01880  -0.03423
  38        3S         -0.01721  -0.00121   0.00022  -0.01013  -0.01765
                          16        17        18        19        20
  16        3S          0.02092
  17 3   H  1S         -0.01809   0.08240
  18        2S         -0.02720   0.10977   0.14832
  19        3S         -0.01273   0.03605   0.05097   0.02013
  20 4   C  1S          0.00372   0.00429   0.00674   0.00370   0.65948
  21        2S          0.00549   0.00709   0.01123   0.00544   0.56156
  22        2PX        -0.00339   0.00901   0.02222   0.01668   0.00114
  23        2PY         0.01764   0.00742   0.00976   0.00573   0.00182
  24        2PZ         0.00002  -0.00041  -0.00010   0.00005   0.00006
  25        3S         -0.01426  -0.02128  -0.03370  -0.01402  -0.08927
  26        3PX        -0.00681   0.01431   0.03495   0.02604  -0.00051
  27        3PY         0.02660   0.00957   0.01193   0.00719  -0.00104
  28        3PZ         0.00005  -0.00060  -0.00009   0.00009   0.00013
  29        4S         -0.00592  -0.01762  -0.02373  -0.00547  -0.08021
  30        4PX        -0.00687   0.01400   0.02756   0.01703  -0.00018
  31        4PY         0.01598   0.00658   0.00670   0.00203  -0.00021
  32        4PZ         0.00020  -0.00034   0.00023   0.00022  -0.00003
  33 5   H  1S          0.01616  -0.00902  -0.01804  -0.00934  -0.02007
  34        2S          0.02738  -0.01864  -0.03383  -0.01682  -0.02217
  35        3S          0.01463  -0.01005  -0.01745  -0.00889   0.00059
  36 6   H  1S         -0.00946   0.01117   0.02315   0.01587  -0.01990
  37        2S         -0.01715   0.02375   0.04412   0.02694  -0.02217
  38        3S         -0.00906   0.01661   0.02762   0.01437   0.00050
                          21        22        23        24        25
  21        2S          0.49205
  22        2PX         0.00163   0.08263
  23        2PY         0.00259   0.00373   0.08743
  24        2PZ         0.00009   0.00010   0.00015   0.06423
  25        3S         -0.15426  -0.00529  -0.00849  -0.00011   0.45382
  26        3PX        -0.00077   0.12850   0.00195   0.00006  -0.00011
  27        3PY        -0.00158   0.00198   0.13119   0.00006   0.00055
  28        3PZ         0.00022   0.00016   0.00024   0.10278  -0.00043
  29        4S         -0.11594   0.01364   0.02321   0.00049   0.27902
  30        4PX        -0.00142   0.07313  -0.00512   0.00034   0.00608
  31        4PY        -0.00227  -0.00506   0.06713   0.00063   0.00996
  32        4PZ        -0.00011   0.00059   0.00105   0.09593   0.00061
  33 5   H  1S         -0.03198  -0.03337   0.06347  -0.00095   0.08552
  34        2S         -0.03543  -0.04970   0.08846  -0.00075   0.09477
  35        3S         -0.00061  -0.02261   0.03353  -0.00008   0.00562
  36 6   H  1S         -0.03172   0.07118   0.00271  -0.00088   0.08483
  37        2S         -0.03544   0.10125   0.00094  -0.00065   0.09480
  38        3S         -0.00073   0.04046  -0.00300  -0.00004   0.00589
                          26        27        28        29        30
  26        3PX         0.20016
  27        3PY        -0.00249   0.19741
  28        3PZ         0.00008   0.00009   0.16448
  29        4S          0.02508   0.04250   0.00061   0.18718
  30        4PX         0.11436  -0.01067   0.00054   0.01533   0.06641
  31        4PY        -0.01062   0.10156   0.00101   0.02517  -0.01042
  32        4PZ         0.00074   0.00134   0.15351   0.00150   0.00085
  33 5   H  1S         -0.05337   0.09950  -0.00157   0.06709  -0.03446
  34        2S         -0.07992   0.13819  -0.00126   0.07757  -0.05203
  35        3S         -0.03679   0.05172  -0.00012   0.00935  -0.02412
  36 6   H  1S          0.11239   0.00346  -0.00146   0.06734   0.06569
  37        2S          0.15969  -0.00031  -0.00111   0.07869   0.09379
  38        3S          0.06349  -0.00619  -0.00007   0.01003   0.03763
                          31        32        33        34        35
  31        4PY         0.05378
  32        4PZ         0.00160   0.14329
  33 5   H  1S          0.05578  -0.00082   0.08064
  34        2S          0.07758  -0.00035   0.10995   0.15235
  35        3S          0.02916   0.00011   0.03805   0.05528   0.02287
  36 6   H  1S         -0.00192  -0.00077  -0.01246  -0.02603  -0.01991
  37        2S         -0.00624  -0.00028  -0.02610  -0.04826  -0.03156
  38        3S         -0.00631   0.00013  -0.02004  -0.03163  -0.01558
                          36        37        38
  36 6   H  1S          0.08003
  37        2S          0.10970   0.15274
  38        3S          0.03818   0.05566   0.02307
    Full Mulliken population analysis:
                           1         2         3         4         5
   1 1   C  1S          0.65940
   2        2S          0.49325   0.49199
   3        2PX         0.00000   0.00000   0.08432
   4        2PY         0.00000   0.00000   0.00000   0.08763
   5        2PZ         0.00000   0.00000   0.00000   0.00000   0.06440
   6        3S         -0.02928  -0.06443   0.00000   0.00000   0.00000
   7        3PX         0.00000   0.00000   0.08213   0.00000   0.00000
   8        3PY         0.00000   0.00000   0.00000   0.08249   0.00000
   9        3PZ         0.00000   0.00000   0.00000   0.00000   0.06514
  10        4S         -0.01221  -0.02141   0.00000   0.00000   0.00000
  11        4PX         0.00000   0.00000   0.01546   0.00000   0.00000
  12        4PY         0.00000   0.00000   0.00000   0.01443   0.00000
  13        4PZ         0.00000   0.00000   0.00000   0.00000   0.02113
  14 2   H  1S         -0.00023  -0.00033   0.00182   0.00559   0.00000
  15        2S         -0.00167  -0.00319   0.00432   0.01317   0.00000
  16        3S          0.00004  -0.00007   0.00070   0.00190   0.00000
  17 3   H  1S         -0.00025  -0.00037   0.00788   0.00000   0.00000
  18        2S         -0.00174  -0.00333   0.01773   0.00000   0.00000
  19        3S          0.00005  -0.00007   0.00255  -0.00000   0.00000
  20 4   C  1S          0.00000   0.00000  -0.00002  -0.00006   0.00000
  21        2S          0.00000  -0.00000  -0.00002  -0.00005   0.00000
  22        2PX        -0.00002  -0.00002   0.00011   0.00085   0.00000
  23        2PY        -0.00006  -0.00005   0.00085   0.00195   0.00000
  24        2PZ        -0.00000  -0.00000  -0.00000  -0.00000   0.00041
  25        3S         -0.00058  -0.00098   0.00253   0.00759  -0.00000
  26        3PX        -0.00054  -0.00099   0.00019   0.00553   0.00000
  27        3PY        -0.00162  -0.00297   0.00551   0.01067   0.00000
  28        3PZ        -0.00000  -0.00000  -0.00000  -0.00000   0.00607
  29        4S          0.00034   0.00030   0.00095   0.00289  -0.00000
  30        4PX        -0.00018  -0.00045  -0.00071   0.00146   0.00000
  31        4PY        -0.00053  -0.00134   0.00146   0.00098   0.00000
  32        4PZ        -0.00000  -0.00000  -0.00000  -0.00000   0.00902
  33 5   H  1S          0.00000   0.00000  -0.00000  -0.00000   0.00000
  34        2S          0.00001   0.00002   0.00000  -0.00031   0.00000
  35        3S          0.00007   0.00013   0.00001  -0.00070  -0.00000
  36 6   H  1S          0.00000   0.00000  -0.00000  -0.00000   0.00000
  37        2S          0.00001   0.00002  -0.00024  -0.00007   0.00000
  38        3S          0.00007   0.00013  -0.00057  -0.00012  -0.00000
                           6         7         8         9        10
   6        3S          0.45263
   7        3PX         0.00000   0.20243
   8        3PY         0.00000   0.00000   0.19671
   9        3PZ         0.00000   0.00000   0.00000   0.16649
  10        4S          0.21203   0.00000   0.00000   0.00000   0.18250
  11        4PX         0.00000   0.07136   0.00000   0.00000   0.00000
  12        4PY         0.00000   0.00000   0.06448   0.00000   0.00000
  13        4PZ         0.00000   0.00000   0.00000   0.10083   0.00000
  14 2   H  1S          0.01606   0.01082   0.03227   0.00001   0.01831
  15        2S          0.04123   0.01964   0.05749   0.00001   0.04707
  16        3S          0.00282   0.00397   0.01020   0.00000   0.00844
  17 3   H  1S          0.01697   0.04427   0.00000   0.00001   0.01852
  18        2S          0.04254   0.07726   0.00000   0.00001   0.04673
  19        3S          0.00286   0.01385  -0.00000   0.00000   0.00773
  20 4   C  1S         -0.00059  -0.00057  -0.00171   0.00000   0.00032
  21        2S         -0.00099  -0.00105  -0.00315   0.00000   0.00029
  22        2PX         0.00241   0.00019   0.00550   0.00000   0.00080
  23        2PY         0.00725   0.00550   0.01060   0.00000   0.00241
  24        2PZ         0.00000  -0.00000  -0.00000   0.00610   0.00000
  25        3S          0.02162   0.01335   0.04020  -0.00000   0.00032
  26        3PX         0.01253  -0.00126   0.01851   0.00000   0.00406
  27        3PY         0.03772   0.01847   0.02856   0.00000   0.01215
  28        3PZ         0.00000  -0.00000  -0.00000   0.03514   0.00000
  29        4S          0.00064   0.00489   0.01489  -0.00000  -0.02042
  30        4PX         0.00633  -0.00401   0.00588   0.00000   0.00199
  31        4PY         0.01884   0.00589   0.00130   0.00000   0.00564
  32        4PZ         0.00000  -0.00000  -0.00000   0.04926   0.00000
  33 5   H  1S         -0.00005  -0.00000  -0.00019   0.00000  -0.00079
  34        2S         -0.00120   0.00006  -0.00320  -0.00000  -0.00323
  35        3S         -0.00197   0.00011  -0.00424  -0.00000  -0.00126
  36 6   H  1S         -0.00005  -0.00013  -0.00005   0.00000  -0.00079
  37        2S         -0.00116  -0.00254  -0.00052  -0.00000  -0.00330
  38        3S         -0.00193  -0.00352  -0.00056  -0.00000  -0.00141
                          11        12        13        14        15
  11        4PX         0.05995
  12        4PY         0.00000   0.05103
  13        4PZ         0.00000   0.00000   0.14301
  14 2   H  1S          0.00635   0.01745   0.00001   0.08122
  15        2S          0.01538   0.04071   0.00000   0.07734   0.14966
  16        3S          0.00522   0.01181  -0.00000   0.01369   0.04128
  17 3   H  1S          0.02361  -0.00000   0.00001  -0.00001  -0.00064
  18        2S          0.05495  -0.00001   0.00000  -0.00064  -0.00529
  19        3S          0.01644  -0.00001  -0.00000  -0.00199  -0.00787
  20 4   C  1S         -0.00019  -0.00058   0.00000   0.00000   0.00002
  21        2S         -0.00047  -0.00144   0.00000   0.00000   0.00003
  22        2PX        -0.00071   0.00138   0.00000  -0.00000   0.00000
  23        2PY         0.00139   0.00096   0.00000  -0.00000  -0.00036
  24        2PZ        -0.00000  -0.00000   0.00900   0.00000   0.00000
  25        3S          0.00653   0.02010  -0.00000  -0.00007  -0.00149
  26        3PX        -0.00417   0.00560   0.00000  -0.00000   0.00004
  27        3PY         0.00560   0.00129   0.00000  -0.00022  -0.00356
  28        3PZ        -0.00000  -0.00000   0.04892   0.00000   0.00000
  29        4S          0.00250   0.00810  -0.00000  -0.00104  -0.00439
  30        4PX        -0.00711   0.00316   0.00000   0.00001   0.00017
  31        4PY         0.00318  -0.00558   0.00000  -0.00243  -0.01026
  32        4PZ        -0.00000  -0.00000   0.08978   0.00000  -0.00000
  33 5   H  1S          0.00002  -0.00233   0.00000   0.00000   0.00000
  34        2S          0.00027  -0.00986  -0.00000   0.00000   0.00015
  35        3S          0.00028  -0.00731  -0.00000   0.00023   0.00146
  36 6   H  1S         -0.00175  -0.00048   0.00000  -0.00000  -0.00004
  37        2S         -0.00826  -0.00106  -0.00000  -0.00004  -0.00091
  38        3S         -0.00653  -0.00032  -0.00000  -0.00046  -0.00245
                          16        17        18        19        20
  16        3S          0.02092
  17 3   H  1S         -0.00201   0.08240
  18        2S         -0.00790   0.07754   0.14832
  19        3S         -0.00660   0.01347   0.04021   0.02013
  20 4   C  1S          0.00009   0.00000   0.00002   0.00009   0.65948
  21        2S          0.00016   0.00000   0.00003   0.00016   0.49330
  22        2PX         0.00001  -0.00000  -0.00028  -0.00059   0.00000
  23        2PY        -0.00074  -0.00000  -0.00008  -0.00013   0.00000
  24        2PZ        -0.00000   0.00000   0.00000  -0.00000   0.00000
  25        3S         -0.00246  -0.00007  -0.00150  -0.00243  -0.02939
  26        3PX         0.00006  -0.00016  -0.00289  -0.00365   0.00000
  27        3PY        -0.00445  -0.00007  -0.00065  -0.00067   0.00000
  28        3PZ        -0.00000   0.00000   0.00000  -0.00000   0.00000
  29        4S         -0.00222  -0.00104  -0.00428  -0.00206  -0.01233
  30        4PX         0.00018  -0.00186  -0.00870  -0.00671   0.00000
  31        4PY        -0.00754  -0.00058  -0.00140  -0.00053   0.00000
  32        4PZ        -0.00000   0.00000  -0.00000  -0.00000   0.00000
  33 5   H  1S          0.00022  -0.00000  -0.00004  -0.00042  -0.00021
  34        2S          0.00143  -0.00004  -0.00090  -0.00234  -0.00158
  35        3S          0.00246  -0.00046  -0.00242  -0.00284   0.00005
  36 6   H  1S         -0.00043   0.00000   0.00000   0.00022  -0.00020
  37        2S         -0.00238   0.00000   0.00015   0.00141  -0.00156
  38        3S         -0.00289   0.00023   0.00144   0.00241   0.00004
                          21        22        23        24        25
  21        2S          0.49205
  22        2PX         0.00000   0.08263
  23        2PY         0.00000   0.00000   0.08743
  24        2PZ         0.00000   0.00000   0.00000   0.06423
  25        3S         -0.06460   0.00000   0.00000   0.00000   0.45382
  26        3PX         0.00000   0.08084   0.00000   0.00000   0.00000
  27        3PY         0.00000   0.00000   0.08254   0.00000   0.00000
  28        3PZ         0.00000   0.00000   0.00000   0.06466   0.00000
  29        4S         -0.02170   0.00000   0.00000   0.00000   0.21615
  30        4PX         0.00000   0.01611   0.00000   0.00000   0.00000
  31        4PY         0.00000   0.00000   0.01478   0.00000   0.00000
  32        4PZ         0.00000   0.00000   0.00000   0.02113   0.00000
  33 5   H  1S         -0.00030   0.00148   0.00562   0.00000   0.01530
  34        2S         -0.00302   0.00383   0.01362   0.00000   0.03931
  35        3S         -0.00006   0.00068   0.00200   0.00000   0.00257
  36 6   H  1S         -0.00029   0.00685   0.00002   0.00000   0.01493
  37        2S         -0.00298   0.01727   0.00001   0.00000   0.03896
  38        3S         -0.00007   0.00270  -0.00001   0.00000   0.00268
                          26        27        28        29        30
  26        3PX         0.20016
  27        3PY         0.00000   0.19741
  28        3PZ         0.00000   0.00000   0.16448
  29        4S          0.00000   0.00000   0.00000   0.18718
  30        4PX         0.07473   0.00000   0.00000   0.00000   0.06641
  31        4PY         0.00000   0.06636   0.00000   0.00000   0.00000
  32        4PZ         0.00000   0.00000   0.10031   0.00000   0.00000
  33 5   H  1S          0.00894   0.03331   0.00001   0.01757   0.00576
  34        2S          0.01735   0.06000   0.00001   0.04438   0.01468
  35        3S          0.00384   0.01079   0.00000   0.00703   0.00535
  36 6   H  1S          0.04153   0.00008   0.00001   0.01753   0.02449
  37        2S          0.07708  -0.00001   0.00001   0.04480   0.05909
  38        3S          0.01480  -0.00009   0.00000   0.00751   0.01867
                          31        32        33        34        35
  31        4PY         0.05378
  32        4PZ         0.00000   0.14329
  33 5   H  1S          0.01865   0.00001   0.08064
  34        2S          0.04377   0.00000   0.07767   0.15235
  35        3S          0.01293  -0.00000   0.01422   0.04361   0.02287
  36 6   H  1S         -0.00004   0.00001  -0.00001  -0.00078  -0.00233
  37        2S         -0.00024   0.00000  -0.00079  -0.00658  -0.00958
  38        3S         -0.00019  -0.00000  -0.00235  -0.00960  -0.00831
                          36        37        38
  36 6   H  1S          0.08003
  37        2S          0.07749   0.15274
  38        3S          0.01427   0.04392   0.02307
     Gross orbital populations:
                           1
   1 1   C  1S          1.10436
   2        2S          0.88586
   3        2PX         0.22699
   4        2PY         0.23582
   5        2PZ         0.16619
   6        3S          0.79282
   7        3PX         0.56112
   8        3PY         0.55546
   9        3PZ         0.42303
  10        4S          0.50451
  11        4PX         0.25931
  12        4PY         0.21153
  13        4PZ         0.41268
  14 2   H  1S          0.27372
  15        2S          0.46703
  16        3S          0.08591
  17 3   H  1S          0.27736
  18        2S          0.46489
  19        3S          0.08270
  20 4   C  1S          1.10442
  21        2S          0.88584
  22        2PX         0.22201
  23        2PY         0.23548
  24        2PZ         0.16553
  25        3S          0.79241
  26        3PX         0.55216
  27        3PY         0.55616
  28        3PZ         0.41963
  29        4S          0.50816
  30        4PX         0.27475
  31        4PY         0.21691
  32        4PZ         0.41280
  33 5   H  1S          0.27197
  34        2S          0.46990
  35        3S          0.08920
  36 6   H  1S          0.27007
  37        2S          0.47074
  38        3S          0.09057
          Condensed to atoms (all electrons):
               1          2          3          4          5          6
     1  C    5.033342   0.387330   0.388209   0.601569  -0.035651  -0.035131
     2  H    0.387330   0.516413  -0.032943  -0.040487   0.005961  -0.009616
     3  H    0.388209  -0.032943   0.513302  -0.040019  -0.009468   0.005872
     4  C    0.601569  -0.040487  -0.040019   5.058128   0.383688   0.383394
     5  H   -0.035651   0.005961  -0.009468   0.383688   0.526865  -0.040327
     6  H   -0.035131  -0.009616   0.005872   0.383394  -0.040327   0.527191
 Mulliken charges:
               1
     1  C   -0.339668
     2  H    0.173342
     3  H    0.175047
     4  C   -0.346273
     5  H    0.168934
     6  H    0.168618
 Sum of Mulliken charges =  -0.00000
 Mulliken charges with hydrogens summed into heavy atoms:
               1
     1  C    0.008721
     4  C   -0.008721
 Electronic spatial extent (au):  <R**2>=             83.8066
 Charge=             -0.0000 electrons
 Dipole moment (field-independent basis, Debye):
    X=              0.0032    Y=              0.0197    Z=             -0.0782  Tot=              0.0807
 Quadrupole moment (field-independent basis, Debye-Ang):
   XX=            -12.1992   YY=            -12.2217   ZZ=            -15.6806
   XY=              0.0080   XZ=             -0.0002   YZ=             -0.0028
 Traceless Quadrupole moment (field-independent basis, Debye-Ang):
   XX=              1.1680   YY=              1.1454   ZZ=             -2.3134
   XY=              0.0080   XZ=             -0.0002   YZ=             -0.0028
 Octapole moment (field-independent basis, Debye-Ang**2):
  XXX=             -0.3480  YYY=             -0.0550  ZZZ=             -0.0758  XYY=              0.1851
  XXY=             -0.0387  XXZ=             -0.1121  XZZ=             -0.0932  YZZ=             -0.0899
  YYZ=             -0.1457  XYZ=             -0.0287
 Hexadecapole moment (field-independent basis, Debye-Ang**3):
 XXXX=            -34.2946 YYYY=            -55.2978 ZZZZ=            -17.8256 XXXY=             -7.2476
 XXXZ=              0.0123 YYYX=            -10.7318 YYYZ=              0.0157 ZZZX=              0.0159
 ZZZY=              0.0302 XXYY=            -16.2200 XXZZ=             -9.9367 YYZZ=            -13.6700
 XXYZ=              0.0064 YYXZ=              0.0002 ZZXY=             -3.2060
 N-N= 3.304116150037D+01 E-N=-2.477872138386D+02  KE= 7.814480079650D+01
 Orbital energies and kinetic energies (alpha):
                                 1                 2
   1         O               -10.290695         15.978659
   2         O               -10.288302         15.979999
   3         O                -0.863422          1.536848
   4         O                -0.672041          1.271370
   5         O                -0.559336          0.941303
   6         O                -0.508835          1.283295
   7         O                -0.436764          1.042914
   8         O                -0.356604          1.038013
   9         V                 0.079575          1.182344
  10         V                 0.140795          0.590088
  11         V                 0.164640          0.594941
  12         V                 0.170026          0.680928
  13         V                 0.240630          0.583345
  14         V                 0.373044          0.852929
  15         V                 0.393489          0.933865
  16         V                 0.398434          0.781919
  17         V                 0.464090          1.193886
  18         V                 0.487755          1.421100
  19         V                 0.493926          1.302380
  20         V                 0.590841          1.651538
  21         V                 0.665624          1.572863
  22         V                 0.690710          2.146785
  23         V                 0.772359          2.408869
  24         V                 0.775337          2.335611
  25         V                 0.844065          1.086916
  26         V                 0.950801          3.416171
  27         V                 2.231637          3.924344
  28         V                 2.290530          4.026935
  29         V                 2.332166          4.304570
  30         V                 2.407034          4.518660
  31         V                 2.670764          6.300411
  32         V                 2.818030          6.307164
  33         V                 2.877859          6.137537
  34         V                 2.952287          6.225552
  35         V                 3.139071          6.821108
  36         V                 3.319584          6.402526
  37         V                23.352192         60.074897
  38         V                23.704518         60.202838
 Total kinetic energy from orbitals= 7.814480079650D+01
 Calling FoFJK, ICntrl=      2127 FMM=F ISym2X=0 I1Cent= 0 IOpClX= 0 NMat=1 NMatS=1 NMatT=0.
 -------------------------------------------------------------------
 Center     Atomic                   Forces (Hartrees/Bohr)
 Number     Number              X              Y              Z
 -------------------------------------------------------------------
      1        6           0.014267036    0.010053185   -0.003129256
      2        1          -0.009715232    0.005932784    0.001583179
      3        1           0.002695481   -0.004811920    0.001444869
      4        6           0.007575463    0.008678348   -0.003453536
      5        1           0.002578323   -0.014423120    0.001751627
      6        1          -0.017401071   -0.005429277    0.001803118
 -------------------------------------------------------------------
 Cartesian Forces:  Max     0.017401071 RMS     0.008086000

 GradGradGradGradGradGradGradGradGradGradGradGradGradGradGradGradGradGrad
 Berny optimization.
 Search for a local minimum.
 Step number   1 out of a maximum of    2
 All quantities printed in internal units (Hartrees-Bohrs-Radians)
 Second derivative matrix not updated -- first step.
 The second derivative matrix:
                          X1        Y1        Z1        X2        Y2
           X1           0.75857
           Y1           0.09587   0.85504
           Z1           0.00458   0.00703   0.17004
           X2          -0.16493   0.09650   0.00166   0.14233
           Y2           0.10245  -0.28255  -0.00590  -0.11574   0.27128
           Z2           0.00263  -0.00741  -0.05458  -0.00239   0.00610
           X3          -0.35266  -0.00081  -0.00644  -0.00014  -0.00008
           Y3          -0.00666  -0.11033  -0.00156   0.03238   0.01899
           Z3          -0.00824  -0.00150  -0.05583   0.00121   0.00045
           X4          -0.26599  -0.17711  -0.00061   0.02275   0.01336
           Y4          -0.17739  -0.47041  -0.00100  -0.01314  -0.00772
           Z4           0.00102   0.00185  -0.09374  -0.00047  -0.00066
           X5           0.02341  -0.01352   0.00050  -0.00000   0.00000
           Y5           0.01170  -0.00676   0.00068   0.00000  -0.00000
           Z5          -0.00040   0.00025   0.01734   0.00020  -0.00010
           X6           0.00160  -0.00092   0.00031  -0.00000   0.00000
           Y6          -0.02598   0.01501   0.00075   0.00000  -0.00000
           Z6           0.00041  -0.00022   0.01677  -0.00020   0.00010
                          Z2        X3        Y3        Z3        X4
           Z2           0.02832
           X3          -0.00023   0.35270
           Y3           0.00129   0.00094   0.07594
           Z3           0.01056   0.00702   0.00104   0.02919
           X4           0.00040   0.00010  -0.02667  -0.00039   0.71095
           Y4          -0.00021  -0.00006   0.01540   0.00024   0.12027
           Z4           0.01566  -0.00035  -0.00077   0.01613  -0.00412
           X5          -0.00020  -0.00000   0.00000   0.00020  -0.14589
           Y5           0.00013   0.00000  -0.00000  -0.00013   0.09193
           Z5           0.00916   0.00020  -0.00013  -0.00932  -0.00249
           X6          -0.00020  -0.00000   0.00000   0.00020  -0.32191
           Y6           0.00011   0.00000  -0.00000  -0.00011  -0.02178
           Z6          -0.00912  -0.00020   0.00013   0.00928   0.00721
                          Y4        Z4        X5        Y5        Z5
           Y4           0.85503
           Z4          -0.00786   0.17498
           X5           0.08368  -0.00164   0.12450
           Y5          -0.28779   0.00590  -0.10263   0.27833
           Z5           0.00732  -0.05678   0.00221  -0.00629   0.02938
           X6          -0.01337   0.00556  -0.00201  -0.00100   0.00028
           Y6          -0.10452   0.00153   0.03247   0.01621  -0.00105
           Z6           0.00151  -0.05625  -0.00108  -0.00029   0.01022
                          X6        Y6        Z6
           X6           0.32233
           Y6           0.01528   0.07330
           Z6          -0.00615  -0.00123   0.02909
 ITU=  0
     Eigenvalues ---    0.03691   0.04373   0.09284   0.09939   0.13474
     Eigenvalues ---    0.17458   0.26259   0.28944   0.52723   0.69973
     Eigenvalues ---    0.97361   1.55489
 Angle between quadratic step and forces=  31.81 degrees.
 Linear search not attempted -- first point.
 B after Tr=     0.006459    0.007494   -0.008040
         Rot=    1.000000   -0.000030    0.000016   -0.000111 Ang=  -0.01 deg.
 Variable       Old X    -DE/DX   Delta X   Delta X   Delta X     New X
                                 (Linear)    (Quad)   (Total)
    X1       -0.63555   0.01427   0.00000   0.02111   0.02781  -0.60775
    Y1       -1.10000   0.01005   0.00000   0.02445   0.03181  -1.06819
    Z1        0.01093  -0.00313   0.00000  -0.01702  -0.02515  -0.01421
    X2        0.41497  -0.00972   0.00000  -0.03721  -0.03011   0.38486
    Y2       -2.88806   0.00593   0.00000   0.02368   0.03126  -2.85680
    Z2       -0.03221   0.00158   0.00000   0.02097   0.01277  -0.01944
    X3       -2.68719   0.00270   0.00000   0.02812   0.03483  -2.65236
    Y3       -1.10714  -0.00481   0.00000  -0.01692  -0.01001  -1.11716
    Z3       -0.03360   0.00144   0.00000   0.02042   0.01222  -0.02137
    X4        0.63068   0.00758   0.00000   0.00561   0.01182   0.64250
    Y4        1.09218   0.00868   0.00000   0.00659   0.01423   1.10640
    Z4        0.00861  -0.00345   0.00000  -0.01625  -0.02421  -0.01559
    X5       -0.30434   0.00258   0.00000  -0.01028  -0.00447  -0.30882
    Y5        2.96172  -0.01442   0.00000  -0.04823  -0.04080   2.92092
    Z5       -0.03742   0.00175   0.00000   0.02035   0.01248  -0.02494
    X6        2.72855  -0.01740   0.00000  -0.04607  -0.03987   2.68868
    Y6        1.22059  -0.00543   0.00000  -0.03457  -0.02647   1.19411
    Z6       -0.03578   0.00180   0.00000   0.01977   0.01188  -0.02390
         Item               Value     Threshold  Converged?
 Maximum Force            0.017401     0.000450     NO 
 RMS     Force            0.008086     0.000300     NO 
 Maximum Displacement     0.040804     0.001800     NO 
 RMS     Displacement     0.024863     0.001200     NO 
 Predicted change in Energy=-1.603738D-03
 GradGradGradGradGradGradGradGradGradGradGradGradGradGradGradGradGradGrad

 Unable to Open any file for archive entry.
 1\1\GINC-BHD0006\Force\RwB97XD\6-311G\C2H4\BWEIGHT\11-Jan-2023\0\\# WB
 97XD/6-311G SCF=XQC FORCE nosym pop=full guess=read\\MD Step 1000\\0,1
 \C,-0.33631953,-0.58209307,0.00578475\H,0.21959139,-1.52829533,-0.0170
 4588\H,-1.4219976,-0.58587493,-0.01777792\C,0.33374069,0.57795447,0.00
 455838\H,-0.16105064,1.56727409,-0.01980102\H,1.44388648,0.64590729,-0
 .01893332\\Version=ES64L-G16RevC.01\HF=-78.5557111\RMSD=6.449e-09\RMSF
 =8.086e-03\Dipole=0.0012434,0.0077537,-0.0307707\Quadrupole=0.8683687,
 0.8515948,-1.7199634,0.0059451,-0.0001681,-0.0020718\PG=C01 [X(C2H4)]\
 \@
 The archive entry for this job was punched.


 THE RARE EARTHS PERPLEX US IN OUR RESEARCHES,
 BAFFLE US IN OUR SPECULATIONS, AND HAUNT US IN OUR
 VERY DREAMS.  THEY STRETCH LIKE AN UNKNOWN BEFORE US,
 MOCKING, MYSTIFYING, AND MURMURING STRANGE REVELATIONS
 AND POSSIBILITIES.  -- SIR WILLIAM CROOKE, 1832-1919
 Job cpu time:       0 days  0 hours  0 minutes 33.6 seconds.
 Elapsed time:       0 days  0 hours  0 minutes 15.2 seconds.
 File lengths (MBytes):  RWF=    272 Int=      0 D2E=      0 Chk=     32 Scr=     32
 Normal termination of Gaussian 16 at Wed Jan 11 18:39:00 2023.
