6
MD Step 0
C  -0.38329520 0.73226544 0.00000000
H  0.14986855 -0.19543948 0.00000000
H  -1.45329520 0.73226544 0.00000000
C  0.29197911 1.90724273 0.00000000
H  -0.24118464 2.83494765 0.00000000
H  1.36197911 1.90724273 0.00000000
6
MD Step 1
C  -0.33822066 -0.58808923 -0.00055755
H  0.19887537 -1.51201159 0.00332265
H  -1.40445787 -0.58422188 0.00332697
C  0.33710534 0.58697332 -0.00055749
H  -0.19222568 1.51866871 0.00332272
H  1.41111127 0.59087479 0.00332722
6
MD Step 2
C  -0.33893705 -0.58892619 -0.00111484
H  0.20223214 -1.50922339 0.00664369
H  -1.40168567 -0.58115815 0.00665292
C  0.33672192 0.58670430 -0.00111461
H  -0.18893733 1.52245902 0.00664308
H  1.41481176 0.59442409 0.00665208
6
MD Step 3
C  -0.33977850 -0.58999367 -0.00167236
H  0.20559375 -1.50685735 0.00996507
H  -1.39940043 -0.57831218 0.00998071
C  0.33649321 0.58668445 -0.00167132
H  -0.18565752 1.52652236 0.00996134
H  1.41864943 0.59811788 0.00997472
6
MD Step 4
C  -0.34073639 -0.59128495 -0.00223036
H  0.20895401 -1.50493725 0.01328766
H  -1.39767494 -0.57569937 0.01331271
C  0.33642437 0.58691584 -0.00222743
H  -0.18238312 1.53081287 0.01327637
H  1.42253567 0.60193639 0.01329354
6
MD Step 5
C  -0.34180201 -0.59279261 -0.00278905
H  0.21230405 -1.50348060 0.01661229
H  -1.39657148 -0.57333399 0.01665156
C  0.33651942 0.58739934 -0.00278274
H  -0.17911044 1.53528325 0.01658705
H  1.42638592 0.60585957 0.01660671
6
MD Step 6
C  -0.34296671 -0.59450860 -0.00334863
H  0.21563222 -1.50249848 0.01993969
H  -1.39613965 -0.57122917 0.02000015
C  0.33678115 0.58813465 -0.00333711
H  -0.17583560 1.53988569 0.01989225
H  1.43012134 0.60986729 0.01991218
6
MD Step 7
C  -0.34422216 -0.59642432 -0.00390923
H  0.21892404 -1.50199534 0.02327054
H  -1.39641440 -0.56939688 0.02336144
C  0.33721106 0.58912018 -0.00389044
H  -0.17255483 1.54457288 0.02319084
H  1.43367023 0.61393959 0.02320778
6
MD Step 8
C  -0.34556049 -0.59853073 -0.00447095
H  0.22216221 -1.50196915 0.02660543
H  -1.39741474 -0.56784806 0.02673832
C  0.33780937 0.59035314 -0.00444261
H  -0.16926494 1.54929875 0.02648165
H  1.43696910 0.61805680 0.02649123
6
MD Step 9
C  -0.34697443 -0.60081835 -0.00503385
H  0.22532683 -1.50241154 0.02994484
H  -1.39914277 -0.56659267 0.03013350
C  0.33857501 0.59182947 -0.00499357
H  -0.16596356 1.55401939 0.02976351
H  1.43996357 0.62219978 0.02976027
6
MD Step 10
C  -0.34845738 -0.60327737 -0.00559792
H  0.22839558 -1.50330827 0.03328921
H  -1.40158357 -0.56563975 0.03354936
C  0.33950567 0.59354392 -0.00554327
H  -0.16264940 1.55869378 0.03303531
H  1.44260900 0.62635006 0.03301273
6
MD Step 11
C  -0.35000352 -0.60589770 -0.00616311
H  0.23134405 -1.50463968 0.03663879
H  -1.40470555 -0.56499758 0.03698774
C  0.34059779 0.59549008 -0.00609168
H  -0.15932249 1.56328434 0.03629596
H  1.44487089 0.63048992 0.03624662
6
MD Step 12
C  -0.35160776 -0.60866899 -0.00672928
H  0.23414611 -1.50638133 0.03999377
H  -1.40846155 -0.56467366 0.04044991
C  0.34184668 0.59766040 -0.00663885
H  -0.15598437 1.56775753 0.03954454
H  1.44672516 0.63460257 0.03946027
6
MD Step 13
C  -0.35326575 -0.61158072 -0.00729624
H  0.23677437 -1.50850471 0.04335420
H  -1.41279037 -0.56467479 0.04393639
C  0.34324655 0.60004630 -0.00718484
H  -0.15263822 1.57208418 0.04278022
H  1.44815826 0.63867213 0.04265234
6
MD Step 14
C  -0.35497378 -0.61462222 -0.00786373
H  0.23920071 -1.51097798 0.04672005
H  -1.41761881 -0.56500703 0.04744704
C  0.34479058 0.60263825 -0.00772978
H  -0.14928889 1.57623998 0.04600247
H  1.44916718 0.64268383 0.04582204
6
MD Step 15
C  -0.35672873 -0.61778274 -0.00843143
H  0.24139673 -1.51376676 0.05009126
H  -1.42286404 -0.56567573 0.05098098
C  0.34647101 0.60542583 -0.00827386
H  -0.14594296 1.58020558 0.04921102
H  1.44975932 0.64662402 0.04896917
6
MD Step 16
C  -0.35852795 -0.62105148 -0.00899898
H  0.24333425 -1.51683493 0.05346765
H  -1.42843593 -0.56668544 0.05453661
C  0.34827923 0.60839783 -0.00881733
H  -0.14260887 1.58396672 0.05240586
H  1.44995221 0.65048005 0.05209411
6
MD Step 17
C  -0.36036913 -0.62441763 -0.00956597
H  0.24498584 -1.52014533 0.05684905
H  -1.43423974 -0.56803984 0.05811169
C  0.35020585 0.61154239 -0.00936054
H  -0.13929675 1.58751428 0.05558736
H  1.44977322 0.65424042 0.05519805
6
MD Step 18
C  -0.36225024 -0.62787044 -0.01013197
H  0.24632529 -1.52366058 0.06023527
H  -1.44017847 -0.56974165 0.06170344
C  0.35224082 0.61484704 -0.00990390
H  -0.13601846 1.59084424 0.05875628
H  1.44925905 0.65789470 0.05828295
6
MD Step 19
C  -0.36416939 -0.63139925 -0.01069650
H  0.24732807 -1.52734366 0.06362615
H  -1.44615525 -0.57179254 0.06530866
C  0.35437351 0.61829887 -0.01044791
H  -0.13278747 1.59395751 0.06191377
H  1.44845514 0.66143349 0.06135160
6
MD Step 20
C  -0.36612475 -0.63499352 -0.01125914
H  0.24797179 -1.53115860 0.06702163
H  -1.45207551 -0.57419302 0.06892387
C  0.35659279 0.62188462 -0.01099319
H  -0.12961873 1.59685979 0.06506147
H  1.44741490 0.66484844 0.06440776
6
MD Step 21
C  -0.36811447 -0.63864293 -0.01181944
H  0.24823656 -1.53507106 0.07042185
H  -1.45784882 -0.57694234 0.07254551
C  0.35888722 0.62559074 -0.01154043
H  -0.12652840 1.59956125 0.06820158
H  1.44619881 0.66813222 0.06745618
6
MD Step 22
C  -0.37013661 -0.64233730 -0.01237702
H  0.24810528 -1.53904871 0.07382698
H  -1.46339045 -0.58003841 0.07616990
C  0.36124505 0.62940356 -0.01209046
H  -0.12353389 1.60207607 0.07133670
H  1.44487321 0.67127832 0.07050244
6
MD Step 23
C  -0.37218908 -0.64606673 -0.01293150
H  0.24756399 -1.54306171 0.07723745
H  -1.46862279 -0.58347772 0.07979356
C  0.36365446 0.63330935 -0.01264418
H  -0.12065345 1.60442208 0.07446997
H  1.44350903 0.67428107 0.07355310
6
MD Step 24
C  -0.37426961 -0.64982153 -0.01348259
H  0.24660208 -1.54708306 0.08065387
H  -1.47347637 -0.58725528 0.08341320
C  0.36610361 0.63729440 -0.01320259
H  -0.11790596 1.60662018 0.07760504
H  1.44218020 0.67713555 0.07661556
6
MD Step 25
C  -0.37637569 -0.65359231 -0.01403007
H  0.24521252 -1.55108891 0.08407725
H  -1.47789078 -0.59136461 0.08702607
C  0.36858084 0.64134515 -0.01376681
H  -0.11531055 1.60869388 0.08074615
H  1.44096190 0.67983763 0.07969806
6
MD Step 26
C  -0.37850459 -0.65736995 -0.01457381
H  0.24339194 -1.55505870 0.08750879
H  -1.48181522 -0.59579763 0.09062977
C  0.37107479 0.64544828 -0.01433801
H  -0.11288639 1.61066848 0.08389794
H  1.43992864 0.68238369 0.08280942
6
MD Step 27
C  -0.38065332 -0.66114566 -0.01511377
H  0.24114080 -1.55897537 0.09095011
H  -1.48520901 -0.60054477 0.09422264
C  0.37357458 0.64959077 -0.01491743
H  -0.11065226 1.61257049 0.08706558
H  1.43915221 0.68477070 0.08595899
6
MD Step 28
C  -0.38281861 -0.66491092 -0.01564999
H  0.23846340 -1.56282535 0.09440306
H  -1.48804185 -0.60559477 0.09780357
C  0.37606995 0.65376001 -0.01550634
H  -0.10862629 1.61442673 0.09025449
H  1.43869955 0.68699602 0.08915624
6
MD Step 29
C  -0.38499694 -0.66865759 -0.01618267
H  0.23536787 -1.56659880 0.09787012
H  -1.49029415 -0.61093496 0.10137250
C  0.37855141 0.65794389 -0.01610606
H  -0.10682529 1.61626385 0.09347063
H  1.43863071 0.68905763 0.09241088
6
MD Step 30
C  -0.38718448 -0.67237781 -0.01671211
H  0.23186625 -1.57028932 0.10135393
H  -1.49195700 -0.61655095 0.10493004
C  0.38101041 0.66213085 -0.01671785
H  -0.10526476 1.61810719 0.09671999
H  1.43899675 0.69095373 0.09573214
6
MD Step 31
C  -0.38937711 -0.67606410 -0.01723873
H  0.22797436 -1.57389404 0.10485753
H  -1.49303228 -0.62242681 0.10847777
C  0.38343943 0.66630999 -0.01734290
H  -0.10395828 1.61998017 0.10000870
H  1.43983792 0.69268292 0.09912867
6
MD Step 32
C  -0.39157047 -0.67970933 -0.01776311
H  0.22371161 -1.57741354 0.10838463
H  -1.49353258 -0.62854529 0.11201858
C  0.38583211 0.67047107 -0.01798240
H  -0.10291698 1.62190378 0.10334313
H  1.44118233 0.69424444 0.10260853
6
MD Step 33
C  -0.39375987 -0.68330672 -0.01828599
H  0.21910095 -1.58085155 0.11193923
H  -1.49348101 -0.63488758 0.11555637
C  0.38818326 0.67460462 -0.01863736
H  -0.10214947 1.62389561 0.10672943
H  1.44304459 0.69563789 0.10617857
6
MD Step 34
C  -0.39594032 -0.68684985 -0.01880825
H  0.21416864 -1.58421477 0.11552582
H  -1.49291095 -0.64143359 0.11909635
C  0.39048892 0.67870192 -0.01930869
H  -0.10166134 1.62596942 0.11017366
H  1.44542528 0.69686347 0.10984435
6
MD Step 35
C  -0.39810656 -0.69033268 -0.01933095
H  0.20894394 -1.58751261 0.11914932
H  -1.49186562 -0.64816195 0.12264502
C  0.39274634 0.68275506 -0.01999712
H  -0.10145501 1.62813462 0.11368157
H  1.44831074 0.69792206 0.11360995
6
MD Step 36
C  -0.40025305 -0.69374950 -0.01985531
H  0.20345884 -1.59075677 0.12281507
H  -1.49039753 -0.65505017 0.12621026
C  0.39495394 0.68675691 -0.02070318
H  -0.10152948 1.63039592 0.11725852
H  1.45167341 0.69881526 0.11747782
6
MD Step 37
C  -0.40237400 -0.69709502 -0.02038272
H  0.19774765 -1.59396092 0.12652889
H  -1.48856768 -0.66207486 0.12980137
C  0.39711116 0.69070115 -0.02142724
H  -0.10188020 1.63275317 0.12090946
H  1.45547272 0.69954555 0.12144881
6
MD Step 38
C  -0.40446340 -0.70036432 -0.02091476
H  0.19184650 -1.59714022 0.13029702
H  -1.48644459 -0.66921191 0.13342915
C  0.39921843 0.69458226 -0.02216945
H  -0.10249903 1.63520134 0.12463888
H  1.45965650 0.70011639 0.12552221
6
MD Step 39
C  -0.40651515 -0.70355293 -0.02145327
H  0.18579251 -1.60031096 0.13412665
H  -1.48410268 -0.67643720 0.13710632
C  0.40127694 0.69839549 -0.02292990
H  -0.10337421 1.63773098 0.12845125
H  1.46416314 0.70053249 0.12969636
6
MD Step 40
C  -0.40852310 -0.70665682 -0.02200030
H  0.17962343 -1.60348992 0.13802557
H  -1.48162105 -0.68372656 0.14084718
C  0.40328855 0.70213689 -0.02370850
H  -0.10449060 1.64032829 0.13235072
H  1.46892328 0.70079969 0.13396853
6
MD Step 41
C  -0.41048100 -0.70967237 -0.02255787
H  0.17337816 -1.60669355 0.14200090
H  -1.47908266 -0.69105474 0.14466634
C  0.40525561 0.70580312 -0.02450486
H  -0.10583012 1.64297439 0.13633995
H  1.47386050 0.70092438 0.13833388
6
MD Step 42
C  -0.41238271 -0.71259638 -0.02312812
H  0.16709557 -1.60993750 0.14605980
H  -1.47657196 -0.69839638 0.14857926
C  0.40718079 0.70939148 -0.02531841
H  -0.10737183 1.64564649 0.14042089
H  1.47889422 0.70091390 0.14278643
6
MD Step 43
C  -0.41422230 -0.71542614 -0.02371324
H  0.16081395 -1.61323610 0.15020932
H  -1.47417267 -0.70572626 0.15260198
C  0.40906692 0.71289983 -0.02614843
H  -0.10909229 1.64831846 0.14459477
H  1.48394192 0.70077648 0.14731938
6
MD Step 44
C  -0.41599420 -0.71815941 -0.02431545
H  0.15457053 -1.61660170 0.15445630
H  -1.47196566 -0.71301934 0.15675074
C  0.41091687 0.71632654 -0.02699405
H  -0.11096593 1.65096141 0.14886211
H  1.48892098 0.70052113 0.15192530
6
MD Step 45
C  -0.41769333 -0.72079449 -0.02493696
H  0.14840080 -1.62004416 0.15880734
H  -1.47002642 -0.72025118 0.16104173
C  0.41273340 0.71967046 -0.02785433
H  -0.11296552 1.65354456 0.15322290
H  1.49375079 0.70015763 0.15659657
6
MD Step 46
C  -0.41931528 -0.72333021 -0.02557992
H  0.14233828 -1.62357028 0.16326850
H  -1.46842297 -0.72739775 0.16549045
C  0.41451907 0.72293080 -0.02872823
H  -0.11506262 1.65603577 0.15767651
H  1.49835411 0.69969626 0.16132542
6
MD Step 47
C  -0.42085639 -0.72576594 -0.02624629
H  0.13641420 -1.62718328 0.16784495
H  -1.46721377 -0.73443537 0.17011107
C  0.41627617 0.72610707 -0.02961463
H  -0.11722801 1.65840211 0.16222153
H  1.50265822 0.69914771 0.16610400
6
MD Step 48
C  -0.42231392 -0.72810160 -0.02693793
H  0.13065682 -1.63088256 0.17254132
H  -1.46644551 -0.74134115 0.17491636
C  0.41800659 0.72919905 -0.03051239
H  -0.11943223 1.66061094 0.16685635
H  1.50659663 0.69852299 0.17092505
6
MD Step 49
C  -0.42369521 -0.73035543 -0.02765553
H  0.12511285 -1.63465377 0.17735530
H  -1.46616595 -0.74806645 0.17991253
C  0.41972280 0.73222394 -0.03141945
H  -0.12164282 1.66260707 0.17157418
H  1.51007685 0.69782645 0.17577516
6
MD Step 50
C  -0.42499939 -0.73252823 -0.02839942
H  0.11980703 -1.63848574 0.18228348
H  -1.46639385 -0.75458576 0.18510181
C  0.42142559 0.73518140 -0.03233373
H  -0.12383098 1.66435741 0.17636740
H  1.51304421 0.69706844 0.18064247
6
MD Step 51
C  -0.42622700 -0.73462151 -0.02917053
H  0.11475662 -1.64236466 0.18732685
H  -1.46713022 -0.76087894 0.19048855
C  0.42311523 0.73807132 -0.03325413
H  -0.12596966 1.66583554 0.18123329
H  1.51545885 0.69626035 0.18552184
6
MD Step 52
C  -0.42737971 -0.73663723 -0.02996938
H  0.10997530 -1.64627267 0.19248516
H  -1.46836101 -0.76692650 0.19607368
C  0.42479148 0.74089359 -0.03417958
H  -0.12803362 1.66701818 0.18616902
H  1.51729036 0.69541319 0.19040932
6
MD Step 53
C  -0.42846021 -0.73857783 -0.03079612
H  0.10547332 -1.65018809 0.19775682
H  -1.47005772 -0.77270961 0.20185470
C  0.42645360 0.74364802 -0.03510914
H  -0.12999974 1.66788545 0.19117176
H  1.51851792 0.69453751 0.19530218
6
MD Step 54
C  -0.42947215 -0.74044618 -0.03165055
H  0.10125757 -1.65408577 0.20313913
H  -1.47217859 -0.77821021 0.20782579
C  0.42810035 0.74633437 -0.03604198
H  -0.13184723 1.66842131 0.19623902
H  1.51913044 0.69364327 0.20019921
6
MD Step 55
C  -0.43042001 -0.74224552 -0.03253205
H  0.09733199 -1.65793739 0.20862780
H  -1.47467023 -0.78341069 0.21397752
C  0.42973000 0.74895228 -0.03697736
H  -0.13355787 1.66861350 0.20136824
H  1.51912617 0.69273967 0.20510040
6
MD Step 56
C  -0.43130893 -0.74397941 -0.03343962
H  0.09369772 -1.66171207 0.21421729
H  -1.47746949 -0.78829413 0.22029727
C  0.43134039 0.75150130 -0.03791469
H  -0.13511620 1.66845378 0.20655719
H  1.51851269 0.69183505 0.21000728
6
MD Step 57
C  -0.43214457 -0.74565166 -0.03437194
H  0.09035344 -1.66537690 0.21990097
H  -1.48050558 -0.79284437 0.22676967
C  0.43292890 0.75398084 -0.03885356
H  -0.13650963 1.66793812 0.21180408
H  1.51730675 0.69093682 0.21492306
6
MD Step 58
C  -0.43293297 -0.74726627 -0.03532740
H  0.08729571 -1.66889754 0.22567100
H  -1.48370233 -0.79704601 0.23337678
C  0.43449251 0.75639020 -0.03979373
H  -0.13772858 1.66706655 0.21710753
H  1.51553379 0.69005135 0.21985253
6
MD Step 59
C  -0.43368033 -0.74882734 -0.03630404
H  0.08451943 -1.67223880 0.23151826
H  -1.48698029 -0.80088440 0.24009826
C  0.43602782 0.75872850 -0.04073509
H  -0.13876654 1.66584315 0.22246637
H  1.51322761 0.68918385 0.22480192
6
MD Step 60
C  -0.43439289 -0.75033901 -0.03729974
H  0.08201806 -1.67536529 0.23743282
H  -1.49025893 -0.80434591 0.24691222
C  0.43753110 0.76099478 -0.04167774
H  -0.13962013 1.66427605 0.22788008
H  1.51042992 0.68833835 0.22977925
6
MD Step 61
C  -0.43507680 -0.75180537 -0.03831214
H  0.07978407 -1.67824210 0.24340392
H  -1.49345852 -0.80741797 0.25379555
C  0.43899831 0.76318789 -0.04262198
H  -0.14028906 1.66237727 0.23334873
H  1.50718968 0.68751765 0.23479417
6
MD Step 62
C  -0.43573798 -0.75323042 -0.03933881
H  0.07780922 -1.68083531 0.24942015
H  -1.49650194 -0.81008917 0.26072439
C  0.44042516 0.76530659 -0.04356833
H  -0.14077614 1.66016254 0.23887297
H  1.50356244 0.68672328 0.23985794
6
MD Step 63
C  -0.43638200 -0.75461797 -0.04037712
H  0.07608491 -1.68311256 0.25546928
H  -1.49931601 -0.81234933 0.26767421
C  0.44180718 0.76734949 -0.04451744
H  -0.14108728 1.65765109 0.24445388
H  1.49960948 0.68595547 0.24498310
6
MD Step 64
C  -0.43701403 -0.75597162 -0.04142447
H  0.07460246 -1.68504359 0.26153893
H  -1.50183290 -0.81418964 0.27462081
C  0.44313978 0.76931512 -0.04547020
H  -0.14123125 1.65486537 0.25009335
H  1.49539680 0.68521322 0.25018373
6
MD Step 65
C  -0.43763875 -0.75729468 -0.04247820
H  0.07335333 -1.68660069 0.26761634
H  -1.50399099 -0.81560265 0.28154025
C  0.44441831 0.77120188 -0.04642766
H  -0.14121963 1.65183079 0.25579378
H  1.49099397 0.68449430 0.25547492
6
MD Step 66
C  -0.43826030 -0.75859014 -0.04353570
H  0.07232942 -1.68775906 0.27368882
H  -1.50573570 -0.81658238 0.28840949
C  0.44563821 0.77300813 -0.04739104
H  -0.14106652 1.64857527 0.26155833
H  1.48647278 0.68379540 0.26087276
6
MD Step 67
C  -0.43888228 -0.75986061 -0.04459445
H  0.07152319 -1.68849722 0.27974373
H  -1.50702002 -0.81712427 0.29520654
C  0.44679504 0.77473215 -0.04836168
H  -0.14078837 1.64512885 0.26739070
H  1.48190575 0.68311220 0.26639386
6
MD Step 68
C  -0.43950767 -0.76110835 -0.04565199
H  0.07092791 -1.68879720 0.28576876
H  -1.50780493 -0.81722522 0.30191083
C  0.44788462 0.77637220 -0.04934101
H  -0.14040360 1.64152319 0.27329516
H  1.47736450 0.68243957 0.27205496
6
MD Step 69
C  -0.44013886 -0.76233519 -0.04670601
H  0.07053773 -1.68864486 0.29175189
H  -1.50805971 -0.81688356 0.30850327
C  0.44890316 0.77792651 -0.05033050
H  -0.13993232 1.63779104 0.27927627
H  1.47291810 0.68177168 0.27787231
6
MD Step 70
C  -0.44077764 -0.76354252 -0.04775436
H  0.07034781 -1.68802998 0.29768165
H  -1.50776204 -0.81609906 0.31496665
C  0.44984734 0.77939337 -0.05133160
H  -0.13939587 1.63396565 0.28533890
H  1.46863118 0.68110227 0.28386122
6
MD Step 71
C  -0.44142516 -0.76473135 -0.04879508
H  0.07035449 -1.68694633 0.30354751
H  -1.50689806 -0.81487277 0.32128605
C  0.45071442 0.78077110 -0.05234570
H  -0.13881631 1.63008005 0.29148822
H  1.46456220 0.68042486 0.29003566
6
MD Step 72
C  -0.44208200 -0.76590221 -0.04982644
H  0.07055520 -1.68539182 0.30933955
H  -1.50546240 -0.81320709 0.32744865
C  0.45150236 0.78205809 -0.05337405
H  -0.13821608 1.62616654 0.29772919
H  1.46076193 0.67973298 0.29640724
6
MD Step 73
C  -0.44274813 -0.76705523 -0.05084695
H  0.07094865 -1.68336833 0.31504898
H  -1.50345803 -0.81110560 0.33344422
C  0.45220986 0.78325289 -0.05441769
H  -0.13761736 1.62225588 0.30406659
H  1.45727194 0.67902040 0.30298498
6
MD Step 74
C  -0.44342293 -0.76819010 -0.05185536
H  0.07153466 -1.68088188 0.32066780
H  -1.50089625 -0.80857315 0.33926490
C  0.45283645 0.78435416 -0.05547732
H  -0.13704172 1.61837678 0.31050440
H  1.45412353 0.67828131 0.30977425
6
MD Step 75
C  -0.44410521 -0.76930612 -0.05285068
H  0.07231430 -1.67794232 0.32618923
H  -1.49779633 -0.80561561 0.34490570
C  0.45338248 0.78536079 -0.05655336
H  -0.13650949 1.61455519 0.31704586
H  1.45133688 0.67751055 0.31677665
6
MD Step 76
C  -0.44479324 -0.77040219 -0.05383223
H  0.07328972 -1.67456330 0.33160757
H  -1.49418536 -0.80223988 0.35036436
C  0.45384915 0.78627187 -0.05764574
H  -0.13603938 1.61081374 0.32369297
H  1.44892058 0.67670375 0.32398936
6
MD Step 77
C  -0.44548475 -0.77147686 -0.05479962
H  0.07446418 -1.67076189 0.33691846
H  -1.49009776 -0.79845370 0.35564169
C  0.45423846 0.78708674 -0.05875400
H  -0.13564792 1.60717122 0.33044640
H  1.44687161 0.67585744 0.33140510
6
MD Step 78
C  -0.44617697 -0.77252835 -0.05575276
H  0.07584180 -1.66655867 0.34211851
H  -1.48557517 -0.79426579 0.36074121
C  0.45455315 0.78780507 -0.05987710
H  -0.13534927 1.60364224 0.33730480
H  1.44517572 0.67496907 0.33901154
6
MD Step 79
C  -0.44686665 -0.77355455 -0.05669184
H  0.07742758 -1.66197713 0.34720565
H  -1.48066565 -0.78968549 0.36566953
C  0.45479661 0.78842680 -0.06101354
H  -0.13515478 1.60023681 0.34426490
H  1.44380814 0.67403705 0.34679167
6
MD Step 80
C  -0.44755011 -0.77455312 -0.05761734
H  0.07922710 -1.65704354 0.35217887
H  -1.47542323 -0.78472287 0.37043603
C  0.45497280 0.78895223 -0.06216121
H  -0.13507282 1.59696024 0.35132098
H  1.44273465 0.67306068 0.35472373
6
MD Step 81
C  -0.44822328 -0.77552147 -0.05853004
H  0.08124643 -1.65178648 0.35703831
H  -1.46990707 -0.77938849 0.37505293
C  0.45508611 0.78938203 -0.06331753
H  -0.13510865 1.59381303 0.35846493
H  1.44191292 0.67204009 0.36278166
6
MD Step 82
C  -0.44888179 -0.77645684 -0.05943095
H  0.08349186 -1.64623647 0.36178510
H  -1.46418060 -0.77369338 0.37953500
C  0.45514119 0.78971718 -0.06447940
H  -0.13526438 1.59079094 0.36568594
H  1.44129403 0.67097609 0.37093550
6
MD Step 83
C  -0.44952097 -0.77735633 -0.06032130
H  0.08596961 -1.64042564 0.36642119
H  -1.45831061 -0.76764905 0.38389925
C  0.45514293 0.78995908 -0.06564321
H  -0.13553911 1.58788524 0.37297037
H  1.44082414 0.66987001 0.37915175
6
MD Step 84
C  -0.45013599 -0.77821693 -0.06120250
H  0.08868562 -1.63438712 0.37094934
H  -1.45236594 -0.76126730 0.38816462
C  0.45509621 0.79010944 -0.06680497
H  -0.13592902 1.58508296 0.38030190
H  1.44044619 0.66872354 0.38739421
6
MD Step 85
C  -0.45072190 -0.77903563 -0.06207610
H  0.09164524 -1.62815460 0.37537293
H  -1.44641619 -0.75456021 0.39235156
C  0.45500587 0.79017030 -0.06796035
H  -0.13642768 1.58236742 0.38766163
H  1.44010155 0.66753855 0.39562464
6
MD Step 86
C  -0.45127377 -0.77980937 -0.06294373
H  0.09485295 -1.62176179 0.37969578
H  -1.44053031 -0.74754014 0.39648142
C  0.45487654 0.79014400 -0.06910471
H  -0.13702634 1.57971868 0.39502813
H  1.43973165 0.66631689 0.40380343
6
MD Step 87
C  -0.45178677 -0.78053518 -0.06380700
H  0.09831195 -1.61524209 0.38392188
H  -1.43477506 -0.74021986 0.40057576
C  0.45471262 0.79003318 -0.07023320
H  -0.13771440 1.57711423 0.40237766
H  1.43927942 0.66506024 0.41189023
6
MD Step 88
C  -0.45225629 -0.78121012 -0.06466745
H  0.10202395 -1.60862785 0.38805529
H  -1.42921329 -0.73261250 0.40465567
C  0.45451816 0.78984065 -0.07134087
H  -0.13847976 1.57452960 0.40968454
H  1.43869058 0.66376998 0.41984475
6
MD Step 89
C  -0.45267803 -0.78183140 -0.06552648
H  0.10598879 -1.60195009 0.39209989
H  -1.42390233 -0.72473168 0.40874098
C  0.45429682 0.78956945 -0.07242269
H  -0.13930934 1.57193908 0.41692148
H  1.43791479 0.66244701 0.42762738
6
MD Step 90
C  -0.45304816 -0.78239634 -0.06638523
H  0.11020417 -1.59523800 0.39605915
H  -1.41889246 -0.71659176 0.41284936
C  0.45405183 0.78922272 -0.07347367
H  -0.14018954 1.56931642 0.42405988
H  1.43690650 0.66109167 0.43519968
6
MD Step 91
C  -0.45336335 -0.78290243 -0.06724454
H  0.11466545 -1.58851849 0.39993598
H  -1.41422541 -0.70820785 0.41699568
C  0.45378598 0.78880368 -0.07448894
H  -0.14110671 1.56663547 0.43107038
H  1.43562576 0.65970369 0.44252508
6
MD Step 92
C  -0.45362092 -0.78334731 -0.06810484
H  0.11936530 -1.58181604 0.40373243
H  -1.40993338 -0.69959631 0.42119107
C  0.45350160 0.78831560 -0.07546377
H  -0.14204758 1.56387092 0.43792312
H  1.43403877 0.65828206 0.44956911
6
MD Step 93
C  -0.45381882 -0.78372878 -0.06896614
H  0.12429372 -1.57515218 0.40744967
H  -1.40603798 -0.69077464 0.42544254
C  0.45320056 0.78776173 -0.07639371
H  -0.14299970 1.56099880 0.44458837
H  1.43211831 0.65682502 0.45630010
6
MD Step 94
C  -0.45395574 -0.78404483 -0.06982793
H  0.12943782 -1.56854549 0.41108780
H  -1.40254984 -0.68176190 0.42975237
C  0.45288425 0.78714525 -0.07727459
H  -0.14395177 1.55799706 0.45103687
H  1.42984406 0.65533006 0.46268937
6
MD Step 95
C  -0.45402471 -0.78428219 -0.07068799
H  0.13481178 -1.56198664 0.41463232
H  -1.39945742 -0.67253764 0.43410459
C  0.45254369 0.78645256 -0.07810143
H  -0.14489750 1.55484547 0.45723906
H  1.42720809 0.65379172 0.46871096
6
MD Step 96
C  -0.45402441 -0.78443721 -0.07154219
H  0.14038089 -1.55550846 0.41806887
H  -1.39676357 -0.66315006 0.43847773
C  0.45218055 0.78568813 -0.07886796
H  -0.14583017 1.55153154 0.46314805
H  1.42420553 0.65220662 0.47432352
6
MD Step 97
C  -0.45395538 -0.78450796 -0.07238821
H  0.14612384 -1.54912133 0.42139295
H  -1.39444784 -0.65362433 0.44285902
C  0.45179483 0.78485453 -0.07957113
H  -0.14674346 1.54804175 0.46873719
H  1.42083746 0.65057011 0.47950699
6
MD Step 98
C  -0.45381870 -0.78449262 -0.07322339
H  0.15201652 -1.54283278 0.42459900
H  -1.39248061 -0.64398764 0.44723055
C  0.45138613 0.78395415 -0.08020826
H  -0.14763339 1.54436608 0.47398164
H  1.41711199 0.64887685 0.48424593
6
MD Step 99
C  -0.45361595 -0.78438943 -0.07404464
H  0.15803230 -1.53664782 0.42768035
H  -1.39082412 -0.63426930 0.45157022
C  0.45095368 0.78298915 -0.08077718
H  -0.14849826 1.54049814 0.47885884
H  1.41304430 0.64712084 0.48852903
6
MD Step 100
C  -0.45334909 -0.78419670 -0.07484850
H  0.16414247 -1.53056906 0.43062937
H  -1.38943387 -0.62450037 0.45585245
C  0.45049633 0.78196142 -0.08127633
H  -0.14933878 1.53643536 0.48334883
H  1.40865651 0.64529544 0.49234935
6
MD Step 101
C  -0.45302040 -0.78391280 -0.07563121
H  0.17031646 -1.52459725 0.43343755
H  -1.38826022 -0.61471371 0.46004880
C  0.45001259 0.78087263 -0.08170468
H  -0.15015808 1.53217911 0.48743442
H  1.40397745 0.64339348 0.49570427
6
MD Step 102
C  -0.45263232 -0.78353614 -0.07638884
H  0.17652248 -1.51873134 0.43609582
H  -1.38724996 -0.60494330 0.46412895
C  0.44950065 0.77972417 -0.08206187
H  -0.15096174 1.52773465 0.49110159
H  1.39904224 0.64140725 0.49859574
6
MD Step 103
C  -0.45218741 -0.78306516 -0.07711734
H  0.18272761 -1.51296921 0.43859461
H  -1.38634806 -0.59522435 0.46806136
C  0.44895840 0.77851716 -0.08234811
H  -0.15175773 1.52311124 0.49433939
H  1.39389211 0.63932865 0.50102997
6
MD Step 104
C  -0.45168820 -0.78249840 -0.07781265
H  0.18889872 -1.50730768 0.44092427
H  -1.38549908 -0.58559229 0.47181439
C  0.44838349 0.77725244 -0.08256426
H  -0.15255637 1.51832189 0.49714042
H  1.38857368 0.63714925 0.50301767
6
MD Step 105
C  -0.45114798 -0.78185332 -0.07848039
H  0.19502702 -1.50170537 0.44312798
H  -1.38462613 -0.57603925 0.47541490
C  0.44778195 0.77594528 -0.08272050
H  -0.15336263 1.51335798 0.49955462
H  1.38311004 0.63485477 0.50462731
6
MD Step 106
C  -0.45056809 -0.78112671 -0.07911376
H  0.20104617 -1.49618845 0.44518156
H  -1.38368750 -0.56664776 0.47881216
C  0.44715278 0.77459923 -0.08281626
H  -0.15419463 1.50825352 0.50156405
H  1.37757210 0.63243926 0.50586373
6
MD Step 107
C  -0.44995096 -0.78031773 -0.07970871
H  0.20692599 -1.49075164 0.44707736
H  -1.38263354 -0.55745008 0.48198107
C  0.44649318 0.77321462 -0.08285500
H  -0.15506828 1.50303081 0.50317253
H  1.37201847 0.62989330 0.50674889
6
MD Step 108
C  -0.44929867 -0.77942562 -0.08026218
H  0.21263759 -1.48538995 0.44880832
H  -1.38141951 -0.54847686 0.48489749
C  0.44580037 0.77179155 -0.08284003
H  -0.15600164 1.49771479 0.50438742
H  1.36650955 0.62720743 0.50730949
6
MD Step 109
C  -0.44861301 -0.77844969 -0.08077144
H  0.21815375 -1.48009918 0.45036812
H  -1.38000582 -0.53975715 0.48754007
C  0.44507152 0.77032989 -0.08277505
H  -0.15701416 1.49233295 0.50521906
H  1.36110732 0.62437243 0.50757470
6
MD Step 110
C  -0.44789548 -0.77738939 -0.08123415
H  0.22344935 -1.47487609 0.45175142
H  -1.37835861 -0.53131800 0.48989067
C  0.44430390 0.76882931 -0.08266415
H  -0.15812634 1.48691498 0.50568063
H  1.35587424 0.62137952 0.50757554
6
MD Step 111
C  -0.44714728 -0.77624425 -0.08164846
H  0.22850207 -1.46971818 0.45295412
H  -1.37644992 -0.52318354 0.49193487
C  0.44349484 0.76728926 -0.08251169
H  -0.15935939 1.48149208 0.50578807
H  1.35087183 0.61822041 0.50734431
6
MD Step 112
C  -0.44636929 -0.77501395 -0.08201294
H  0.23329213 -1.46462426 0.45397336
H  -1.37425813 -0.51537541 0.49366191
C  0.44264187 0.76570901 -0.08232221
H  -0.16073490 1.47609677 0.50555959
H  1.34615968 0.61488765 0.50691375
6
MD Step 113
C  -0.44556209 -0.77369828 -0.08232665
H  0.23780277 -1.45959432 0.45480764
H  -1.37176799 -0.50791220 0.49506495
C  0.44174281 0.76408769 -0.08210035
H  -0.16227442 1.47076221 0.50501536
H  1.34179407 0.61137472 0.50631626
6
MD Step 114
C  -0.44472595 -0.77229717 -0.08258916
H  0.24202018 -1.45462974 0.45545689
H  -1.36897069 -0.50080948 0.49614107
C  0.44079578 0.76242428 -0.08185074
H  -0.16399904 1.46552183 0.50417714
H  1.33782672 0.60767634 0.50558299
6
MD Step 115
C  -0.44386090 -0.77081073 -0.08280058
H  0.24593423 -1.44973266 0.45592269
H  -1.36586345 -0.49407878 0.49689155
C  0.43979927 0.76071765 -0.08157788
H  -0.16592901 1.46040835 0.50306785
H  1.33430340 0.60378842 0.50474322
6
MD Step 116
C  -0.44296668 -0.76923922 -0.08296151
H  0.24953765 -1.44490685 0.45620802
H  -1.36244988 -0.48772876 0.49732150
C  0.43875225 0.75896660 -0.08128604
H  -0.16808326 1.45545378 0.50171098
H  1.33126312 0.59970855 0.50382339
6
MD Step 117
C  -0.44204277 -0.76758304 -0.08307304
H  0.25282639 -1.44015732 0.45631733
H  -1.35873955 -0.48176460 0.49743993
C  0.43765417 0.75716990 -0.08097915
H  -0.17047899 1.45068862 0.50013008
H  1.32873714 0.59543604 0.50284644
6
MD Step 118
C  -0.44108840 -0.76584278 -0.08313675
H  0.25579942 -1.43549042 0.45625650
H  -1.35474788 -0.47618823 0.49725963
C  0.43650500 0.75532634 -0.08066073
H  -0.17313124 1.44614152 0.49834830
H  1.32674823 0.59097213 0.50183124
6
MD Step 119
C  -0.44010262 -0.76401922 -0.08315470
H  0.25845882 -1.43091353 0.45603286
H  -1.35049571 -0.47099810 0.49679711
C  0.43530524 0.75343470 -0.08033377
H  -0.17605252 1.44183861 0.49638779
H  1.32531015 0.58631999 0.50079218
6
MD Step 120
C  -0.43908421 -0.76211329 -0.08312938
H  0.26080912 -1.42643573 0.45565490
H  -1.34600959 -0.46619007 0.49607232
C  0.43405595 0.75149390 -0.08000070
H  -0.17925234 1.43780349 0.49426927
H  1.32442749 0.58148509 0.49973881
6
MD Step 121
C  -0.43803177 -0.76012610 -0.08306367
H  0.26285738 -1.42206747 0.45513230
H  -1.34132129 -0.46175722 0.49510855
C  0.43275869 0.74950299 -0.07966338
H  -0.18273683 1.43405668 0.49201156
H  1.32409555 0.57647521 0.49867571
6
MD Step 122
C  -0.43694370 -0.75805897 -0.08296085
H  0.26461273 -1.41782096 0.45447572
H  -1.33646799 -0.45769036 0.49393226
C  0.43141556 0.74746122 -0.07932299
H  -0.18650839 1.43061554 0.48963125
H  1.32430056 0.57130057 0.49760256
6
MD Step 123
C  -0.43581818 -0.75591339 -0.08282452
H  0.26608626 -1.41371003 0.45369678
H  -1.33149189 -0.45397824 0.49257294
C  0.43002912 0.74536806 -0.07898014
H  -0.19056526 1.42749390 0.48714233
H  1.32501997 0.56597391 0.49651428
6
MD Step 124
C  -0.43465324 -0.75369103 -0.08265860
H  0.26729077 -1.40975021 0.45280787
H  -1.32644009 -0.45060774 0.49106284
C  0.42860232 0.74322325 -0.07863480
H  -0.19490133 1.42470198 0.48455606
H  1.32622306 0.56051044 0.49540145
6
MD Step 125
C  -0.43344676 -0.75139377 -0.08246725
H  0.26824050 -1.40595881 0.45182202
H  -1.32136425 -0.44756423 0.48943671
C  0.42713849 0.74102689 -0.07828639
H  -0.19950578 1.42224621 0.48188074
H  1.32787152 0.55492788 0.49425073
6
MD Step 126
C  -0.43219649 -0.74902367 -0.08225486
H  0.26895097 -1.40235467 0.45075283