 Entering Gaussian System, Link 0=g16
 Initial command:
 /software/gaussian/g16-c01/avx2/g16/l1.exe "/gpfs/fs2/scratch/bweight/software/many_molecule_many_mode_NAMD/src/NAMD/TEST_NVT/TRAJ/traj-27/G16/GS_NEW/Gau-17155.inp" -scrdir="/gpfs/fs2/scratch/bweight/software/many_molecule_many_mode_NAMD/src/NAMD/TEST_NVT/TRAJ/traj-27/G16/GS_NEW/"
 Entering Link 1 = /software/gaussian/g16-c01/avx2/g16/l1.exe PID=     17156.
  
 Copyright (c) 1988-2019, Gaussian, Inc.  All Rights Reserved.
  
 This is part of the Gaussian(R) 16 program.  It is based on
 the Gaussian(R) 09 system (copyright 2009, Gaussian, Inc.),
 the Gaussian(R) 03 system (copyright 2003, Gaussian, Inc.),
 the Gaussian(R) 98 system (copyright 1998, Gaussian, Inc.),
 the Gaussian(R) 94 system (copyright 1995, Gaussian, Inc.),
 the Gaussian 92(TM) system (copyright 1992, Gaussian, Inc.),
 the Gaussian 90(TM) system (copyright 1990, Gaussian, Inc.),
 the Gaussian 88(TM) system (copyright 1988, Gaussian, Inc.),
 the Gaussian 86(TM) system (copyright 1986, Carnegie Mellon
 University), and the Gaussian 82(TM) system (copyright 1983,
 Carnegie Mellon University). Gaussian is a federally registered
 trademark of Gaussian, Inc.
  
 This software contains proprietary and confidential information,
 including trade secrets, belonging to Gaussian, Inc.
  
 This software is provided under written license and may be
 used, copied, transmitted, or stored only in accord with that
 written license.
  
 The following legend is applicable only to US Government
 contracts under FAR:
  
                    RESTRICTED RIGHTS LEGEND
  
 Use, reproduction and disclosure by the US Government is
 subject to restrictions as set forth in subparagraphs (a)
 and (c) of the Commercial Computer Software - Restricted
 Rights clause in FAR 52.227-19.
  
 Gaussian, Inc.
 340 Quinnipiac St., Bldg. 40, Wallingford CT 06492
  
  
 ---------------------------------------------------------------
 Warning -- This program may not be used in any manner that
 competes with the business of Gaussian, Inc. or will provide
 assistance to any competitor of Gaussian, Inc.  The licensee
 of this program is prohibited from giving any competitor of
 Gaussian, Inc. access to this program.  By using this program,
 the user acknowledges that Gaussian, Inc. is engaged in the
 business of creating and licensing software in the field of
 computational chemistry and represents and warrants to the
 licensee that it is not a competitor of Gaussian, Inc. and that
 it will not use this program in any manner prohibited above.
 ---------------------------------------------------------------
  

 Cite this work as:
 Gaussian 16, Revision C.01,
 M. J. Frisch, G. W. Trucks, H. B. Schlegel, G. E. Scuseria, 
 M. A. Robb, J. R. Cheeseman, G. Scalmani, V. Barone, 
 G. A. Petersson, H. Nakatsuji, X. Li, M. Caricato, A. V. Marenich, 
 J. Bloino, B. G. Janesko, R. Gomperts, B. Mennucci, H. P. Hratchian, 
 J. V. Ortiz, A. F. Izmaylov, J. L. Sonnenberg, D. Williams-Young, 
 F. Ding, F. Lipparini, F. Egidi, J. Goings, B. Peng, A. Petrone, 
 T. Henderson, D. Ranasinghe, V. G. Zakrzewski, J. Gao, N. Rega, 
 G. Zheng, W. Liang, M. Hada, M. Ehara, K. Toyota, R. Fukuda, 
 J. Hasegawa, M. Ishida, T. Nakajima, Y. Honda, O. Kitao, H. Nakai, 
 T. Vreven, K. Throssell, J. A. Montgomery, Jr., J. E. Peralta, 
 F. Ogliaro, M. J. Bearpark, J. J. Heyd, E. N. Brothers, K. N. Kudin, 
 V. N. Staroverov, T. A. Keith, R. Kobayashi, J. Normand, 
 K. Raghavachari, A. P. Rendell, J. C. Burant, S. S. Iyengar, 
 J. Tomasi, M. Cossi, J. M. Millam, M. Klene, C. Adamo, R. Cammi, 
 J. W. Ochterski, R. L. Martin, K. Morokuma, O. Farkas, 
 J. B. Foresman, and D. J. Fox, Gaussian, Inc., Wallingford CT, 2019.
 
 ******************************************
 Gaussian 16:  ES64L-G16RevC.01  3-Jul-2019
                11-Jan-2023 
 ******************************************
 %oldchk=../GS_OLD/geometry.chk
 %chk=geometry.chk
 %nprocshared=4
 Will use up to    4 processors via shared memory.
 %mem=5GB
 Copying data from "../GS_OLD/geometry.chk" to current chk file "geometry.chk"
 IOpt=  2 FromEx=T IUOpen= 4 IOptOp= 5 NList=   0 IFRang= 0 IUIn= 4 IUOut= 2.
 -------------------------------------------------------
 # WB97XD/6-311G SCF=XQC FORCE nosym pop=full guess=read
 -------------------------------------------------------
 1/10=7,30=1,38=1/1,3;
 2/12=2,15=1,17=6,18=5,40=1/2;
 3/5=4,6=6,11=2,25=1,30=1,71=1,74=-58,116=-2/1,2,3;
 4/5=1/1;
 5/5=2,8=3,13=1,38=6/2,8;
 6/7=3,28=1/1;
 7/29=1,30=1/1,2,3,16;
 1/10=7,30=1/3;
 99//99;
 -----------
 MD Step 999
 -----------
 Symbolic Z-matrix:
 Charge =  0 Multiplicity = 1
 C                    -0.33674  -0.58241   0.00874 
 H                     0.22056  -1.52272  -0.02992 
 H                    -1.41388  -0.57627  -0.03059 
 C                     0.33193   0.57491   0.00557 
 H                    -0.15822   1.57139  -0.03471 
 H                     1.4502    0.65834  -0.03393 
 

 GradGradGradGradGradGradGradGradGradGradGradGradGradGradGradGradGradGrad
 Berny optimization.
 Initialization pass.
 Trust Radius=3.00D-01 FncErr=1.00D-07 GrdErr=1.00D-07 EigMax=2.50D+02 EigMin=1.00D-04
 Number of steps in this run=      2 maximum allowed number of steps=      2.
 GradGradGradGradGradGradGradGradGradGradGradGradGradGradGradGradGradGrad

                          Input orientation:                          
 ---------------------------------------------------------------------
 Center     Atomic      Atomic             Coordinates (Angstroms)
 Number     Number       Type             X           Y           Z
 ---------------------------------------------------------------------
      1          6           0       -0.336738   -0.582406    0.008739
      2          1           0        0.220563   -1.522715   -0.029920
      3          1           0       -1.413879   -0.576267   -0.030587
      4          6           0        0.331932    0.574906    0.005571
      5          1           0       -0.158222    1.571390   -0.034708
      6          1           0        1.450199    0.658343   -0.033928
 ---------------------------------------------------------------------
                    Distance matrix (angstroms):
                    1          2          3          4          5
     1  C    0.000000
     2  H    1.093737   0.000000
     3  H    1.077876   1.888694   0.000000
     4  C    1.336600   2.100875   2.091498   0.000000
     5  H    2.161619   3.117209   2.487795   1.111240   0.000000
     6  H    2.175873   2.503804   3.118849   1.122071   1.849507
                    6
     6  H    0.000000
 Symmetry turned off by external request.
 Stoichiometry    C2H4
 Framework group  C1[X(C2H4)]
 Deg. of freedom    12
 Full point group                 C1      NOp   1
 Rotational constants (GHZ):         143.3031880          29.7127700          24.6228842
 Standard basis: 6-311G (5D, 7F)
    38 basis functions,    72 primitive gaussians,    38 cartesian basis functions
     8 alpha electrons        8 beta electrons
       nuclear repulsion energy        33.0755733225 Hartrees.
 NAtoms=    6 NActive=    6 NUniq=    6 SFac= 1.00D+00 NAtFMM=   60 NAOKFM=F Big=F
 Integral buffers will be    131072 words long.
 Raffenetti 2 integral format.
 Two-electron integral symmetry is turned off.
 Nuclear repulsion after empirical dispersion term =       33.0747318707 Hartrees.
 One-electron integrals computed using PRISM.
 NBasis=    38 RedAO= T EigKep=  6.39D-03  NBF=    38
 NBsUse=    38 1.00D-06 EigRej= -1.00D+00 NBFU=    38
 Initial guess from the checkpoint file:  "geometry.chk"
 B after Tr=    -0.000220   -0.000322   -0.000717
         Rot=    1.000000    0.000002    0.000001    0.000005 Ang=   0.00 deg.
 Keep R1 ints in memory in canonical form, NReq=4036876.
 Requested convergence on RMS density matrix=1.00D-08 within  32 cycles.
 Requested convergence on MAX density matrix=1.00D-06.
 Requested convergence on             energy=1.00D-06.
 No special actions if energy rises.
 SCF Done:  E(RwB97XD) =  -78.5547518687     A.U. after    8 cycles
            NFock=  8  Conv=0.73D-08     -V/T= 2.0052
 QCSCF skips out because SCF is already converged.

 **********************************************************************

            Population analysis using the SCF Density.

 **********************************************************************

 Alpha  occ. eigenvalues --  -10.29160 -10.28699  -0.86431  -0.67177  -0.55970
 Alpha  occ. eigenvalues --   -0.50957  -0.43544  -0.35723
 Alpha virt. eigenvalues --    0.07991   0.14072   0.16430   0.16995   0.24064
 Alpha virt. eigenvalues --    0.37246   0.39271   0.40092   0.46252   0.48937
 Alpha virt. eigenvalues --    0.49355   0.59114   0.66482   0.69140   0.77123
 Alpha virt. eigenvalues --    0.77688   0.83939   0.95316   2.23108   2.29043
 Alpha virt. eigenvalues --    2.33373   2.40589   2.67142   2.81688   2.87781
 Alpha virt. eigenvalues --    2.95057   3.14159   3.31727  23.35143  23.70712
     Molecular Orbital Coefficients:
                           1         2         3         4         5
                           O         O         O         O         O
     Eigenvalues --   -10.29160 -10.28699  -0.86431  -0.67177  -0.55970
   1 1   C  1S          0.05449   0.56074  -0.08898   0.06609  -0.00067
   2        2S          0.04504   0.46150  -0.14066   0.10583  -0.00111
   3        2PX         0.00016   0.00000   0.02550   0.03741   0.14125
   4        2PY         0.00028   0.00002   0.04637   0.06010  -0.07532
   5        2PZ         0.00000  -0.00001  -0.00171   0.00245   0.00026
   6        3S          0.00055   0.01468   0.37724  -0.28867   0.00307
   7        3PX        -0.00064   0.00037   0.03393   0.05959   0.22113
   8        3PY        -0.00110   0.00068   0.06136   0.09720  -0.11901
   9        3PZ        -0.00001  -0.00004  -0.00285   0.00433   0.00038
  10        4S          0.00450  -0.01444   0.19223  -0.22338   0.00295
  11        4PX         0.00162  -0.00141   0.00457   0.02334   0.11316
  12        4PY         0.00279  -0.00246   0.00840   0.04011  -0.06197
  13        4PZ        -0.00001   0.00011  -0.00096   0.00215   0.00017
  14 2   H  1S         -0.00004  -0.00007   0.05323  -0.08688   0.10558
  15        2S         -0.00031   0.00008   0.05442  -0.10451   0.13341
  16        3S          0.00070   0.00175  -0.00186  -0.01494   0.04315
  17 3   H  1S         -0.00004  -0.00009   0.05536  -0.09134  -0.10894
  18        2S         -0.00031   0.00007   0.05574  -0.10882  -0.13637
  19        3S          0.00072   0.00182  -0.00181  -0.01619  -0.04409
  20 4   C  1S          0.56077  -0.05468  -0.08632  -0.06897  -0.00030
  21        2S          0.46154  -0.04480  -0.13626  -0.11063  -0.00047
  22        2PX        -0.00000  -0.00017  -0.02837   0.03705   0.11392
  23        2PY         0.00000  -0.00029  -0.04745   0.06639  -0.07233
  24        2PZ        -0.00000   0.00000  -0.00119  -0.00246   0.00027
  25        3S          0.01425  -0.00229   0.36498   0.30236   0.00137
  26        3PX        -0.00028   0.00071  -0.03537   0.06039   0.17845
  27        3PY        -0.00045   0.00123  -0.05886   0.10755  -0.11224
  28        3PZ        -0.00004  -0.00001  -0.00207  -0.00448   0.00041
  29        4S         -0.01287   0.00736   0.18791   0.24114  -0.00012
  30        4PX         0.00106  -0.00183  -0.00582   0.02705   0.09962
  31        4PY         0.00177  -0.00319  -0.00931   0.04612  -0.06126
  32        4PZ         0.00008  -0.00001  -0.00090  -0.00234   0.00020
  33 5   H  1S         -0.00005  -0.00005   0.04866   0.09361  -0.08635
  34        2S          0.00001  -0.00031   0.04990   0.11224  -0.10910
  35        3S          0.00176   0.00029  -0.00107   0.01698  -0.03496
  36 6   H  1S         -0.00003  -0.00005   0.04711   0.09160   0.08126
  37        2S         -0.00000  -0.00032   0.04906   0.11031   0.10305
  38        3S          0.00170   0.00029  -0.00112   0.01627   0.03331
                           6         7         8         9        10
                           O         O         O         V         V
     Eigenvalues --    -0.50957  -0.43544  -0.35723   0.07991   0.14072
   1 1   C  1S         -0.00316   0.00019  -0.00131   0.00336  -0.03143
   2        2S         -0.00470   0.00033  -0.00212   0.00559  -0.05036
   3        2PX         0.09433  -0.10755  -0.00413   0.00166  -0.03059
   4        2PY         0.16830   0.06442  -0.00703   0.00291  -0.06347
   5        2PZ         0.00620   0.00002   0.17940  -0.18870  -0.00260
   6        3S          0.01850  -0.00065   0.00621  -0.01693   0.10847
   7        3PX         0.13651  -0.17112  -0.00584   0.00253  -0.03629
   8        3PY         0.24560   0.10338  -0.00993   0.00433  -0.07934
   9        3PZ         0.00984   0.00009   0.28889  -0.27790  -0.00423
  10        4S         -0.05442  -0.00386   0.00849  -0.01872   1.18446
  11        4PX         0.06852  -0.10718  -0.00484   0.01487  -0.18420
  12        4PY         0.12454   0.06494  -0.00830   0.02579  -0.37015
  13        4PZ         0.00560   0.00011   0.26678  -0.69485  -0.01557
  14 2   H  1S         -0.08110  -0.11263   0.00015   0.00530  -0.01616
  15        2S         -0.11217  -0.17352   0.00250   0.00838  -0.04653
  16        3S         -0.04195  -0.08027   0.00148   0.02170  -0.80319
  17 3   H  1S         -0.07883   0.11012   0.00008   0.00532  -0.01196
  18        2S         -0.10821   0.16833   0.00241   0.00834  -0.03667
  19        3S         -0.04010   0.07741   0.00145   0.02091  -0.73535
  20 4   C  1S         -0.00879  -0.00052  -0.00092  -0.00324  -0.03803
  21        2S         -0.01377  -0.00086  -0.00151  -0.00536  -0.06111
  22        2PX        -0.09838   0.12713   0.00414   0.00221   0.04217
  23        2PY        -0.16175  -0.07500   0.00753   0.00391   0.06288
  24        2PZ         0.00668   0.00024   0.17914   0.18948  -0.00413
  25        3S          0.04437   0.00239   0.00446   0.01605   0.13575
  26        3PX        -0.14585   0.20425   0.00577   0.00338   0.05157
  27        3PY        -0.23799  -0.11937   0.01056   0.00601   0.07410
  28        3PZ         0.01056   0.00034   0.28633   0.27751  -0.00623
  29        4S         -0.02878   0.00354   0.00810   0.01850   1.27344
  30        4PX        -0.07647   0.13240   0.00436   0.01667   0.27371
  31        4PY        -0.12322  -0.07692   0.00813   0.02901   0.42710
  32        4PZ         0.00611   0.00020   0.26693   0.69661  -0.02400
  33 5   H  1S         -0.07400  -0.12667   0.00033  -0.00485  -0.01325
  34        2S         -0.10128  -0.19838   0.00263  -0.00814  -0.03931
  35        3S         -0.03782  -0.09373   0.00148  -0.02192  -0.84635
  36 6   H  1S         -0.08046   0.12602   0.00024  -0.00486  -0.01733
  37        2S         -0.11058   0.19861   0.00251  -0.00831  -0.04927
  38        3S         -0.04148   0.09405   0.00139  -0.02251  -0.91607
                          11        12        13        14        15
                           V         V         V         V         V
     Eigenvalues --     0.16430   0.16995   0.24064   0.37246   0.39271
   1 1   C  1S          0.00042  -0.04666   0.00021   0.00868   0.00067
   2        2S          0.00067  -0.07605   0.00032   0.01148   0.00086
   3        2PX         0.09432  -0.02097   0.10059  -0.03468  -0.02089
   4        2PY        -0.05331  -0.03771  -0.05752  -0.06300   0.01054
   5        2PZ        -0.00002  -0.00833  -0.00000  -0.00572  -0.00026
   6        3S         -0.00124   0.17200   0.00021   0.03775   0.00494
   7        3PX         0.13552  -0.01242   0.10533  -0.04043  -0.09943
   8        3PY        -0.07718  -0.02398  -0.06155  -0.07968   0.05623
   9        3PZ        -0.00004  -0.01160  -0.00007  -0.01204  -0.00041
  10        4S         -0.03426   1.48765  -0.03994  -2.46097  -0.16667
  11        4PX         0.57784  -0.12590   1.17430  -1.53937  -0.56739
  12        4PY        -0.31657  -0.21541  -0.67853  -2.67406   0.11986
  13        4PZ         0.00013  -0.05453   0.00078  -0.05112  -0.00360
  14 2   H  1S         -0.02984  -0.02478   0.01489  -0.06116   0.07330
  15        2S         -0.08506  -0.01641  -0.02096  -0.69072   0.74139
  16        3S         -1.03876  -1.02725  -1.55590  -0.28270  -0.29006
  17 3   H  1S          0.02790  -0.02512  -0.01755  -0.05307  -0.07544
  18        2S          0.08254  -0.02073   0.01337  -0.62325  -0.76535
  19        3S          1.07928  -1.05586   1.60226  -0.37298   0.21386
  20 4   C  1S          0.00203   0.04099  -0.00023  -0.02028  -0.00037
  21        2S          0.00327   0.06673  -0.00038  -0.03357  -0.00063
  22        2PX         0.10342  -0.02501  -0.10002  -0.03966  -0.03431
  23        2PY        -0.06317  -0.03540   0.05739  -0.07215   0.01240
  24        2PZ         0.00036   0.00784   0.00000   0.00392   0.00042
  25        3S         -0.00682  -0.14802   0.00038   0.05081   0.00192
  26        3PX         0.14900  -0.02130  -0.11519  -0.09202  -0.11490
  27        3PY        -0.08936  -0.02542   0.06451  -0.17025   0.04971
  28        3PZ         0.00050   0.01077   0.00005   0.00440   0.00083
  29        4S         -0.08327  -1.28366   0.02928   3.23977   0.18133
  30        4PX         0.53637  -0.12376  -1.11317  -1.10090  -0.52715
  31        4PY        -0.33549  -0.17700   0.63868  -1.95023   0.11347
  32        4PZ         0.00231   0.05082  -0.00073   0.04348   0.00313
  33 5   H  1S          0.03239   0.02470   0.00417   0.00765  -0.08210
  34        2S          0.06747   0.02217  -0.03741   0.03128  -0.81201
  35        3S          1.09626   0.87927  -1.50465   0.43789   0.51862
  36 6   H  1S         -0.03191   0.02634  -0.00272   0.00050   0.08905
  37        2S         -0.06768   0.02317   0.03938  -0.03005   0.89264
  38        3S         -0.98207   0.92816   1.47394   0.46150  -0.50142
                          16        17        18        19        20
                           V         V         V         V         V
     Eigenvalues --     0.40092   0.46252   0.48937   0.49355   0.59114
   1 1   C  1S         -0.01880   0.01569  -0.04466  -0.00194  -0.00062
   2        2S         -0.03280   0.03419  -0.07395  -0.00286  -0.00111
   3        2PX         0.02948  -0.06275   0.00829   0.00168   0.00251
   4        2PY         0.05244  -0.10736   0.00653   0.00211   0.00361
   5        2PZ         0.00071  -0.00062   0.01155  -0.15089  -0.19277
   6        3S          0.07039  -0.33962   0.05851  -0.01038  -0.00167
   7        3PX         0.10757  -0.23943  -0.05255  -0.00193   0.00825
   8        3PY         0.19752  -0.40721  -0.10597  -0.00527   0.01212
   9        3PZ        -0.00404  -0.00577   0.04985  -0.62497  -0.68638
  10        4S          2.90643  -0.08393   3.13086   0.22164   0.08854
  11        4PX         0.35194   0.16100   0.82070   0.06516   0.02859
  12        4PY         0.62633   0.32813   1.44976   0.11678   0.04662
  13        4PZ        -0.00196   0.00645  -0.13426   0.67744   1.24246
  14 2   H  1S         -0.02495  -0.02665  -0.07795  -0.00605  -0.00213
  15        2S         -0.52114  -0.24401  -0.93357  -0.06455  -0.01736
  16        3S          0.33476   0.00879   0.64579   0.06079   0.02897
  17 3   H  1S         -0.02951  -0.03077  -0.07511  -0.00587  -0.00194
  18        2S         -0.55921  -0.29464  -0.91064  -0.06339  -0.01388
  19        3S          0.33636   0.01244   0.59460   0.05721   0.02800
  20 4   C  1S          0.00033  -0.00683   0.05093   0.00556   0.00091
  21        2S         -0.00306  -0.00408   0.08937   0.00999   0.00171
  22        2PX         0.01065   0.05172   0.02940   0.00108   0.00248
  23        2PY         0.02015   0.09066   0.05583   0.00212   0.00494
  24        2PZ        -0.00483  -0.00258   0.01157  -0.15268   0.19215
  25        3S          0.07962  -0.26496  -0.26149  -0.03643  -0.00401
  26        3PX        -0.03898   0.22529   0.07144   0.00272   0.00892
  27        3PY        -0.06052   0.39823   0.13270   0.00488   0.01721
  28        3PZ        -0.01316  -0.01003   0.04477  -0.63101   0.68134
  29        4S         -1.13737   0.96671  -3.01004  -0.24038  -0.07469
  30        4PX         1.34032  -0.39715   0.58841   0.03920   0.02551
  31        4PY         2.40574  -0.63865   0.98828   0.06504   0.04645
  32        4PZ        -0.04229  -0.02215   0.01594   0.69822  -1.23704
  33 5   H  1S         -0.04535  -0.07078   0.05843   0.00486   0.00186
  34        2S         -0.83265  -0.73002   0.74603   0.06866   0.00552
  35        3S         -0.22738   0.32926  -0.52012  -0.03052  -0.02784
  36 6   H  1S         -0.04001  -0.06770   0.06012   0.00507   0.00199
  37        2S         -0.77017  -0.68662   0.75183   0.06916   0.00775
  38        3S         -0.23432   0.34069  -0.55321  -0.03390  -0.02840
                          21        22        23        24        25
                           V         V         V         V         V
     Eigenvalues --     0.66482   0.69140   0.77123   0.77688   0.83939
   1 1   C  1S          0.00093  -0.00078   0.04954   0.07439   0.00132
   2        2S          0.00189  -0.00175   0.10443   0.15857   0.00290
   3        2PX        -0.11685   0.20708  -0.02767   0.11420  -0.00866
   4        2PY         0.06855  -0.12532  -0.04847   0.18294   0.01329
   5        2PZ        -0.00002   0.00024   0.00080   0.00593   0.00029
   6        3S         -0.01389   0.02275  -0.69299  -1.36626  -0.02640
   7        3PX        -0.56135   0.74200  -0.18152   0.44530  -0.21778
   8        3PY         0.32563  -0.44719  -0.31774   0.70386   0.15962
   9        3PZ        -0.00022   0.00103   0.00315   0.02062   0.00127
  10        4S          0.02048  -0.11543   0.61378   2.48063  -0.09484
  11        4PX         1.03852  -0.85033   0.14910  -0.76355   4.51644
  12        4PY        -0.60632   0.50323   0.21113  -0.98573  -2.63613
  13        4PZ         0.00016   0.00159   0.01261  -0.06696   0.00273
  14 2   H  1S          0.01934  -0.06066   0.00966   0.03252  -0.02727
  15        2S          0.08201  -0.65507   0.08395   0.09908  -1.58615
  16        3S         -0.97270   1.18137  -0.07593  -1.09691  -1.24669
  17 3   H  1S         -0.01871   0.06005   0.00944   0.03359   0.03063
  18        2S         -0.09359   0.70405   0.10308   0.06940   1.63434
  19        3S          0.96361  -1.14644  -0.06960  -1.26658   1.24662
  20 4   C  1S          0.00112  -0.00101   0.08328   0.03281   0.00100
  21        2S          0.00226  -0.00196   0.17727   0.06919   0.00211
  22        2PX        -0.16488  -0.17292  -0.09770   0.04980   0.01116
  23        2PY         0.09389   0.09550  -0.17618   0.09270   0.00002
  24        2PZ        -0.00006  -0.00028   0.00618  -0.00125  -0.00026
  25        3S         -0.01625   0.00565  -1.48617  -0.40893  -0.01484
  26        3PX        -0.72614  -0.56923  -0.35911   0.26999   0.24368
  27        3PY         0.41642   0.31039  -0.65101   0.49721  -0.10674
  28        3PZ        -0.00037  -0.00096   0.02193  -0.00490  -0.00094
  29        4S          0.01733   0.06564   2.72288   0.18207   0.08226
  30        4PX         1.32364   0.64722   0.52555  -0.22977  -4.13512
  31        4PY        -0.75165  -0.36889   1.01113  -0.66301   2.30644
  32        4PZ         0.00051  -0.00087  -0.06421   0.03005  -0.00183
  33 5   H  1S         -0.02900  -0.05312   0.03488   0.00349  -0.02153
  34        2S         -0.18292  -0.53642   0.06121   0.07799  -1.38153
  35        3S          1.16649   0.89479  -1.15196   0.28100  -1.06972
  36 6   H  1S          0.02960   0.05238   0.03450   0.00460   0.02194
  37        2S          0.17369   0.49605   0.05822   0.01939   1.36656
  38        3S         -1.17119  -0.89927  -1.08606   0.19944   1.07590
                          26        27        28        29        30
                           V         V         V         V         V
     Eigenvalues --     0.95316   2.23108   2.29043   2.33373   2.40589
   1 1   C  1S          0.09606  -0.01056  -0.01505  -0.00056  -0.00060
   2        2S          0.19969   0.00098  -0.01553  -0.00119  -0.00065
   3        2PX        -0.09147  -0.07214  -0.13018  -0.34527  -0.40810
   4        2PY        -0.15876  -0.13668  -0.23148   0.19565   0.23518
   5        2PZ         0.00038  -0.01678  -0.02229   0.00005  -0.00077
   6        3S         -1.54620  -0.18689  -0.03476   0.00260  -0.00571
   7        3PX        -0.23657   0.06126   0.20330   0.40780   0.56772
   8        3PY        -0.40185   0.13511   0.37701  -0.23329  -0.33130
   9        3PZ        -0.00277   0.01662   0.02761  -0.00021   0.00087
  10        4S          5.71935  -0.11805  -0.89442  -0.00967  -0.04356
  11        4PX         1.20648   0.06322  -0.19079   0.06024   0.98493
  12        4PY         1.99791   0.07473  -0.35573  -0.02872  -0.55474
  13        4PZ        -0.02476   0.00414   0.01075   0.00053   0.00176
  14 2   H  1S          0.01479  -0.70496  -0.80478   0.69060   0.66175
  15        2S         -0.28655   1.00062   1.20718  -1.06844  -1.47674
  16        3S         -0.09426  -0.29708  -0.47905   0.45175   0.36622
  17 3   H  1S          0.01480  -0.69779  -0.79249  -0.68857  -0.68837
  18        2S         -0.25427   0.99315   1.19019   1.07121   1.53206
  19        3S         -0.08169  -0.26928  -0.45417  -0.44296  -0.35788
  20 4   C  1S         -0.09373  -0.00972   0.01166  -0.00040   0.00033
  21        2S         -0.19440   0.00100   0.01124  -0.00065   0.00046
  22        2PX        -0.09320   0.13907  -0.11969  -0.30607   0.41513
  23        2PY        -0.16048   0.24388  -0.20614   0.17516  -0.23457
  24        2PZ         0.00055  -0.01762   0.02167  -0.00010   0.00036
  25        3S          1.50161  -0.16738   0.01900   0.00053   0.00057
  26        3PX        -0.22853  -0.18199   0.21008   0.38988  -0.58429
  27        3PY        -0.40019  -0.31437   0.35118  -0.21949   0.32863
  28        3PZ         0.00470   0.01928  -0.02783   0.00007  -0.00048
  29        4S         -5.68353  -0.15886   0.88266  -0.00915   0.02336
  30        4PX         1.10630  -0.00852  -0.19395  -0.12183  -0.83054
  31        4PY         1.98206  -0.02529  -0.31916   0.06637   0.47704
  32        4PZ         0.01327   0.00520  -0.00722   0.00013  -0.00126
  33 5   H  1S         -0.01844  -0.79301   0.67199  -0.71341   0.67635
  34        2S          0.29294   1.15356  -1.02534   1.03344  -1.42951
  35        3S          0.05538  -0.36512   0.40253  -0.52385   0.43334
  36 6   H  1S         -0.01841  -0.78274   0.68884   0.71052  -0.67284
  37        2S          0.31608   1.13517  -1.04785  -1.02548   1.41602
  38        3S          0.05906  -0.36446   0.42373   0.52626  -0.43955
                          31        32        33        34        35
                           V         V         V         V         V
     Eigenvalues --     2.67142   2.81688   2.87781   2.95057   3.14159
   1 1   C  1S          0.00063   0.00309  -0.01297   0.00019  -0.00989
   2        2S          0.00052   0.00887  -0.04305   0.00023  -0.03033
   3        2PX         0.00552   0.09035  -0.47921  -0.71801   0.44003
   4        2PY         0.00910   0.15786  -0.85320   0.40186   0.77387
   5        2PZ        -0.92218  -0.92682  -0.17006  -0.00086   0.00744
   6        3S         -0.00213  -0.07305   0.37825   0.00016   0.25429
   7        3PX        -0.00361  -0.15589   0.84356   0.86687  -0.41846
   8        3PY        -0.00629  -0.27018   1.47822  -0.47390  -0.73489
   9        3PZ         0.93650   1.13257   0.21320   0.00132  -0.00988
  10        4S          0.01621   0.17167  -0.86275  -0.00637  -0.49756
  11        4PX        -0.00308   0.12455  -0.71389  -0.65738   0.20620
  12        4PY        -0.00399   0.21669  -1.25981   0.35164   0.35959
  13        4PZ        -0.33677  -0.61207  -0.13484  -0.00116   0.00569
  14 2   H  1S          0.01484  -0.02267   0.25727  -0.36505  -0.21250
  15        2S         -0.01681   0.01321  -0.21327   0.37355   0.16041
  16        3S         -0.00396   0.05031  -0.29772   0.28034   0.05422
  17 3   H  1S          0.01490  -0.02122   0.24515   0.36489  -0.20992
  18        2S         -0.01693   0.01020  -0.18873  -0.36759   0.15744
  19        3S         -0.00494   0.05226  -0.30766  -0.29968   0.05974
  20 4   C  1S          0.00060  -0.00303   0.01372   0.00060  -0.00669
  21        2S          0.00057  -0.00952   0.04846   0.00134  -0.02162
  22        2PX        -0.00960   0.07767  -0.39612  -0.81387  -0.51092
  23        2PY        -0.01705   0.13924  -0.70709   0.45730  -0.90107
  24        2PZ        -0.92714   0.92069   0.17415   0.00032   0.01691
  25        3S         -0.00329   0.08224  -0.43712  -0.01015   0.18948
  26        3PX         0.01011  -0.14258   0.75328   0.96516   0.55267
  27        3PY         0.01768  -0.25347   1.33559  -0.53587   0.98217
  28        3PZ         0.94310  -1.12619  -0.21980  -0.00034  -0.02112
  29        4S          0.01881  -0.17728   0.90991   0.02907  -0.36176
  30        4PX        -0.00154   0.12228  -0.70216  -0.70221  -0.34301
  31        4PY        -0.00300   0.21545  -1.22773   0.38236  -0.61074
  32        4PZ        -0.34021   0.60893   0.14058   0.00016   0.01675
  33 5   H  1S          0.01398   0.03459  -0.29446   0.42805  -0.26701
  34        2S         -0.01745  -0.02878   0.27045  -0.44269   0.21160
  35        3S         -0.00126  -0.04614   0.27636  -0.23513   0.12872
  36 6   H  1S          0.01416   0.03560  -0.29751  -0.43474  -0.25838
  37        2S         -0.01805  -0.03091   0.28206   0.44942   0.20561
  38        3S         -0.00069  -0.04281   0.25805   0.23370   0.12486
                          36        37        38
                           V         V         V
     Eigenvalues --     3.31727  23.35143  23.70712
   1 1   C  1S         -0.00066  -1.40439  -1.46163
   2        2S         -0.00103   1.49766   1.58060
   3        2PX         0.79670  -0.00674   0.01183
   4        2PY        -0.44762  -0.01075   0.02109
   5        2PZ         0.00095  -0.00069  -0.00034
   6        3S          0.00262  -0.29353  -0.40229
   7        3PX        -1.14030   0.02502  -0.05536
   8        3PY         0.63699   0.04077  -0.09712
   9        3PZ        -0.00153   0.00193   0.00103
  10        4S         -0.03219   0.26972   0.77356
  11        4PX         1.98473  -0.02790   0.13261
  12        4PY        -1.11622  -0.04596   0.23098
  13        4PZ         0.00254  -0.00325  -0.00403
  14 2   H  1S          0.57276   0.01345   0.00774
  15        2S         -0.88609   0.00753  -0.01494
  16        3S         -0.47345  -0.08458  -0.03957
  17 3   H  1S         -0.58641   0.01577   0.00971
  18        2S          0.90515   0.00667  -0.01599
  19        3S          0.50150  -0.08743  -0.04094
  20 4   C  1S          0.00026  -1.45679   1.40917
  21        2S          0.00010   1.55377  -1.52408
  22        2PX        -0.69846   0.00572   0.01285
  23        2PY         0.39730   0.01041   0.02165
  24        2PZ        -0.00076  -0.00065   0.00013
  25        3S          0.00253  -0.30512   0.38863
  26        3PX         0.99365  -0.02136  -0.05727
  27        3PY        -0.57294  -0.03832  -0.09788
  28        3PZ         0.00117   0.00189  -0.00029
  29        4S          0.00237   0.28342  -0.75912
  30        4PX        -1.74380   0.02158   0.13263
  31        4PY         1.00672   0.04023   0.22723
  32        4PZ        -0.00186  -0.00306   0.00242
  33 5   H  1S          0.46868   0.01242  -0.00377
  34        2S         -0.72933   0.00841   0.01338
  35        3S         -0.41435  -0.08208   0.03680
  36 6   H  1S         -0.46211   0.01080  -0.00233
  37        2S          0.72239   0.00991   0.01234
  38        3S          0.40512  -0.08031   0.03527
     Density Matrix:
                           1         2         3         4         5
   1 1   C  1S          0.65939
   2        2S          0.56153   0.49204
   3        2PX        -0.00039  -0.00049   0.08496
   4        2PY        -0.00117  -0.00162   0.00354   0.08792
   5        2PZ         0.00011   0.00017  -0.00015  -0.00034   0.06446
   6        3S         -0.08890  -0.15383   0.00209   0.00589  -0.00024
   7        3PX         0.00097   0.00149   0.13127   0.00098  -0.00011
   8        3PY         0.00124   0.00191   0.00096   0.13143  -0.00031
   9        3PZ         0.00021   0.00036  -0.00026  -0.00054   0.10380
  10        4S         -0.07912  -0.11382  -0.01558  -0.02840   0.00062
  11        4PX         0.00026   0.00156   0.06997  -0.00450  -0.00073
  12        4PY         0.00069   0.00315  -0.00448   0.06534  -0.00130
  13        4PZ        -0.00016  -0.00036  -0.00101  -0.00171   0.09580
  14 2   H  1S         -0.02071  -0.03298   0.03496  -0.06322  -0.00151
  15        2S         -0.02299  -0.03675   0.04879  -0.08776  -0.00113
  16        3S          0.00057  -0.00072   0.02031  -0.03295  -0.00004
  17 3   H  1S         -0.02134  -0.03394  -0.07335  -0.00178  -0.00164
  18        2S         -0.02333  -0.03726  -0.10046  -0.00213  -0.00127
  19        3S          0.00064  -0.00066  -0.03799   0.00099  -0.00007
  20 4   C  1S          0.00609   0.00982  -0.01100  -0.01895  -0.00048
  21        2S          0.00977   0.01529  -0.01761  -0.03033  -0.00079
  22        2PX         0.01027   0.01641  -0.01243  -0.03213   0.00061
  23        2PY         0.01797   0.02873  -0.03233  -0.04974   0.00114
  24        2PZ        -0.00062  -0.00101  -0.00044  -0.00069   0.06435
  25        3S         -0.02629  -0.03994   0.04945   0.08517   0.00239
  26        3PX         0.01579   0.02445  -0.01837  -0.04576   0.00078
  27        3PY         0.02760   0.04277  -0.04598  -0.07126   0.00150
  28        3PZ        -0.00105  -0.00169  -0.00077  -0.00122   0.10285
  29        4S          0.00545   0.00405   0.02133   0.03708   0.00309
  30        4PX         0.00306   0.00633  -0.01307  -0.02104   0.00083
  31        4PY         0.00518   0.01080  -0.02110  -0.03759   0.00161
  32        4PZ        -0.00089  -0.00144  -0.00126  -0.00207   0.09584
  33 5   H  1S          0.00419   0.00688  -0.00163  -0.01246  -0.00056
  34        2S          0.00631   0.01048   0.00366  -0.02513  -0.00000
  35        3S          0.00319   0.00468   0.00435  -0.01762   0.00013
  36 6   H  1S          0.00411   0.00675  -0.01008  -0.00771  -0.00058
  37        2S          0.00612   0.01018  -0.02374  -0.00938  -0.00004
  38        3S          0.00311   0.00455  -0.01750  -0.00503   0.00009
                           6         7         8         9        10
   6        3S          0.45249
   7        3PX        -0.00224   0.20310
   8        3PY        -0.00171  -0.00510   0.19697
   9        3PZ        -0.00070  -0.00022  -0.00048   0.16716
  10        4S          0.27170  -0.02593  -0.04827   0.00080   0.18028
  11        4PX        -0.00676   0.10858  -0.01025  -0.00120  -0.01466
  12        4PY        -0.01285  -0.01019   0.09834  -0.00208  -0.02916
  13        4PZ         0.00155  -0.00135  -0.00227   0.15427   0.00258
  14 2   H  1S          0.08811   0.05635  -0.09862  -0.00250   0.06960
  15        2S          0.09833   0.07897  -0.13642  -0.00191   0.08199
  16        3S          0.00611   0.03318  -0.05063  -0.00007   0.01138
  17 3   H  1S          0.09077  -0.11452  -0.00099  -0.00268   0.06918
  18        2S          0.09986  -0.15668  -0.00025  -0.00207   0.07976
  19        3S          0.00620  -0.05901   0.00341  -0.00010   0.01002
  20 4   C  1S         -0.02664  -0.01718  -0.02964  -0.00082   0.00519
  21        2S         -0.04028  -0.02672  -0.04610  -0.00133   0.00396
  22        2PX        -0.04585  -0.01754  -0.04551   0.00104  -0.01699
  23        2PY        -0.08038  -0.04587  -0.07081   0.00195  -0.03001
  24        2PZ         0.00300  -0.00060  -0.00092   0.10362   0.00296
  25        3S          0.10246   0.07263   0.12541   0.00399   0.00066
  26        3PX        -0.06603  -0.02607  -0.06460   0.00136  -0.02516
  27        3PY        -0.11567  -0.06506  -0.10139   0.00258  -0.04437
  28        3PZ         0.00497  -0.00107  -0.00165   0.16562   0.00491
  29        4S          0.00179   0.03230   0.05644   0.00514  -0.03258
  30        4PX        -0.02239  -0.01935  -0.02945   0.00138  -0.00630
  31        4PY        -0.03847  -0.02965  -0.05420   0.00267  -0.01029
  32        4PZ         0.00421  -0.00177  -0.00287   0.15433   0.00457
  33 5   H  1S         -0.02043  -0.00059  -0.01783  -0.00082  -0.01458
  34        2S         -0.03129   0.00872  -0.03691   0.00010  -0.01899
  35        3S         -0.01207   0.00822  -0.02650   0.00022  -0.00333
  36 6   H  1S         -0.01998  -0.01505  -0.00922  -0.00084  -0.01454
  37        2S         -0.03036  -0.03614  -0.01037   0.00006  -0.01926
  38        3S         -0.01166  -0.02693  -0.00586   0.00017  -0.00369
                          11        12        13        14        15
  11        4PX         0.05916
  12        4PY        -0.00883   0.05066
  13        4PZ        -0.00171  -0.00289   0.14242
  14 2   H  1S          0.03335  -0.05399  -0.00129   0.08158
  15        2S          0.04761  -0.07452  -0.00047   0.10940   0.14876
  16        3S          0.02049  -0.02748   0.00026   0.03639   0.05171
  17 3   H  1S         -0.06282   0.00177  -0.00135  -0.01326  -0.02448
  18        2S         -0.08637   0.00398  -0.00051  -0.02432  -0.04170
  19        3S         -0.03286   0.00417   0.00026  -0.01762  -0.02644
  20 4   C  1S         -0.00319  -0.00578  -0.00074   0.00424   0.00674
  21        2S         -0.00658  -0.01182  -0.00119   0.00701   0.01125
  22        2PX        -0.01352  -0.01968   0.00139   0.00192  -0.00246
  23        2PY        -0.01986  -0.03666   0.00255   0.01127   0.02401
  24        2PZ        -0.00093  -0.00153   0.09565  -0.00072  -0.00023
  25        3S          0.02334   0.04160   0.00348  -0.02113  -0.03388
  26        3PX        -0.02094  -0.02777   0.00188   0.00107  -0.00699
  27        3PY        -0.02805  -0.05342   0.00348   0.01684   0.03603
  28        3PZ        -0.00153  -0.00253   0.15288  -0.00106  -0.00024
  29        4S          0.00810   0.01557   0.00468  -0.01805  -0.02471
  30        4PX        -0.01514  -0.01219   0.00166  -0.00170  -0.00848
  31        4PY        -0.01226  -0.02966   0.00314   0.01538   0.02738
  32        4PZ        -0.00186  -0.00311   0.14248  -0.00060   0.00034
  33 5   H  1S          0.00228  -0.01586  -0.00040   0.01122   0.02325
  34        2S          0.00962  -0.02767   0.00058   0.02389   0.04444
  35        3S          0.00777  -0.01593   0.00041   0.01680   0.02803
  36 6   H  1S         -0.01494  -0.00561  -0.00041  -0.00908  -0.01802
  37        2S         -0.02883  -0.00489   0.00056  -0.01898  -0.03433
  38        3S         -0.01756  -0.00097   0.00038  -0.01037  -0.01796
                          16        17        18        19        20
  16        3S          0.02059
  17 3   H  1S         -0.01794   0.08324
  18        2S         -0.02666   0.10990   0.14719
  19        3S         -0.01237   0.03574   0.05009   0.01963
  20 4   C  1S          0.00377   0.00434   0.00684   0.00380   0.65949
  21        2S          0.00555   0.00717   0.01141   0.00558   0.56157
  22        2PX        -0.00331   0.00878   0.02181   0.01644   0.00132
  23        2PY         0.01758   0.00736   0.00978   0.00578   0.00202
  24        2PZ         0.00003  -0.00071  -0.00017   0.00008   0.00009
  25        3S         -0.01436  -0.02159  -0.03427  -0.01439  -0.08928
  26        3PX        -0.00681   0.01415   0.03460   0.02577  -0.00039
  27        3PY         0.02648   0.00953   0.01201   0.00727  -0.00096
  28        3PZ         0.00008  -0.00105  -0.00016   0.00015   0.00022
  29        4S         -0.00604  -0.01790  -0.02403  -0.00559  -0.08045
  30        4PX        -0.00702   0.01393   0.02744   0.01700  -0.00020
  31        4PY         0.01607   0.00638   0.00644   0.00193  -0.00016
  32        4PZ         0.00034  -0.00059   0.00038   0.00037  -0.00003
  33 5   H  1S          0.01611  -0.00913  -0.01802  -0.00927  -0.01988
  34        2S          0.02740  -0.01893  -0.03397  -0.01678  -0.02201
  35        3S          0.01471  -0.01028  -0.01765  -0.00893   0.00056
  36 6   H  1S         -0.00938   0.01122   0.02299   0.01566  -0.01957
  37        2S         -0.01718   0.02401   0.04416   0.02679  -0.02199
  38        3S         -0.00922   0.01690   0.02789   0.01443   0.00044
                          21        22        23        24        25
  21        2S          0.49204
  22        2PX         0.00191   0.08202
  23        2PY         0.00290   0.00395   0.08747
  24        2PZ         0.00014   0.00017   0.00025   0.06429
  25        3S         -0.15425  -0.00607  -0.00933  -0.00017   0.45368
  26        3PX        -0.00057   0.12782   0.00219   0.00010  -0.00073
  27        3PY        -0.00145   0.00230   0.13115   0.00010   0.00015
  28        3PZ         0.00037   0.00026   0.00039   0.10276  -0.00073
  29        4S         -0.11634   0.01381   0.02310   0.00089   0.28012
  30        4PX        -0.00148   0.07378  -0.00532   0.00054   0.00631
  31        4PY        -0.00219  -0.00526   0.06739   0.00099   0.00976
  32        4PZ        -0.00013   0.00098   0.00176   0.09573   0.00085
  33 5   H  1S         -0.03168  -0.03314   0.06325  -0.00156   0.08472
  34        2S         -0.03517  -0.04986   0.08851  -0.00124   0.09410
  35        3S         -0.00064  -0.02302   0.03373  -0.00012   0.00565
  36 6   H  1S         -0.03121   0.07050   0.00307  -0.00145   0.08347
  37        2S         -0.03516   0.10115   0.00111  -0.00109   0.09397
  38        3S         -0.00080   0.04095  -0.00322  -0.00007   0.00594
                          26        27        28        29        30
  26        3PX         0.19954
  27        3PY        -0.00213   0.19726
  28        3PZ         0.00012   0.00013   0.16425
  29        4S          0.02574   0.04283   0.00110   0.18916
  30        4PX         0.11568  -0.01099   0.00084   0.01619   0.06818
  31        4PY        -0.01103   0.10195   0.00158   0.02535  -0.01104
  32        4PZ         0.00123   0.00224   0.15301   0.00251   0.00137
  33 5   H  1S         -0.05311   0.09927  -0.00257   0.06682  -0.03493
  34        2S         -0.08038   0.13838  -0.00207   0.07738  -0.05326
  35        3S         -0.03759   0.05204  -0.00019   0.00930  -0.02505
  36 6   H  1S          0.11168   0.00413  -0.00242   0.06739   0.06627
  37        2S          0.16005   0.00009  -0.00187   0.07942   0.09546
  38        3S          0.06447  -0.00653  -0.00013   0.01045   0.03879
                          31        32        33        34        35
  31        4PY         0.05429
  32        4PZ         0.00258   0.14259
  33 5   H  1S          0.05604  -0.00134   0.08022
  34        2S          0.07832  -0.00057   0.10996   0.15322
  35        3S          0.02964   0.00020   0.03846   0.05619   0.02347
  36 6   H  1S         -0.00194  -0.00129  -0.01232  -0.02617  -0.02021
  37        2S         -0.00662  -0.00050  -0.02632  -0.04921  -0.03242
  38        3S         -0.00678   0.00021  -0.02050  -0.03264  -0.01626
                          36        37        38
  36 6   H  1S          0.07913
  37        2S          0.10943   0.15375
  38        3S          0.03867   0.05688   0.02389
    Full Mulliken population analysis:
                           1         2         3         4         5
   1 1   C  1S          0.65939
   2        2S          0.49327   0.49204
   3        2PX         0.00000   0.00000   0.08496
   4        2PY         0.00000   0.00000   0.00000   0.08792
   5        2PZ         0.00000   0.00000   0.00000   0.00000   0.06446
   6        3S         -0.02926  -0.06442   0.00000   0.00000   0.00000
   7        3PX         0.00000   0.00000   0.08258   0.00000   0.00000
   8        3PY         0.00000   0.00000   0.00000   0.08269   0.00000
   9        3PZ         0.00000   0.00000   0.00000   0.00000   0.06531
  10        4S         -0.01217  -0.02130   0.00000   0.00000   0.00000
  11        4PX         0.00000   0.00000   0.01541   0.00000   0.00000
  12        4PY         0.00000   0.00000   0.00000   0.01439   0.00000
  13        4PZ         0.00000   0.00000   0.00000   0.00000   0.02110
  14 2   H  1S         -0.00024  -0.00034   0.00187   0.00569   0.00001
  15        2S         -0.00169  -0.00323   0.00435   0.01319   0.00001
  16        3S          0.00005  -0.00007   0.00069   0.00189   0.00000
  17 3   H  1S         -0.00027  -0.00039   0.00823  -0.00000   0.00001
  18        2S         -0.00178  -0.00341   0.01788  -0.00000   0.00001
  19        3S          0.00005  -0.00006   0.00252   0.00000   0.00000
  20 4   C  1S          0.00000   0.00000  -0.00002  -0.00006   0.00000
  21        2S          0.00000  -0.00000  -0.00002  -0.00006   0.00000
  22        2PX        -0.00002  -0.00002   0.00011   0.00086   0.00000
  23        2PY        -0.00006  -0.00005   0.00087   0.00198   0.00000
  24        2PZ        -0.00000  -0.00000  -0.00000  -0.00000   0.00042
  25        3S         -0.00059  -0.00100   0.00259   0.00773  -0.00000
  26        3PX        -0.00054  -0.00098   0.00019   0.00555   0.00000
  27        3PY        -0.00162  -0.00298   0.00558   0.01071   0.00000
  28        3PZ        -0.00000  -0.00000  -0.00000  -0.00000   0.00614
  29        4S          0.00034   0.00031   0.00097   0.00292  -0.00000
  30        4PX        -0.00018  -0.00045  -0.00071   0.00146   0.00000
  31        4PY        -0.00052  -0.00133   0.00146   0.00096   0.00000
  32        4PZ        -0.00000  -0.00000  -0.00000  -0.00000   0.00903
  33 5   H  1S          0.00000   0.00000  -0.00000  -0.00000   0.00000
  34        2S          0.00001   0.00002   0.00000  -0.00031   0.00000
  35        3S          0.00007   0.00013   0.00001  -0.00070  -0.00000
  36 6   H  1S          0.00000   0.00000  -0.00000  -0.00000   0.00000
  37        2S          0.00001   0.00002  -0.00023  -0.00006   0.00000
  38        3S          0.00007   0.00012  -0.00056  -0.00011  -0.00000
                           6         7         8         9        10
   6        3S          0.45249
   7        3PX         0.00000   0.20310
   8        3PY         0.00000   0.00000   0.19697
   9        3PZ         0.00000   0.00000   0.00000   0.16716
  10        4S          0.21048   0.00000   0.00000   0.00000   0.18028
  11        4PX         0.00000   0.07095   0.00000   0.00000   0.00000
  12        4PY         0.00000   0.00000   0.06426   0.00000   0.00000
  13        4PZ         0.00000   0.00000   0.00000   0.10081   0.00000
  14 2   H  1S          0.01632   0.01101   0.03250   0.00003   0.01847
  15        2S          0.04159   0.01969   0.05740   0.00003   0.04738
  16        3S          0.00282   0.00393   0.01012   0.00000   0.00860
  17 3   H  1S          0.01755   0.04513  -0.00000   0.00004   0.01865
  18        2S          0.04326   0.07735  -0.00000   0.00004   0.04666
  19        3S          0.00289   0.01366   0.00000   0.00000   0.00763
  20 4   C  1S         -0.00060  -0.00058  -0.00174   0.00000   0.00033
  21        2S         -0.00101  -0.00108  -0.00321   0.00000   0.00030
  22        2PX         0.00240   0.00018   0.00552   0.00000   0.00077
  23        2PY         0.00729   0.00557   0.01064   0.00000   0.00236
  24        2PZ         0.00000  -0.00000  -0.00000   0.00618   0.00000
  25        3S          0.02192   0.01365   0.04079  -0.00000   0.00025
  26        3PX         0.01241  -0.00127   0.01846   0.00000   0.00388
  27        3PY         0.03763   0.01859   0.02846   0.00000   0.01185
  28        3PZ         0.00000  -0.00000  -0.00000   0.03543   0.00000
  29        4S          0.00068   0.00498   0.01507  -0.00000  -0.02048
  30        4PX         0.00630  -0.00398   0.00583   0.00000   0.00191
  31        4PY         0.01872   0.00587   0.00122   0.00000   0.00540
  32        4PZ         0.00001  -0.00000  -0.00000   0.04939   0.00001
  33 5   H  1S         -0.00005  -0.00000  -0.00018   0.00000  -0.00077
  34        2S         -0.00118   0.00006  -0.00317  -0.00000  -0.00315
  35        3S         -0.00195   0.00011  -0.00424  -0.00000  -0.00119
  36 6   H  1S         -0.00005  -0.00012  -0.00005   0.00000  -0.00074
  37        2S         -0.00110  -0.00247  -0.00049  -0.00000  -0.00312
  38        3S         -0.00185  -0.00351  -0.00053  -0.00000  -0.00130
                          11        12        13        14        15
  11        4PX         0.05916
  12        4PY         0.00000   0.05066
  13        4PZ         0.00000   0.00000   0.14242
  14 2   H  1S          0.00636   0.01738   0.00002   0.08158
  15        2S          0.01528   0.04036   0.00001   0.07728   0.14876
  16        3S          0.00515   0.01165  -0.00000   0.01360   0.04079
  17 3   H  1S          0.02355   0.00000   0.00002  -0.00001  -0.00065
  18        2S          0.05425   0.00001   0.00001  -0.00064  -0.00523
  19        3S          0.01608   0.00001  -0.00000  -0.00197  -0.00771
  20 4   C  1S         -0.00019  -0.00058   0.00000   0.00000   0.00002
  21        2S         -0.00047  -0.00145   0.00000   0.00000   0.00003
  22        2PX        -0.00073   0.00136   0.00000  -0.00000   0.00000
  23        2PY         0.00138   0.00094   0.00000  -0.00000  -0.00037
  24        2PZ        -0.00000  -0.00000   0.00902   0.00000   0.00000
  25        3S          0.00656   0.02024  -0.00000  -0.00007  -0.00153
  26        3PX        -0.00431   0.00550   0.00000  -0.00000   0.00004
  27        3PY         0.00555   0.00120   0.00000  -0.00023  -0.00361
  28        3PZ        -0.00000  -0.00000   0.04893   0.00000   0.00000
  29        4S          0.00246   0.00816  -0.00001  -0.00107  -0.00449
  30        4PX        -0.00730   0.00308   0.00000   0.00001   0.00017
  31        4PY         0.00310  -0.00566   0.00000  -0.00247  -0.01041
  32        4PZ        -0.00000  -0.00000   0.08955   0.00000  -0.00000
  33 5   H  1S          0.00003  -0.00232   0.00000   0.00000   0.00000
  34        2S          0.00028  -0.00984  -0.00000   0.00000   0.00016
  35        3S          0.00030  -0.00733  -0.00000   0.00023   0.00147
  36 6   H  1S         -0.00176  -0.00046   0.00000  -0.00000  -0.00004
  37        2S         -0.00832  -0.00098  -0.00000  -0.00004  -0.00089
  38        3S         -0.00661  -0.00025  -0.00000  -0.00046  -0.00247
                          16        17        18        19        20
  16        3S          0.02059
  17 3   H  1S         -0.00200   0.08324
  18        2S         -0.00778   0.07763   0.14719
  19        3S         -0.00643   0.01335   0.03952   0.01963
  20 4   C  1S          0.00009   0.00000   0.00002   0.00010   0.65949
  21        2S          0.00017   0.00000   0.00003   0.00017   0.49330
  22        2PX         0.00001  -0.00000  -0.00029  -0.00059   0.00000
  23        2PY        -0.00074  -0.00000  -0.00009  -0.00014   0.00000
  24        2PZ        -0.00000   0.00000   0.00000  -0.00000   0.00000
  25        3S         -0.00250  -0.00008  -0.00159  -0.00254  -0.02939
  26        3PX         0.00006  -0.00017  -0.00297  -0.00366   0.00000
  27        3PY        -0.00446  -0.00008  -0.00068  -0.00068   0.00000
  28        3PZ        -0.00000   0.00000   0.00000  -0.00000   0.00000
  29        4S         -0.00228  -0.00108  -0.00443  -0.00213  -0.01237
  30        4PX         0.00018  -0.00190  -0.00881  -0.00676   0.00000
  31        4PY        -0.00761  -0.00057  -0.00136  -0.00051   0.00000
  32        4PZ        -0.00000   0.00000  -0.00000  -0.00000   0.00000
  33 5   H  1S          0.00022  -0.00000  -0.00004  -0.00043  -0.00020
  34        2S          0.00144  -0.00005  -0.00093  -0.00236  -0.00155
  35        3S          0.00247  -0.00047  -0.00248  -0.00287   0.00004
  36 6   H  1S         -0.00042   0.00000   0.00000   0.00022  -0.00019
  37        2S         -0.00236   0.00000   0.00015   0.00140  -0.00151
  38        3S         -0.00292   0.00023   0.00146   0.00242   0.00003
                          21        22        23        24        25
  21        2S          0.49204
  22        2PX         0.00000   0.08202
  23        2PY         0.00000   0.00000   0.08747
  24        2PZ         0.00000   0.00000   0.00000   0.06429
  25        3S         -0.06460   0.00000   0.00000   0.00000   0.45368
  26        3PX         0.00000   0.08041   0.00000   0.00000   0.00000
  27        3PY         0.00000   0.00000   0.08251   0.00000   0.00000
  28        3PZ         0.00000   0.00000   0.00000   0.06465   0.00000
  29        4S         -0.02177   0.00000   0.00000   0.00000   0.21701
  30        4PX         0.00000   0.01625   0.00000   0.00000   0.00000
  31        4PY         0.00000   0.00000   0.01484   0.00000   0.00000
  32        4PZ         0.00000   0.00000   0.00000   0.02108   0.00000
  33 5   H  1S         -0.00029   0.00142   0.00550   0.00001   0.01496
  34        2S         -0.00297   0.00376   0.01359   0.00001   0.03874
  35        3S         -0.00006   0.00068   0.00202   0.00000   0.00258
  36 6   H  1S         -0.00026   0.00649   0.00002   0.00000   0.01430
  37        2S         -0.00289   0.01702   0.00001   0.00001   0.03804
  38        3S         -0.00007   0.00273  -0.00002   0.00000   0.00269
                          26        27        28        29        30
  26        3PX         0.19954
  27        3PY         0.00000   0.19726
  28        3PZ         0.00000   0.00000   0.16425
  29        4S          0.00000   0.00000   0.00000   0.18916
  30        4PX         0.07559   0.00000   0.00000   0.00000   0.06818
  31        4PY         0.00000   0.06662   0.00000   0.00000   0.00000
  32        4PZ         0.00000   0.00000   0.09999   0.00000   0.00000
  33 5   H  1S          0.00869   0.03303   0.00003   0.01742   0.00576
  34        2S          0.01716   0.06007   0.00004   0.04410   0.01483
  35        3S          0.00387   0.01090   0.00000   0.00697   0.00549
  36 6   H  1S          0.04047   0.00011   0.00003   0.01737   0.02465
  37        2S          0.07667   0.00000   0.00003   0.04487   0.06011
  38        3S          0.01504  -0.00011   0.00000   0.00779   0.01930
                          31        32        33        34        35
  31        4PY         0.05429
  32        4PZ         0.00000   0.14259
  33 5   H  1S          0.01878   0.00002   0.08022
  34        2S          0.04433   0.00001   0.07768   0.15322
  35        3S          0.01321  -0.00000   0.01437   0.04433   0.02347
  36 6   H  1S         -0.00005   0.00002  -0.00001  -0.00079  -0.00237
  37        2S         -0.00031   0.00001  -0.00080  -0.00673  -0.00985
  38        3S         -0.00025  -0.00000  -0.00241  -0.00992  -0.00868
                          36        37        38
  36 6   H  1S          0.07913
  37        2S          0.07730   0.15375
  38        3S          0.01445   0.04488   0.02389
     Gross orbital populations:
                           1
   1 1   C  1S          1.10433
   2        2S          0.88586
   3        2PX         0.22874
   4        2PY         0.23664
   5        2PZ         0.16648
   6        3S          0.79329
   7        3PX         0.56341
   8        3PY         0.55632
   9        3PZ         0.42443
  10        4S          0.50100
  11        4PX         0.25615
  12        4PY         0.21034
  13        4PZ         0.41186
  14 2   H  1S          0.27482
  15        2S          0.46569
  16        3S          0.08495
  17 3   H  1S          0.27991
  18        2S          0.46298
  19        3S          0.08084
  20 4   C  1S          1.10443
  21        2S          0.88584
  22        2PX         0.22038
  23        2PY         0.23553
  24        2PZ         0.16566
  25        3S          0.79184
  26        3PX         0.54965
  27        3PY         0.55564
  28        3PZ         0.41951
  29        4S          0.51045
  30        4PX         0.27902
  31        4PY         0.21775
  32        4PZ         0.41168
  33 5   H  1S          0.27065
  34        2S          0.47092
  35        3S          0.09054
  36 6   H  1S          0.26725
  37        2S          0.47214
  38        3S          0.09308
          Condensed to atoms (all electrons):
               1          2          3          4          5          6
     1  C    5.029206   0.388288   0.389584   0.601607  -0.035360  -0.034472
     2  H    0.388288   0.514277  -0.032417  -0.041094   0.006001  -0.009604
     3  H    0.389584  -0.032417   0.511070  -0.040775  -0.009617   0.005894
     4  C    0.601607  -0.041094  -0.040775   5.062515   0.382959   0.382165
     5  H   -0.035360   0.006001  -0.009617   0.382959   0.529673  -0.041545
     6  H   -0.034472  -0.009604   0.005894   0.382165  -0.041545   0.530029
 Mulliken charges:
               1
     1  C   -0.338853
     2  H    0.174549
     3  H    0.176260
     4  C   -0.347377
     5  H    0.167889
     6  H    0.167533
 Sum of Mulliken charges =   0.00000
 Mulliken charges with hydrogens summed into heavy atoms:
               1
     1  C    0.011955
     4  C   -0.011955
 Electronic spatial extent (au):  <R**2>=             83.7188
 Charge=              0.0000 electrons
 Dipole moment (field-independent basis, Debye):
    X=             -0.0024    Y=              0.0215    Z=             -0.1307  Tot=              0.1325
 Quadrupole moment (field-independent basis, Debye-Ang):
   XX=            -12.2130   YY=            -12.2252   ZZ=            -15.6680
   XY=              0.0159   XZ=             -0.0011   YZ=             -0.0041
 Traceless Quadrupole moment (field-independent basis, Debye-Ang):
   XX=              1.1557   YY=              1.1436   ZZ=             -2.2992
   XY=              0.0159   XZ=             -0.0011   YZ=             -0.0041
 Octapole moment (field-independent basis, Debye-Ang**2):
  XXX=             -0.4158  YYY=             -0.1172  ZZZ=             -0.0553  XYY=              0.2206
  XXY=             -0.0315  XXZ=             -0.1687  XZZ=             -0.1219  YZZ=             -0.1229
  YYZ=             -0.2250  XYZ=             -0.0485
 Hexadecapole moment (field-independent basis, Debye-Ang**3):
 XXXX=            -34.3284 YYYY=            -55.2453 ZZZZ=            -17.8135 XXXY=             -7.2369
 XXXZ=              0.0304 YYYX=            -10.6866 YYYZ=              0.0443 ZZZX=              0.0417
 ZZZY=              0.0704 XXYY=            -16.1948 XXZZ=             -9.9285 YYZZ=            -13.6496
 XXYZ=              0.0139 YYXZ=              0.0021 ZZXY=             -3.2014
 N-N= 3.307473187073D+01 E-N=-2.478576300579D+02  KE= 7.815184893554D+01
 Orbital energies and kinetic energies (alpha):
                                 1                 2
   1         O               -10.291598         15.979562
   2         O               -10.286993         15.978731
   3         O                -0.864311          1.540551
   4         O                -0.671771          1.270018
   5         O                -0.559703          0.943408
   6         O                -0.509567          1.283595
   7         O                -0.435443          1.040724
   8         O                -0.357231          1.039336
   9         V                 0.079905          1.181953
  10         V                 0.140721          0.591296
  11         V                 0.164303          0.597179
  12         V                 0.169946          0.679758
  13         V                 0.240641          0.584623
  14         V                 0.372456          0.847541
  15         V                 0.392711          0.932447
  16         V                 0.400923          0.786527
  17         V                 0.462522          1.201104
  18         V                 0.489369          1.408945
  19         V                 0.493550          1.301675
  20         V                 0.591136          1.653815
  21         V                 0.664824          1.573652
  22         V                 0.691396          2.142792
  23         V                 0.771234          2.413229
  24         V                 0.776879          2.323813
  25         V                 0.839389          1.082081
  26         V                 0.953162          3.433014
  27         V                 2.231077          3.926179
  28         V                 2.290427          4.027432
  29         V                 2.333735          4.303626
  30         V                 2.405889          4.514610
  31         V                 2.671416          6.301276
  32         V                 2.816879          6.303199
  33         V                 2.877814          6.141098
  34         V                 2.950573          6.227355
  35         V                 3.141589          6.820489
  36         V                 3.317273          6.401333
  37         V                23.351431         60.073949
  38         V                23.707119         60.204805
 Total kinetic energy from orbitals= 7.815184893554D+01
 Calling FoFJK, ICntrl=      2127 FMM=F ISym2X=0 I1Cent= 0 IOpClX= 0 NMat=1 NMatS=1 NMatT=0.
 -------------------------------------------------------------------
 Center     Atomic                   Forces (Hartrees/Bohr)
 Number     Number              X              Y              Z
 -------------------------------------------------------------------
      1        6           0.017651408    0.010651782   -0.005158029
      2        1          -0.009181259    0.003416370    0.002611350
      3        1          -0.002874336   -0.005945197    0.002270631
      4        6           0.014120776    0.016602791   -0.005868858
      5        1           0.002521008   -0.017140347    0.002985364
      6        1          -0.022237597   -0.007585399    0.003159543
 -------------------------------------------------------------------
 Cartesian Forces:  Max     0.022237597 RMS     0.010498070

 GradGradGradGradGradGradGradGradGradGradGradGradGradGradGradGradGradGrad
 Berny optimization.
 Search for a local minimum.
 Step number   1 out of a maximum of    2
 All quantities printed in internal units (Hartrees-Bohrs-Radians)
 Second derivative matrix not updated -- first step.
 The second derivative matrix:
                          X1        Y1        Z1        X2        Y2
           X1           0.77247
           Y1           0.09435   0.86416
           Z1           0.00775   0.01171   0.17203
           X2          -0.16758   0.09846   0.00287   0.14465
           Y2           0.10428  -0.28496  -0.01016  -0.11788   0.27354
           Z2           0.00455  -0.01277  -0.05537  -0.00416   0.01048
           X3          -0.36202   0.00152  -0.01118   0.00011   0.00008
           Y3          -0.00401  -0.11175  -0.00264   0.03261   0.01923
           Z3          -0.01430  -0.00253  -0.05660   0.00209   0.00080
           X4          -0.26827  -0.17966  -0.00076   0.02284   0.01351
           Y4          -0.18034  -0.47570  -0.00125  -0.01320  -0.00781
           Z4           0.00196   0.00352  -0.09463  -0.00080  -0.00112
           X5           0.02345  -0.01355   0.00082  -0.00001   0.00001
           Y5           0.01151  -0.00664   0.00111   0.00001  -0.00000
           Z5          -0.00072   0.00046   0.01748   0.00035  -0.00018
           X6           0.00195  -0.00113   0.00051  -0.00001   0.00001
           Y6          -0.02579   0.01491   0.00123   0.00001  -0.00000
           Z6           0.00076  -0.00039   0.01709  -0.00035   0.00017
                          Z2        X3        Y3        Z3        X4
           Z2           0.02893
           X3          -0.00038   0.36207
           Y3           0.00224  -0.00169   0.07698
           Z3           0.01065   0.01215   0.00171   0.02996
           X4           0.00066  -0.00013  -0.02693  -0.00063   0.69942
           Y4          -0.00034   0.00007   0.01555   0.00041   0.12787
           Z4           0.01575  -0.00059  -0.00131   0.01603  -0.00683
           X5          -0.00033  -0.00001   0.00001   0.00033  -0.14253
           Y5           0.00021   0.00001  -0.00001  -0.00022   0.08944
           Z5           0.00929   0.00034  -0.00022  -0.00946  -0.00396
           X6          -0.00034  -0.00001   0.00001   0.00035  -0.31133
           Y6           0.00017   0.00001  -0.00000  -0.00017  -0.02423
           Z6          -0.00925  -0.00034   0.00022   0.00942   0.01153
                          Y4        Z4        X5        Y5        Z5
           Y4           0.85524
           Z4          -0.01315   0.17672
           X5           0.08122  -0.00262   0.12156
           Y5          -0.28427   0.00953  -0.09977   0.27520
           Z5           0.01180  -0.05715   0.00351  -0.01020   0.02978
           X6          -0.01562   0.00888  -0.00245  -0.00119   0.00048
           Y6          -0.10302   0.00253   0.03209   0.01572  -0.00167
           Z6           0.00252  -0.05672  -0.00171  -0.00044   0.01006
                          X6        Y6        Z6
           X6           0.31186
           Y6           0.01792   0.07240
           Z6          -0.00988  -0.00210   0.02940
 ITU=  0
     Eigenvalues ---    0.03749   0.04374   0.09096   0.10170   0.13508
     Eigenvalues ---    0.17362   0.26454   0.29025   0.52770   0.69284
     Eigenvalues ---    0.97922   1.56766
 Angle between quadratic step and forces=  37.98 degrees.
 Linear search not attempted -- first point.
 B after Tr=     0.008355    0.010363   -0.013457
         Rot=    1.000000   -0.000076    0.000040   -0.000131 Ang=  -0.02 deg.
 Variable       Old X    -DE/DX   Delta X   Delta X   Delta X     New X
                                 (Linear)    (Quad)   (Total)
    X1       -0.63634   0.01765   0.00000   0.02380   0.03244  -0.60390
    Y1       -1.10059   0.01065   0.00000   0.02749   0.03769  -1.06289
    Z1        0.01651  -0.00516   0.00000  -0.02886  -0.04253  -0.02602
    X2        0.41680  -0.00918   0.00000  -0.03411  -0.02501   0.39180
    Y2       -2.87751   0.00342   0.00000   0.01659   0.02706  -2.85045
    Z2       -0.05654   0.00261   0.00000   0.03538   0.02151  -0.03503
    X3       -2.67184  -0.00287   0.00000   0.01357   0.02222  -2.64963
    Y3       -1.08899  -0.00595   0.00000  -0.02808  -0.01841  -1.10739
    Z3       -0.05780   0.00227   0.00000   0.03441   0.02057  -0.03723
    X4        0.62726   0.01412   0.00000   0.01076   0.01883   0.64609
    Y4        1.08641   0.01660   0.00000   0.01544   0.02598   1.11239
    Z4        0.01053  -0.00587   0.00000  -0.02682  -0.04006  -0.02953
    X5       -0.29900   0.00252   0.00000  -0.00842  -0.00082  -0.29982
    Y5        2.96950  -0.01714   0.00000  -0.04852  -0.03824   2.93126
    Z5       -0.06559   0.00299   0.00000   0.03375   0.02072  -0.04487
    X6        2.74048  -0.02224   0.00000  -0.05570  -0.04766   2.69282
    Y6        1.24409  -0.00759   0.00000  -0.04516  -0.03409   1.21000
    Z6       -0.06412   0.00316   0.00000   0.03285   0.01979  -0.04433
         Item               Value     Threshold  Converged?
 Maximum Force            0.022238     0.000450     NO 
 RMS     Force            0.010498     0.000300     NO 
 Maximum Displacement     0.047655     0.001800     NO 
 RMS     Displacement     0.029541     0.001200     NO 
 Predicted change in Energy=-2.345983D-03
 GradGradGradGradGradGradGradGradGradGradGradGradGradGradGradGradGradGrad

 Unable to Open any file for archive entry.
 1\1\GINC-BHD0005\Force\RwB97XD\6-311G\C2H4\BWEIGHT\11-Jan-2023\0\\# WB
 97XD/6-311G SCF=XQC FORCE nosym pop=full guess=read\\MD Step 999\\0,1\
 C,-0.33673846,-0.58240607,0.00873932\H,0.22056324,-1.52271505,-0.02991
 952\H,-1.41387923,-0.57626721,-0.03058744\C,0.33193158,0.57490573,0.00
 557146\H,-0.15822238,1.57139037,-0.03470791\H,1.45019894,0.65834251,-0
 .03392828\\Version=ES64L-G16RevC.01\HF=-78.5547519\RMSD=7.329e-09\RMSF
 =1.050e-02\Dipole=-0.0009624,0.0084695,-0.0514242\Quadrupole=0.8592195
 ,0.8502161,-1.7094357,0.0118164,-0.0008154,-0.0030354\PG=C01 [X(C2H4)]
 \\@
 The archive entry for this job was punched.


 AND HERE I AM, FOR ALL MY LORE,
 THE WRETCHED FOOL I WAS BEFORE.
 CALLED MASTER OF ARTS, AND DOCTOR TO BOOT,
 FOR TEN YEARS ALMOST I CONFUTE
 AND UP AND DOWN, WHEREVER IT GOES
 I DRAG MY STUDENTS BY THE NOSE --
 AND SEE THAT FOR ALL OUR SCIENCE AND ART
 WE CAN KNOW NOTHING.  IT BURNS MY HEART.

                                       -- FAUST
 Job cpu time:       0 days  0 hours  0 minutes 28.3 seconds.
 Elapsed time:       0 days  0 hours  0 minutes  9.9 seconds.
 File lengths (MBytes):  RWF=    272 Int=      0 D2E=      0 Chk=     32 Scr=     32
 Normal termination of Gaussian 16 at Wed Jan 11 18:46:26 2023.
