 Entering Gaussian System, Link 0=g16
 Initial command:
 /software/gaussian/g16-c01/avx2/g16/l1.exe "/gpfs/fs2/scratch/bweight/software/many_molecule_many_mode_NAMD/src/NAMD/EXAMPLE_1_BOMD_GS/G16/GS_NEW/Gau-3396.inp" -scrdir="/gpfs/fs2/scratch/bweight/software/many_molecule_many_mode_NAMD/src/NAMD/EXAMPLE_1_BOMD_GS/G16/GS_NEW/"
 Entering Link 1 = /software/gaussian/g16-c01/avx2/g16/l1.exe PID=      3397.
  
 Copyright (c) 1988-2019, Gaussian, Inc.  All Rights Reserved.
  
 This is part of the Gaussian(R) 16 program.  It is based on
 the Gaussian(R) 09 system (copyright 2009, Gaussian, Inc.),
 the Gaussian(R) 03 system (copyright 2003, Gaussian, Inc.),
 the Gaussian(R) 98 system (copyright 1998, Gaussian, Inc.),
 the Gaussian(R) 94 system (copyright 1995, Gaussian, Inc.),
 the Gaussian 92(TM) system (copyright 1992, Gaussian, Inc.),
 the Gaussian 90(TM) system (copyright 1990, Gaussian, Inc.),
 the Gaussian 88(TM) system (copyright 1988, Gaussian, Inc.),
 the Gaussian 86(TM) system (copyright 1986, Carnegie Mellon
 University), and the Gaussian 82(TM) system (copyright 1983,
 Carnegie Mellon University). Gaussian is a federally registered
 trademark of Gaussian, Inc.
  
 This software contains proprietary and confidential information,
 including trade secrets, belonging to Gaussian, Inc.
  
 This software is provided under written license and may be
 used, copied, transmitted, or stored only in accord with that
 written license.
  
 The following legend is applicable only to US Government
 contracts under FAR:
  
                    RESTRICTED RIGHTS LEGEND
  
 Use, reproduction and disclosure by the US Government is
 subject to restrictions as set forth in subparagraphs (a)
 and (c) of the Commercial Computer Software - Restricted
 Rights clause in FAR 52.227-19.
  
 Gaussian, Inc.
 340 Quinnipiac St., Bldg. 40, Wallingford CT 06492
  
  
 ---------------------------------------------------------------
 Warning -- This program may not be used in any manner that
 competes with the business of Gaussian, Inc. or will provide
 assistance to any competitor of Gaussian, Inc.  The licensee
 of this program is prohibited from giving any competitor of
 Gaussian, Inc. access to this program.  By using this program,
 the user acknowledges that Gaussian, Inc. is engaged in the
 business of creating and licensing software in the field of
 computational chemistry and represents and warrants to the
 licensee that it is not a competitor of Gaussian, Inc. and that
 it will not use this program in any manner prohibited above.
 ---------------------------------------------------------------
  

 Cite this work as:
 Gaussian 16, Revision C.01,
 M. J. Frisch, G. W. Trucks, H. B. Schlegel, G. E. Scuseria, 
 M. A. Robb, J. R. Cheeseman, G. Scalmani, V. Barone, 
 G. A. Petersson, H. Nakatsuji, X. Li, M. Caricato, A. V. Marenich, 
 J. Bloino, B. G. Janesko, R. Gomperts, B. Mennucci, H. P. Hratchian, 
 J. V. Ortiz, A. F. Izmaylov, J. L. Sonnenberg, D. Williams-Young, 
 F. Ding, F. Lipparini, F. Egidi, J. Goings, B. Peng, A. Petrone, 
 T. Henderson, D. Ranasinghe, V. G. Zakrzewski, J. Gao, N. Rega, 
 G. Zheng, W. Liang, M. Hada, M. Ehara, K. Toyota, R. Fukuda, 
 J. Hasegawa, M. Ishida, T. Nakajima, Y. Honda, O. Kitao, H. Nakai, 
 T. Vreven, K. Throssell, J. A. Montgomery, Jr., J. E. Peralta, 
 F. Ogliaro, M. J. Bearpark, J. J. Heyd, E. N. Brothers, K. N. Kudin, 
 V. N. Staroverov, T. A. Keith, R. Kobayashi, J. Normand, 
 K. Raghavachari, A. P. Rendell, J. C. Burant, S. S. Iyengar, 
 J. Tomasi, M. Cossi, J. M. Millam, M. Klene, C. Adamo, R. Cammi, 
 J. W. Ochterski, R. L. Martin, K. Morokuma, O. Farkas, 
 J. B. Foresman, and D. J. Fox, Gaussian, Inc., Wallingford CT, 2019.
 
 ******************************************
 Gaussian 16:  ES64L-G16RevC.01  3-Jul-2019
                29-Dec-2022 
 ******************************************
 %oldchk=../GS_OLD/geometry.chk
 %chk=geometry.chk
 %nprocshared=1
 Will use up to    1 processors via shared memory.
 %mem=5GB
 Copying data from "../GS_OLD/geometry.chk" to current chk file "geometry.chk"
 IOpt=  2 FromEx=T IUOpen= 4 IOptOp= 5 NList=   0 IFRang= 0 IUIn= 4 IUOut= 2.
 ------------------------------------------
 # BLYP/STO-3G SCF=XQC FORCE nosym pop=full
 ------------------------------------------
 1/10=7,30=1,38=1/1,3;
 2/12=2,15=1,17=6,18=5,40=1/2;
 3/6=3,11=2,25=1,30=1,71=1,74=402/1,2,3;
 4//1;
 5/5=2,8=3,13=1,38=5/2,8;
 6/7=3,28=1/1;
 7/29=1,30=1/1,2,3,16;
 1/10=7,30=1/3;
 99//99;
 ----------
 MD Step 32
 ----------
 Symbolic Z-matrix:
 Charge =  0 Multiplicity = 1
 Li                    0.03385   0.03384   0.06913 
 H                     0.22998   0.23004   2.98678 
 

 GradGradGradGradGradGradGradGradGradGradGradGradGradGradGradGradGradGrad
 Berny optimization.
 Initialization pass.
 Trust Radius=3.00D-01 FncErr=1.00D-07 GrdErr=1.00D-07 EigMax=2.50D+02 EigMin=1.00D-04
 Number of steps in this run=      2 maximum allowed number of steps=      2.
 GradGradGradGradGradGradGradGradGradGradGradGradGradGradGradGradGradGrad

                          Input orientation:                          
 ---------------------------------------------------------------------
 Center     Atomic      Atomic             Coordinates (Angstroms)
 Number     Number       Type             X           Y           Z
 ---------------------------------------------------------------------
      1          3           0        0.033846    0.033841    0.069133
      2          1           0        0.229976    0.230037    2.986779
 ---------------------------------------------------------------------
 Symmetry turned off by external request.
 Stoichiometry    HLi
 Framework group  C*V[C*(HLi)]
 Deg. of freedom     1
 Full point group                 C*V     NOp   4
 Rotational constants (GHZ):           0.0000000          66.7652021          66.7652021
 Standard basis: STO-3G (5D, 7F)
     6 basis functions,    18 primitive gaussians,     6 cartesian basis functions
     2 alpha electrons        2 beta electrons
       nuclear repulsion energy         0.5416709267 Hartrees.
 NAtoms=    2 NActive=    2 NUniq=    2 SFac= 1.00D+00 NAtFMM=   60 NAOKFM=F Big=F
 Integral buffers will be    131072 words long.
 Raffenetti 2 integral format.
 Two-electron integral symmetry is turned off.
 One-electron integrals computed using PRISM.
 NBasis=     6 RedAO= T EigKep=  7.00D-01  NBF=     6
 NBsUse=     6 1.00D-06 EigRej= -1.00D+00 NBFU=     6
 ExpMin= 4.81D-02 ExpMax= 1.61D+01 ExpMxC= 1.61D+01 IAcc=3 IRadAn=         5 AccDes= 0.00D+00
 Harris functional with IExCor=  402 and IRadAn=       5 diagonalized for initial guess.
 HarFok:  IExCor=  402 AccDes= 0.00D+00 IRadAn=         5 IDoV= 1 UseB2=F ITyADJ=14
 ICtDFT=  3500011 ScaDFX=  1.000000  1.000000  1.000000  1.000000
 FoFCou: FMM=F IPFlag=           0 FMFlag=      100000 FMFlg1=           0
         NFxFlg=           0 DoJE=T BraDBF=F KetDBF=T FulRan=T
         wScrn=  0.000000 ICntrl=       500 IOpCl=  0 I1Cent=   200000004 NGrid=           0
         NMat0=    1 NMatS0=      1 NMatT0=    0 NMatD0=    1 NMtDS0=    0 NMtDT0=    0
 Symmetry not used in FoFCou.
 Keep J ints in memory in canonical form, NReq=846976.
 Requested convergence on RMS density matrix=1.00D-08 within  32 cycles.
 Requested convergence on MAX density matrix=1.00D-06.
 Requested convergence on             energy=1.00D-06.
 No special actions if energy rises.
 Rare condition: small coef for last iteration:  0.000D+00
 EnCoef did   100 forward-backward iterations
 EnCoef did    63 forward-backward iterations
 SCF Done:  E(RB-LYP) =  -7.84488417940     A.U. after   14 cycles
            NFock= 14  Conv=0.13D-08     -V/T= 1.9833
 QCSCF skips out because SCF is already converged.

 **********************************************************************

            Population analysis using the SCF Density.

 **********************************************************************

 Alpha  occ. eigenvalues --   -1.80453  -0.09875
 Alpha virt. eigenvalues --   -0.05177   0.01513   0.01513   0.07621
     Molecular Orbital Coefficients:
                           1         2         3         4         5
                           O         O         V         V         V
     Eigenvalues --    -1.80453  -0.09875  -0.05177   0.01513   0.01513
   1 1   Li 1S          0.98668  -0.18035  -0.22140   0.00000   0.00000
   2        2S          0.05040   0.61832   0.76972  -0.00000  -0.00000
   3        2PX        -0.00016   0.01276  -0.03240   0.70499  -0.70605
   4        2PY        -0.00016   0.01277  -0.03241   0.70287   0.70816
   5        2PZ        -0.00241   0.18986  -0.48196  -0.09465  -0.00016
   6 2   H  1S         -0.00428   0.66519  -0.45624  -0.00000  -0.00000
                           6
                           V
     Eigenvalues --     0.07621
   1 1   Li 1S         -0.08778
   2        2S          0.32430
   3        2PX         0.05887
   4        2PY         0.05889
   5        2PZ         0.87575
   6 2   H  1S         -0.64309
     Density Matrix:
                           1         2         3         4         5
   1 1   Li 1S          2.01211
   2        2S         -0.12358   0.76973
   3        2PX        -0.00492   0.01577   0.00033
   4        2PY        -0.00493   0.01577   0.00033   0.00033
   5        2PZ        -0.07324   0.23455   0.00485   0.00485   0.07211
   6 2   H  1S         -0.24837   0.82217   0.01698   0.01699   0.25261
                           6
   6 2   H  1S          0.88498
    Full Mulliken population analysis:
                           1         2         3         4         5
   1 1   Li 1S          2.01211
   2        2S         -0.02980   0.76973
   3        2PX         0.00000   0.00000   0.00033
   4        2PY         0.00000   0.00000   0.00000   0.00033
   5        2PZ         0.00000   0.00000   0.00000   0.00000   0.07211
   6 2   H  1S         -0.00060   0.10864   0.00023   0.00023   0.05151
                           6
   6 2   H  1S          0.88498
     Gross orbital populations:
                           1
   1 1   Li 1S          1.98171
   2        2S          0.84857
   3        2PX         0.00056
   4        2PY         0.00056
   5        2PZ         0.12362
   6 2   H  1S          1.04499
          Condensed to atoms (all electrons):
               1          2
     1  Li   2.794998   0.160012
     2  H    0.160012   0.884979
 Mulliken charges:
               1
     1  Li   0.044991
     2  H   -0.044991
 Sum of Mulliken charges =  -0.00000
 Mulliken charges with hydrogens summed into heavy atoms:
               1
     1  Li  -0.000000
 Electronic spatial extent (au):  <R**2>=             49.6390
 Charge=             -0.0000 electrons
 Dipole moment (field-independent basis, Debye):
    X=             -0.2759    Y=             -0.2760    Z=             -4.1045  Tot=              4.1230
 Quadrupole moment (field-independent basis, Debye-Ang):
   XX=             -6.1189   YY=             -6.1189   ZZ=            -11.0695
   XY=             -0.0387   XZ=             -0.4552   YZ=             -0.4553
 Traceless Quadrupole moment (field-independent basis, Debye-Ang):
   XX=              1.6502   YY=              1.6502   ZZ=             -3.3004
   XY=             -0.0387   XZ=             -0.4552   YZ=             -0.4553
 Octapole moment (field-independent basis, Debye-Ang**2):
  XXX=             -1.8024  YYY=             -1.8027  ZZZ=            -27.1605  XYY=             -0.6043
  XXY=             -0.6044  XXZ=             -6.3314  XZZ=             -1.3060  YZZ=             -1.3062
  YYZ=             -6.3314  XYZ=             -0.0608
 Hexadecapole moment (field-independent basis, Debye-Ang**3):
 XXXX=            -17.3654 YYYY=            -17.3656 ZZZZ=           -100.7453 XXXY=             -0.2476
 XXXZ=             -2.8994 YYYX=             -0.2476 YYYZ=             -2.9001 ZZZX=             -4.0897
 ZZZY=             -4.0906 XXYY=             -5.7890 XXZZ=            -17.4183 YYZZ=            -17.4184
 XXYZ=             -0.9724 YYXZ=             -0.9722 ZZXY=             -0.1835
 N-N= 5.416709267258D-01 E-N=-1.935339398776D+01  KE= 7.978081743312D+00
 Orbital energies and kinetic energies (alpha):
                                 1                 2
   1         O                -1.804532          3.480385
   2         O                -0.098751          0.508656
   3         V                -0.051769          0.479521
   4         V                 0.015134          0.319682
   5         V                 0.015134          0.319682
   6         V                 0.076208          0.594168
 Total kinetic energy from orbitals= 7.978081743312D+00
 Calling FoFJK, ICntrl=      2527 FMM=F ISym2X=0 I1Cent= 0 IOpClX= 0 NMat=1 NMatS=1 NMatT=0.
 -------------------------------------------------------------------
 Center     Atomic                   Forces (Hartrees/Bohr)
 Number     Number              X              Y              Z
 -------------------------------------------------------------------
      1        3           0.002518693    0.002519537    0.037468593
      2        1          -0.002518693   -0.002519537   -0.037468593
 -------------------------------------------------------------------
 Cartesian Forces:  Max     0.037468593 RMS     0.021730066

 GradGradGradGradGradGradGradGradGradGradGradGradGradGradGradGradGradGrad
 Berny optimization.
 Search for a local minimum.
 Step number   1 out of a maximum of    2
 All quantities printed in internal units (Hartrees-Bohrs-Radians)
 Second derivative matrix not updated -- first step.
 The second derivative matrix:
                          X1        Y1        Z1        X2        Y2
           X1           1.00000
           Y1           0.00000   1.00000
           Z1           0.00000   0.00000   1.00000
           X2           0.00000   0.00000   0.00000   1.00000
           Y2           0.00000   0.00000   0.00000   0.00000   1.00000
           Z2           0.00000   0.00000   0.00000   0.00000   0.00000
                          Z2
           Z2           1.00000
 ITU=  0
     Eigenvalues ---    1.00000   1.00000   1.00000   1.00000   1.00000
     Eigenvalues ---    1.00000
 Angle between quadratic step and forces=   0.00 degrees.
 Linear search not attempted -- first point.
 B after Tr=    -0.000711    0.000720   -0.000001
         Rot=    0.999979    0.000436    0.000436    0.006485 Ang=   0.75 deg.
 Variable       Old X    -DE/DX   Delta X   Delta X   Delta X     New X
                                 (Linear)    (Quad)   (Total)
    X1        0.06396   0.00252   0.00000   0.00252   0.00252   0.06648
    Y1        0.06395   0.00252   0.00000   0.00252   0.00252   0.06647
    Z1        0.13064   0.03747   0.00000   0.03747   0.03747   0.16811
    X2        0.43459  -0.00252   0.00000  -0.00252  -0.00252   0.43207
    Y2        0.43471  -0.00252   0.00000  -0.00252  -0.00252   0.43219
    Z2        5.64419  -0.03747   0.00000  -0.03747  -0.03747   5.60673
         Item               Value     Threshold  Converged?
 Maximum Force            0.037469     0.000450     NO 
 RMS     Force            0.021730     0.000300     NO 
 Maximum Displacement     0.037469     0.001800     NO 
 RMS     Displacement     0.021730     0.001200     NO 
 Predicted change in Energy=-1.416587D-03
 GradGradGradGradGradGradGradGradGradGradGradGradGradGradGradGradGradGrad

 Unable to Open any file for archive entry.
 1\1\GINC-BHD0001\Force\RBLYP\STO-3G\H1Li1\BWEIGHT\29-Dec-2022\0\\# BLY
 P/STO-3G SCF=XQC FORCE nosym pop=full\\MD Step 32\\0,1\Li,0.03384584,0
 .03384126,0.06913311\H,0.22997601,0.23003715,2.98677867\\Version=ES64L
 -G16RevC.01\HF=-7.8448842\RMSD=1.328e-09\RMSF=2.173e-02\Dipole=-0.1085
 538,-0.1085902,-1.6148468\Quadrupole=1.2268885,1.2268758,-2.4537643,-0
 .0287479,-0.3384564,-0.3385212\PG=C*V [C*(H1Li1)]\\@
 The archive entry for this job was punched.


 UNDER MOST GREENE GRASSE LY MOST GREATE SNAKES.
 -- PROVERBS AND REASONS OF THE YEAR 1585
           AS REPRINTED IN PAISLEY MAGAZINE 1828.
 Job cpu time:       0 days  0 hours  0 minutes  3.9 seconds.
 Elapsed time:       0 days  0 hours  0 minutes  4.1 seconds.
 File lengths (MBytes):  RWF=    272 Int=      0 D2E=      0 Chk=     32 Scr=     32
 Normal termination of Gaussian 16 at Thu Dec 29 00:17:32 2022.
