 Entering Gaussian System, Link 0=g16
 Initial command:
 /software/gaussian/g16-c01/avx2/g16/l1.exe "/gpfs/fs2/scratch/bweight/software/many_molecule_many_mode_NAMD/src/NAMD/EXAMPLE_1_BOMD_GS/G16/GS_NEW/Gau-29478.inp" -scrdir="/gpfs/fs2/scratch/bweight/software/many_molecule_many_mode_NAMD/src/NAMD/EXAMPLE_1_BOMD_GS/G16/GS_NEW/"
 Entering Link 1 = /software/gaussian/g16-c01/avx2/g16/l1.exe PID=     29479.
  
 Copyright (c) 1988-2019, Gaussian, Inc.  All Rights Reserved.
  
 This is part of the Gaussian(R) 16 program.  It is based on
 the Gaussian(R) 09 system (copyright 2009, Gaussian, Inc.),
 the Gaussian(R) 03 system (copyright 2003, Gaussian, Inc.),
 the Gaussian(R) 98 system (copyright 1998, Gaussian, Inc.),
 the Gaussian(R) 94 system (copyright 1995, Gaussian, Inc.),
 the Gaussian 92(TM) system (copyright 1992, Gaussian, Inc.),
 the Gaussian 90(TM) system (copyright 1990, Gaussian, Inc.),
 the Gaussian 88(TM) system (copyright 1988, Gaussian, Inc.),
 the Gaussian 86(TM) system (copyright 1986, Carnegie Mellon
 University), and the Gaussian 82(TM) system (copyright 1983,
 Carnegie Mellon University). Gaussian is a federally registered
 trademark of Gaussian, Inc.
  
 This software contains proprietary and confidential information,
 including trade secrets, belonging to Gaussian, Inc.
  
 This software is provided under written license and may be
 used, copied, transmitted, or stored only in accord with that
 written license.
  
 The following legend is applicable only to US Government
 contracts under FAR:
  
                    RESTRICTED RIGHTS LEGEND
  
 Use, reproduction and disclosure by the US Government is
 subject to restrictions as set forth in subparagraphs (a)
 and (c) of the Commercial Computer Software - Restricted
 Rights clause in FAR 52.227-19.
  
 Gaussian, Inc.
 340 Quinnipiac St., Bldg. 40, Wallingford CT 06492
  
  
 ---------------------------------------------------------------
 Warning -- This program may not be used in any manner that
 competes with the business of Gaussian, Inc. or will provide
 assistance to any competitor of Gaussian, Inc.  The licensee
 of this program is prohibited from giving any competitor of
 Gaussian, Inc. access to this program.  By using this program,
 the user acknowledges that Gaussian, Inc. is engaged in the
 business of creating and licensing software in the field of
 computational chemistry and represents and warrants to the
 licensee that it is not a competitor of Gaussian, Inc. and that
 it will not use this program in any manner prohibited above.
 ---------------------------------------------------------------
  

 Cite this work as:
 Gaussian 16, Revision C.01,
 M. J. Frisch, G. W. Trucks, H. B. Schlegel, G. E. Scuseria, 
 M. A. Robb, J. R. Cheeseman, G. Scalmani, V. Barone, 
 G. A. Petersson, H. Nakatsuji, X. Li, M. Caricato, A. V. Marenich, 
 J. Bloino, B. G. Janesko, R. Gomperts, B. Mennucci, H. P. Hratchian, 
 J. V. Ortiz, A. F. Izmaylov, J. L. Sonnenberg, D. Williams-Young, 
 F. Ding, F. Lipparini, F. Egidi, J. Goings, B. Peng, A. Petrone, 
 T. Henderson, D. Ranasinghe, V. G. Zakrzewski, J. Gao, N. Rega, 
 G. Zheng, W. Liang, M. Hada, M. Ehara, K. Toyota, R. Fukuda, 
 J. Hasegawa, M. Ishida, T. Nakajima, Y. Honda, O. Kitao, H. Nakai, 
 T. Vreven, K. Throssell, J. A. Montgomery, Jr., J. E. Peralta, 
 F. Ogliaro, M. J. Bearpark, J. J. Heyd, E. N. Brothers, K. N. Kudin, 
 V. N. Staroverov, T. A. Keith, R. Kobayashi, J. Normand, 
 K. Raghavachari, A. P. Rendell, J. C. Burant, S. S. Iyengar, 
 J. Tomasi, M. Cossi, J. M. Millam, M. Klene, C. Adamo, R. Cammi, 
 J. W. Ochterski, R. L. Martin, K. Morokuma, O. Farkas, 
 J. B. Foresman, and D. J. Fox, Gaussian, Inc., Wallingford CT, 2019.
 
 ******************************************
 Gaussian 16:  ES64L-G16RevC.01  3-Jul-2019
                29-Dec-2022 
 ******************************************
 %oldchk=../GS_OLD/geometry.chk
 %chk=geometry.chk
 %nprocshared=1
 Will use up to    1 processors via shared memory.
 %mem=5GB
 Copying data from "../GS_OLD/geometry.chk" to current chk file "geometry.chk"
 IOpt=  2 FromEx=T IUOpen= 4 IOptOp= 5 NList=   0 IFRang= 0 IUIn= 4 IUOut= 2.
 ------------------------------------------
 # BLYP/STO-3G SCF=XQC FORCE nosym pop=full
 ------------------------------------------
 1/10=7,30=1,38=1/1,3;
 2/12=2,15=1,17=6,18=5,40=1/2;
 3/6=3,11=2,25=1,30=1,71=1,74=402/1,2,3;
 4//1;
 5/5=2,8=3,13=1,38=5/2,8;
 6/7=3,28=1/1;
 7/29=1,30=1/1,2,3,16;
 1/10=7,30=1/3;
 99//99;
 -----------
 MD Step 999
 -----------
 Symbolic Z-matrix:
 Charge =  0 Multiplicity = 1
 Li                    1.82693   1.82703   2.57701 
 H                     1.87006   1.87028  -0.29918 
 

 GradGradGradGradGradGradGradGradGradGradGradGradGradGradGradGradGradGrad
 Berny optimization.
 Initialization pass.
 Trust Radius=3.00D-01 FncErr=1.00D-07 GrdErr=1.00D-07 EigMax=2.50D+02 EigMin=1.00D-04
 Number of steps in this run=      2 maximum allowed number of steps=      2.
 GradGradGradGradGradGradGradGradGradGradGradGradGradGradGradGradGradGrad

                          Input orientation:                          
 ---------------------------------------------------------------------
 Center     Atomic      Atomic             Coordinates (Angstroms)
 Number     Number       Type             X           Y           Z
 ---------------------------------------------------------------------
      1          3           0        1.826927    1.827029    2.577012
      2          1           0        1.870060    1.870279   -0.299178
 ---------------------------------------------------------------------
 Symmetry turned off by external request.
 Stoichiometry    HLi
 Framework group  C*V[C*(HLi)]
 Deg. of freedom     1
 Full point group                 C*V     NOp   4
 Rotational constants (GHZ):           0.0000000          69.2935630          69.2935630
 Standard basis: STO-3G (5D, 7F)
     6 basis functions,    18 primitive gaussians,     6 cartesian basis functions
     2 alpha electrons        2 beta electrons
       nuclear repulsion energy         0.5518320093 Hartrees.
 NAtoms=    2 NActive=    2 NUniq=    2 SFac= 1.00D+00 NAtFMM=   60 NAOKFM=F Big=F
 Integral buffers will be    131072 words long.
 Raffenetti 2 integral format.
 Two-electron integral symmetry is turned off.
 One-electron integrals computed using PRISM.
 NBasis=     6 RedAO= T EigKep=  6.92D-01  NBF=     6
 NBsUse=     6 1.00D-06 EigRej= -1.00D+00 NBFU=     6
 ExpMin= 4.81D-02 ExpMax= 1.61D+01 ExpMxC= 1.61D+01 IAcc=3 IRadAn=         5 AccDes= 0.00D+00
 Harris functional with IExCor=  402 and IRadAn=       5 diagonalized for initial guess.
 HarFok:  IExCor=  402 AccDes= 0.00D+00 IRadAn=         5 IDoV= 1 UseB2=F ITyADJ=14
 ICtDFT=  3500011 ScaDFX=  1.000000  1.000000  1.000000  1.000000
 FoFCou: FMM=F IPFlag=           0 FMFlag=      100000 FMFlg1=           0
         NFxFlg=           0 DoJE=T BraDBF=F KetDBF=T FulRan=T
         wScrn=  0.000000 ICntrl=       500 IOpCl=  0 I1Cent=   200000004 NGrid=           0
         NMat0=    1 NMatS0=      1 NMatT0=    0 NMatD0=    1 NMtDS0=    0 NMtDT0=    0
 Symmetry not used in FoFCou.
 Keep J ints in memory in canonical form, NReq=846976.
 Requested convergence on RMS density matrix=1.00D-08 within  32 cycles.
 Requested convergence on MAX density matrix=1.00D-06.
 Requested convergence on             energy=1.00D-06.
 No special actions if energy rises.
 Rare condition: small coef for last iteration:  0.000D+00
 EnCoef did   100 forward-backward iterations
 EnCoef did    15 forward-backward iterations
 SCF Done:  E(RB-LYP) =  -7.84877890985     A.U. after   15 cycles
            NFock= 15  Conv=0.14D-10     -V/T= 1.9848
 QCSCF skips out because SCF is already converged.

 **********************************************************************

            Population analysis using the SCF Density.

 **********************************************************************

 Alpha  occ. eigenvalues --   -1.80429  -0.09962
 Alpha virt. eigenvalues --   -0.05097   0.01577   0.01577   0.08179
     Molecular Orbital Coefficients:
                           1         2         3         4         5
                           O         O         V         V         V
     Eigenvalues --    -1.80429  -0.09962  -0.05097   0.01577   0.01577
   1 1   Li 1S          0.98668  -0.17931  -0.22142   0.00000   0.00000
   2        2S          0.05040   0.61365   0.77034  -0.00000  -0.00000
   3        2PX        -0.00004   0.00294  -0.00740   0.71111   0.70293
   4        2PY        -0.00004   0.00295  -0.00742  -0.70309   0.71095
   5        2PZ         0.00246  -0.19591   0.49316   0.00009   0.02123
   6 2   H  1S         -0.00443   0.66166  -0.44384  -0.00000  -0.00000
                           6
                           V
     Eigenvalues --     0.08179
   1 1   Li 1S          0.09036
   2        2S         -0.33524
   3        2PX        -0.01314
   4        2PY        -0.01317
   5        2PZ         0.87606
   6 2   H  1S          0.66074
     Density Matrix:
                           1         2         3         4         5
   1 1   Li 1S          2.01138
   2        2S         -0.12062   0.75821
   3        2PX        -0.00113   0.00360   0.00002
   4        2PY        -0.00113   0.00361   0.00002   0.00002
   5        2PZ         0.07511  -0.24019  -0.00115  -0.00115   0.07677
   6 2   H  1S         -0.24602   0.81161   0.00389   0.00390  -0.25927
                           6
   6 2   H  1S          0.87562
    Full Mulliken population analysis:
                           1         2         3         4         5
   1 1   Li 1S          2.01138
   2        2S         -0.02909   0.75821
   3        2PX         0.00000   0.00000   0.00002
   4        2PY         0.00000   0.00000   0.00000   0.00002
   5        2PZ         0.00000   0.00000   0.00000   0.00000   0.07677
   6 2   H  1S         -0.00070   0.11301   0.00001   0.00001   0.05574
                           6
   6 2   H  1S          0.87562
     Gross orbital populations:
                           1
   1 1   Li 1S          1.98159
   2        2S          0.84214
   3        2PX         0.00003
   4        2PY         0.00003
   5        2PZ         0.13251
   6 2   H  1S          1.04370
          Condensed to atoms (all electrons):
               1          2
     1  Li   2.788228   0.168077
     2  H    0.168077   0.875619
 Mulliken charges:
               1
     1  Li   0.043695
     2  H   -0.043695
 Sum of Mulliken charges =  -0.00000
 Mulliken charges with hydrogens summed into heavy atoms:
               1
     1  Li  -0.000000
 Electronic spatial extent (au):  <R**2>=            169.0753
 Charge=             -0.0000 electrons
 Dipole moment (field-independent basis, Debye):
    X=             -0.0626    Y=             -0.0628    Z=              4.1770  Tot=              4.1780
 Quadrupole moment (field-independent basis, Debye-Ang):
   XX=             -6.2876   YY=             -6.2882   ZZ=             11.0808
   XY=             -0.2302   XZ=              7.5355   YZ=              7.5357
 Traceless Quadrupole moment (field-independent basis, Debye-Ang):
   XX=             -5.7892   YY=             -5.7899   ZZ=             11.5791
   XY=             -0.2302   XZ=              7.5355   YZ=              7.5357
 Octapole moment (field-independent basis, Debye-Ang**2):
  XXX=            -34.0987  YYY=            -34.1030  ZZZ=             27.1241  XYY=            -11.7892
  XXY=            -11.7895  XXZ=              3.8716  XZZ=             19.9737  YZZ=             19.9741
  YYZ=              3.8722  XYZ=             13.5915
 Hexadecapole moment (field-independent basis, Debye-Ang**3):
 XXXX=           -141.5428 YYYY=           -141.5663 ZZZZ=             32.9069 XXXY=            -63.1850
 XXXZ=            -28.9694 YYYX=            -63.1873 YYYZ=            -28.9714 ZZZX=             48.9367
 ZZZY=             48.9378 XXYY=            -48.2182 XXZZ=              9.9458 YYZZ=              9.9472
 XXYZ=              6.6812 YYXZ=              6.6829 ZZXY=             35.9945
 N-N= 5.518320093307D-01 E-N=-1.937217065601D+01  KE= 7.970132035637D+00
 Orbital energies and kinetic energies (alpha):
                                 1                 2
   1         O                -1.804287          3.480412
   2         O                -0.099619          0.504654
   3         V                -0.050974          0.474346
   4         V                 0.015773          0.319682
   5         V                 0.015773          0.319682
   6         V                 0.081794          0.609918
 Total kinetic energy from orbitals= 7.970132035637D+00
 Calling FoFJK, ICntrl=      2527 FMM=F ISym2X=0 I1Cent= 0 IOpClX= 0 NMat=1 NMatS=1 NMatT=0.
 -------------------------------------------------------------------
 Center     Atomic                   Forces (Hartrees/Bohr)
 Number     Number              X              Y              Z
 -------------------------------------------------------------------
      1        3           0.000580798    0.000582378   -0.038729597
      2        1          -0.000580798   -0.000582378    0.038729597
 -------------------------------------------------------------------
 Cartesian Forces:  Max     0.038729597 RMS     0.022365585

 GradGradGradGradGradGradGradGradGradGradGradGradGradGradGradGradGradGrad
 Berny optimization.
 Search for a local minimum.
 Step number   1 out of a maximum of    2
 All quantities printed in internal units (Hartrees-Bohrs-Radians)
 Second derivative matrix not updated -- first step.
 The second derivative matrix:
                          X1        Y1        Z1        X2        Y2
           X1           1.00000
           Y1           0.00000   1.00000
           Z1           0.00000   0.00000   1.00000
           X2           0.00000   0.00000   0.00000   1.00000
           Y2           0.00000   0.00000   0.00000   0.00000   1.00000
           Z2           0.00000   0.00000   0.00000   0.00000   0.00000
                          Z2
           Z2           1.00000
 ITU=  0
     Eigenvalues ---    1.00000   1.00000   1.00000   1.00000   1.00000
     Eigenvalues ---    1.00000
 Angle between quadratic step and forces=   0.00 degrees.
 Linear search not attempted -- first point.
 B after Tr=    -0.000000   -0.000000    0.000000
         Rot=    1.000000    0.000000   -0.000000    0.000000 Ang=   0.00 deg.
 Variable       Old X    -DE/DX   Delta X   Delta X   Delta X     New X
                                 (Linear)    (Quad)   (Total)
    X1        3.45239   0.00058   0.00000   0.00058   0.00058   3.45297
    Y1        3.45259   0.00058   0.00000   0.00058   0.00058   3.45317
    Z1        4.86985  -0.03873   0.00000  -0.03873  -0.03873   4.83112
    X2        3.53390  -0.00058   0.00000  -0.00058  -0.00058   3.53332
    Y2        3.53432  -0.00058   0.00000  -0.00058  -0.00058   3.53373
    Z2       -0.56537   0.03873   0.00000   0.03873   0.03873  -0.52664
         Item               Value     Threshold  Converged?
 Maximum Force            0.038730     0.000450     NO 
 RMS     Force            0.022366     0.000300     NO 
 Maximum Displacement     0.038730     0.001800     NO 
 RMS     Displacement     0.022366     0.001200     NO 
 Predicted change in Energy=-1.500658D-03
 GradGradGradGradGradGradGradGradGradGradGradGradGradGradGradGradGradGrad

 Unable to Open any file for archive entry.
 1\1\GINC-BHD0001\Force\RBLYP\STO-3G\H1Li1\BWEIGHT\29-Dec-2022\0\\# BLY
 P/STO-3G SCF=XQC FORCE nosym pop=full\\MD Step 999\\0,1\Li,1.82692732,
 1.82702943,2.57701163\H,1.87005992,1.87027934,-0.29917846\\Version=ES6
 4L-G16RevC.01\HF=-7.8487789\RMSD=1.440e-11\RMSF=2.237e-02\Dipole=-0.02
 4645,-0.024712,1.6433618\Quadrupole=-4.3041513,-4.3046276,8.6087789,-0
 .1711406,5.602458,5.6025818\PG=C*V [C*(H1Li1)]\\@
 The archive entry for this job was punched.


 ...THOSE SCIENCES ARE VAIN AND FULL OF ERRORS WHICH 
 ARE NOT BORN FROM EXPERIMENT, THE MOTHER OF CERTAINTY...

                          -- LEONARDO DA VINCI, 1452-1519
 Job cpu time:       0 days  0 hours  0 minutes  3.9 seconds.
 Elapsed time:       0 days  0 hours  0 minutes  4.1 seconds.
 File lengths (MBytes):  RWF=    272 Int=      0 D2E=      0 Chk=     32 Scr=     32
 Normal termination of Gaussian 16 at Thu Dec 29 01:34:32 2022.
