 Entering Gaussian System, Link 0=g16
 Initial command:
 /software/gaussian/g16-c01/avx2/g16/l1.exe "/gpfs/fs2/scratch/bweight/software/many_molecule_many_mode_NAMD/src/NAMD/TEST_SPINLSC/G16/DIMER/Gau-17482.inp" -scrdir="/gpfs/fs2/scratch/bweight/software/many_molecule_many_mode_NAMD/src/NAMD/TEST_SPINLSC/G16/DIMER/"
 Entering Link 1 = /software/gaussian/g16-c01/avx2/g16/l1.exe PID=     17483.
  
 Copyright (c) 1988-2019, Gaussian, Inc.  All Rights Reserved.
  
 This is part of the Gaussian(R) 16 program.  It is based on
 the Gaussian(R) 09 system (copyright 2009, Gaussian, Inc.),
 the Gaussian(R) 03 system (copyright 2003, Gaussian, Inc.),
 the Gaussian(R) 98 system (copyright 1998, Gaussian, Inc.),
 the Gaussian(R) 94 system (copyright 1995, Gaussian, Inc.),
 the Gaussian 92(TM) system (copyright 1992, Gaussian, Inc.),
 the Gaussian 90(TM) system (copyright 1990, Gaussian, Inc.),
 the Gaussian 88(TM) system (copyright 1988, Gaussian, Inc.),
 the Gaussian 86(TM) system (copyright 1986, Carnegie Mellon
 University), and the Gaussian 82(TM) system (copyright 1983,
 Carnegie Mellon University). Gaussian is a federally registered
 trademark of Gaussian, Inc.
  
 This software contains proprietary and confidential information,
 including trade secrets, belonging to Gaussian, Inc.
  
 This software is provided under written license and may be
 used, copied, transmitted, or stored only in accord with that
 written license.
  
 The following legend is applicable only to US Government
 contracts under FAR:
  
                    RESTRICTED RIGHTS LEGEND
  
 Use, reproduction and disclosure by the US Government is
 subject to restrictions as set forth in subparagraphs (a)
 and (c) of the Commercial Computer Software - Restricted
 Rights clause in FAR 52.227-19.
  
 Gaussian, Inc.
 340 Quinnipiac St., Bldg. 40, Wallingford CT 06492
  
  
 ---------------------------------------------------------------
 Warning -- This program may not be used in any manner that
 competes with the business of Gaussian, Inc. or will provide
 assistance to any competitor of Gaussian, Inc.  The licensee
 of this program is prohibited from giving any competitor of
 Gaussian, Inc. access to this program.  By using this program,
 the user acknowledges that Gaussian, Inc. is engaged in the
 business of creating and licensing software in the field of
 computational chemistry and represents and warrants to the
 licensee that it is not a competitor of Gaussian, Inc. and that
 it will not use this program in any manner prohibited above.
 ---------------------------------------------------------------
  

 Cite this work as:
 Gaussian 16, Revision C.01,
 M. J. Frisch, G. W. Trucks, H. B. Schlegel, G. E. Scuseria, 
 M. A. Robb, J. R. Cheeseman, G. Scalmani, V. Barone, 
 G. A. Petersson, H. Nakatsuji, X. Li, M. Caricato, A. V. Marenich, 
 J. Bloino, B. G. Janesko, R. Gomperts, B. Mennucci, H. P. Hratchian, 
 J. V. Ortiz, A. F. Izmaylov, J. L. Sonnenberg, D. Williams-Young, 
 F. Ding, F. Lipparini, F. Egidi, J. Goings, B. Peng, A. Petrone, 
 T. Henderson, D. Ranasinghe, V. G. Zakrzewski, J. Gao, N. Rega, 
 G. Zheng, W. Liang, M. Hada, M. Ehara, K. Toyota, R. Fukuda, 
 J. Hasegawa, M. Ishida, T. Nakajima, Y. Honda, O. Kitao, H. Nakai, 
 T. Vreven, K. Throssell, J. A. Montgomery, Jr., J. E. Peralta, 
 F. Ogliaro, M. J. Bearpark, J. J. Heyd, E. N. Brothers, K. N. Kudin, 
 V. N. Staroverov, T. A. Keith, R. Kobayashi, J. Normand, 
 K. Raghavachari, A. P. Rendell, J. C. Burant, S. S. Iyengar, 
 J. Tomasi, M. Cossi, J. M. Millam, M. Klene, C. Adamo, R. Cammi, 
 J. W. Ochterski, R. L. Martin, K. Morokuma, O. Farkas, 
 J. B. Foresman, and D. J. Fox, Gaussian, Inc., Wallingford CT, 2019.
 
 ******************************************
 Gaussian 16:  ES64L-G16RevC.01  3-Jul-2019
                 5-Jan-2023 
 ******************************************
 %chk=geometry.chk
 %nprocshared=1
 Will use up to    1 processors via shared memory.
 %mem=5GB
 -------------------------------------------------------------
 # WB97XD/6-311G nosymm iop(2/12=3,3/33=1) guess=only pop=full
 -------------------------------------------------------------
 1/38=1,172=1/1;
 2/12=3,15=1,17=6,18=5,40=1/2;
 3/5=4,6=6,11=2,25=1,30=1,33=1,74=-58,89=1/1,2;
 4//1;
 6/7=3,28=1/1;
 99/5=2/99;
 ------------
 MD Step 1000
 ------------
 Symbolic Z-matrix:
 Charge =  0 Multiplicity = 1
 C                    -0.2675   -0.08073  -0.03615 
 H                     0.05106  -1.12191  -0.16432 
 H                    -1.3717    0.15678  -0.25994 
 C                     0.72023   0.88822   0.02143 
 H                     0.32006   1.89888  -0.27238 
 H                     1.7921    0.54611  -0.21065 
 C                    -0.27004  -0.08547  -0.03439 
 H                     0.05808  -1.11773  -0.15572 
 H                    -1.36365   0.17589  -0.27978 
 C                     0.72186   0.89219   0.0218 
 H                     0.32332   1.90136  -0.26089 
 H                     1.78731   0.53627  -0.22657 
 
                          Input orientation:                          
 ---------------------------------------------------------------------
 Center     Atomic      Atomic             Coordinates (Angstroms)
 Number     Number       Type             X           Y           Z
 ---------------------------------------------------------------------
      1          6           0       -0.267497   -0.080726   -0.036148
      2          1           0        0.051064   -1.121914   -0.164316
      3          1           0       -1.371704    0.156782   -0.259936
      4          6           0        0.720230    0.888215    0.021428
      5          1           0        0.320062    1.898882   -0.272380
      6          1           0        1.792104    0.546109   -0.210648
      7          6           0       -0.270037   -0.085467   -0.034393
      8          1           0        0.058079   -1.117727   -0.155723
      9          1           0       -1.363653    0.175889   -0.279780
     10          6           0        0.721863    0.892189    0.021801
     11          1           0        0.323322    1.901356   -0.260889
     12          1           0        1.787313    0.536266   -0.226573
 ---------------------------------------------------------------------
                    Distance matrix (angstroms):
                    1          2          3          4          5
     1  C    0.000000
     2  H    1.096348   0.000000
     3  H    1.151418   1.915326   0.000000
     4  C    1.384834   2.126712   2.233908   0.000000
     5  H    2.078432   3.034674   2.428403   1.126013   0.000000
     6  H    2.159937   2.411569   3.188054   1.148831   2.000179
     7  C    0.005657   1.092799   1.150315   1.389892   2.083865
     8  H    1.093466   0.011856   1.918205   2.119818   3.030210
     9  H    1.151854   1.923292   0.028700   2.222769   2.409078
    10  C    1.388796   2.131014   2.236788   0.004313   1.123128
    11  H    2.080439   3.037040   2.432417   1.124141   0.012198
    12  H    2.153877   2.401665   3.181903   1.150669   2.002909
                    6          7          8          9         10
     6  H    0.000000
     7  C    2.163881   0.000000
     8  H    2.403791   1.089927   0.000000
     9  H    3.178152   1.150878   1.926176   0.000000
    10  C    1.148574   1.393856   2.124120   2.225627   0.000000
    11  H    1.999135   2.085867   3.032536   2.413188   1.121234
    12  H    0.019324   2.157817   2.393943   3.171954   1.150458
                   11         12
    11  H    0.000000
    12  H    2.001978   0.000000
 Symmetry turned off by external request.
 Stoichiometry    C4H8
 Framework group  C1[X(C4H8)]
 Deg. of freedom    30
 Full point group                 C1      NOp   1
 Rotational constants (GHZ):          62.5084410          14.3314963          11.8557156
 Standard basis: 6-311G (5D, 7F)
                         Coordinates in L301:                         
 ---------------------------------------------------------------------
 Center     Atomic      Atomic             Coordinates (Angstroms)
 Number     Number       Type             X           Y           Z
 ---------------------------------------------------------------------
      1          6           0       -0.267497   -0.080726   -0.036148
      2          1           0        0.051064   -1.121914   -0.164316
      3          1           0       -1.371704    0.156782   -0.259936
      4          6           0        0.720230    0.888215    0.021428
      5          1           0        0.320062    1.898882   -0.272380
      6          1           0        1.792104    0.546109   -0.210648
      7          6           0       -0.270037   -0.085467   -0.034393
      8          1           0        0.058079   -1.117727   -0.155723
      9          1           0       -1.363653    0.175889   -0.279780
     10          6           0        0.721863    0.892189    0.021801
     11          1           0        0.323322    1.901356   -0.260889
     12          1           0        1.787313    0.536266   -0.226573
 ---------------------------------------------------------------------
 FixB: optimizing general contractions.
 Ernie: Thresh=  0.10000D-02 Tol=  0.10000D-05 Strict=F.
 IA=     1 ShT= 0 ShC= 0 NL=   1 NS=   0.
 IA=     1 L=0 SC=0 ISt=    0 NBk=    0 NP=    0 IndPr=    0.
 IA=     1 ShT= 1 ShC= 0 NL=   3 NS=   2.
 IA=     1 L=1 SC=0 ISt=    0 NBk=    0 NP=    0 IndPr=    0.
 IA=     2 ShT= 0 ShC= 0 NL=   3 NS=   2.
 IA=     2 L=0 SC=0 ISt=    0 NBk=    0 NP=    0 IndPr=    0.
 IA=     3 ShT= 0 ShC= 0 NL=   3 NS=   2.
 IA=     3 L=0 SC=0 ISt=    0 NBk=    0 NP=    0 IndPr=    0.
 IA=     4 ShT= 0 ShC= 0 NL=   1 NS=   0.
 IA=     4 L=0 SC=0 ISt=    0 NBk=    0 NP=    0 IndPr=    0.
 IA=     4 ShT= 1 ShC= 0 NL=   3 NS=   2.
 IA=     4 L=1 SC=0 ISt=    0 NBk=    0 NP=    0 IndPr=    0.
 IA=     5 ShT= 0 ShC= 0 NL=   3 NS=   2.
 IA=     5 L=0 SC=0 ISt=    0 NBk=    0 NP=    0 IndPr=    0.
 IA=     6 ShT= 0 ShC= 0 NL=   3 NS=   2.
 IA=     6 L=0 SC=0 ISt=    0 NBk=    0 NP=    0 IndPr=    0.
 IA=     7 ShT= 0 ShC= 0 NL=   1 NS=   0.
 IA=     7 L=0 SC=0 ISt=    0 NBk=    0 NP=    0 IndPr=    0.
 IA=     7 ShT= 1 ShC= 0 NL=   3 NS=   2.
 IA=     7 L=1 SC=0 ISt=    0 NBk=    0 NP=    0 IndPr=    0.
 IA=     8 ShT= 0 ShC= 0 NL=   3 NS=   2.
 IA=     8 L=0 SC=0 ISt=    0 NBk=    0 NP=    0 IndPr=    0.
 IA=     9 ShT= 0 ShC= 0 NL=   3 NS=   2.
 IA=     9 L=0 SC=0 ISt=    0 NBk=    0 NP=    0 IndPr=    0.
 IA=    10 ShT= 0 ShC= 0 NL=   1 NS=   0.
 IA=    10 L=0 SC=0 ISt=    0 NBk=    0 NP=    0 IndPr=    0.
 IA=    10 ShT= 1 ShC= 0 NL=   3 NS=   2.
 IA=    10 L=1 SC=0 ISt=    0 NBk=    0 NP=    0 IndPr=    0.
 IA=    11 ShT= 0 ShC= 0 NL=   3 NS=   2.
 IA=    11 L=0 SC=0 ISt=    0 NBk=    0 NP=    0 IndPr=    0.
 IA=    12 ShT= 0 ShC= 0 NL=   3 NS=   2.
 IA=    12 L=0 SC=0 ISt=    0 NBk=    0 NP=    0 IndPr=    0.
 LdAtmC:  AtmChg=     6.000000     1.000000     1.000000     6.000000     1.000000
 LdAtmC:  AtmChg=     1.000000     6.000000     1.000000     1.000000     6.000000
 LdAtmC:  AtmChg=     1.000000     1.000000
 AtZEff=     -3.6000000     -1.0000000     -1.0000000     -3.6000000     -1.0000000
 AtZEff=     -1.0000000     -3.6000000     -1.0000000     -1.0000000     -3.6000000
 AtZEff=     -1.0000000     -1.0000000
    76 basis functions,   144 primitive gaussians,    76 cartesian basis functions
    16 alpha electrons       16 beta electrons
       nuclear repulsion energy      8047.4028084311 Hartrees.
 IS=     1 IAt=     1 ISR=     1 T=0 IP=      1 IndIP=      1 IndIPD=      0 C=  7.782018D-01  0.000000D+00                             NZ=T
 IS=     1 IAt=     1 ISR=     1 T=0 IP=      2 IndIP=      2 IndIPD=      1 C=  1.448695D+00  0.000000D+00                             NZ=T
 IS=     1 IAt=     1 ISR=     1 T=0 IP=      3 IndIP=      3 IndIPD=      2 C=  2.383089D+00  0.000000D+00                             NZ=T
 IS=     1 IAt=     1 ISR=     1 T=0 IP=      4 IndIP=      4 IndIPD=      3 C=  3.200089D+00  0.000000D+00                             NZ=T
 IS=     1 IAt=     1 ISR=     1 T=0 IP=      5 IndIP=      5 IndIPD=      4 C=  3.013004D+00  0.000000D+00                             NZ=T
 IS=     1 IAt=     1 ISR=     1 T=0 IP=      6 IndIP=      6 IndIPD=      5 C=  2.475986D-01  0.000000D+00                             NZ=T
 IS=     2 IAt=     1 ISR=     2 T=1 IP=      1 IndIP=      7 IndIPD=      0 C=  8.006285D-01  2.573592D+00                             NZ=T
 IS=     2 IAt=     1 ISR=     2 T=1 IP=      2 IndIP=      8 IndIPD=      1 C=  2.127420D+00  2.408248D+00                             NZ=T
 IS=     2 IAt=     1 ISR=     2 T=1 IP=      3 IndIP=      9 IndIPD=      2 C= -2.867911D-03  1.865281D+00                             NZ=T
 IS=     3 IAt=     1 ISR=     3 T=1 IP=      1 IndIP=     10 IndIPD=      0 C=  4.132166D-01  5.746273D-01                             NZ=T
 IS=     4 IAt=     1 ISR=     4 T=1 IP=      1 IndIP=     11 IndIPD=      0 C=  1.679761D-01  1.281846D-01                             NZ=T
 IS=     5 IAt=     2 ISR=     1 T=0 IP=      1 IndIP=     12 IndIPD=      0 C=  2.550693D-01  0.000000D+00                             NZ=T
 IS=     5 IAt=     2 ISR=     1 T=0 IP=      2 IndIP=     13 IndIPD=      1 C=  4.601087D-01  0.000000D+00                             NZ=T
 IS=     5 IAt=     2 ISR=     1 T=0 IP=      3 IndIP=     14 IndIPD=      2 C=  6.783214D-01  0.000000D+00                             NZ=T
 IS=     6 IAt=     2 ISR=     2 T=0 IP=      1 IndIP=     15 IndIPD=      0 C=  3.073714D-01  0.000000D+00                             NZ=T
 IS=     7 IAt=     2 ISR=     3 T=0 IP=      1 IndIP=     16 IndIPD=      0 C=  1.293356D-01  0.000000D+00                             NZ=T
 IS=     8 IAt=     3 ISR=     1 T=0 IP=      1 IndIP=     17 IndIPD=      0 C=  2.550693D-01  0.000000D+00                             NZ=T
 IS=     8 IAt=     3 ISR=     1 T=0 IP=      2 IndIP=     18 IndIPD=      1 C=  4.601087D-01  0.000000D+00                             NZ=T
 IS=     8 IAt=     3 ISR=     1 T=0 IP=      3 IndIP=     19 IndIPD=      2 C=  6.783214D-01  0.000000D+00                             NZ=T
 IS=     9 IAt=     3 ISR=     2 T=0 IP=      1 IndIP=     20 IndIPD=      0 C=  3.073714D-01  0.000000D+00                             NZ=T
 IS=    10 IAt=     3 ISR=     3 T=0 IP=      1 IndIP=     21 IndIPD=      0 C=  1.293356D-01  0.000000D+00                             NZ=T
 IS=    11 IAt=     4 ISR=     1 T=0 IP=      1 IndIP=     22 IndIPD=      0 C=  7.782018D-01  0.000000D+00                             NZ=T
 IS=    11 IAt=     4 ISR=     1 T=0 IP=      2 IndIP=     23 IndIPD=      1 C=  1.448695D+00  0.000000D+00                             NZ=T
 IS=    11 IAt=     4 ISR=     1 T=0 IP=      3 IndIP=     24 IndIPD=      2 C=  2.383089D+00  0.000000D+00                             NZ=T
 IS=    11 IAt=     4 ISR=     1 T=0 IP=      4 IndIP=     25 IndIPD=      3 C=  3.200089D+00  0.000000D+00                             NZ=T
 IS=    11 IAt=     4 ISR=     1 T=0 IP=      5 IndIP=     26 IndIPD=      4 C=  3.013004D+00  0.000000D+00                             NZ=T
 IS=    11 IAt=     4 ISR=     1 T=0 IP=      6 IndIP=     27 IndIPD=      5 C=  2.475986D-01  0.000000D+00                             NZ=T
 IS=    12 IAt=     4 ISR=     2 T=1 IP=      1 IndIP=     28 IndIPD=      0 C=  8.006285D-01  2.573592D+00                             NZ=T
 IS=    12 IAt=     4 ISR=     2 T=1 IP=      2 IndIP=     29 IndIPD=      1 C=  2.127420D+00  2.408248D+00                             NZ=T
 IS=    12 IAt=     4 ISR=     2 T=1 IP=      3 IndIP=     30 IndIPD=      2 C= -2.867911D-03  1.865281D+00                             NZ=T
 IS=    13 IAt=     4 ISR=     3 T=1 IP=      1 IndIP=     31 IndIPD=      0 C=  4.132166D-01  5.746273D-01                             NZ=T
 IS=    14 IAt=     4 ISR=     4 T=1 IP=      1 IndIP=     32 IndIPD=      0 C=  1.679761D-01  1.281846D-01                             NZ=T
 IS=    15 IAt=     5 ISR=     1 T=0 IP=      1 IndIP=     33 IndIPD=      0 C=  2.550693D-01  0.000000D+00                             NZ=T
 IS=    15 IAt=     5 ISR=     1 T=0 IP=      2 IndIP=     34 IndIPD=      1 C=  4.601087D-01  0.000000D+00                             NZ=T
 IS=    15 IAt=     5 ISR=     1 T=0 IP=      3 IndIP=     35 IndIPD=      2 C=  6.783214D-01  0.000000D+00                             NZ=T
 IS=    16 IAt=     5 ISR=     2 T=0 IP=      1 IndIP=     36 IndIPD=      0 C=  3.073714D-01  0.000000D+00                             NZ=T
 IS=    17 IAt=     5 ISR=     3 T=0 IP=      1 IndIP=     37 IndIPD=      0 C=  1.293356D-01  0.000000D+00                             NZ=T
 IS=    18 IAt=     6 ISR=     1 T=0 IP=      1 IndIP=     38 IndIPD=      0 C=  2.550693D-01  0.000000D+00                             NZ=T
 IS=    18 IAt=     6 ISR=     1 T=0 IP=      2 IndIP=     39 IndIPD=      1 C=  4.601087D-01  0.000000D+00                             NZ=T
 IS=    18 IAt=     6 ISR=     1 T=0 IP=      3 IndIP=     40 IndIPD=      2 C=  6.783214D-01  0.000000D+00                             NZ=T
 IS=    19 IAt=     6 ISR=     2 T=0 IP=      1 IndIP=     41 IndIPD=      0 C=  3.073714D-01  0.000000D+00                             NZ=T
 IS=    20 IAt=     6 ISR=     3 T=0 IP=      1 IndIP=     42 IndIPD=      0 C=  1.293356D-01  0.000000D+00                             NZ=T
 IS=    21 IAt=     7 ISR=     1 T=0 IP=      1 IndIP=     43 IndIPD=      0 C=  7.782018D-01  0.000000D+00                             NZ=T
 IS=    21 IAt=     7 ISR=     1 T=0 IP=      2 IndIP=     44 IndIPD=      1 C=  1.448695D+00  0.000000D+00                             NZ=T
 IS=    21 IAt=     7 ISR=     1 T=0 IP=      3 IndIP=     45 IndIPD=      2 C=  2.383089D+00  0.000000D+00                             NZ=T
 IS=    21 IAt=     7 ISR=     1 T=0 IP=      4 IndIP=     46 IndIPD=      3 C=  3.200089D+00  0.000000D+00                             NZ=T
 IS=    21 IAt=     7 ISR=     1 T=0 IP=      5 IndIP=     47 IndIPD=      4 C=  3.013004D+00  0.000000D+00                             NZ=T
 IS=    21 IAt=     7 ISR=     1 T=0 IP=      6 IndIP=     48 IndIPD=      5 C=  2.475986D-01  0.000000D+00                             NZ=T
 IS=    22 IAt=     7 ISR=     2 T=1 IP=      1 IndIP=     49 IndIPD=      0 C=  8.006285D-01  2.573592D+00                             NZ=T
 IS=    22 IAt=     7 ISR=     2 T=1 IP=      2 IndIP=     50 IndIPD=      1 C=  2.127420D+00  2.408248D+00                             NZ=T
 IS=    22 IAt=     7 ISR=     2 T=1 IP=      3 IndIP=     51 IndIPD=      2 C= -2.867911D-03  1.865281D+00                             NZ=T
 IS=    23 IAt=     7 ISR=     3 T=1 IP=      1 IndIP=     52 IndIPD=      0 C=  4.132166D-01  5.746273D-01                             NZ=T
 IS=    24 IAt=     7 ISR=     4 T=1 IP=      1 IndIP=     53 IndIPD=      0 C=  1.679761D-01  1.281846D-01                             NZ=T
 IS=    25 IAt=     8 ISR=     1 T=0 IP=      1 IndIP=     54 IndIPD=      0 C=  2.550693D-01  0.000000D+00                             NZ=T
 IS=    25 IAt=     8 ISR=     1 T=0 IP=      2 IndIP=     55 IndIPD=      1 C=  4.601087D-01  0.000000D+00                             NZ=T
 IS=    25 IAt=     8 ISR=     1 T=0 IP=      3 IndIP=     56 IndIPD=      2 C=  6.783214D-01  0.000000D+00                             NZ=T
 IS=    26 IAt=     8 ISR=     2 T=0 IP=      1 IndIP=     57 IndIPD=      0 C=  3.073714D-01  0.000000D+00                             NZ=T
 IS=    27 IAt=     8 ISR=     3 T=0 IP=      1 IndIP=     58 IndIPD=      0 C=  1.293356D-01  0.000000D+00                             NZ=T
 IS=    28 IAt=     9 ISR=     1 T=0 IP=      1 IndIP=     59 IndIPD=      0 C=  2.550693D-01  0.000000D+00                             NZ=T
 IS=    28 IAt=     9 ISR=     1 T=0 IP=      2 IndIP=     60 IndIPD=      1 C=  4.601087D-01  0.000000D+00                             NZ=T
 IS=    28 IAt=     9 ISR=     1 T=0 IP=      3 IndIP=     61 IndIPD=      2 C=  6.783214D-01  0.000000D+00                             NZ=T
 IS=    29 IAt=     9 ISR=     2 T=0 IP=      1 IndIP=     62 IndIPD=      0 C=  3.073714D-01  0.000000D+00                             NZ=T
 IS=    30 IAt=     9 ISR=     3 T=0 IP=      1 IndIP=     63 IndIPD=      0 C=  1.293356D-01  0.000000D+00                             NZ=T
 IS=    31 IAt=    10 ISR=     1 T=0 IP=      1 IndIP=     64 IndIPD=      0 C=  7.782018D-01  0.000000D+00                             NZ=T
 IS=    31 IAt=    10 ISR=     1 T=0 IP=      2 IndIP=     65 IndIPD=      1 C=  1.448695D+00  0.000000D+00                             NZ=T
 IS=    31 IAt=    10 ISR=     1 T=0 IP=      3 IndIP=     66 IndIPD=      2 C=  2.383089D+00  0.000000D+00                             NZ=T
 IS=    31 IAt=    10 ISR=     1 T=0 IP=      4 IndIP=     67 IndIPD=      3 C=  3.200089D+00  0.000000D+00                             NZ=T
 IS=    31 IAt=    10 ISR=     1 T=0 IP=      5 IndIP=     68 IndIPD=      4 C=  3.013004D+00  0.000000D+00                             NZ=T
 IS=    31 IAt=    10 ISR=     1 T=0 IP=      6 IndIP=     69 IndIPD=      5 C=  2.475986D-01  0.000000D+00                             NZ=T
 IS=    32 IAt=    10 ISR=     2 T=1 IP=      1 IndIP=     70 IndIPD=      0 C=  8.006285D-01  2.573592D+00                             NZ=T
 IS=    32 IAt=    10 ISR=     2 T=1 IP=      2 IndIP=     71 IndIPD=      1 C=  2.127420D+00  2.408248D+00                             NZ=T
 IS=    32 IAt=    10 ISR=     2 T=1 IP=      3 IndIP=     72 IndIPD=      2 C= -2.867911D-03  1.865281D+00                             NZ=T
 IS=    33 IAt=    10 ISR=     3 T=1 IP=      1 IndIP=     73 IndIPD=      0 C=  4.132166D-01  5.746273D-01                             NZ=T
 IS=    34 IAt=    10 ISR=     4 T=1 IP=      1 IndIP=     74 IndIPD=      0 C=  1.679761D-01  1.281846D-01                             NZ=T
 IS=    35 IAt=    11 ISR=     1 T=0 IP=      1 IndIP=     75 IndIPD=      0 C=  2.550693D-01  0.000000D+00                             NZ=T
 IS=    35 IAt=    11 ISR=     1 T=0 IP=      2 IndIP=     76 IndIPD=      1 C=  4.601087D-01  0.000000D+00                             NZ=T
 IS=    35 IAt=    11 ISR=     1 T=0 IP=      3 IndIP=     77 IndIPD=      2 C=  6.783214D-01  0.000000D+00                             NZ=T
 IS=    36 IAt=    11 ISR=     2 T=0 IP=      1 IndIP=     78 IndIPD=      0 C=  3.073714D-01  0.000000D+00                             NZ=T
 IS=    37 IAt=    11 ISR=     3 T=0 IP=      1 IndIP=     79 IndIPD=      0 C=  1.293356D-01  0.000000D+00                             NZ=T
 IS=    38 IAt=    12 ISR=     1 T=0 IP=      1 IndIP=     80 IndIPD=      0 C=  2.550693D-01  0.000000D+00                             NZ=T
 IS=    38 IAt=    12 ISR=     1 T=0 IP=      2 IndIP=     81 IndIPD=      1 C=  4.601087D-01  0.000000D+00                             NZ=T
 IS=    38 IAt=    12 ISR=     1 T=0 IP=      3 IndIP=     82 IndIPD=      2 C=  6.783214D-01  0.000000D+00                             NZ=T
 IS=    39 IAt=    12 ISR=     2 T=0 IP=      1 IndIP=     83 IndIPD=      0 C=  3.073714D-01  0.000000D+00                             NZ=T
 IS=    40 IAt=    12 ISR=     3 T=0 IP=      1 IndIP=     84 IndIPD=      0 C=  1.293356D-01  0.000000D+00                             NZ=T
 IExCor= 4639 DFT=T Ex+Corr=wB97XD ExCW=0 ScaHFX=  1.000000
 ScaDFX=  1.000000  1.000000  1.000000  1.000000 ScalE2=  1.000000  1.000000
 IRadAn=      5 IRanWt=     -1 IRanGd=            0 ICorTp=0 IEmpDi=121
 HFx  wShort=  0.000000 wLong=  0.200000 cFull=  0.222036 cShort=  0.000000 cLong=  0.777964
 DFx  wShort=  0.000000 wLong=  0.200000 cFull=  0.000000 cShort=  0.000000 cLong=  1.000000
 NAtoms=   12 NActive=   12 NUniq=   12 SFac= 1.00D+00 NAtFMM=   60 NAOKFM=F Big=F
 Integral buffers will be    131072 words long.
 Raffenetti 2 integral format.
 Two-electron integral symmetry is turned off.
 Nuclear repulsion after empirical dispersion term =     8047.3991145038 Hartrees.
 NPDir=0 NMtPBC=     1 NCelOv=     1 NCel=       1 NClECP=     1 NCelD=      1
         NCelK=      1 NCelE2=     1 NClLst=     1 CellRange=     0.0.
 One-electron integrals computed using PRISM.
 Entering OneElI...
 Calculate overlap and kinetic energy integrals
    NBasis =  76  MinDer = 0  MaxDer = 0
 Requested accuracy = 0.1000D-12
 PrmmSu-InSpLW:  IPartL=    0 NPrtUS=    1 NPrtUL=    1 DoSpLW=F IThBeg=    0 IThEnd=    0 NThAct=    1.
 PrSmSu:  IncTry=   512 NBBP=            820 NTPThr=   100 NPartT=    1 Incr=           8 LDynOK=F GPUOK=F.
 PrsmSu:  NPrtUS=   1 ThrOK=F IAlg=2 LenDen=           0 ISkipM=0 DoSpLW=F IThBeg=    0 IThEnd=    0.
 Prism:   IPart=     0 DynPar=F LinDyn=F Incr=           8.
 PRISM was handed   671017035 working-precision words and   820 shell-pairs
 IPart=  0 NShTot=         820 NBatch=          19 AvBLen=        43.2
 PrSmSu:  NxtVal=              9.
 *** Overlap *** 
                1             2             3             4             5 
      1  0.100000D+01
      2  0.878444D+00  0.100000D+01
      3  0.000000D+00  0.000000D+00  0.100000D+01
      4  0.000000D+00  0.000000D+00  0.000000D+00  0.100000D+01
      5  0.000000D+00  0.000000D+00  0.000000D+00  0.000000D+00  0.100000D+01
      6  0.329179D+00  0.418800D+00  0.000000D+00  0.000000D+00  0.000000D+00
      7  0.000000D+00  0.000000D+00  0.629120D+00  0.000000D+00  0.000000D+00
      8  0.000000D+00  0.000000D+00  0.000000D+00  0.629120D+00  0.000000D+00
      9  0.000000D+00  0.000000D+00  0.000000D+00  0.000000D+00  0.629120D+00
     10  0.153761D+00  0.187145D+00  0.000000D+00  0.000000D+00  0.000000D+00
     11  0.000000D+00  0.000000D+00  0.220230D+00  0.000000D+00  0.000000D+00
     12  0.000000D+00  0.000000D+00  0.000000D+00  0.220230D+00  0.000000D+00
     13  0.000000D+00  0.000000D+00  0.000000D+00  0.000000D+00  0.220230D+00
     14  0.112963D-01  0.101390D-01  0.300980D-01 -0.983726D-01 -0.121094D-01
     15  0.730308D-01  0.874588D-01  0.506463D-01 -0.165533D+00 -0.203767D-01
     16  0.788299D-01  0.946997D-01  0.193873D-01 -0.633657D-01 -0.780015D-02
     17  0.795943D-02  0.668311D-02 -0.774554D-01  0.166602D-01 -0.156978D-01
     18  0.641014D-01  0.763918D-01 -0.155853D+00  0.335230D-01 -0.315864D-01
     19  0.754417D-01  0.905772D-01 -0.644002D-01  0.138521D-01 -0.130519D-01
     20  0.961476D-04  0.172445D-04  0.187264D-02  0.183703D-02  0.109158D-03
     21  0.172445D-04 -0.193064D-05  0.920081D-03  0.902583D-03  0.536325D-04
     22 -0.187264D-02 -0.920081D-03 -0.191915D-01 -0.233571D-01 -0.138790D-02
     23 -0.183703D-02 -0.902583D-03 -0.233571D-01 -0.182944D-01 -0.136151D-02
     24 -0.109158D-03 -0.536325D-04 -0.138790D-02 -0.136151D-02  0.453753D-02
     25  0.185916D-01  0.204122D-01  0.651589D-01  0.639197D-01  0.379818D-02
     26 -0.412782D-01 -0.483508D-01 -0.784629D-01 -0.126222D+00 -0.750027D-02
     27 -0.404931D-01 -0.474313D-01 -0.126222D+00 -0.736153D-01 -0.735763D-02
     28 -0.240615D-02 -0.281842D-02 -0.750027D-02 -0.735763D-02  0.497693D-01
     29  0.593400D-01  0.710100D-01  0.630702D-01  0.618707D-01  0.367643D-02
     30 -0.806717D-01 -0.983079D-01  0.648529D-02 -0.805123D-01 -0.478413D-02
     31 -0.791375D-01 -0.964382D-01 -0.805123D-01  0.957740D-02 -0.469314D-02
     32 -0.470244D-02 -0.573047D-02 -0.478413D-02 -0.469314D-02  0.882796D-01
     33  0.323022D-05  0.000000D+00  0.385434D-04  0.129861D-03 -0.154966D-04
     34  0.280527D-02  0.289534D-02  0.468615D-02  0.157886D-01 -0.188410D-02
     35  0.260764D-01  0.308642D-01  0.122384D-01  0.412337D-01 -0.492052D-02
     36  0.134422D-05  0.000000D+00  0.608625D-04  0.185234D-04 -0.515659D-05
     37  0.196112D-02  0.198466D-02  0.117986D-01  0.359087D-02 -0.999636D-03
     38  0.230694D-01  0.272589D-01  0.380951D-01  0.115941D-01 -0.322761D-02
     39  0.998950D+00  0.878047D+00 -0.767795D-02 -0.143294D-01  0.530677D-02
     40  0.878047D+00  0.999688D+00 -0.845262D-02 -0.157751D-01  0.584220D-02
     41  0.767795D-02  0.845262D-02  0.999843D+00 -0.841542D-04  0.311658D-04
     42  0.143294D-01  0.157751D-01 -0.841542D-04  0.999731D+00  0.581648D-04
     43 -0.530677D-02 -0.584220D-02  0.311658D-04  0.581648D-04  0.999867D+00
     44  0.329163D+00  0.418778D+00 -0.209948D-02 -0.391826D-02  0.145110D-02
     45  0.193552D-02  0.255066D-02  0.629083D+00 -0.200552D-04  0.742730D-05
     46  0.361226D-02  0.476031D-02 -0.200552D-04  0.629056D+00  0.138616D-04
     47 -0.133777D-02 -0.176294D-02  0.742730D-05  0.138616D-04  0.629088D+00
     48  0.153759D+00  0.187142D+00 -0.403316D-03 -0.752710D-03  0.278760D-03
     49  0.538092D-03  0.666222D-03  0.220226D+00 -0.251946D-05  0.000000D+00
     50  0.100424D-02  0.124337D-02 -0.251946D-05  0.220222D+00  0.174138D-05
     51 -0.371913D-03 -0.460473D-03  0.000000D+00  0.174138D-05  0.220226D+00
     52  0.115014D-01  0.103568D-01  0.312333D-01 -0.994822D-01 -0.114711D-01
     53  0.735183D-01  0.880644D-01  0.520766D-01 -0.165871D+00 -0.191263D-01
     54  0.790067D-01  0.949150D-01  0.198573D-01 -0.632480D-01 -0.729302D-02
     55  0.793701D-02  0.666056D-02 -0.767058D-01  0.179572D-01 -0.170487D-01
     56  0.640337D-01  0.763080D-01 -0.154567D+00  0.361849D-01 -0.343542D-01
     57  0.754148D-01  0.905445D-01 -0.639086D-01  0.149613D-01 -0.142044D-01
     58  0.926910D-04  0.163207D-04  0.181418D-02  0.178402D-02  0.106260D-03
     59  0.163207D-04 -0.184943D-05  0.881330D-03  0.866681D-03  0.516215D-04
     60 -0.181418D-02 -0.881330D-03 -0.187141D-01 -0.228148D-01 -0.135890D-02
     61 -0.178402D-02 -0.866681D-03 -0.228148D-01 -0.179493D-01 -0.133631D-02
     62 -0.106260D-03 -0.516215D-04 -0.135890D-02 -0.133631D-02  0.440669D-02
     63  0.182924D-01  0.200619D-01  0.643314D-01  0.632621D-01  0.376804D-02
     64 -0.406743D-01 -0.475996D-01 -0.777538D-01 -0.125126D+00 -0.745279D-02
     65 -0.399983D-01 -0.468084D-01 -0.125126D+00 -0.735592D-01 -0.732891D-02
     66 -0.238239D-02 -0.278802D-02 -0.745279D-02 -0.732891D-02  0.490505D-01
     67  0.590173D-01  0.706168D-01  0.628456D-01  0.618010D-01  0.368101D-02
     68 -0.803652D-01 -0.979252D-01  0.618144D-02 -0.805545D-01 -0.479801D-02
     69 -0.790295D-01 -0.962976D-01 -0.805545D-01  0.888185D-02 -0.471826D-02
     70 -0.470718D-02 -0.573570D-02 -0.479801D-02 -0.471826D-02  0.878164D-01
     71  0.316249D-05  0.000000D+00  0.380175D-04  0.127542D-03 -0.144614D-04
     72  0.278109D-02  0.286905D-02  0.467462D-02  0.156824D-01 -0.177817D-02
     73  0.259994D-01  0.307717D-01  0.122710D-01  0.411669D-01 -0.466776D-02
     74  0.143640D-05  0.000000D+00  0.644981D-04  0.193667D-04 -0.597721D-05
     75  0.201494D-02  0.204221D-02  0.120696D-01  0.362411D-02 -0.111852D-02
     76  0.232843D-01  0.275164D-01  0.383497D-01  0.115152D-01 -0.355397D-02
                6             7             8             9            10 
      6  0.100000D+01
      7  0.000000D+00  0.100000D+01
      8  0.000000D+00  0.000000D+00  0.100000D+01
      9  0.000000D+00  0.000000D+00  0.000000D+00  0.100000D+01
     10  0.774697D+00  0.000000D+00  0.000000D+00  0.000000D+00  0.100000D+01
     11  0.000000D+00  0.653461D+00  0.000000D+00  0.000000D+00  0.000000D+00
     12  0.000000D+00  0.000000D+00  0.653461D+00  0.000000D+00  0.000000D+00
     13  0.000000D+00  0.000000D+00  0.000000D+00  0.653461D+00  0.000000D+00
     14  0.183951D+00  0.110848D+00 -0.362296D+00 -0.445977D-01  0.264644D+00
     15  0.421260D+00  0.141986D+00 -0.464070D+00 -0.571258D-01  0.576682D+00
     16  0.460892D+00  0.676238D-01 -0.221022D+00 -0.272073D-01  0.754872D+00
     17  0.157732D+00 -0.329193D+00  0.708075D-01 -0.667170D-01  0.249835D+00
     18  0.386529D+00 -0.451582D+00  0.971326D-01 -0.915214D-01  0.551593D+00
     19  0.443948D+00 -0.225782D+00  0.485645D-01 -0.457590D-01  0.735038D+00
     20  0.185916D-01  0.412782D-01  0.404931D-01  0.240615D-02  0.593400D-01
     21  0.204122D-01  0.483508D-01  0.474313D-01  0.281842D-02  0.710100D-01
     22 -0.651589D-01 -0.784629D-01 -0.126222D+00 -0.750027D-02 -0.630702D-01
     23 -0.639197D-01 -0.126222D+00 -0.736153D-01 -0.735763D-02 -0.618707D-01
     24 -0.379818D-02 -0.750027D-02 -0.735763D-02  0.497693D-01 -0.367643D-02
     25  0.191003D+00  0.247887D+00  0.243173D+00  0.144496D-01  0.360031D+00
     26 -0.247887D+00 -0.130710D+00 -0.315594D+00 -0.187530D-01 -0.216283D+00
     27 -0.243173D+00 -0.315594D+00 -0.118589D+00 -0.183963D-01 -0.212169D+00
     28 -0.144496D-01 -0.187530D-01 -0.183963D-01  0.189910D+00 -0.126073D-01
     29  0.360031D+00  0.216283D+00  0.212169D+00  0.126073D-01  0.607431D+00
     30 -0.394132D+00  0.669198D-01 -0.232265D+00 -0.138015D-01 -0.432604D+00
     31 -0.386637D+00 -0.232265D+00  0.758401D-01 -0.135390D-01 -0.424377D+00
     32 -0.229744D-01 -0.138015D-01 -0.135390D-01  0.302884D+00 -0.252169D-01
     33  0.393360D-02  0.431482D-02  0.145375D-01 -0.173480D-02  0.620854D-01
     34  0.482297D-01  0.299827D-01  0.101018D+00 -0.120547D-01  0.188087D+00
     35  0.179418D+00  0.485540D-01  0.163588D+00 -0.195214D-01  0.386022D+00
     36  0.257547D-02  0.989512D-02  0.301156D-02 -0.838367D-03  0.528759D-01
     37  0.379341D-01  0.826642D-01  0.251586D-01 -0.700374D-02  0.166130D+00
     38  0.161610D+00  0.153306D+00  0.466584D-01 -0.129889D-01  0.358378D+00
     39  0.329163D+00 -0.193552D-02 -0.361226D-02  0.133777D-02  0.153759D+00
     40  0.418778D+00 -0.255066D-02 -0.476031D-02  0.176294D-02  0.187142D+00
     41  0.209948D-02  0.629083D+00 -0.200552D-04  0.742730D-05  0.403316D-03
     42  0.391826D-02 -0.200552D-04  0.629056D+00  0.138616D-04  0.752710D-03
     43 -0.145110D-02  0.742730D-05  0.138616D-04  0.629088D+00 -0.278760D-03
     44  0.999972D+00 -0.333721D-02 -0.622824D-02  0.230658D-02  0.774687D+00
     45  0.333721D-02  0.999961D+00 -0.207855D-04  0.769776D-05  0.119671D-02
     46  0.622824D-02 -0.207855D-04  0.999934D+00  0.143663D-04  0.223343D-02
     47 -0.230658D-02  0.769776D-05  0.143663D-04  0.999967D+00 -0.827131D-03
     48  0.774687D+00 -0.119671D-02 -0.223343D-02  0.827131D-03  0.999992D+00
     49  0.218077D-02  0.653449D+00 -0.628717D-05  0.232840D-05  0.183135D-02
     50  0.406997D-02 -0.628717D-05  0.653441D+00  0.434550D-05  0.341786D-02
     51 -0.150728D-02  0.232840D-05  0.434550D-05  0.653451D+00 -0.126578D-02
     52  0.185399D+00  0.114186D+00 -0.363696D+00 -0.419372D-01  0.265422D+00
     53  0.423112D+00  0.145751D+00 -0.464236D+00 -0.535303D-01  0.577992D+00
     54  0.461773D+00  0.692449D-01 -0.220554D+00 -0.254317D-01  0.755897D+00
     55  0.157536D+00 -0.326384D+00  0.764081D-01 -0.725422D-01  0.249718D+00
     56  0.386259D+00 -0.447977D+00  0.104874D+00 -0.995676D-01  0.551394D+00
     57  0.443813D+00 -0.224068D+00  0.524555D-01 -0.498015D-01  0.734879D+00
     58  0.182924D-01  0.406743D-01  0.399983D-01  0.238239D-02  0.590173D-01
     59  0.200619D-01  0.475996D-01  0.468084D-01  0.278802D-02  0.706168D-01
     60 -0.643314D-01 -0.777538D-01 -0.125126D+00 -0.745279D-02 -0.628456D-01
     61 -0.632621D-01 -0.125126D+00 -0.735592D-01 -0.732891D-02 -0.618010D-01
     62 -0.376804D-02 -0.745279D-02 -0.732891D-02  0.490505D-01 -0.368101D-02
     63  0.189200D+00  0.245953D+00  0.241865D+00  0.144060D-01  0.358454D+00
     64 -0.245953D+00 -0.130530D+00 -0.314416D+00 -0.187273D-01 -0.215691D+00
     65 -0.241865D+00 -0.314416D+00 -0.119990D+00 -0.184161D-01 -0.212106D+00
     66 -0.144060D-01 -0.187273D-01 -0.184161D-01  0.188103D+00 -0.126335D-01
     67  0.358454D+00  0.215691D+00  0.212106D+00  0.126335D-01  0.605698D+00
     68 -0.393054D+00  0.658464D-01 -0.232580D+00 -0.138530D-01 -0.432083D+00
     69 -0.386521D+00 -0.232580D+00  0.736432D-01 -0.136228D-01 -0.424902D+00
     70 -0.230221D-01 -0.138530D-01 -0.136228D-01  0.301546D+00 -0.253081D-01
     71  0.389354D-02  0.429449D-02  0.144072D-01 -0.163357D-02  0.618450D-01
     72  0.479507D-01  0.299746D-01  0.100559D+00 -0.114020D-01  0.187523D+00
     73  0.178965D+00  0.487002D-01  0.163380D+00 -0.185250D-01  0.385330D+00
     74  0.265933D-02  0.101941D-01  0.306097D-02 -0.944718D-03  0.535223D-01
     75  0.386298D-01  0.839844D-01  0.252178D-01 -0.778306D-02  0.167698D+00
     76  0.162894D+00  0.154164D+00  0.462906D-01 -0.142868D-01  0.360399D+00
               11            12            13            14            15 
     11  0.100000D+01
     12  0.000000D+00  0.100000D+01
     13  0.000000D+00  0.000000D+00  0.100000D+01
     14  0.108789D+00 -0.355568D+00 -0.437695D-01  0.100000D+01
     15  0.183108D+00 -0.598473D+00 -0.736705D-01  0.706377D+00  0.100000D+01
     16  0.143475D+00 -0.468933D+00 -0.577245D-01  0.373664D+00  0.788963D+00
     17 -0.355975D+00  0.765681D-01 -0.721449D-01  0.367915D-03  0.240924D-01
     18 -0.607083D+00  0.130580D+00 -0.123037D+00  0.240924D-01  0.118326D+00
     19 -0.484249D+00  0.104159D+00 -0.981420D-01  0.107856D+00  0.283562D+00
     20  0.806717D-01  0.791375D-01  0.470244D-02  0.192936D-05  0.227286D-02
     21  0.983079D-01  0.964382D-01  0.573047D-02  0.000000D+00  0.231905D-02
     22  0.648529D-02 -0.805123D-01 -0.478413D-02 -0.274712D-04 -0.439368D-02
     23 -0.805123D-01  0.957740D-02 -0.469314D-02 -0.825218D-04 -0.131983D-01
     24 -0.478413D-02 -0.469314D-02  0.882796D-01 -0.762531D-05 -0.121957D-02
     25  0.394132D+00  0.386637D+00  0.229744D-01  0.306672D-02  0.418819D-01
     26  0.669198D-01 -0.232265D+00 -0.138015D-01 -0.382934D-02 -0.296527D-01
     27 -0.232265D+00  0.758401D-01 -0.135390D-01 -0.115031D-01 -0.890747D-01
     28 -0.138015D-01 -0.135390D-01  0.302884D+00 -0.106293D-02 -0.823082D-02
     29  0.432604D+00  0.424377D+00  0.252169D-01  0.564946D-01  0.174854D+00
     30  0.299336D+00 -0.302235D+00 -0.179592D-01 -0.487388D-01 -0.116624D+00
     31 -0.302235D+00  0.310943D+00 -0.176176D-01 -0.146408D+00 -0.350330D+00
     32 -0.179592D-01 -0.176176D-01  0.606384D+00 -0.135286D-01 -0.323718D-01
     33  0.470325D-01  0.158462D+00 -0.189097D-01  0.000000D+00  0.152303D-03
     34  0.110151D+00  0.371122D+00 -0.442869D-01  0.152303D-03  0.471069D-02
     35  0.135323D+00  0.455932D+00 -0.544075D-01  0.165262D-01  0.604538D-01
     36  0.140397D+00  0.427296D-01 -0.118952D-01  0.431788D-05  0.337273D-02
     37  0.341043D+00  0.103796D+00 -0.288950D-01  0.337273D-02  0.339271D-01
     38  0.440386D+00  0.134030D+00 -0.373118D-01  0.521298D-01  0.155787D+00
     39 -0.538092D-03 -0.100424D-02  0.371913D-03  0.115493D-01  0.736314D-01
     40 -0.666222D-03 -0.124337D-02  0.460473D-03  0.104078D-01  0.882048D-01
     41  0.220226D+00 -0.251946D-05  0.000000D+00  0.309128D-01  0.514330D-01
     42 -0.251946D-05  0.220222D+00  0.174138D-05 -0.997799D-01 -0.166015D+00
     43  0.000000D+00  0.174138D-05  0.220226D+00 -0.125078D-01 -0.208107D-01
     44 -0.218077D-02 -0.406997D-02  0.150728D-02  0.185736D+00  0.423541D+00
     45  0.653449D+00 -0.628717D-05  0.232840D-05  0.112822D+00  0.143894D+00
     46 -0.628717D-05  0.653441D+00  0.434550D-05 -0.364165D+00 -0.464459D+00
     47  0.232840D-05  0.434550D-05  0.653451D+00 -0.456496D-01 -0.582219D-01
     48 -0.183135D-02 -0.341786D-02  0.126578D-02  0.265602D+00  0.578295D+00
     49  0.999988D+00 -0.625935D-05  0.231810D-05  0.110054D+00  0.185084D+00
     50 -0.625935D-05  0.999980D+00  0.432628D-05 -0.355232D+00 -0.597414D+00
     51  0.231810D-05  0.432628D-05  0.999990D+00 -0.445298D-01 -0.748883D-01
     52  0.111512D+00 -0.355180D+00 -0.409553D-01  0.999615D+00  0.706285D+00
     53  0.187565D+00 -0.597419D+00 -0.688875D-01  0.706285D+00  0.999918D+00
     54  0.146833D+00 -0.467682D+00 -0.539276D-01  0.373646D+00  0.788932D+00
     55 -0.353215D+00  0.826893D-01 -0.785057D-01  0.345324D-03  0.234261D-01
     56 -0.602440D+00  0.141034D+00 -0.133899D+00  0.234261D-01  0.116240D+00
     57 -0.480615D+00  0.112514D+00 -0.106822D+00  0.106745D+00  0.281153D+00
     58  0.803652D-01  0.790295D-01  0.470718D-02  0.184172D-05  0.223012D-02
     59  0.979252D-01  0.962976D-01  0.573570D-02  0.000000D+00  0.227306D-02
     60  0.618144D-02 -0.805545D-01 -0.479801D-02 -0.263980D-04 -0.432779D-02
     61 -0.805545D-01  0.888185D-02 -0.471826D-02 -0.792612D-04 -0.129944D-01
     62 -0.479801D-02 -0.471826D-02  0.878164D-01 -0.732427D-05 -0.120077D-02
     63  0.393054D+00  0.386521D+00  0.230221D-01  0.299861D-02  0.413519D-01
     64  0.658464D-01 -0.232580D+00 -0.138530D-01 -0.375329D-02 -0.293489D-01
     65 -0.232580D+00  0.736432D-01 -0.136228D-01 -0.112694D-01 -0.881215D-01
     66 -0.138530D-01 -0.136228D-01  0.301546D+00 -0.104137D-02 -0.814301D-02
     67  0.432083D+00  0.424902D+00  0.253081D-01  0.560156D-01  0.173706D+00
     68  0.297465D+00 -0.303110D+00 -0.180539D-01 -0.484432D-01 -0.116141D+00
     69 -0.303110D+00  0.307626D+00 -0.177538D-01 -0.145453D+00 -0.348720D+00
     70 -0.180539D-01 -0.177538D-01  0.604641D+00 -0.134408D-01 -0.322240D-01
     71  0.471102D-01  0.158046D+00 -0.179202D-01  0.000000D+00  0.150322D-03
     72  0.110430D+00  0.370473D+00 -0.420065D-01  0.150322D-03  0.467148D-02
     73  0.135830D+00  0.455683D+00 -0.516681D-01  0.164460D-01  0.602120D-01
     74  0.141784D+00  0.425732D-01 -0.131395D-01  0.476551D-05  0.352299D-02
     75  0.343462D+00  0.103130D+00 -0.318295D-01  0.352299D-02  0.348812D-01
     76  0.441839D+00  0.132670D+00 -0.409465D-01  0.529780D-01  0.157872D+00
               16            17            18            19            20 
     16  0.100000D+01
     17  0.107856D+00  0.100000D+01
     18  0.283562D+00  0.706377D+00  0.100000D+01
     19  0.510190D+00  0.373664D+00  0.788963D+00  0.100000D+01
     20  0.242647D-01  0.000000D+00  0.140108D-02  0.205577D-01  0.100000D+01
     21  0.286913D-01  0.000000D+00  0.139113D-02  0.242524D-01  0.878444D+00
     22 -0.129983D-01 -0.291979D-04 -0.877846D-02 -0.346017D-01  0.000000D+00
     23 -0.390462D-01 -0.102089D-04 -0.306934D-02 -0.120983D-01  0.000000D+00
     24 -0.360801D-02 -0.392709D-05 -0.118070D-02 -0.465391D-02  0.000000D+00
     25  0.168727D+00  0.172952D-02  0.302631D-01  0.146473D+00  0.329179D+00
     26 -0.520028D-01 -0.674484D-02 -0.669832D-01 -0.141128D+00  0.000000D+00
     27 -0.156213D+00 -0.235830D-02 -0.234203D-01 -0.493446D-01  0.000000D+00
     28 -0.144346D-01 -0.907175D-03 -0.900919D-02 -0.189816D-01  0.000000D+00
     29  0.369527D+00  0.454628D-01  0.147817D+00  0.334180D+00  0.153761D+00
     30 -0.147533D+00 -0.122599D+00 -0.308214D+00 -0.417097D+00  0.000000D+00
     31 -0.443179D+00 -0.428659D-01 -0.107765D+00 -0.145836D+00  0.000000D+00
     32 -0.409513D-01 -0.164894D-01 -0.414546D-01 -0.560992D-01  0.000000D+00
     33  0.165262D-01  0.364799D-05  0.313063D-02  0.507115D-01  0.936900D-02
     34  0.604538D-01  0.313063D-02  0.323564D-01  0.152286D+00  0.681298D-01
     35  0.184628D+00  0.507115D-01  0.152286D+00  0.338980D+00  0.770069D-01
     36  0.521298D-01  0.000000D+00  0.638254D-04  0.119641D-01  0.809367D-02
     37  0.155787D+00  0.638254D-04  0.270349D-02  0.463234D-01  0.645045D-01
     38  0.344084D+00  0.119641D-01  0.463234D-01  0.154973D+00  0.756012D-01
     39  0.790476D-01  0.801642D-02  0.642731D-01  0.755097D-01  0.917559D-04
     40  0.949647D-01  0.674052D-02  0.766042D-01  0.906599D-01  0.160734D-04
     41  0.195942D-01 -0.777493D-01 -0.155874D+00 -0.643082D-01  0.179914D-02
     42 -0.632460D-01  0.170965D-01  0.342756D-01  0.141409D-01  0.176901D-02
     43 -0.792815D-02 -0.159175D-01 -0.319120D-01 -0.131658D-01  0.101415D-03
     44  0.461977D+00  0.158230D+00  0.387212D+00  0.444289D+00  0.182103D-01
     45  0.683234D-01 -0.329479D+00 -0.451339D+00 -0.225436D+00  0.405272D-01
     46 -0.220534D+00  0.724500D-01  0.992463D-01  0.495718D-01  0.398484D-01
     47 -0.276448D-01 -0.674539D-01 -0.924023D-01 -0.461534D-01  0.228447D-02
     48  0.756134D+00  0.250130D+00  0.552097D+00  0.735440D+00  0.589282D-01
     49  0.144860D+00 -0.355576D+00 -0.606240D+00 -0.483399D+00  0.803173D-01
     50 -0.467579D+00  0.781887D-01  0.133308D+00  0.106296D+00  0.789722D-01
     51 -0.586130D-01 -0.727968D-01 -0.124115D+00 -0.989659D-01  0.452739D-02
     52  0.373646D+00  0.359597D-03  0.238498D-01  0.107454D+00  0.207815D-05
     53  0.788932D+00  0.238498D-01  0.117569D+00  0.282690D+00  0.234286D-02
     54  0.999974D+00  0.107454D+00  0.282690D+00  0.509158D+00  0.245179D-01
     55  0.106745D+00  0.997745D+00  0.705839D+00  0.373560D+00  0.000000D+00
     56  0.281153D+00  0.705839D+00  0.999521D+00  0.788782D+00  0.147487D-02
     57  0.507336D+00  0.373560D+00  0.788782D+00  0.999849D+00  0.209228D-01
     58  0.241075D-01  0.000000D+00  0.138256D-02  0.204640D-01  0.999389D+00
     59  0.285030D-01  0.000000D+00  0.137168D-02  0.241404D-01  0.878213D+00
     60 -0.129483D-01 -0.283653D-04 -0.867767D-02 -0.344758D-01 -0.493759D-02
     61 -0.388777D-01 -0.996387D-05 -0.304821D-02 -0.121103D-01 -0.120148D-01
     62 -0.359256D-02 -0.381719D-05 -0.116778D-02 -0.463950D-02 -0.112913D-02
     63  0.167795D+00  0.170246D-02  0.299935D-01  0.145904D+00  0.329170D+00
     64 -0.518416D-01 -0.664433D-02 -0.664383D-01 -0.140689D+00 -0.124455D-02
     65 -0.155657D+00 -0.233396D-02 -0.233378D-01 -0.494198D-01 -0.302843D-02
     66 -0.143837D-01 -0.894146D-03 -0.894078D-02 -0.189329D-01 -0.284606D-03
     67  0.368074D+00  0.451916D-01  0.147135D+00  0.333255D+00  0.153760D+00
     68 -0.147311D+00 -0.121962D+00 -0.307031D+00 -0.416268D+00 -0.345993D-03
     69 -0.442309D+00 -0.428416D-01 -0.107851D+00 -0.146222D+00 -0.841919D-03
     70 -0.408723D-01 -0.164127D-01 -0.413180D-01 -0.560183D-01 -0.791220D-04
     71  0.164460D-01  0.350363D-05  0.307527D-02  0.503776D-01  0.948124D-02
     72  0.602120D-01  0.307527D-02  0.319912D-01  0.151460D+00  0.684328D-01
     73  0.184142D+00  0.503776D-01  0.151460D+00  0.337769D+00  0.771221D-01
     74  0.529780D-01  0.000000D+00  0.661446D-04  0.121238D-01  0.799810D-02
     75  0.157872D+00  0.661446D-04  0.276583D-02  0.468324D-01  0.642180D-01
     76  0.347106D+00  0.121238D-01  0.468324D-01  0.156091D+00  0.754879D-01
               21            22            23            24            25 
     21  0.100000D+01
     22  0.000000D+00  0.100000D+01
     23  0.000000D+00  0.000000D+00  0.100000D+01
     24  0.000000D+00  0.000000D+00  0.000000D+00  0.100000D+01
     25  0.418800D+00  0.000000D+00  0.000000D+00  0.000000D+00  0.100000D+01
     26  0.000000D+00  0.629120D+00  0.000000D+00  0.000000D+00  0.000000D+00
     27  0.000000D+00  0.000000D+00  0.629120D+00  0.000000D+00  0.000000D+00
     28  0.000000D+00  0.000000D+00  0.000000D+00  0.629120D+00  0.000000D+00
     29  0.187145D+00  0.000000D+00  0.000000D+00  0.000000D+00  0.774697D+00
     30  0.000000D+00  0.220230D+00  0.000000D+00  0.000000D+00  0.000000D+00
     31  0.000000D+00  0.000000D+00  0.220230D+00  0.000000D+00  0.000000D+00
     32  0.000000D+00  0.000000D+00  0.000000D+00  0.220230D+00  0.000000D+00
     33  0.812066D-02 -0.322545D-01  0.814622D-01 -0.236816D-01  0.169484D+00
     34  0.813788D-01 -0.597126D-01  0.150811D+00 -0.438417D-01  0.402391D+00
     35  0.924813D-01 -0.238079D-01  0.601293D-01 -0.174800D-01  0.451789D+00
     36  0.681841D-02  0.762684D-01 -0.243423D-01 -0.165132D-01  0.158902D+00
     37  0.768904D-01  0.152157D+00 -0.485636D-01 -0.329442D-01  0.388131D+00
     38  0.907712D-01  0.626426D-01 -0.199934D-01 -0.135630D-01  0.444748D+00
     39  0.160734D-04 -0.179914D-02 -0.176901D-02 -0.101415D-03  0.182103D-01
     40 -0.182751D-05 -0.871284D-03 -0.856692D-03 -0.491132D-04  0.199659D-01
     41  0.871284D-03 -0.186051D-01 -0.226693D-01 -0.129961D-02  0.641334D-01
     42  0.856692D-03 -0.226693D-01 -0.178393D-01 -0.127784D-02  0.630593D-01
     43  0.491132D-04 -0.129961D-02 -0.127784D-02  0.437709D-02  0.361512D-02
     44  0.199659D-01 -0.641334D-01 -0.630593D-01 -0.361512D-02  0.188703D+00
     45  0.474153D-01 -0.776746D-01 -0.124838D+00 -0.715681D-02  0.245532D+00
     46  0.466212D-01 -0.124838D+00 -0.734576D-01 -0.703695D-02  0.241420D+00
     47  0.267274D-02 -0.715681D-02 -0.703695D-02  0.488861D-01  0.138403D-01
     48  0.705083D-01 -0.628123D-01 -0.617603D-01 -0.354065D-02  0.358018D+00
     49  0.978643D-01  0.602254D-02 -0.805752D-01 -0.461929D-02  0.392936D+00
     50  0.962253D-01 -0.805752D-01  0.874441D-02 -0.454192D-02  0.386356D+00
     51  0.551649D-02 -0.461929D-02 -0.454192D-02  0.877098D-01  0.221493D-01
     52  0.000000D+00 -0.290837D-04 -0.881071D-04 -0.778099D-05  0.317878D-02
     53  0.239446D-02 -0.447127D-02 -0.135454D-01 -0.119623D-02  0.427428D-01
     54  0.289949D-01 -0.129922D-01 -0.393591D-01 -0.347591D-02  0.170229D+00
     55  0.000000D+00 -0.326158D-04 -0.111489D-04 -0.471435D-05  0.183793D-02
     56  0.146872D-02 -0.917038D-02 -0.313468D-02 -0.132550D-02  0.313256D-01
     57  0.246892D-01 -0.350620D-01 -0.119851D-01 -0.506792D-02  0.148690D+00
     58  0.878213D+00  0.493759D-02  0.120148D-01  0.112913D-02  0.329170D+00
     59  0.999819D+00  0.543545D-02  0.132263D-01  0.124298D-02  0.418787D+00
     60 -0.543545D-02  0.999916D+00 -0.453671D-04 -0.426351D-05 -0.134998D-02
     61 -0.132263D-01 -0.453671D-04  0.999825D+00 -0.103746D-04 -0.328495D-02
     62 -0.124298D-02 -0.426351D-05 -0.103746D-04  0.999934D+00 -0.308714D-03
     63  0.418787D+00  0.134998D-02  0.328495D-02  0.308714D-03  0.999984D+00
     64 -0.164010D-02  0.629100D+00 -0.108112D-04 -0.101601D-05 -0.214584D-02
     65 -0.399092D-02 -0.108112D-04  0.629078D+00 -0.247230D-05 -0.522155D-02
     66 -0.375059D-03 -0.101601D-05 -0.247230D-05  0.629104D+00 -0.490711D-03
     67  0.187144D+00  0.259332D-03  0.631043D-03  0.593043D-04  0.774691D+00
     68 -0.428380D-03  0.220228D+00 -0.135815D-05  0.000000D+00 -0.140223D-02
     69 -0.104240D-02 -0.135815D-05  0.220225D+00  0.000000D+00 -0.341211D-02
     70 -0.979623D-04  0.000000D+00  0.000000D+00  0.220228D+00 -0.320663D-03
     71  0.823663D-02 -0.323175D-01  0.824931D-01 -0.229871D-01  0.170373D+00
     72  0.817542D-01 -0.594665D-01  0.151793D+00 -0.422979D-01  0.403571D+00
     73  0.926215D-01 -0.236481D-01  0.603639D-01 -0.168207D-01  0.452365D+00
     74  0.672205D-02  0.751616D-01 -0.247901D-01 -0.174683D-01  0.158071D+00
     75  0.765360D-01  0.150863D+00 -0.497581D-01 -0.350620D-01  0.386993D+00
     76  0.906334D-01  0.622720D-01 -0.205387D-01 -0.144726D-01  0.444180D+00
               26            27            28            29            30 
     26  0.100000D+01
     27  0.000000D+00  0.100000D+01
     28  0.000000D+00  0.000000D+00  0.100000D+01
     29  0.000000D+00  0.000000D+00  0.000000D+00  0.100000D+01
     30  0.653461D+00  0.000000D+00  0.000000D+00  0.000000D+00  0.100000D+01
     31  0.000000D+00  0.653461D+00  0.000000D+00  0.000000D+00  0.000000D+00
     32  0.000000D+00  0.000000D+00  0.653461D+00  0.000000D+00  0.000000D+00
     33 -0.128237D+00  0.323877D+00 -0.941531D-01  0.256651D+00 -0.132528D+00
     34 -0.170371D+00  0.430290D+00 -0.125088D+00  0.563181D+00 -0.224631D+00
     35 -0.832693D-01  0.210306D+00 -0.611373D-01  0.744243D+00 -0.177691D+00
     36  0.321937D+00 -0.102752D+00 -0.697038D-01  0.250527D+00  0.346510D+00
     37  0.440177D+00 -0.140490D+00 -0.953044D-01  0.552774D+00  0.590569D+00
     38  0.219566D+00 -0.700783D-01 -0.475392D-01  0.735980D+00  0.470672D+00
     39 -0.405272D-01 -0.398484D-01 -0.228447D-02  0.589282D-01 -0.803173D-01
     40 -0.474153D-01 -0.466212D-01 -0.267274D-02  0.705083D-01 -0.978643D-01
     41 -0.776746D-01 -0.124838D+00 -0.715681D-02  0.628123D-01  0.602254D-02
     42 -0.124838D+00 -0.734576D-01 -0.703695D-02  0.617603D-01 -0.805752D-01
     43 -0.715681D-02 -0.703695D-02  0.488861D-01  0.354065D-02 -0.461929D-02
     44 -0.245532D+00 -0.241420D+00 -0.138403D-01  0.358018D+00 -0.392936D+00
     45 -0.130773D+00 -0.314125D+00 -0.180085D-01  0.215626D+00  0.653332D-01
     46 -0.314125D+00 -0.120161D+00 -0.177069D-01  0.212015D+00 -0.232693D+00
     47 -0.180085D-01 -0.177069D-01  0.187688D+00  0.121546D-01 -0.133401D-01
     48 -0.215626D+00 -0.212015D+00 -0.121546D-01  0.605219D+00 -0.432137D+00
     49  0.653332D-01 -0.232693D+00 -0.133401D-01  0.432137D+00  0.296665D+00
     50 -0.232693D+00  0.731937D-01 -0.131166D-01  0.424900D+00 -0.303386D+00
     51 -0.133401D-01 -0.131166D-01  0.301238D+00  0.243590D-01 -0.173928D-01
     52 -0.392792D-02 -0.118994D-01 -0.105087D-02  0.572685D-01 -0.488889D-01
     53 -0.299450D-01 -0.907164D-01 -0.801142D-02  0.176703D+00 -0.116622D+00
     54 -0.519155D-01 -0.157275D+00 -0.138894D-01  0.371861D+00 -0.146909D+00
     55 -0.714075D-02 -0.244089D-02 -0.103214D-02  0.465238D-01 -0.124979D+00
     56 -0.690681D-01 -0.236093D-01 -0.998322D-02  0.150478D+00 -0.312554D+00
     57 -0.142713D+00 -0.487829D-01 -0.206279D-01  0.337767D+00 -0.419952D+00
     58  0.124455D-02  0.302843D-02  0.284606D-03  0.153760D+00  0.345993D-03
     59  0.164010D-02  0.399092D-02  0.375059D-03  0.187144D+00  0.428380D-03
     60  0.629100D+00 -0.108112D-04 -0.101601D-05 -0.259332D-03  0.220228D+00
     61 -0.108112D-04  0.629078D+00 -0.247230D-05 -0.631043D-03 -0.135815D-05
     62 -0.101601D-05 -0.247230D-05  0.629104D+00 -0.593043D-04  0.000000D+00
     63  0.214584D-02  0.522155D-02  0.490711D-03  0.774691D+00  0.140223D-02
     64  0.999979D+00 -0.112048D-04 -0.105300D-05 -0.769484D-03  0.653455D+00
     65 -0.112048D-04  0.999957D+00 -0.256231D-05 -0.187242D-02 -0.338917D-05
     66 -0.105300D-05 -0.256231D-05  0.999984D+00 -0.175966D-03  0.000000D+00
     67  0.769484D-03  0.187242D-02  0.175966D-03  0.999995D+00  0.117755D-02
     68  0.653455D+00 -0.338917D-05  0.000000D+00 -0.117755D-02  0.999994D+00
     69 -0.338917D-05  0.653448D+00  0.000000D+00 -0.286539D-02 -0.337417D-05
     70  0.000000D+00  0.000000D+00  0.653456D+00 -0.269284D-03  0.000000D+00
     71 -0.127863D+00  0.326381D+00 -0.909477D-01  0.257154D+00 -0.131706D+00
     72 -0.169478D+00  0.432608D+00 -0.120548D+00  0.564034D+00 -0.223138D+00
     73 -0.826963D-01  0.211089D+00 -0.588210D-01  0.744917D+00 -0.176403D+00
     74  0.318811D+00 -0.105151D+00 -0.740948D-01  0.250035D+00  0.344283D+00
     75  0.436923D+00 -0.144107D+00 -0.101545D+00  0.551935D+00  0.587037D+00
     76  0.218306D+00 -0.720022D-01 -0.507363D-01  0.735311D+00  0.468142D+00
               31            32            33            34            35 
     31  0.100000D+01
     32  0.000000D+00  0.100000D+01
     33  0.334714D+00 -0.973036D-01  0.100000D+01
     34  0.567329D+00 -0.164926D+00  0.706377D+00  0.100000D+01
     35  0.448778D+00 -0.130463D+00  0.373664D+00  0.788963D+00  0.100000D+01
     36 -0.110595D+00 -0.750243D-01  0.184845D-03  0.177652D-01  0.963790D-01
     37 -0.188490D+00 -0.127866D+00  0.177652D-01  0.975288D-01  0.258464D+00
     38 -0.150223D+00 -0.101907D+00  0.963790D-01  0.258464D+00  0.480023D+00
     39 -0.789722D-01 -0.452739D-02  0.304997D-05  0.274024D-02  0.258681D-01
     40 -0.962253D-01 -0.551649D-02  0.000000D+00  0.282464D-02  0.306142D-01
     41 -0.805752D-01 -0.461929D-02  0.367408D-04  0.460553D-02  0.121961D-01
     42  0.874441D-02 -0.454192D-02  0.123550D-03  0.154872D-01  0.410123D-01
     43 -0.454192D-02  0.877098D-01 -0.148176D-04 -0.185742D-02 -0.491869D-02
     44 -0.386356D+00 -0.221493D-01  0.382600D-02  0.474775D-01  0.178194D+00
     45 -0.232693D+00 -0.133401D-01  0.421471D-02  0.296426D-01  0.484313D-01
     46  0.731937D-01 -0.131166D-01  0.141730D-01  0.996805D-01  0.162862D+00
     47 -0.131166D-01  0.301238D+00 -0.169979D-02 -0.119549D-01 -0.195324D-01
     48 -0.424900D+00 -0.243590D-01  0.614362D-01  0.186564D+00  0.384149D+00
     49 -0.303386D+00 -0.173928D-01  0.467416D-01  0.109732D+00  0.135249D+00
     50  0.306914D+00 -0.171015D-01  0.157180D+00  0.369000D+00  0.454806D+00
     51 -0.171015D-01  0.604238D+00 -0.188509D-01 -0.442549D-01 -0.545459D-01
     52 -0.148106D+00 -0.130796D-01  0.000000D+00  0.156109D-03  0.166783D-01
     53 -0.353297D+00 -0.312007D-01  0.156109D-03  0.478548D-02  0.609121D-01
     54 -0.445049D+00 -0.393036D-01  0.166783D-01  0.609121D-01  0.185547D+00
     55 -0.427210D-01 -0.180646D-01  0.442652D-05  0.340997D-02  0.523422D-01
     56 -0.106839D+00 -0.451771D-01  0.340997D-02  0.341649D-01  0.156310D+00
     57 -0.143551D+00 -0.607005D-01  0.523422D-01  0.156310D+00  0.344843D+00
     58  0.841919D-03  0.791220D-04  0.954249D-02  0.685971D-01  0.771844D-01
     59  0.104240D-02  0.979623D-04  0.830001D-02  0.819579D-01  0.926973D-01
     60 -0.135815D-05  0.000000D+00 -0.328955D-01 -0.603315D-01 -0.239584D-01
     61  0.220225D+00  0.000000D+00  0.824183D-01  0.151158D+00  0.600267D-01
     62  0.000000D+00  0.220228D+00 -0.240847D-01 -0.441721D-01 -0.175413D-01
     63  0.341211D-02  0.320663D-03  0.170855D+00  0.404210D+00  0.452677D+00
     64 -0.338917D-05  0.000000D+00 -0.129808D+00 -0.171839D+00 -0.837735D-01
     65  0.653448D+00  0.000000D+00  0.325227D+00  0.430535D+00  0.209891D+00
     66  0.000000D+00  0.653456D+00 -0.950396D-01 -0.125813D+00 -0.613353D-01
     67  0.286539D-02  0.269284D-03  0.257426D+00  0.564496D+00  0.745282D+00
     68 -0.337417D-05  0.000000D+00 -0.133471D+00 -0.226074D+00 -0.178665D+00
     69  0.999987D+00  0.000000D+00  0.334406D+00  0.566417D+00  0.447638D+00
     70  0.000000D+00  0.999995D+00 -0.977220D-01 -0.165521D+00 -0.130811D+00
     71  0.336192D+00 -0.936814D-01  0.999592D+00  0.706280D+00  0.373645D+00
     72  0.569579D+00 -0.158716D+00  0.706280D+00  0.999913D+00  0.788930D+00
     73  0.450284D+00 -0.125474D+00  0.373645D+00  0.788930D+00  0.999973D+00
     74 -0.113553D+00 -0.800148D-01  0.180708D-03  0.175881D-01  0.960230D-01
     75 -0.193618D+00 -0.136433D+00  0.175881D-01  0.969106D-01  0.257677D+00
     76 -0.154404D+00 -0.108801D+00  0.960230D-01  0.257677D+00  0.479062D+00
               36            37            38            39            40 
     36  0.100000D+01
     37  0.706377D+00  0.100000D+01
     38  0.373664D+00  0.788963D+00  0.100000D+01
     39  0.128732D-05  0.192680D-02  0.229303D-01  0.100000D+01
     40  0.000000D+00  0.194801D-02  0.270923D-01  0.878444D+00  0.100000D+01
     41  0.585860D-04  0.116218D-01  0.379191D-01  0.000000D+00  0.000000D+00
     42  0.179432D-04  0.355942D-02  0.116135D-01  0.000000D+00  0.000000D+00
     43 -0.500748D-05 -0.993339D-03 -0.324103D-02  0.000000D+00  0.000000D+00
     44  0.252221D-02  0.374872D-01  0.160779D+00  0.329179D+00  0.418800D+00
     45  0.970211D-02  0.817910D-01  0.152705D+00  0.000000D+00  0.000000D+00
     46  0.297148D-02  0.250503D-01  0.467693D-01  0.000000D+00  0.000000D+00
     47 -0.829261D-03 -0.699086D-02 -0.130521D-01  0.000000D+00  0.000000D+00
     48  0.524585D-01  0.165115D+00  0.357066D+00  0.153761D+00  0.187145D+00
     49  0.139460D+00  0.339378D+00  0.439315D+00  0.000000D+00  0.000000D+00
     50  0.427127D-01  0.103942D+00  0.134550D+00  0.000000D+00  0.000000D+00
     51 -0.119200D-01 -0.290074D-01 -0.375492D-01  0.000000D+00  0.000000D+00
     52  0.466586D-05  0.349025D-02  0.527951D-01  0.117576D-01  0.106298D-01
     53  0.349025D-02  0.346745D-01  0.157423D+00  0.741194D-01  0.888111D-01
     54  0.527951D-01  0.157423D+00  0.346457D+00  0.792237D-01  0.951790D-01
     55  0.000000D+00  0.675979D-04  0.122221D-01  0.798729D-02  0.671117D-02
     56  0.675979D-04  0.280448D-02  0.471451D-01  0.641854D-01  0.764958D-01
     57  0.122221D-01  0.471451D-01  0.156776D+00  0.754750D-01  0.906177D-01
     58  0.810711D-02  0.645446D-01  0.756170D-01  0.884464D-04  0.152076D-04
     59  0.683197D-02  0.769400D-01  0.907905D-01  0.152076D-04 -0.175014D-05
     60  0.762601D-01  0.152012D+00  0.625598D-01 -0.174278D-02 -0.834423D-03
     61 -0.246600D-01 -0.491556D-01 -0.202298D-01 -0.171776D-02 -0.822441D-03
     62 -0.165632D-01 -0.330159D-01 -0.135876D-01 -0.987330D-04 -0.472721D-04
     63  0.159019D+00  0.388291D+00  0.444828D+00  0.179161D-01  0.196218D-01
     64  0.321683D+00  0.439686D+00  0.219271D+00 -0.399316D-01 -0.466751D-01
     65 -0.104022D+00 -0.142180D+00 -0.709050D-01 -0.393582D-01 -0.460048D-01
     66 -0.698675D-01 -0.954969D-01 -0.476242D-01 -0.226223D-02 -0.264426D-02
     67  0.250596D+00  0.552891D+00  0.736073D+00  0.586065D-01  0.701162D-01
     68  0.346078D+00  0.589794D+00  0.470015D+00 -0.800100D-01 -0.974806D-01
     69 -0.111910D+00 -0.190720D+00 -0.151987D+00 -0.788611D-01 -0.960808D-01
     70 -0.751657D-01 -0.128099D+00 -0.102084D+00 -0.453277D-02 -0.552252D-02
     71  0.186450D-03  0.178333D-01  0.965153D-01  0.298602D-05  0.000000D+00
     72  0.178333D-01  0.977659D-01  0.258765D+00  0.271663D-02  0.279899D-02
     73  0.965153D-01  0.258765D+00  0.480391D+00  0.257917D-01  0.305225D-01
     74  0.998977D+00  0.706133D+00  0.373617D+00  0.137581D-05  0.000000D+00
     75  0.706133D+00  0.999783D+00  0.788881D+00  0.197980D-02  0.200463D-02
     76  0.373617D+00  0.788881D+00  0.999931D+00  0.231444D-01  0.273489D-01
               41            42            43            44            45 
     41  0.100000D+01
     42  0.000000D+00  0.100000D+01
     43  0.000000D+00  0.000000D+00  0.100000D+01
     44  0.000000D+00  0.000000D+00  0.000000D+00  0.100000D+01
     45  0.629120D+00  0.000000D+00  0.000000D+00  0.000000D+00  0.100000D+01
     46  0.000000D+00  0.629120D+00  0.000000D+00  0.000000D+00  0.000000D+00
     47  0.000000D+00  0.000000D+00  0.629120D+00  0.000000D+00  0.000000D+00
     48  0.000000D+00  0.000000D+00  0.000000D+00  0.774697D+00  0.000000D+00
     49  0.220230D+00  0.000000D+00  0.000000D+00  0.000000D+00  0.653461D+00
     50  0.000000D+00  0.220230D+00  0.000000D+00  0.000000D+00  0.000000D+00
     51  0.000000D+00  0.000000D+00  0.220230D+00  0.000000D+00  0.000000D+00
     52  0.320700D-01 -0.100893D+00 -0.118588D-01  0.187188D+00  0.116193D+00
     53  0.528742D-01 -0.166344D+00 -0.195518D-01  0.425390D+00  0.147679D+00
     54  0.200654D-01 -0.631264D-01 -0.741978D-02  0.462854D+00  0.699484D-01
     55 -0.769417D-01  0.183878D-01 -0.172643D-01  0.157976D+00 -0.326542D+00
     56 -0.154543D+00  0.369331D-01 -0.346766D-01  0.386863D+00 -0.447638D+00
     57 -0.638098D-01  0.152495D-01 -0.143178D-01  0.444115D+00 -0.223701D+00
     58  0.174278D-02  0.171776D-02  0.987330D-04  0.179161D-01  0.399316D-01
     59  0.834423D-03  0.822441D-03  0.472721D-04  0.196218D-01  0.466751D-01
     60 -0.181401D-01 -0.221401D-01 -0.127256D-02 -0.633150D-01 -0.769657D-01
     61 -0.221401D-01 -0.174996D-01 -0.125429D-02 -0.624058D-01 -0.123743D+00
     62 -0.127256D-02 -0.125429D-02  0.425043D-02 -0.358695D-02 -0.711250D-02
     63  0.633150D-01  0.624058D-01  0.358695D-02  0.186914D+00  0.243606D+00
     64 -0.769657D-01 -0.123743D+00 -0.711250D-02 -0.243606D+00 -0.130578D+00
     65 -0.123743D+00 -0.733859D-01 -0.701036D-02 -0.240108D+00 -0.312933D+00
     66 -0.711250D-02 -0.701036D-02  0.481775D-01 -0.138009D-01 -0.179867D-01
     67  0.625870D-01  0.616883D-01  0.354571D-02  0.356443D+00  0.215032D+00
     68  0.572208D-02 -0.806138D-01 -0.463351D-02 -0.391853D+00  0.642680D-01
     69 -0.806138D-01  0.805419D-02 -0.456697D-02 -0.386226D+00 -0.232999D+00
     70 -0.463351D-02 -0.456697D-02  0.872478D-01 -0.221994D-01 -0.133923D-01
     71  0.362387D-04  0.121343D-03 -0.138330D-04  0.378704D-02  0.419475D-02
     72  0.459409D-02  0.153830D-01 -0.175365D-02  0.472029D-01  0.296340D-01
     73  0.122283D-01  0.409458D-01 -0.466778D-02  0.177745D+00  0.485760D-01
     74  0.620946D-04  0.187651D-04 -0.580036D-05  0.260453D-02  0.999606D-02
     75  0.118895D-01  0.359302D-02 -0.111062D-02  0.381763D-01  0.831011D-01
     76  0.381734D-01  0.115360D-01 -0.356584D-02  0.162059D+00  0.153563D+00
               46            47            48            49            50 
     46  0.100000D+01
     47  0.000000D+00  0.100000D+01
     48  0.000000D+00  0.000000D+00  0.100000D+01
     49  0.000000D+00  0.000000D+00  0.000000D+00  0.100000D+01
     50  0.653461D+00  0.000000D+00  0.000000D+00  0.000000D+00  0.100000D+01
     51  0.000000D+00  0.653461D+00  0.000000D+00  0.000000D+00  0.000000D+00
     52 -0.365545D+00 -0.429656D-01  0.266378D+00  0.112787D+00 -0.354831D+00
     53 -0.464602D+00 -0.546087D-01  0.579598D+00  0.189554D+00 -0.596342D+00
     54 -0.220060D+00 -0.258655D-01  0.757155D+00  0.148224D+00 -0.466318D+00
     55  0.780382D-01 -0.732702D-01  0.249979D+00 -0.352765D+00  0.843050D-01
     56  0.106978D+00 -0.100442D+00  0.551840D+00 -0.601530D+00  0.143755D+00
     57  0.534609D-01 -0.501945D-01  0.735235D+00 -0.479733D+00  0.114648D+00
     58  0.393582D-01  0.226223D-02  0.586065D-01  0.800100D-01  0.788611D-01
     59  0.460048D-01  0.264426D-02  0.701162D-01  0.974806D-01  0.960808D-01
     60 -0.123743D+00 -0.711250D-02 -0.625870D-01  0.572208D-02 -0.806138D-01
     61 -0.733859D-01 -0.701036D-02 -0.616883D-01 -0.806138D-01  0.805419D-02
     62 -0.701036D-02  0.481775D-01 -0.354571D-02 -0.463351D-02 -0.456697D-02
     63  0.240108D+00  0.138009D-01  0.356443D+00  0.391853D+00  0.386226D+00
     64 -0.312933D+00 -0.179867D-01 -0.215032D+00  0.642680D-01 -0.232999D+00
     65 -0.121525D+00 -0.177284D-01 -0.211944D+00 -0.232999D+00  0.710085D-01
     66 -0.177284D-01  0.185895D+00 -0.121821D-01 -0.133923D-01 -0.132000D-01
     67  0.211944D+00  0.121821D-01  0.603486D+00  0.431610D+00  0.425412D+00
     68 -0.232999D+00 -0.133923D-01 -0.431610D+00  0.294800D+00 -0.304253D+00
     69  0.710085D-01 -0.132000D-01 -0.425412D+00 -0.304253D+00  0.303602D+00
     70 -0.132000D-01  0.299903D+00 -0.244518D-01 -0.174878D-01 -0.172367D-01
     71  0.140459D-01 -0.160122D-02  0.611984D-01  0.468178D-01  0.156766D+00
     72  0.992274D-01 -0.113118D-01  0.186006D+00  0.110008D+00  0.368353D+00
     73  0.162654D+00 -0.185424D-01  0.383460D+00  0.135752D+00  0.454556D+00
     74  0.302082D-02 -0.933748D-03  0.531014D-01  0.140842D+00  0.425627D-01
     75  0.251132D-01 -0.776261D-02  0.166677D+00  0.341793D+00  0.103290D+00
     76  0.464070D-01 -0.143446D-01  0.359085D+00  0.440772D+00  0.133202D+00
               51            52            53            54            55 
     51  0.100000D+01
     52 -0.417063D-01  0.100000D+01
     53 -0.700931D-01  0.706377D+00  0.100000D+01
     54 -0.548104D-01  0.373664D+00  0.788963D+00  0.100000D+01
     55 -0.791541D-01  0.337470D-03  0.231888D-01  0.106345D+00  0.100000D+01
     56 -0.134972D+00  0.231888D-01  0.115491D+00  0.280284D+00  0.706377D+00
     57 -0.107644D+00  0.106345D+00  0.280284D+00  0.506304D+00  0.373664D+00
     58  0.453277D-02  0.198406D-05  0.229895D-02  0.243597D-01  0.000000D+00
     59  0.552252D-02  0.000000D+00  0.234714D-02  0.288052D-01  0.000000D+00
     60 -0.463351D-02 -0.279522D-04 -0.440459D-02 -0.129428D-01 -0.316978D-04
     61 -0.456697D-02 -0.846383D-04 -0.133369D-01 -0.391902D-01 -0.108870D-04
     62  0.872478D-01 -0.747560D-05 -0.117797D-02 -0.346144D-02 -0.458374D-05
     63  0.221994D-01  0.310842D-02  0.422038D-01  0.169291D+00  0.180954D-02
     64 -0.133923D-01 -0.385029D-02 -0.296403D-01 -0.517569D-01 -0.703576D-02
     65 -0.132000D-01 -0.116586D-01 -0.897499D-01 -0.156718D+00 -0.241653D-02
     66  0.299903D+00 -0.102973D-02 -0.792707D-02 -0.138420D-01 -0.101742D-02
     67  0.244518D-01  0.567846D-01  0.175547D+00  0.370404D+00  0.462498D-01
     68 -0.174878D-01 -0.485951D-01 -0.116145D+00 -0.146694D+00 -0.124339D+00
     69 -0.172367D-01 -0.147144D+00 -0.351682D+00 -0.444183D+00 -0.427061D-01
     70  0.602495D+00 -0.129964D-01 -0.310620D-01 -0.392321D-01 -0.179804D-01
     71 -0.178712D-01  0.000000D+00  0.154115D-03  0.165989D-01  0.424864D-05
     72 -0.419920D-01  0.154115D-03  0.474638D-02  0.606729D-01  0.334873D-02
     73 -0.518191D-01  0.165989D-01  0.606729D-01  0.185068D+00  0.519921D-01
     74 -0.131563D-01  0.514507D-05  0.364434D-02  0.536465D-01  0.000000D+00
     75 -0.319275D-01  0.364434D-02  0.356409D-01  0.159512D+00  0.700657D-04
     76 -0.411732D-01  0.536465D-01  0.159512D+00  0.349473D+00  0.123860D-01
               56            57            58            59            60 
     56  0.100000D+01
     57  0.788963D+00  0.100000D+01
     58  0.145561D-02  0.208287D-01  0.100000D+01
     59  0.144845D-02  0.245766D-01  0.878444D+00  0.100000D+01
     60 -0.906653D-02 -0.349364D-01  0.000000D+00  0.000000D+00  0.100000D+01
     61 -0.311403D-02 -0.119994D-01  0.000000D+00  0.000000D+00  0.000000D+00
     62 -0.131109D-02 -0.505207D-02  0.000000D+00  0.000000D+00  0.000000D+00
     63  0.310500D-01  0.148119D+00  0.329179D+00  0.418800D+00  0.000000D+00
     64 -0.685141D-01 -0.142276D+00  0.000000D+00  0.000000D+00  0.629120D+00
     65 -0.235321D-01 -0.488667D-01  0.000000D+00  0.000000D+00  0.000000D+00
     66 -0.990766D-02 -0.205742D-01  0.000000D+00  0.000000D+00  0.000000D+00
     67  0.149792D+00  0.336845D+00  0.153761D+00  0.187145D+00  0.000000D+00
     68 -0.311373D+00 -0.419133D+00  0.000000D+00  0.000000D+00  0.220230D+00
     69 -0.106946D+00 -0.143957D+00  0.000000D+00  0.000000D+00  0.000000D+00
     70 -0.450269D-01 -0.606099D-01  0.000000D+00  0.000000D+00  0.000000D+00
     71  0.334873D-02  0.519921D-01  0.965795D-02  0.841965D-02 -0.329641D-01
     72  0.337732D-01  0.155448D+00  0.689049D-01  0.823395D-01 -0.600871D-01
     73  0.155448D+00  0.343591D+00  0.773009D-01  0.928391D-01 -0.237988D-01
     74  0.700657D-04  0.123860D-01  0.800899D-02  0.673302D-02  0.751338D-01
     75  0.286944D-02  0.476656D-01  0.642507D-01  0.765765D-01  0.150702D+00
     76  0.476656D-01  0.157912D+00  0.755009D-01  0.906491D-01  0.621870D-01
               61            62            63            64            65 
     61  0.100000D+01
     62  0.000000D+00  0.100000D+01
     63  0.000000D+00  0.000000D+00  0.100000D+01
     64  0.000000D+00  0.000000D+00  0.000000D+00  0.100000D+01
     65  0.629120D+00  0.000000D+00  0.000000D+00  0.000000D+00  0.100000D+01
     66  0.000000D+00  0.629120D+00  0.000000D+00  0.000000D+00  0.000000D+00
     67  0.000000D+00  0.000000D+00  0.774697D+00  0.000000D+00  0.000000D+00
     68  0.000000D+00  0.000000D+00  0.000000D+00  0.653461D+00  0.000000D+00
     69  0.220230D+00  0.000000D+00  0.000000D+00  0.000000D+00  0.653461D+00
     70  0.000000D+00  0.220230D+00  0.000000D+00  0.000000D+00  0.000000D+00
     71  0.834702D-01 -0.233818D-01  0.171760D+00 -0.129440D+00  0.327762D+00
     72  0.152150D+00 -0.426205D-01  0.405406D+00 -0.170949D+00  0.432870D+00
     73  0.602622D-01 -0.168808D-01  0.453259D+00 -0.832008D-01  0.210677D+00
     74 -0.250991D-01 -0.175149D-01  0.158166D+00  0.318516D+00 -0.106403D+00
     75 -0.503434D-01 -0.351311D-01  0.387123D+00  0.436401D+00 -0.145784D+00
     76 -0.207741D-01 -0.144968D-01  0.444245D+00  0.218003D+00 -0.728259D-01
               66            67            68            69            70 
     66  0.100000D+01
     67  0.000000D+00  0.100000D+01
     68  0.000000D+00  0.000000D+00  0.100000D+01
     69  0.000000D+00  0.000000D+00  0.000000D+00  0.100000D+01
     70  0.653461D+00  0.000000D+00  0.000000D+00  0.000000D+00  0.100000D+01
     71 -0.918133D-01  0.257936D+00 -0.132651D+00  0.335892D+00 -0.940908D-01
     72 -0.121256D+00  0.565359D+00 -0.224582D+00  0.568677D+00 -0.159299D+00
     73 -0.590153D-01  0.745964D+00 -0.177378D+00  0.449148D+00 -0.125816D+00
     74 -0.742513D-01  0.250092D+00  0.343834D+00 -0.114861D+00 -0.801533D-01
     75 -0.101732D+00  0.552031D+00  0.586240D+00 -0.195839D+00 -0.136662D+00
     76 -0.508202D-01  0.735387D+00  0.467475D+00 -0.156164D+00 -0.108976D+00
               71            72            73            74            75 
     71  0.100000D+01
     72  0.706377D+00  0.100000D+01
     73  0.373664D+00  0.788963D+00  0.100000D+01
     74  0.182109D-03  0.176483D-01  0.961442D-01  0.100000D+01
     75  0.176483D-01  0.971210D-01  0.257945D+00  0.706377D+00  0.100000D+01
     76  0.961442D-01  0.257945D+00  0.479389D+00  0.373664D+00  0.788963D+00
               76 
     76  0.100000D+01
 *** Kinetic Energy *** 
                1             2             3             4             5 
      1  0.276046D+02
      2  0.104135D+02  0.819637D+01
      3  0.000000D+00  0.000000D+00  0.489404D+01
      4  0.000000D+00  0.000000D+00  0.000000D+00  0.489404D+01
      5  0.000000D+00  0.000000D+00  0.000000D+00  0.000000D+00  0.489404D+01
      6  0.420602D+00  0.554278D+00  0.000000D+00  0.000000D+00  0.000000D+00
      7  0.000000D+00  0.000000D+00  0.116619D+01  0.000000D+00  0.000000D+00
      8  0.000000D+00  0.000000D+00  0.000000D+00  0.116619D+01  0.000000D+00
      9  0.000000D+00  0.000000D+00  0.000000D+00  0.000000D+00  0.116619D+01
     10  0.641647D-01  0.794435D-01  0.000000D+00  0.000000D+00  0.000000D+00
     11  0.000000D+00  0.000000D+00  0.146500D+00  0.000000D+00  0.000000D+00
     12  0.000000D+00  0.000000D+00  0.000000D+00  0.146500D+00  0.000000D+00
     13  0.000000D+00  0.000000D+00  0.000000D+00  0.000000D+00  0.146500D+00
     14 -0.372140D-01 -0.487324D-01 -0.193568D-01  0.632658D-01  0.778786D-02
     15  0.977574D-02  0.997375D-02  0.366171D-01 -0.119680D+00 -0.147323D-01
     16  0.168157D-01  0.203638D-01  0.779167D-02 -0.254663D-01 -0.313484D-02
     17 -0.296345D-01 -0.373350D-01  0.777437D-01 -0.167222D-01  0.157562D-01
     18  0.365241D-02  0.238532D-02 -0.102678D+00  0.220855D-01 -0.208096D-01
     19  0.154335D-01  0.186654D-01 -0.253538D-01  0.545346D-02 -0.513842D-02
     20 -0.895202D-03 -0.381362D-03 -0.110779D-01 -0.108672D-01 -0.645744D-03
     21 -0.381362D-03  0.238148D-04 -0.110257D-01 -0.108160D-01 -0.642697D-03
     22  0.110779D-01  0.110257D-01  0.410125D-01  0.576852D-01  0.342772D-02
     23  0.108672D-01  0.108160D-01  0.576852D-01  0.387971D-01  0.336253D-02
     24  0.645744D-03  0.642697D-03  0.342772D-02  0.336253D-02 -0.175912D-01
     25 -0.209187D-01 -0.273979D-01 -0.120668D-02 -0.118373D-02 -0.703384D-04
     26  0.134407D-01  0.222261D-01 -0.927223D-01 -0.900467D-01 -0.535068D-02
     27  0.131851D-01  0.218033D-01 -0.900467D-01 -0.892640D-01 -0.524892D-02
     28  0.783471D-03  0.129558D-02 -0.535068D-02 -0.524892D-02 -0.124167D-02
     29  0.902594D-02  0.106698D-01  0.266566D-01  0.261497D-01  0.155384D-02
     30 -0.347044D-01 -0.425928D-01 -0.191020D-01 -0.554561D-01 -0.329526D-02
     31 -0.340444D-01 -0.417827D-01 -0.554561D-01 -0.169721D-01 -0.323259D-02
     32 -0.202296D-02 -0.248278D-02 -0.329526D-02 -0.323259D-02  0.372372D-01
     33 -0.435682D-04 -0.612555D-05 -0.372743D-03 -0.125585D-02  0.149864D-03
     34 -0.489062D-02 -0.571167D-02 -0.413164D-02 -0.139203D-01  0.166115D-02
     35 -0.171566D-03 -0.331349D-03  0.239071D-02  0.805481D-02 -0.961201D-03
     36 -0.197581D-04 -0.191058D-05 -0.650781D-03 -0.198064D-03  0.551376D-04
     37 -0.381305D-02 -0.437438D-02 -0.124855D-01 -0.379994D-02  0.105784D-02
     38 -0.713049D-03 -0.974521D-03  0.657020D-02  0.199963D-02 -0.556662D-03
     39  0.274693D+02  0.104020D+02 -0.115417D+00 -0.215403D+00  0.797728D-01
     40  0.104020D+02  0.819149D+01 -0.746086D-01 -0.139242D+00  0.515672D-01
     41  0.115417D+00  0.746086D-01  0.489252D+01 -0.814979D-03  0.301821D-03
     42  0.215403D+00  0.139242D+00 -0.814979D-03  0.489144D+01  0.563289D-03
     43 -0.797728D-01 -0.515672D-01  0.301821D-03  0.563289D-03  0.489275D+01
     44  0.420567D+00  0.554231D+00 -0.389170D-02 -0.726310D-02  0.268983D-02
     45  0.416384D-02  0.562652D-02  0.116609D+01 -0.522470D-04  0.193493D-04
     46  0.777098D-02  0.105008D-01 -0.522470D-04  0.116602D+01  0.361116D-04
     47 -0.287792D-02 -0.388888D-02  0.193493D-04  0.361116D-04  0.116611D+01
     48  0.641630D-01  0.794413D-01 -0.268290D-03 -0.500710D-03  0.185434D-03
     49  0.374660D-03  0.471347D-03  0.146496D+00 -0.234710D-05  0.000000D+00
     50  0.699229D-03  0.879675D-03 -0.234710D-05  0.146493D+00  0.162225D-05
     51 -0.258954D-03 -0.325781D-03  0.000000D+00  0.162225D-05  0.146496D+00
     52 -0.376317D-01 -0.493691D-01 -0.195080D-01  0.621354D-01  0.716474D-02
     53  0.101296D-01  0.104147D-01  0.378218D-01 -0.120467D+00 -0.138909D-01
     54  0.168886D-01  0.204535D-01  0.798884D-02 -0.254455D-01 -0.293408D-02
     55 -0.295781D-01 -0.372513D-01  0.772143D-01 -0.180763D-01  0.171617D-01
     56  0.360867D-02  0.233145D-02 -0.101751D+00  0.238204D-01 -0.226152D-01
     57  0.154227D-01  0.186521D-01 -0.251561D-01  0.588916D-02 -0.559120D-02
     58 -0.867937D-03 -0.364150D-03 -0.108056D-01 -0.106260D-01 -0.632907D-03
     59 -0.364150D-03  0.231545D-04 -0.106543D-01 -0.104772D-01 -0.624048D-03
     60  0.108056D-01  0.106543D-01  0.407594D-01  0.572537D-01  0.341016D-02
     61  0.106260D-01  0.104772D-01  0.572537D-01  0.388401D-01  0.335348D-02
     62  0.632907D-03  0.624048D-03  0.341016D-02  0.335348D-02 -0.172623D-01
     63 -0.208193D-01 -0.272342D-01 -0.187091D-02 -0.183981D-02 -0.109583D-03
     64  0.137874D-01  0.226077D-01 -0.908589D-01 -0.879335D-01 -0.523752D-02
     65  0.135583D-01  0.222319D-01 -0.879335D-01 -0.879112D-01 -0.515047D-02
     66  0.807562D-03  0.132418D-02 -0.523752D-02 -0.515047D-02 -0.174597D-02
     67  0.888736D-02  0.104998D-01  0.264744D-01  0.260344D-01  0.155067D-02
     68 -0.344503D-01 -0.422731D-01 -0.191970D-01 -0.553731D-01 -0.329815D-02
     69 -0.338777D-01 -0.415704D-01 -0.553731D-01 -0.173408D-01 -0.324333D-02
     70 -0.201783D-02 -0.247603D-02 -0.329815D-02 -0.324333D-02  0.369188D-01
     71 -0.427467D-04 -0.595891D-05 -0.368595D-03 -0.123657D-02  0.140209D-03
     72 -0.486201D-02 -0.567583D-02 -0.414142D-02 -0.138937D-01  0.157535D-02
     73 -0.186344D-03 -0.348953D-03  0.239031D-02  0.801901D-02 -0.909245D-03
     74 -0.209810D-04 -0.209072D-05 -0.684662D-03 -0.205582D-03  0.634495D-04
     75 -0.388714D-02 -0.446545D-02 -0.126112D-01 -0.378672D-02  0.116871D-02
     76 -0.676822D-03 -0.931630D-03  0.668051D-02  0.200594D-02 -0.619101D-03
                6             7             8             9            10 
      6  0.725184D+00
      7  0.000000D+00  0.120864D+01
      8  0.000000D+00  0.000000D+00  0.120864D+01
      9  0.000000D+00  0.000000D+00  0.000000D+00  0.120864D+01
     10  0.260044D+00  0.000000D+00  0.000000D+00  0.000000D+00  0.218378D+00
     11  0.000000D+00  0.365582D+00  0.000000D+00  0.000000D+00  0.000000D+00
     12  0.000000D+00  0.000000D+00  0.365582D+00  0.000000D+00  0.000000D+00
     13  0.000000D+00  0.000000D+00  0.000000D+00  0.365582D+00  0.000000D+00
     14 -0.229837D-03  0.766514D-01 -0.250528D+00 -0.308394D-01  0.648476D-01
     15  0.108975D+00  0.920055D-01 -0.300711D+00 -0.370168D-01  0.123959D+00
     16  0.887516D-01  0.244820D-01 -0.800172D-01 -0.984992D-02  0.112895D+00
     17 -0.169784D-01 -0.192057D+00  0.413103D-01 -0.389238D-01  0.574674D-01
     18  0.870429D-01 -0.277493D+00  0.596871D-01 -0.562390D-01  0.113628D+00
     19  0.826709D-01 -0.803075D-01  0.172737D-01 -0.162758D-01  0.107571D+00
     20 -0.209187D-01 -0.134407D-01 -0.131851D-01 -0.783471D-03  0.902594D-02
     21 -0.273979D-01 -0.222261D-01 -0.218033D-01 -0.129558D-02  0.106698D-01
     22  0.120668D-02 -0.927223D-01 -0.900467D-01 -0.535068D-02 -0.266566D-01
     23  0.118373D-02 -0.900467D-01 -0.892640D-01 -0.524892D-02 -0.261497D-01
     24  0.703384D-04 -0.535068D-02 -0.524892D-02 -0.124167D-02 -0.155384D-02
     25 -0.143560D-01  0.101211D+00  0.992862D-01  0.589970D-02  0.591146D-01
     26 -0.101211D+00 -0.208902D+00 -0.281431D+00 -0.167230D-01 -0.839122D-01
     27 -0.992862D-01 -0.281431D+00 -0.198094D+00 -0.164049D-01 -0.823163D-01
     28 -0.589970D-02 -0.167230D-01 -0.164049D-01  0.770107D-01 -0.489133D-02
     29  0.591146D-01  0.839122D-01  0.823163D-01  0.489133D-02  0.885639D-01
     30 -0.152913D+00 -0.270213D-01 -0.142090D+00 -0.844314D-02 -0.126055D+00
     31 -0.150005D+00 -0.142090D+00 -0.215642D-01 -0.828257D-02 -0.123657D+00
     32 -0.891348D-02 -0.844314D-02 -0.828257D-02  0.117331D+00 -0.734786D-02
     33 -0.102912D-01 -0.838010D-02 -0.282343D-01  0.336927D-02 -0.822813D-02
[...]
  43        2PZ         0.00000   0.00000   4.96929
  44        3S          0.00000   0.00000   0.00000   0.58349
  45        3PX        24.77421   0.00000   0.00000   0.00000 448.44428
  46        3PY         0.00000  28.97251   0.00000   0.00000   0.00000
  47        3PZ         0.00000   0.00000  19.22354   0.00000   0.00000
  48        4S          0.00000   0.00000   0.00000  -0.40660   0.00000
  49        4PX        -0.35105   0.00000   0.00000   0.00000 -24.26858
  50        4PY         0.00000  -0.18459   0.00000   0.00000   0.00000
  51        4PZ         0.00000   0.00000   2.33236   0.00000   0.00000
  52 8   H  1S          0.03589   0.21550   0.01231  -0.04989  -0.04562
  53        2S         -0.50489   0.10407   0.04265  -1.17181  -3.92334
  54        3S         -0.06863  -0.94220   0.35022   2.03062 -15.66124
  55 9   H  1S          0.03031   0.00578  -0.00305  -0.01351   0.35846
  56        2S          0.37054  -0.01942  -0.07123  -0.01471   8.98010
  57        3S         -0.32675   0.05793  -0.12014   1.38958 -24.52535
  58 10  C  1S         -0.00121  -0.00043   0.00003  -0.00029  -0.26960
  59        2S         -0.01093  -0.00783   0.00064  -0.01076  -5.95229
  60        2PX         0.12301   0.08543  -0.00302   0.02807   2.14519
  61        2PY         0.10504   0.04723   0.00029   0.00808   3.38227
  62        2PZ         0.00377   0.00329   0.02463   0.00046   0.09044
  63        3S          0.02232  -0.00101   0.00028  -0.02238   1.52919
  64        3PX         2.73085   2.58362  -0.19702   3.57283  -2.79421
  65        3PY         6.26090   1.79578  -0.02804   3.31706  76.50939
  66        3PZ         0.08578   0.13121   1.60859  -0.02588   1.43508
  67        4S         -0.06549   0.00720  -0.00080   0.07700  -1.35582
  68        4PX         0.00558   0.09231  -0.01524   0.12735   1.34639
  69        4PY         0.17016  -0.00403   0.04025   0.15976  16.11404
  70        4PZ        -0.02217  -0.03044   0.70319  -0.19119  -1.83251
  71 11  H  1S          0.00002   0.00006   0.00001   0.00022   0.00835
  72        2S          0.02268   0.09588   0.01712   0.02168   0.62241
  73        3S         -0.10616   0.23031   0.14599  -0.01720  -2.26981
  74 12  H  1S         -0.00002  -0.00000  -0.00000   0.00010  -0.02429
  75        2S         -0.01523  -0.00707  -0.00454  -0.01532  -0.54555
  76        3S          0.16358  -0.02822  -0.08883   0.11577  13.21790
                          46        47        48        49        50
  46        3PY       826.25351
  47        3PZ         0.00000 286.09215
  48        4S          0.00000   0.00000   0.74096
  49        4PX         0.00000   0.00000   0.00000  28.51763
  50        4PY       -61.86467   0.00000   0.00000   0.00000  22.27005
  51        4PZ         0.00000 -40.36487   0.00000   0.00000   0.00000
  52 8   H  1S          6.29283   0.10984   0.08060   0.36693  -0.57356
  53        2S         23.46138  -0.90170   1.37616   4.47801  -7.57025
  54        3S         19.28860   8.00458  -3.24881   8.72509 -14.43387
  55 9   H  1S         -0.03261  -0.18999   0.02883  -0.11090   0.06797
  56        2S         -0.59499  -1.17423   0.14526   1.06699   0.03362
  57        3S          6.36564  -1.41033  -2.84977  14.82379  -3.08172
  58 10  C  1S         -0.39716   0.00286  -0.00963   0.11666   0.06855
  59        2S         -5.99913   0.16281   0.26425  -0.16544   1.58827
  60        2PX         3.07521  -0.11306  -0.07191   0.00496   0.10113
  61        2PY         2.58592  -0.02521  -0.00320  -0.45032  -0.00430
  62        2PZ         0.06444   1.51609  -0.00247   0.03555   0.01169
  63        3S          2.10878   0.03754   0.10876  -0.34251  -0.09453
  64        3PX        22.97011  -6.49116  -2.12312   4.85373  -1.05028
  65        3PY        55.78252  -3.57500  -0.49339 -35.90622   2.68758
  66        3PZ         0.89057  30.90808  -0.01805   0.74790   0.30592
  67        4S         -1.19991  -0.04250  -0.27601   0.53458  -0.29426
  68        4PX        -2.73938  -0.28152  -0.21116  -1.65360   0.79742
  69        4PY        -6.55703   0.62452   0.07711  -7.02163   4.51049
  70        4PZ        -3.86746  -8.01506   0.15680   1.32473   1.03045
  71 11  H  1S          0.01469   0.01004  -0.01013   0.05381   0.05750
  72        2S          2.20267   0.88346  -0.12768   0.73413   2.05959
  73        3S         -6.57611   1.92956  -1.80483  10.89515   4.36028
  74 12  H  1S         -0.01208  -0.00144  -0.00172  -0.10024   0.00819
  75        2S         -0.08684  -0.23339   0.26247  -2.35673   0.09364
  76        3S          5.09270  -1.59918   0.57147 -25.02212  -2.81384
                          51        52        53        54        55
  51        4PZ       672.40977
  52 8   H  1S          0.65729   1.09057
  53        2S          7.82747   1.75927  45.60214
  54        3S          9.16604   1.38188   2.40146 807.21030
  55 9   H  1S          0.25719  -0.00001   0.04232  -0.53636   0.31280
  56        2S         -0.39299  -0.01200  -0.13679  -1.59911   0.25897
  57        3S        -14.78248  -0.36413  -6.66376 -84.24644   0.17539
  58 10  C  1S         -0.04202   0.00000   0.00284  -0.00821   0.00000
  59        2S         -0.15480   0.00000   0.05523  -1.45848   0.00000
  60        2PX         0.04069  -0.00001  -0.04225   0.24559  -0.00001
  61        2PY         0.12491  -0.00007  -0.10529  -0.93601   0.00000
  62        2PZ         1.80572   0.00001   0.00451   0.22184  -0.00000
  63        3S          0.14033  -0.00025   0.00800  -0.60308   0.00003
  64        3PX         4.20775  -0.02653  -3.59346  17.72062  -0.02787
  65        3PY         9.61631  -0.19957 -16.37035 -10.08182  -0.00913
  66        3PZ        47.86416   0.00421   0.32633   5.09700  -0.00388
  67        4S         -0.14962   0.00397   0.18098   2.89071  -0.00197
  68        4PX        -0.34686   0.01747   0.24095   8.77002  -0.03128
  69        4PY         1.83369  -0.40818  -4.65949 -62.79244   0.02039
  70        4PZ       228.42959   0.11143   1.97546   4.51974   0.02746
  71 11  H  1S          0.05656   0.00000   0.00008   0.20807  -0.00000
  72        2S          0.36460   0.00006   0.01933   5.90501  -0.00413
  73        3S         13.83274   0.13537   3.61790  83.56836  -0.14578
  74 12  H  1S          0.00283  -0.00000  -0.00092  -0.35505   0.00000
  75        2S         -0.72507  -0.00302  -0.18964  -6.84127   0.00002
  76        3S         -8.93377  -0.35589  -6.52803-120.05196   0.02971
                          56        57        58        59        60
  56        2S          3.61291
  57        3S         -1.14844  75.35520
  58 10  C  1S          0.00061   0.00222   2.71954
  59        2S          0.01530  -0.34497  38.963941741.01576
  60        2PX        -0.02164   0.11583   0.00000   0.00000  14.19850
  61        2PY        -0.00306   0.10551   0.00000   0.00000   0.00000
  62        2PZ        -0.00540  -0.05806   0.00000   0.00000   0.00000
  63        3S         -0.00703  -0.05413  -0.18201  -0.51165   0.00000
  64        3PX        -0.68758  -0.22096   0.00000   0.00000  46.36917
  65        3PY        -0.37310   4.94825   0.00000   0.00000   0.00000
  66        3PZ        -0.30280  -1.69006   0.00000   0.00000   0.00000
  67        4S          0.04891   0.08315   0.09951   0.51820   0.00000
  68        4PX        -0.00234  -5.03934   0.00000   0.00000   0.33572
  69        4PY         0.20010   5.34924   0.00000   0.00000   0.00000
  70        4PZ        -0.17635  -5.24412   0.00000   0.00000   0.00000
  71 11  H  1S         -0.00224  -0.12225  -0.00119  -0.04284   0.07864
  72        2S         -0.26391  -3.09476  -0.11966  -2.94162   0.36059
  73        3S         -2.56101 -25.73572   0.39489   0.34873  -0.00101
  74 12  H  1S          0.00002   0.02207   0.00062   0.00517   0.02235
  75        2S          0.00288   0.30258  -0.07995   1.05451   0.72787
  76        3S          0.66559  12.26559  -0.20299   0.21249   0.10399
                          61        62        63        64        65
  61        2PY        12.70533
  62        2PZ         0.00000  11.23286
  63        3S          0.00000   0.00000   0.53701
  64        3PX         0.00000   0.00000   0.000001055.63882
  65        3PY        67.22017   0.00000   0.00000   0.000001891.12702
  66        3PZ         0.00000  43.60305   0.00000   0.00000   0.00000
  67        4S          0.00000   0.00000  -0.45997   0.00000   0.00000
  68        4PX         0.00000   0.00000   0.00000  12.77505   0.00000
  69        4PY         2.27789   0.00000   0.00000   0.00000  76.18239
  70        4PZ         0.00000   3.71024   0.00000   0.00000   0.00000
  71 11  H  1S          0.12551   0.05895   0.00524   1.76434   2.34190
  72        2S         -1.09648   0.62810   0.29395  13.43865 -37.70615
  73        3S          1.65109   0.89638  -1.92341 -12.77594  97.57573
  74 12  H  1S          0.01240  -0.01387  -0.01496  -0.25215   0.13636
  75        2S          0.25589  -0.24517   0.51023   3.93955  12.78553
  76        3S          0.34594  -0.57313   1.29265  -0.11058  16.60231
                          66        67        68        69        70
  66        3PZ       475.57797
  67        4S          0.00000   0.90309
  68        4PX         0.00000   0.00000   5.09614
  69        4PY         0.00000   0.00000   0.00000  37.81396
  70        4PZ        86.31032   0.00000   0.00000   0.00000 222.10585
  71 11  H  1S          1.34698   0.02656   0.13761   1.01641   0.28516
  72        2S         12.93566  -0.54873   1.14405   7.67780   2.69108
  73        3S         18.86261   8.51267   7.05841  48.50917  18.50933
  74 12  H  1S         -0.45774   0.02342   0.12557   0.06807  -0.06905
  75        2S         -3.61823  -1.20333   2.60608   2.28218  -1.96896
  76        3S        -12.70891  -4.30589  13.13335  13.14773 -13.64196
                          71        72        73        74        75
  71 11  H  1S          0.79488
  72        2S          1.65109  41.48634
  73        3S          2.74701  32.79927 596.00566
  74 12  H  1S         -0.00003  -0.01752  -0.36452   0.31745
  75        2S         -0.03518  -0.75182  -9.15457   0.28265  13.00407
  76        3S         -0.55727 -12.07355-176.00285   1.04900  17.89810
                          76
  76        3S        267.07553
     Gross orbital populations:
                           1
   1 1   C  1S          1.19668
   2        2S          1.49049
   3        2PX         1.80995
   4        2PY         0.73350
   5        2PZ         1.57345
   6        3S          0.66555
   7        3PX         0.40787
   8        3PY         1.77080
   9        3PZ         5.33946
  10        4S          0.12294
  11        4PX         0.64594
  12        4PY         0.09775
  13        4PZ        10.35267
  14 2   H  1S          0.30680
  15        2S          0.15874
  16        3S         -2.07950
  17 3   H  1S          0.76353
  18        2S         -0.15739
  19        3S          0.65038
  20 4   C  1S          1.20094
  21        2S          1.66860
  22        2PX         2.57469
  23        2PY         0.81795
  24        2PZ         1.82178
  25        3S          0.65080
  26        3PX        -2.73210
  27        3PY         7.85279
  28        3PZ        12.67237
  29        4S          0.13865
  30        4PX        -0.04669
  31        4PY        -0.19022
  32        4PZ         7.69995
  33 5   H  1S          0.47485
  34        2S          1.75922
  35        3S         -1.78452
  36 6   H  1S          0.83595
  37        2S          0.37244
  38        3S          1.58015
  39 7   C  1S          1.17957
  40        2S         -0.02024
  41        2PX         0.16296
  42        2PY         0.57419
  43        2PZ         0.47657
  44        3S          0.66537
  45        3PX        -0.37726
  46        3PY        -1.35510
  47        3PZ        -5.17702
  48        4S          0.12162
  49        4PX        -0.40914
  50        4PY         0.09620
  51        4PZ        -9.81620
  52 8   H  1S          1.17145
  53        2S          0.05474
  54        3S          2.25851
  55 9   H  1S          0.70628
  56        2S          0.44254
  57        3S         -0.60034
  58 10  C  1S          1.17478
  59        2S         -0.19989
  60        2PX        -0.52623
  61        2PY         0.28716
  62        2PZ         0.35251
  63        3S          0.65087
  64        3PX         2.72100
  65        3PY        -7.27491
  66        3PZ       -12.56970
  67        4S          0.13759
  68        4PX         0.19199
  69        4PY         0.43304
  70        4PZ        -7.30366
  71 11  H  1S          0.98043
  72        2S         -1.51562
  73        3S          1.96200
  74 12  H  1S          0.64008
  75        2S         -0.05618
  76        3S         -1.45716
          Condensed to atoms (all electrons):
               1          2          3          4          5          6
     1  C 3307.596405  34.910923 -10.902463 445.569940  34.544894 -25.252716
     2  H   34.910923 864.098176 -93.283053 -65.446853  92.646968-131.453820
     3  H  -10.902463 -93.283053  76.373300  -3.080361 -31.329689  12.990737
     4  C  445.569940 -65.446853  -3.0803616285.437774 176.916898  38.963452
     5  H   34.544894  92.646968 -31.329689 176.916898 714.820495-199.009146
     6  H  -25.252716-131.453820  12.990737  38.963452-199.009146 320.766446
     7  C *********** -32.058574  12.997737-448.691062 -26.749284  20.855098
     8  H  -38.659535-863.714150  92.800121  66.187935 -93.492353 132.642864
     9  H   13.019025  93.973993 -76.238194   3.725092  31.968497 -13.170266
    10  C -443.130922  58.189732   2.738187***********-186.239697 -34.325002
    11  H  -34.180551 -92.603842  31.291692-181.988570-712.933756 198.651374
    12  H   26.441893 133.126543 -13.101497 -34.567512 199.305717-318.870489
               7          8          9         10         11         12
     1  C *********** -38.659535  13.019025-443.130922 -34.180551  26.441893
     2  H  -32.058574-863.714150  93.973993  58.189732 -92.603842 133.126543
     3  H   12.997737  92.800121 -76.238194   2.738187  31.291692 -13.101497
     4  C -448.691062  66.187935   3.725092***********-181.988570 -34.567512
     5  H  -26.749284 -93.492353  31.968497-186.239697-712.933756 199.305717
     6  H   20.855098 132.642864 -13.170266 -34.325002 198.651374-318.870489
     7  C 3272.646940  36.008076 -15.036767 445.473791  26.422615 -21.997240
     8  H   36.008076 864.988231 -93.516290 -58.888608  93.454185-134.325779
     9  H  -15.036767 -93.516290  77.852755  -3.388050 -31.929796  13.288476
    10  C  445.473791 -58.888608  -3.3880506225.095829 191.519143  29.927393
    11  H   26.422615  93.454185 -31.929796 191.519143 712.681630-198.957321
    12  H  -21.997240-134.325779  13.288476  29.927393-198.957321 318.856552
 Mulliken charges:
               1
     1  C  -20.207070
     2  H    2.613957
     3  H   -0.256517
     4  C  -28.129504
     5  H    0.550456
     6  H   -1.788533
     7  C   19.878493
     8  H   -2.484696
     9  H    0.451524
    10  C   27.925431
    11  H   -0.426804
    12  H    1.873263
 Sum of Mulliken charges =   0.00000
 Mulliken charges with hydrogens summed into heavy atoms:
               1
     1  C  -20.207070
     4  C  -28.129504
     7  C   20.202761
    10  C   28.133814
 N-N= 8.047399114504D+03 E-N=-1.156343966832D+03  KE= 3.444069108492D+02
 Orbital energies and kinetic energies (alpha):
                                 1                 2
   1         O               -46.703006         47.780506
   2         O               -46.630431         47.677419
   3         O                -4.423122         10.806173
   4         O                -4.370024         11.364198
   5         O                -3.812883          9.774035
   6         O                -3.742688         10.322747
   7         O                -2.968908          5.435031
   8         O                -2.964941          5.410201
   9         O                -2.908633          5.383541
  10         O                -2.885389          5.507874
  11         O                -1.039512          2.161691
  12         O                -1.023053          2.084571
  13         O                -0.978398          1.961387
  14         O                -0.976442          1.975717
  15         O                -0.240787          3.419575
  16         O                -0.100173          1.138790
  17         V                -0.044756          1.426698
  18         V                 0.026069          1.167612
  19         V                 0.039095          1.112291
  20         V                 0.096346          0.820163
  21         V                 0.118819          0.801450
  22         V                 0.151539          0.544049
  23         V                 0.160481          0.486909
  24         V                 0.184397          0.906385
  25         V                 0.185829          0.838184
  26         V                 0.198411          0.519900
  27         V                 0.224592          1.380483
  28         V                 0.291332          1.091140
  29         V                 0.326724          1.402182
  30         V                 0.343375          0.900748
  31         V                 0.384493          1.671278
  32         V                 0.470462          1.245357
  33         V                 0.493688          1.283310
  34         V                 0.579994          1.493017
  35         V                 0.597691          1.560448
  36         V                 0.658098          1.619466
  37         V                 0.687532          1.640471
  38         V                 0.718401          1.382843
  39         V                 0.801357          2.427282
  40         V                 0.812435          2.696611
  41         V                 0.888753          2.443771
  42         V                 0.913419          2.467412
  43         V                 0.944826          2.341988
  44         V                 0.971293          2.504616
  45         V                 1.049986          2.837662
  46         V                 1.080784          2.946604
  47         V                 1.219742          2.918504
  48         V                 1.262279          3.057665
  49         V                 1.372676          3.620435
  50         V                 1.480341          3.606199
  51         V                 1.935819          5.008718
  52         V                 2.997591         19.920812
  53         V                 3.083310         19.374278
  54         V                 4.174064         11.432298
  55         V                 4.190405         11.565474
  56         V                 4.360168         11.830703
  57         V                 4.404526         11.670785
  58         V                 4.478503         11.873284
  59         V                 4.525858         12.218519
  60         V                 5.170751         15.932324
  61         V                 5.255283         15.641867
  62         V                 5.789808          8.611290
  63         V                 5.873405          8.743991
  64         V                 5.947107          8.974006
  65         V                 5.967193          8.916165
  66         V               140.986364        233.930136
  67         V               143.655407        236.715457
 Total kinetic energy from orbitals= 3.444069108492D+02

 This type of calculation cannot be archived.


      LET US REMEMBER, PLEASE, THAT THE SEARCH FOR THE CONSTITUTION
      OF THE WORLD IS ONE OF THE GREATEST AND NOBLEST PROBLEMS PRESENTED 
      BY NATURE.

                                                  -- GALILEO
 Job cpu time:       0 days  0 hours  0 minutes  2.6 seconds.
 Elapsed time:       0 days  0 hours  0 minutes  3.0 seconds.
 File lengths (MBytes):  RWF=    272 Int=      0 D2E=      0 Chk=     32 Scr=     32
 Normal termination of Gaussian 16 at Thu Jan  5 17:58:04 2023.
