6
MD Step 0
C  -0.33763715 -0.58748864 0.00000000
H  0.19552659 -1.51519357 0.00000000
H  -1.40763715 -0.58748864 0.00000000
C  0.33763715 0.58748865 0.00000000
H  -0.19552659 1.51519357 0.00000000
H  1.40763715 0.58748865 0.00000000
6
MD Step 1
C  -0.33800574 -0.58783567 -0.00039482
H  0.19789231 -1.51298682 0.00235062
H  -1.40542137 -0.58520681 0.00235274
C  0.33721645 0.58704629 -0.00039430
H  -0.19318667 1.51769161 0.00234888
H  1.41012096 0.58990838 0.00235101
6
MD Step 2
C  -0.33831820 -0.58808613 -0.00078970
H  0.20028155 -1.51108834 0.00470155
H  -1.40352532 -0.58307364 0.00470586
C  0.33674821 0.58651208 -0.00078863
H  -0.19086266 1.52045756 0.00469796
H  1.41281450 0.59246091 0.00470210
6
MD Step 3
C  -0.33856991 -0.58823807 -0.00118348
H  0.20268619 -1.50951529 0.00704582
H  -1.40200031 -0.58110295 0.00705266
C  0.33623864 0.58589119 -0.00118175
H  -0.18855407 1.52345434 0.00703991
H  1.41564764 0.59512949 0.00704570
6
MD Step 4
C  -0.33875018 -0.58828386 -0.00156818
H  0.20505419 -1.50831827 0.00933583
H  -1.40092882 -0.57934826 0.00934599
C  0.33570107 0.58519658 -0.00156555
H  -0.18629890 1.52659885 0.00932657
H  1.41850686 0.59785576 0.00933322
6
MD Step 5
C  -0.33886116 -0.58822885 -0.00194770
H  0.20740088 -1.50746968 0.01159462
H  -1.40031091 -0.57779129 0.01160944
C  0.33513707 0.58443020 -0.00194376
H  -0.18406293 1.52987448 0.01158025
H  1.42134927 0.60065131 0.01158647
6
MD Step 6
C  -0.33890077 -0.58807435 -0.00232076
H  0.20970770 -1.50696558 0.01381440
H  -1.40016534 -0.57644357 0.01383589
C  0.33455343 0.58359992 -0.00231490
H  -0.18184156 1.53323044 0.01379226
H  1.42410225 0.60349624 0.01379618
6
MD Step 7
C  -0.33886666 -0.58782135 -0.00268472
H  0.21194519 -1.50680344 0.01597922
H  -1.40050627 -0.57532361 0.01601017
C  0.33395823 0.58271558 -0.00267612
H  -0.17963763 1.53660554 0.01594573
H  1.42668771 0.60636197 0.01594487
6
MD Step 8
C  -0.33876333 -0.58747759 -0.00304269
H  0.21411585 -1.50694006 0.01810751
H  -1.40130044 -0.57441446 0.01815133
C  0.33335363 0.58178180 -0.00303032
H  -0.17741952 1.53997183 0.01805800
H  1.42906616 0.60925391 0.01804933
6
MD Step 9
C  -0.33859070 -0.58704610 -0.00339211
H  0.21618660 -1.50736051 0.02018396
H  -1.40253602 -0.57373167 0.02024480
C  0.33274727 0.58080922 -0.00337477
H  -0.17518954 1.54326752 0.02011280
H  1.43116947 0.61214350 0.02009275
6
MD Step 10
C  -0.33835516 -0.58653613 -0.00373586
H  0.21815526 -1.50801295 0.02222559
H  -1.40415721 -0.57325737 0.02230803
C  0.33214106 0.57980336 -0.00371213
H  -0.17291852 1.54646394 0.02212609
H  1.43296788 0.61503435 0.02209070
6
MD Step 11
C  -0.33805766 -0.58595127 -0.00407038
H  0.21998079 -1.50887999 0.02421131
H  -1.40613626 -0.57301052 0.02432042
C  0.33154306 0.57877627 -0.00403873
H  -0.17061651 1.54949611 0.02407592
H  1.43440022 0.61789191 0.02402081
6
MD Step 12
C  -0.33770751 -0.58530319 -0.00439963
H  0.22166654 -1.50989689 0.02616467
H  -1.40839177 -0.57296430 0.02630556
C  0.33095345 0.57773259 -0.00435839
H  -0.16825056 1.55234635 0.02598494
H  1.43545740 0.62072640 0.02590567
6
MD Step 13
C  -0.33731139 -0.58460071 -0.00472418
H  0.22319627 -1.51101720 0.02808932
H  -1.41085561 -0.57311059 0.02826700
C  0.33037544 0.57668022 -0.00467161
H  -0.16580952 1.55498033 0.02785603
H  1.43611796 0.62352824 0.02774817
6
MD Step 14
C  -0.33687492 -0.58385132 -0.00504291
H  0.22454461 -1.51220394 0.02997885
H  -1.41346494 -0.57345014 0.03019814
C  0.32981356 0.57562866 -0.00497725
H  -0.16329442 1.55735760 0.02968219
H  1.43635809 0.62627800 0.02954136
6
MD Step 15
C  -0.33640414 -0.58306275 -0.00535469
H  0.22568761 -1.51342041 0.03182687
H  -1.41615394 -0.57398254 0.03209217
C  0.32927197 0.57458712 -0.00527420
H  -0.16070865 1.55944227 0.03145657
H  1.43616206 0.62895663 0.03127862
6
MD Step 16
C  -0.33589579 -0.58223317 -0.00564856
H  0.22654532 -1.51468882 0.03356903
H  -1.41891330 -0.57476388 0.03388505
C  0.32876415 0.57357419 -0.00555183
H  -0.15811582 1.56114573 0.03311497
H  1.43546460 0.63148763 0.03289515
6
MD Step 17
C  -0.33536238 -0.58137635 -0.00592927
H  0.22713273 -1.51594027 0.03523393
H  -1.42164038 -0.57575649 0.03560410
C  0.32828746 0.57259244 -0.00581490
H  -0.15548985 1.56247798 0.03468565
H  1.43430239 0.63388805 0.03442018
6
MD Step 18
C  -0.33480677 -0.58049623 -0.00619163
H  0.22740897 -1.51716667 0.03679159
H  -1.42429247 -0.57697978 0.03721899
C  0.32784863 0.57165372 -0.00605857
H  -0.15286568 1.56339678 0.03613904
H  1.43266256 0.63611727 0.03582418
6
MD Step 19
C  -0.33424140 -0.57960619 -0.00644022
H  0.22739331 -1.51830564 0.03826956
H  -1.42677231 -0.57839490 0.03875553
C  0.32744422 0.57075963 -0.00628750
H  -0.15022400 1.56392354 0.03750269
H  1.43059843 0.63819287 0.03713607
6
MD Step 20
C  -0.33367281 -0.57871359 -0.00667375
H  0.22707374 -1.51933286 0.03966089
H  -1.42902158 -0.57999632 0.04020565
C  0.32707608 0.56991691 -0.00650069
H  -0.14758260 1.56405171 0.03877022
H  1.42813728 0.64009894 0.03835025
6
MD Step 21
C  -0.33310507 -0.57782318 -0.00688865
H  0.22642818 -1.52024144 0.04094530
H  -1.43100102 -0.58179087 0.04154829
C  0.32674783 0.56913381 -0.00669504
H  -0.14497522 1.56376793 0.03992223
H  1.42530108 0.64180720 0.03944783
6
MD Step 22
C  -0.33254506 -0.57694245 -0.00708457
H  0.22545681 -1.52101010 0.04212148
H  -1.43265897 -0.58376578 0.04278085
C  0.32645941 0.56841464 -0.00687058
H  -0.14241952 1.56308420 0.04095829
H  1.42213846 0.64330930 0.04042942
6
MD Step 23
C  -0.33200127 -0.57608042 -0.00726330
H  0.22417532 -1.52161018 0.04320035
H  -1.43393897 -0.58589551 0.04391249
C  0.32620823 0.56776092 -0.00702933
H  -0.13992363 1.56203107 0.04189017
H  1.41871732 0.64461014 0.04130837
6
MD Step 24
C  -0.33147563 -0.57523947 -0.00742035
H  0.22256678 -1.52205422 0.04415652
H  -1.43482890 -0.58818996 0.04491745
C  0.32599732 0.56717936 -0.00716750
H  -0.13753392 1.56060912 0.04269401
H  1.41507580 0.64567954 0.04206118
6
MD Step 25
C  -0.33098134 -0.57443323 -0.00756355
H  0.22068848 -1.52228906 0.04503591
H  -1.43525426 -0.59058802 0.04583860
C  0.32581736 0.56666404 -0.00729276
H  -0.13522846 1.55889562 0.04341638
H  1.41132840 0.64655944 0.04273734
6
MD Step 26
C  -0.33051471 -0.57365828 -0.00768383
H  0.21850366 -1.52236435 0.04578645
H  -1.43524748 -0.59312545 0.04662466
C  0.32567514 0.56622450 -0.00739709
H  -0.13308397 1.55687571 0.04400733
H  1.40749625 0.64719517 0.04328632
6
MD Step 27
C  -0.33008035 -0.57291953 -0.00778148
H  0.21603269 -1.52228104 0.04641032
H  -1.43479616 -0.59578411 0.04727675
C  0.32556801 0.56586051 -0.00748120
H  -0.13112505 1.55459338 0.04447052
H  1.40365773 0.64758724 0.04371299
6
MD Step 28
C  -0.32968692 -0.57222592 -0.00786177
H  0.21332738 -1.52201684 0.04693827
H  -1.43386881 -0.59851754 0.04782342
C  0.32548831 0.56556628 -0.00755033
H  -0.12934926 1.55212528 0.04483785
H  1.39992146 0.64776562 0.04405157
6
MD Step 29
C  -0.32933794 -0.57158124 -0.00792544
H  0.21041621 -1.52158079 0.04737471
H  -1.43246996 -0.60130558 0.04826804
C  0.32543268 0.56533975 -0.00760551
H  -0.12778079 1.54952520 0.04511523
H  1.39636967 0.64773499 0.04430925
6
MD Step 30
C  -0.32902886 -0.57098113 -0.00796554
H  0.20728661 -1.52103053 0.04768005
H  -1.43065771 -0.60417194 0.04857222
C  0.32540515 0.56518556 -0.00764077
H  -0.12648749 1.54680556 0.04526516
H  1.39303882 0.64745704 0.04444771
6
MD Step 31
C  -0.32876204 -0.57042822 -0.00798320
H  0.20397432 -1.52038210 0.04786101
H  -1.42845323 -0.60709478 0.04874212
C  0.32540202 0.56510011 -0.00765748
H  -0.12549103 1.54402638 0.04529578
H  1.39000810 0.64694044 0.04447593
6
MD Step 32
C  -0.32854282 -0.56992824 -0.00798358
H  0.20053965 -1.51963293 0.04794694
H  -1.42586402 -0.61003023 0.04880559
C  0.32541595 0.56507555 -0.00766056
H  -0.12478969 1.54127070 0.04523758
H  1.38737405 0.64621721 0.04442599
6
MD Step 33
C  -0.32836800 -0.56947839 -0.00796363
H  0.19699810 -1.51883052 0.04792043
H  -1.42295295 -0.61298141 0.04874621
C  0.32544775 0.56511153 -0.00764749
H  -0.12442638 1.53857413 0.04507463
H  1.38517909 0.64527341 0.04428132
6
MD Step 34
C  -0.32823831 -0.56907999 -0.00792531
H  0.19339453 -1.51799709 0.04779240
H  -1.41976278 -0.61592398 0.04857470
C  0.32549387 0.56520277 -0.00762015
H  -0.12441363 1.53599831 0.04481887
H  1.38348472 0.64412388 0.04405417
6
MD Step 35
C  -0.32814543 -0.56872543 -0.00786177
H  0.18972493 -1.51720677 0.04752382
H  -1.41639337 -0.61888397 0.04825441
C  0.32555960 0.56535222 -0.00757250
H  -0.12481060 1.53355176 0.04443246
H  1.38229191 0.64273423 0.04370451
6
MD Step 36
C  -0.32808841 -0.56841465 -0.00777465
H  0.18603332 -1.51648699 0.04712363
H  -1.41290256 -0.62184034 0.04779475
C  0.32564266 0.56555482 -0.00750602
H  -0.12562526 1.53128655 0.04392495
H  1.38163817 0.64111857 0.04324150
6
MD Step 37
C  -0.32806316 -0.56814470 -0.00766288
H  0.18234834 -1.51588059 0.04658557
H  -1.40936797 -0.62478788 0.04719085
C  0.32574381 0.56580817 -0.00741974
H  -0.12687653 1.52923409 0.04329051
H  1.38153360 0.63927648 0.04265796
6
MD Step 38
C  -0.32807146 -0.56791870 -0.00753217
H  0.17873568 -1.51539176 0.04594129
H  -1.40583254 -0.62768412 0.04647438
C  0.32585800 0.56610370 -0.00731861
H  -0.12854083 1.52745727 0.04256097
H  1.38201342 0.63724615 0.04198569
6
MD Step 39
C  -0.32810874 -0.56773365 -0.00738200
H  0.17522452 -1.51505850 0.04518714
H  -1.40237666 -0.63052262 0.04564325
C  0.32598662 0.56643909 -0.00720192
H  -0.13062455 1.52597604 0.04173261
H  1.38306397 0.63503112 0.04121944
6
MD Step 40
C  -0.32816717 -0.56758356 -0.00720872
H  0.17182492 -1.51493358 0.04430226
H  -1.39909836 -0.63331494 0.04467903
C  0.32613446 0.56681529 -0.00706626
H  -0.13314579 1.52478483 0.04078414
H  1.38464109 0.63261836 0.04033560
6
MD Step 41
C  -0.32825150 -0.56747513 -0.00702221
H  0.16862008 -1.51499050 0.04334128
H  -1.39601820 -0.63599742 0.04363612
C  0.32629406 0.56722096 -0.00692005
H  -0.13604123 1.52394531 0.03977005
H  1.38676429 0.63007135 0.03938891
6
MD Step 42
C  -0.32835202 -0.56740091 -0.00681723
H  0.16560554 -1.51528375 0.04227412
H  -1.39323903 -0.63859225 0.04248711
C  0.32647256 0.56765953 -0.00675830
H  -0.13932665 1.52342492 0.03865928
H  1.38935581 0.62736934 0.03834588
6
MD Step 43
C  -0.32846356 -0.56735807 -0.00659328
H  0.16280021 -1.51583604 0.04109741
H  -1.39083170 -0.64109536 0.04123036
C  0.32667287 0.56813038 -0.00658024
H  -0.14298529 1.52320917 0.03744752
H  1.39235467 0.62451926 0.03720065
6
MD Step 44
C  -0.32858442 -0.56734728 -0.00635331
H  0.16023853 -1.51664503 0.03982700
H  -1.38884053 -0.64348369 0.03988282
C  0.32689481 0.56863008 -0.00638812
H  -0.14697556 1.52329465 0.03614989
H  1.39571100 0.62154826 0.03596753
6
MD Step 45
C  -0.32870817 -0.56736458 -0.00609497
H  0.15792141 -1.51773196 0.03844940
H  -1.38733067 -0.64576432 0.03843272
C  0.32714314 0.56916055 -0.00617959
H  -0.15128040 1.52364058 0.03475163
H  1.39933858 0.61845494 0.03463033
6
MD Step 46
C  -0.32883698 -0.56741439 -0.00582453
H  0.15589352 -1.51906339 0.03699894
H  -1.38630856 -0.64789619 0.03691481
C  0.32741451 0.56971590 -0.00595988
H  -0.15582983 1.52424770 0.03328674
H  1.40319509 0.61528692 0.03322292
6
MD Step 47
C  -0.32896706 -0.56749509 -0.00554143
H  0.15415729 -1.52063767 0.03547226
H  -1.38580753 -0.64987681 0.03532678
C  0.32771173 0.57029695 -0.00572827
H  -0.16058809 1.52507268 0.03175089
H  1.40719678 0.61205471 0.03174022
6
MD Step 48
C  -0.32909886 -0.56760907 -0.00524902
H  0.15273245 -1.52242516 0.03388765
H  -1.38582705 -0.65168207 0.03368727
C  0.32803376 0.57090100 -0.00548752
H  -0.16549427 1.52608923 0.03016198
H  1.41128056 0.60879126 0.03020000
6
MD Step 49
C  -0.32922736 -0.56775302 -0.00494421
H  0.15159885 -1.52442627 0.03222807
H  -1.38639014 -0.65332424 0.03197992
C  0.32838519 0.57153150 -0.00523480
H  -0.17052102 1.52723156 0.02850180
H  1.41534760 0.60549443 0.02858358
6
MD Step 50
C  -0.32935755 -0.56793313 -0.00463380
H  0.15078716 -1.52658070 0.03053112
H  -1.38745187 -0.65476032 0.03024203
C  0.32876102 0.57218256 -0.00497602
H  -0.17558384 1.52848701 0.02680842
H  1.41935679 0.60221767 0.02692940
6
MD Step 51
C  -0.32948190 -0.56814294 -0.00431083
H  0.15024746 -1.52890080 0.02875837
H  -1.38903274 -0.65602543 0.02843541
C  0.32916868 0.57286129 -0.00470499
H  -0.18067508 1.52976441 0.02504182
H  1.42319266 0.59893781 0.02519723
6
MD Step 52
C  -0.32960485 -0.56838727 -0.00398025
H  0.14999283 -1.53132789 0.02693746
H  -1.39107458 -0.65708778 0.02658715
C  0.32960398 0.57356325 -0.00442612
H  -0.18571986 1.53103997 0.02323015
H  1.42681199 0.59569855 0.02341569
6
MD Step 53
C  -0.32972321 -0.56866303 -0.00363843
H  0.14998541 -1.53384821 0.02504885
H  -1.39355697 -0.65796455 0.02467726
C  0.33007022 0.57429191 -0.00413628
H  -0.19069254 1.53224304 0.02135293
H  1.43012915 0.59249580 0.02156459
6
MD Step 54
C  -0.32984412 -0.56897679 -0.00329209
H  0.15024221 -1.53638772 0.02313009
H  -1.39639228 -0.65861524 0.02274251
C  0.33056056 0.57504060 -0.00384155
H  -0.19551076 1.53336344 0.01944886
H  1.43312368 0.58938299 0.01968321
6
MD Step 55
C  -0.32996469 -0.56932487 -0.00293714
H  0.15071749 -1.53893208 0.02115896
H  -1.39954662 -0.65906152 0.02075997
C  0.33107777 0.57581258 -0.00353841
H  -0.20015568 1.53433317 0.01749493
H  1.43572125 0.58635260 0.01774899
6
MD Step 56
C  -0.33008307 -0.56970414 -0.00257031
H  0.15136815 -1.54146202 0.01911777
H  -1.40297579 -0.65932150 0.01871118
C  0.33162338 0.57660993 -0.00322406
H  -0.20460688 1.53509276 0.01547280
H  1.43786016 0.58340117 0.01574409
6
MD Step 57
C  -0.33020587 -0.57011936 -0.00219689
H  0.15219795 -1.54391002 0.01703668
H  -1.40658258 -0.65936547 0.01662549
C  0.33219032 0.57742602 -0.00290346
H  -0.20879854 1.53563623 0.01341357
H  1.43953638 0.58057291 0.01370017
6
MD Step 58
C  -0.33034060 -0.57057578 -0.00182307
H  0.15321476 -1.54620495 0.01495081
H  -1.41026266 -0.65915996 0.01453725
C  0.33277026 0.57825291 -0.00258238
H  -0.21266371 1.53596777 0.01135351
H  1.44075964 0.57791623 0.01165394
6
MD Step 59
C  -0.33048548 -0.57106920 -0.00144557
H  0.15437230 -1.54833213 0.01284210
H  -1.41396591 -0.65872730 0.01242777
C  0.33336343 0.57909133 -0.00225794
H  -0.21619406 1.53604284 0.00927398
H  1.44149386 0.57542470 0.00958722
6
MD Step 60
C  -0.33063717 -0.57159365 -0.00105962
H  0.15561619 -1.55028798 0.01068454
H  -1.41765171 -0.65809954 0.01027043
C  0.33397099 0.57994292 -0.00192597
H  -0.21939406 1.53581457 0.00714801
H  1.44170362 0.57308273 0.00747346
6
MD Step 61
C  -0.33080055 -0.57215087 -0.00066919
H  0.15694149 -1.55202282 0.00850072
H  -1.42123227 -0.65726047 0.00808740
C  0.33458551 0.58080045 -0.00159019
H  -0.22222336 1.53529185 0.00499874
H  1.44141244 0.57092272 0.00533603
6
MD Step 62
C  -0.33097657 -0.57273853 -0.00027445
H  0.15832260 -1.55351250 0.00629201
H  -1.42464516 -0.65621701 0.00587974
C  0.33520278 0.58165985 -0.00125084
H  -0.22466833 1.53446832 0.00282733
H  1.44063126 0.56895441 0.00317634
6
MD Step 63
C  -0.33116862 -0.57335653 0.00012153
H  0.15975140 -1.55472068 0.00407607
H  -1.42781629 -0.65496094 0.00366493
C  0.33581550 0.58251380 -0.00091080
H  -0.22670386 1.53336060 0.00065159
H  1.43939646 0.56720268 0.00101227
6
MD Step 64
C  -0.33137625 -0.57400081 0.00051929
H  0.16120073 -1.55563637 0.00185028
H  -1.43069816 -0.65350622 0.00144028
C  0.33641954 0.58335804 -0.00056961
H  -0.22833074 1.53197104 -0.00153167
H  1.43773219 0.56567052 -0.00115934
6
MD Step 65
C  -0.33160603 -0.57467412 0.00091166
H  0.16268889 -1.55620950 -0.00034457
H  -1.43320593 -0.65182389 -0.00075328
C  0.33700321 0.58418044 -0.00023389
H  -0.22951069 1.53035240 -0.00368113
H  1.43571485 0.56440334 -0.00329736
6
MD Step 66
C  -0.33185293 -0.57536770 0.00130293
H  0.16417058 -1.55646120 -0.00253267
H  -1.43532837 -0.64995259 -0.00293982
C  0.33756563 0.58497969 0.00010041
H  -0.23027672 1.52849754 -0.00582230
H  1.43336184 0.56337949 -0.00542741
6
MD Step 67
C  -0.33211653 -0.57607731 0.00169220
H  0.16563242 -1.55638786 -0.00470864
H  -1.43703213 -0.64790207 -0.00511372
C  0.33810083 0.58574908 0.00043250
H  -0.23063679 1.52643522 -0.00795051
H  1.43072736 0.56260566 -0.00754512
6
MD Step 68
C  -0.33240086 -0.57680309 0.00207356
H  0.16709199 -1.55596218 -0.00683859
H  -1.43826312 -0.64565415 -0.00724062
C  0.33859800 0.58647676 0.00075695
H  -0.23057473 1.52422873 -0.01003202
H  1.42790056 0.56211587 -0.00961724
6
MD Step 69
C  -0.33270232 -0.57753767 0.00244843
H  0.16852694 -1.55520468 -0.00893065
H  -1.43901849 -0.64323437 -0.00932832
C  0.33905349 0.58715789 0.00107528
H  -0.23012161 1.52190392 -0.01207616
H  1.42493245 0.56190030 -0.01165352
6
MD Step 70
C  -0.33301184 -0.57826837 0.00282331
H  0.16988798 -1.55417043 -0.01102221
H  -1.43933352 -0.64069873 -0.01141394
C  0.33946868 0.58779245 0.00139385
H  -0.22934237 1.51946174 -0.01412218
H  1.42184803 0.56191830 -0.01369351
6
MD Step 71
C  -0.33333162 -0.57899376 0.00319289
H  0.17119662 -1.55285035 -0.01308267
H  -1.43918285 -0.63803491 -0.01346631
C  0.33983371 0.58836875 0.00170782
H  -0.22823699 1.51697612 -0.01614013
H  1.41874412 0.56219642 -0.01570795
6
MD Step 72
C  -0.33366008 -0.57970879 0.00355535
H  0.17245675 -1.55125984 -0.01510140
H  -1.43856952 -0.63525124 -0.01547431
C  0.34014239 0.58887854 0.00201565
H  -0.22682903 1.51450424 -0.01812051
H  1.41569841 0.56273987 -0.01768789
6
MD Step 73
C  -0.33399801 -0.58041102 0.00390607
H  0.17369083 -1.54940218 -0.01705165
H  -1.43748860 -0.63234019 -0.01741060
C  0.34038622 0.58931092 0.00231312
H  -0.22512856 1.51212194 -0.02003751
H  1.41280415 0.56356888 -0.01960827
6
MD Step 74
C  -0.33434111 -0.58109318 0.00424525
H  0.17489576 -1.54731236 -0.01893445
H  -1.43597151 -0.62932254 -0.01927583
C  0.34056197 0.58965995 0.00260063
H  -0.22317578 1.50987842 -0.02189358
H  1.41012366 0.56467466 -0.02147194
6
MD Step 75
C  -0.33468532 -0.58174859 0.00457251
H  0.17607387 -1.54502535 -0.02074756
H  -1.43405437 -0.62621592 -0.02106745
C  0.34066647 0.58991945 0.00287805
H  -0.22100893 1.50782633 -0.02368779
H  1.40771797 0.56605067 -0.02327836
6
MD Step 76
C  -0.33502020 -0.58236456 0.00489352
H  0.17719355 -1.54261480 -0.02252454
H  -1.43181675 -0.62307403 -0.02281929
C  0.34070333 0.59008979 0.00315126
H  -0.21870285 1.50598129 -0.02545544
H  1.40560575 0.56765348 -0.02506255
6
MD Step 77
C  -0.33534457 -0.58293802 0.00520454
H  0.17828069 -1.54010003 -0.02424324
H  -1.42928838 -0.61989409 -0.02450891
C  0.34066756 0.59016244 0.00341671
H  -0.21627591 1.50441291 -0.02717532
H  1.40385464 0.56949483 -0.02680360
6
MD Step 78
C  -0.33565267 -0.58346177 0.00550621
H  0.17933655 -1.53752766 -0.02590750
H  -1.42653086 -0.61669913 -0.02614035
C  0.34055939 0.59013397 0.00367523
H  -0.21377141 1.50316110 -0.02885238
H  1.40249716 0.57155962 -0.02850612
6
MD Step 79
C  -0.33594313 -0.58393341 0.00579480
H  0.18038974 -1.53491829 -0.02749481
H  -1.42358408 -0.61348519 -0.02769098
C  0.34037550 0.58999731 0.00392310
H  -0.21120410 1.50228740 -0.03046477
H  1.40158222 0.57385846 -0.03014826
6
MD Step 80
C  -0.33620599 -0.58434254 0.00607491
H  0.18141931 -1.53234265 -0.02903278
H  -1.42054236 -0.61029823 -0.02918945
C  0.34012192 0.58975485 0.00416512
H  -0.20863621 1.50179662 -0.03204098
H  1.40109690 0.57635096 -0.03175728
6
MD Step 81
C  -0.33643677 -0.58468467 0.00634583
H  0.18243651 -1.52983823 -0.03051706
H  -1.41747019 -0.60715134 -0.03063211
C  0.33980021 0.58940463 0.00440058
H  -0.20609419 1.50171833 -0.03357702
H  1.40104900 0.57902807 -0.03332827
6
MD Step 82
C  -0.33663964 -0.58496444 0.00659865
H  0.18350281 -1.52739000 -0.03189294
H  -1.41438249 -0.60400623 -0.03196363
C  0.33940431 0.58893735 0.00461992
H  -0.20354960 1.50212431 -0.03501771
H  1.40148536 0.58193056 -0.03480648
6
MD Step 83
C  -0.33680468 -0.58517295 0.00683825
H  0.18459472 -1.52506521 -0.03318989
H  -1.41137925 -0.60090859 -0.03321527
C  0.33894320 0.58835923 0.00482812
H  -0.20105380 1.50299219 -0.03639239
H  1.40235566 0.58501387 -0.03621923
6
MD Step 84
C  -0.33692471 -0.58530450 0.00706713
H  0.18570218 -1.52291346 -0.03442298
H  -1.40854437 -0.59788889 -0.03440372
C  0.33842419 0.58767536 0.00502761
H  -0.19863856 1.50430410 -0.03771543
H  1.40361286 0.58824706 -0.03757908
6
MD Step 85
C  -0.33699419 -0.58535540 0.00728660
H  0.18682069 -1.52097326 -0.03560014
H  -1.40595095 -0.59496961 -0.03553860
C  0.33785408 0.58689100 0.00521953
H  -0.19632340 1.50603925 -0.03899364
H  1.40520717 0.59160540 -0.03889108
6
MD Step 86
C  -0.33701465 -0.58532937 0.00749181
H  0.18798271 -1.51923964 -0.03669056
H  -1.40362772 -0.59213349 -0.03658936
C  0.33723366 0.58600621 0.00539813
H  -0.19408398 1.50820575 -0.04019449
H  1.40711927 0.59510212 -0.04012242
6
MD Step 87
C  -0.33698163 -0.58522441 0.00768417
H  0.18917916 -1.51774230 -0.03770275
H  -1.40163635 -0.58940205 -0.03756629
C  0.33657084 0.58502903 0.00556452
H  -0.19193067 1.51076249 -0.04132464
H  1.40928284 0.59870999 -0.04127807
6
MD Step 88
C  -0.33689632 -0.58504436 0.00786046
H  0.19042796 -1.51647632 -0.03861587
H  -1.40000098 -0.58676663 -0.03844909
C  0.33586896 0.58396379 0.00571458
H  -0.18984020 1.51368878 -0.04236096
H  1.41165527 0.60243023 -0.04233455
6
MD Step 89
C  -0.33675639 -0.58478966 0.00802151
H  0.19171889 -1.51545730 -0.03943478
H  -1.39876249 -0.58424369 -0.03924405
C  0.33513597 0.58282035 0.00584869
H  -0.18781129 1.51693000 -0.04330584
H  1.41416388 0.60623729 -0.04329308
6
MD Step 90
C  -0.33655785 -0.58445911 0.00817047
H  0.19302406 -1.51471058 -0.04017946
H  -1.39796670 -0.58186418 -0.03997321
C  0.33438255 0.58161216 0.00597002
H  -0.18585483 1.52040951 -0.04417657
H  1.41671844 0.61008958 -0.04416916
6
MD Step 91
C  -0.33630412 -0.58405888 0.00830446
H  0.19435158 -1.51421748 -0.04083131
H  -1.39760953 -0.57961982 -0.04061816
C  0.33361296 0.58034709 0.00607474
H  -0.18394102 1.52408383 -0.04495181
H  1.41926695 0.61398327 -0.04494167
6
MD Step 92
C  -0.33599761 -0.58359403 0.00842243
H  0.19569547 -1.51396590 -0.04138341
H  -1.39768724 -0.57751344 -0.04117236
C  0.33283342 0.57903575 0.00616117
H  -0.18205037 1.52789375 -0.04562192
H  1.42174672 0.61790216 -0.04560092
6
MD Step 93
C  -0.33563727 -0.58306591 0.00852739
H  0.19702110 -1.51396544 -0.04185548
H  -1.39821138 -0.57557377 -0.04165684
C  0.33205457 0.57769376 0.00623246
H  -0.18018917 1.53175102 -0.04620375
H  1.42407096 0.62180292 -0.04616275
6
MD Step 94
C  -0.33522239 -0.58247603 0.00862279
H  0.19828834 -1.51422478 -0.04227085
H  -1.39918570 -0.57383241 -0.04209625
C  0.33128746 0.57633773 0.00629253
H  -0.17836740 1.53556297 -0.04671779
H  1.42615350 0.62563836 -0.04664657
6
MD Step 95
C  -0.33476162 -0.58183505 0.00870440
H  0.19950582 -1.51469796 -0.04260227
H  -1.40055240 -0.57226992 -0.04246199
C  0.33053438 0.57497606 0.00633614
H  -0.17654566 1.53928812 -0.04713470
H  1.42796418 0.62941168 -0.04702456
6
MD Step 96
C  -0.33426237 -0.58115209 0.00876993
H  0.20066861 -1.51534805 -0.04283496
H  -1.40225659 -0.57087858 -0.04273816
C  0.32979945 0.57361925 0.00636031
H  -0.17469832 1.54287450 -0.04743789
H  1.42946668 0.63311378 -0.04728132
6
MD Step 97
C  -0.33372554 -0.58042948 0.00882352
H  0.20172786 -1.51617863 -0.04299768
H  -1.40427868 -0.56969292 -0.04295415
C  0.32909370 0.57228488 0.00637015
H  -0.17284454 1.54623025 -0.04765382
H  1.43058851 0.63669259 -0.04744266
6
MD Step 98
C  -0.33315968 -0.57967703 0.00886301
H  0.20267675 -1.51714878 -0.04307664
H  -1.40654977 -0.56870447 -0.04309458
C  0.32842063 0.57098319 0.00636302
H  -0.17096370 1.54931020 -0.04776758
H  1.43130731 0.64013902 -0.04749510
6
MD Step 99
C  -0.33256811 -0.57889901 0.00889131
H  0.20347418 -1.51825056 -0.04309291
H  -1.40903030 -0.56793808 -0.04318041
C  0.32778911 0.56972970 0.00634279
H  -0.16907193 1.55204024 -0.04779861
H  1.43157480 0.64341023 -0.04745802
6
MD Step 100
C  -0.33196662 -0.57811221 0.00890047
H  0.20415284 -1.51940212 -0.04299376
H  -1.41160381 -0.56734494 -0.04315544
C  0.32719507 0.56852712 0.00629979
H  -0.16711565 1.55442555 -0.04769489
H  1.43142454 0.64653776 -0.04728260
6
MD Step 101
C  -0.33135984 -0.57732190 0.00889273
H  0.20467821 -1.52058996 -0.04279556
H  -1.41422099 -0.56694308 -0.04303538
C  0.32664552 0.56738882 0.00623713
H  -0.16511191 1.55641002 -0.04747206
H  1.43083065 0.64948583 -0.04698482
6
MD Step 102
C  -0.33075927 -0.57654027 0.00886426
H  0.20505882 -1.52175991 -0.04247278
H  -1.41679137 -0.56670841 -0.04279227
C  0.32613986 0.56632048 0.00615022
H  -0.16303972 1.55798620 -0.04710563
H  1.42981739 0.65226152 -0.04654236
6
MD Step 103
C  -0.33016083 -0.57576350 0.00882513
H  0.20521105 -1.52295288 -0.04209519
H  -1.41932031 -0.56670881 -0.04249699
C  0.32569280 0.56534236 0.00605208
H  -0.16097398 1.55906098 -0.04666345
H  1.42832446 0.65477929 -0.04602166
6
MD Step 104
C  -0.32957849 -0.57500610 0.00876900
H  0.20516411 -1.52410104 -0.04162073
H  -1.42170500 -0.56690145 -0.04210474
C  0.32529964 0.56445532 0.00593526
H  -0.15888331 1.55965977 -0.04610564
H  1.42641109 0.65706613 -0.04538534
6
MD Step 105
C  -0.32902587 -0.57428226 0.00868966
H  0.20494961 -1.52513891 -0.04100746
H  -1.42384687 -0.56724254 -0.04157091
C  0.32495500 0.56365911 0.00579237
H  -0.15673947 1.55981638 -0.04539309
H  1.42414539 0.65915084 -0.04459675
6
MD Step 106
C  -0.32850000 -0.57358905 0.00859551
H  0.20450360 -1.52610187 -0.04031318
H  -1.42575125 -0.56778437 -0.04095380
C  0.32466949 0.56296851 0.00563424
H  -0.15461397 1.55947536 -0.04458286
H  1.42150617 0.66096560 -0.04371234
6
MD Step 107
C  -0.32800396 -0.57292974 0.00848913
H  0.20380467 -1.52698866 -0.03955571
H  -1.42738966 -0.56853886 -0.04027053
C  0.32444629 0.56239046 0.00546446
H  -0.15254193 1.55862945 -0.04369369
H  1.41852024 0.66248442 -0.04275144
6
MD Step 108
C  -0.32754353 -0.57231029 0.00837009
H  0.20285410 -1.52778150 -0.03873305
H  -1.42872011 -0.56949728 -0.03951815
C  0.32428448 0.56192727 0.00528308
H  -0.15054156 1.55729986 -0.04272545
H  1.41524253 0.66370323 -0.04171491
6
MD Step 109
C  -0.32713526 -0.57174773 0.00822773
H  0.20172572 -1.52839692 -0.03777286
H  -1.42963825 -0.57058143 -0.03862185
C  0.32417062 0.56156844 0.00507737
H  -0.14856522 1.55558535 -0.04161112
H  1.41180450 0.66468973 -0.04053815
6
MD Step 110
C  -0.32677704 -0.57123987 0.00806781
H  0.20038702 -1.52886436 -0.03671399
H  -1.43015730 -0.57182016 -0.03762069
C  0.32410924 0.56132017 0.00485475
H  -0.14667511 1.55348389 -0.04039023
H  1.40823502 0.66540405 -0.03926064
6
MD Step 111
C  -0.32647033 -0.57078818 0.00789216
H  0.19883484 -1.52919111 -0.03556900
H  -1.43027271 -0.57321565 -0.03652699
C  0.32409984 0.56118306 0.00461789
H  -0.14490949 1.55102712 -0.03907716
H  1.40459421 0.66583455 -0.03789706
6
MD Step 112
C  -0.32622180 -0.57039949 0.00769720
H  0.19710570 -1.52935197 -0.03431337
H  -1.42995169 -0.57473324 -0.03531559
C  0.32413515 0.56115033 0.00436280
H  -0.14327214 1.54829020 -0.03765103
H  1.40098271 0.66600831 -0.03642732
6
MD Step 113
C  -0.32603071 -0.57007301 0.00748547
H  0.19519861 -1.52936600 -0.03296394
H  -1.42921064 -0.57637750 -0.03400347
C  0.32421436 0.56122069 0.00409287
H  -0.14180778 1.54531431 -0.03613042
H  1.39746345 0.66591367 -0.03486998
6
MD Step 114
C  -0.32589987 -0.56981161 0.00725553
H  0.19314203 -1.52922967 -0.03151069
H  -1.42804809 -0.57812620 -0.03258059
C  0.32433181 0.56138733 0.00380668
H  -0.14053559 1.54217249 -0.03450826
H  1.39412672 0.66556737 -0.03321806
6
MD Step 115
C  -0.32582837 -0.56961437 0.00700872
H  0.19094934 -1.52896089 -0.02996175
H  -1.42648903 -0.57997421 -0.03105544
C  0.32448463 0.56164535 0.00350599
H  -0.13949236 1.53892434 -0.03279484
H  1.39104409 0.66496992 -0.03148158
6
MD Step 116
C  -0.32580934 -0.56947436 0.00675120
H  0.18860496 -1.52861220 -0.02835724
H  -1.42459810 -0.58194687 -0.02946888
C  0.32467516 0.56199417 0.00319821
H  -0.13874520 1.53560139 -0.03103088
H  1.38825327 0.66409189 -0.02970054
6
MD Step 117
C  -0.32584391 -0.56939285 0.00648103
H  0.18614843 -1.52818633 -0.02668372
H  -1.42239467 -0.58401691 -0.02780790
C  0.32489676 0.56242371 0.00288122
H  -0.13830788 1.53228956 -0.02920556
H  1.38584029 0.66295816 -0.02786367
6
MD Step 118
C  -0.32593423 -0.56937234 0.00619458
H  0.18363212 -1.52767770 -0.02491675
H  -1.41989439 -0.58614593 -0.02604854
C  0.32514102 0.56292154 0.00255089
H  -0.13818138 1.52908580 -0.02729725
H  1.38389561 0.66160577 -0.02594881
6
MD Step 119
C  -0.32607231 -0.56940501 0.00589723
H  0.18105222 -1.52714044 -0.02309035
H  -1.41717766 -0.58835240 -0.02422575
C  0.32540957 0.56348441 0.00221335
H  -0.13842084 1.52602796 -0.02534040
H  1.38244352 0.66001490 -0.02398939
6
MD Step 120
C  -0.32625126 -0.56948435 0.00559269
H  0.17841667 -1.52661968 -0.02122788
H  -1.41432013 -0.59064421 -0.02236383
C  0.32570259 0.56410719 0.00187278
H  -0.13906734 1.52316107 -0.02335885
H  1.38150870 0.65817716 -0.02200822
6
MD Step 121
C  -0.32647463 -0.56961466 0.00527424
H  0.17580076 -1.52609499 -0.01928537
H  -1.41133553 -0.59296319 -0.02041939
C  0.32600936 0.56477371 0.00152154
H  -0.14009173 1.52059147 -0.02131097
H  1.38117077 0.65615161 -0.01996297
6
MD Step 122
C  -0.32673311 -0.56978726 0.00494698
H  0.17320490 -1.52562136 -0.01729480
H  -1.40831691 -0.59532571 -0.01842540
C  0.32633237 0.56548052 0.00116520
H  -0.14153398 1.51834363 -0.01922849
H  1.38142124 0.65392259 -0.01788432
6
MD Step 123
C  -0.32702239 -0.56999876 0.00461084
H  0.17066216 -1.52522066 -0.01525498
H  -1.40532705 -0.59771572 -0.01638145
C  0.32666908 0.56621917 0.00080352
H  -0.14339564 1.51646625 -0.01711056
H  1.38227060 0.65150783 -0.01577063
6
MD Step 124
C  -0.32733892 -0.57024669 0.00426471
H  0.16821107 -1.52490765 -0.01315861
H  -1.40242382 -0.60011126 -0.01428094
C  0.32701642 0.56698075 0.00043515
H  -0.14566566 1.51500427 -0.01495002
H  1.38372136 0.64893163 -0.01361408
6
MD Step 125
C  -0.32768076 -0.57053032 0.00390572
H  0.16589989 -1.52468464 -0.01098749
H  -1.39965405 -0.60247985 -0.01210623
C  0.32736999 0.56775528 0.00005689
H  -0.14831528 1.51400242 -0.01272877
H  1.38577264 0.64622952 -0.01139609