 Entering Gaussian System, Link 0=g16
 Initial command:
 /software/gaussian/g16-c01/avx/g16/l1.exe "/gpfs/fs2/scratch/bweight/software/many_molecule_many_mode_NAMD/src/NAMD/TEST_OUTPUT/G16/TD_NEW_S1/Gau-9051.inp" -scrdir="/gpfs/fs2/scratch/bweight/software/many_molecule_many_mode_NAMD/src/NAMD/TEST_OUTPUT/G16/TD_NEW_S1/"
 Entering Link 1 = /software/gaussian/g16-c01/avx/g16/l1.exe PID=      9052.
  
 Copyright (c) 1988-2019, Gaussian, Inc.  All Rights Reserved.
  
 This is part of the Gaussian(R) 16 program.  It is based on
 the Gaussian(R) 09 system (copyright 2009, Gaussian, Inc.),
 the Gaussian(R) 03 system (copyright 2003, Gaussian, Inc.),
 the Gaussian(R) 98 system (copyright 1998, Gaussian, Inc.),
 the Gaussian(R) 94 system (copyright 1995, Gaussian, Inc.),
 the Gaussian 92(TM) system (copyright 1992, Gaussian, Inc.),
 the Gaussian 90(TM) system (copyright 1990, Gaussian, Inc.),
 the Gaussian 88(TM) system (copyright 1988, Gaussian, Inc.),
 the Gaussian 86(TM) system (copyright 1986, Carnegie Mellon
 University), and the Gaussian 82(TM) system (copyright 1983,
 Carnegie Mellon University). Gaussian is a federally registered
 trademark of Gaussian, Inc.
  
 This software contains proprietary and confidential information,
 including trade secrets, belonging to Gaussian, Inc.
  
 This software is provided under written license and may be
 used, copied, transmitted, or stored only in accord with that
 written license.
  
 The following legend is applicable only to US Government
 contracts under FAR:
  
                    RESTRICTED RIGHTS LEGEND
  
 Use, reproduction and disclosure by the US Government is
 subject to restrictions as set forth in subparagraphs (a)
 and (c) of the Commercial Computer Software - Restricted
 Rights clause in FAR 52.227-19.
  
 Gaussian, Inc.
 340 Quinnipiac St., Bldg. 40, Wallingford CT 06492
  
  
 ---------------------------------------------------------------
 Warning -- This program may not be used in any manner that
 competes with the business of Gaussian, Inc. or will provide
 assistance to any competitor of Gaussian, Inc.  The licensee
 of this program is prohibited from giving any competitor of
 Gaussian, Inc. access to this program.  By using this program,
 the user acknowledges that Gaussian, Inc. is engaged in the
 business of creating and licensing software in the field of
 computational chemistry and represents and warrants to the
 licensee that it is not a competitor of Gaussian, Inc. and that
 it will not use this program in any manner prohibited above.
 ---------------------------------------------------------------
  

 Cite this work as:
 Gaussian 16, Revision C.01,
 M. J. Frisch, G. W. Trucks, H. B. Schlegel, G. E. Scuseria, 
 M. A. Robb, J. R. Cheeseman, G. Scalmani, V. Barone, 
 G. A. Petersson, H. Nakatsuji, X. Li, M. Caricato, A. V. Marenich, 
 J. Bloino, B. G. Janesko, R. Gomperts, B. Mennucci, H. P. Hratchian, 
 J. V. Ortiz, A. F. Izmaylov, J. L. Sonnenberg, D. Williams-Young, 
 F. Ding, F. Lipparini, F. Egidi, J. Goings, B. Peng, A. Petrone, 
 T. Henderson, D. Ranasinghe, V. G. Zakrzewski, J. Gao, N. Rega, 
 G. Zheng, W. Liang, M. Hada, M. Ehara, K. Toyota, R. Fukuda, 
 J. Hasegawa, M. Ishida, T. Nakajima, Y. Honda, O. Kitao, H. Nakai, 
 T. Vreven, K. Throssell, J. A. Montgomery, Jr., J. E. Peralta, 
 F. Ogliaro, M. J. Bearpark, J. J. Heyd, E. N. Brothers, K. N. Kudin, 
 V. N. Staroverov, T. A. Keith, R. Kobayashi, J. Normand, 
 K. Raghavachari, A. P. Rendell, J. C. Burant, S. S. Iyengar, 
 J. Tomasi, M. Cossi, J. M. Millam, M. Klene, C. Adamo, R. Cammi, 
 J. W. Ochterski, R. L. Martin, K. Morokuma, O. Farkas, 
 J. B. Foresman, and D. J. Fox, Gaussian, Inc., Wallingford CT, 2019.
 
 ******************************************
 Gaussian 16:  ES64L-G16RevC.01  3-Jul-2019
                30-Dec-2022 
 ******************************************
 %oldchk=../GS_NEW/geometry.chk
 %chk=geometry.chk
 %nprocshared=1
 Will use up to    1 processors via shared memory.
 %mem=5GB
 Copying data from "../GS_NEW/geometry.chk" to current chk file "geometry.chk"
 IOpt=  2 FromEx=T IUOpen= 4 IOptOp= 5 NList=   0 IFRang= 0 IUIn= 4 IUOut= 2.
 ----------------------------------------------------------------------
 # B3LYP/6-31G* SCF=XQC TD=(singlets,nstates=2,root=1) FORCE nosym pop=
 full guess=read
 ----------------------------------------------------------------------
 1/10=7,30=1,38=1/1,3;
 2/12=2,15=1,17=6,18=5,40=1/2;
 3/5=1,6=6,7=1,11=9,25=1,30=1,71=1,74=-5,116=-2/1,2,3,8;
 4/5=1/1;
 5/5=2,8=3,13=1,38=6/2,8;
 8/6=1,10=2,107=1,108=2/1;
 9/8=1,15=2,41=2,42=1,48=1,70=2/14;
 10/5=4,28=1,31=1/2;
 6/7=3,18=1/1;
 7/12=6,13=5,14=1,29=1,30=1/1,2,3,16;
 1/10=7,30=1/3;
 99//99;
 -----------
 MD Step 122
 -----------
 Symbolic Z-matrix:
 Charge =  0 Multiplicity = 1
 Li                    1.02092   1.02057   0.8185 
 F                     0.61267   0.61276   4.68668 
 

 GradGradGradGradGradGradGradGradGradGradGradGradGradGradGradGradGradGrad
 Berny optimization.
 Initialization pass.
 Trust Radius=3.00D-01 FncErr=1.00D-07 GrdErr=1.00D-07 EigMax=2.50D+02 EigMin=1.00D-04
 Number of steps in this run=      2 maximum allowed number of steps=      2.
 GradGradGradGradGradGradGradGradGradGradGradGradGradGradGradGradGradGrad

                          Input orientation:                          
 ---------------------------------------------------------------------
 Center     Atomic      Atomic             Coordinates (Angstroms)
 Number     Number       Type             X           Y           Z
 ---------------------------------------------------------------------
      1          3           0        1.020918    1.020573    0.818501
      2          9           0        0.612667    0.612758    4.686676
 ---------------------------------------------------------------------
 Symmetry turned off by external request.
 Stoichiometry    FLi
 Framework group  C*V[C*(LiF)]
 Deg. of freedom     1
 Full point group                 C*V     NOp   4
 Rotational constants (GHZ):           0.0000000           6.4484181           6.4484181
 Standard basis: 6-31G(d) (6D, 7F)
    30 basis functions,    56 primitive gaussians,    30 cartesian basis functions
     6 alpha electrons        6 beta electrons
       nuclear repulsion energy         3.6532500650 Hartrees.
 NAtoms=    2 NActive=    2 NUniq=    2 SFac= 1.00D+00 NAtFMM=   60 NAOKFM=F Big=F
 Integral buffers will be    131072 words long.
 Regular integral format.
 Two-electron integral symmetry is turned off.
 One-electron integrals computed using PRISM.
 NBasis=    30 RedAO= T EigKep=  7.03D-03  NBF=    30
 NBsUse=    30 1.00D-06 EigRej= -1.00D+00 NBFU=    30
 Initial guess from the checkpoint file:  "geometry.chk"
 B after Tr=     0.000000    0.000000    0.000000
         Rot=    1.000000    0.000000    0.000000    0.000000 Ang=   0.00 deg.
 Keep R1 ints in memory in canonical form, NReq=972176.
 Requested convergence on RMS density matrix=1.00D-08 within  32 cycles.
 Requested convergence on MAX density matrix=1.00D-06.
 Requested convergence on             energy=1.00D-06.
 No special actions if energy rises.
 SCF Done:  E(RB3LYP) =  -107.237523140     A.U. after    1 cycles
            NFock=  1  Conv=0.42D-08     -V/T= 2.0064
 QCSCF skips out because SCF is already converged.
 DoSCS=F DFT=T ScalE2(SS,OS)=  1.000000  1.000000
 ExpMin= 3.60D-02 ExpMax= 7.00D+03 ExpMxC= 1.05D+03 IAcc=3 IRadAn=         5 AccDes= 0.00D+00
 HarFok:  IExCor=  205 AccDes= 0.00D+00 IRadAn=         5 IDoV=-2 UseB2=F ITyADJ=14
 ICtDFT= 12500011 ScaDFX=  1.000000  1.000000  1.000000  1.000000
 Range of M.O.s used for correlation:     3    30
 NBasis=    30 NAE=     6 NBE=     6 NFC=     2 NFV=     0
 NROrb=     28 NOA=     4 NOB=     4 NVA=    24 NVB=    24

 **** Warning!!: The smallest alpha delta epsilon is  0.43405640D-01

 Keep R1, R2, and R3 ints in memory in canonical form, NReq=1252301.
     8 initial guesses have been made.
 Convergence on wavefunction:    0.000001000000000
 Iteration     1 Dimension     8 NMult     0 NNew      8
 CISAX will form     8 AO SS matrices at one time.
 New state      1 was old state      2
 New state      2 was old state      3
 Iteration     2 Dimension    12 NMult     8 NNew      4
 New state      1 was old state      2
 New state      2 was old state      1
 Iteration     3 Dimension    16 NMult    12 NNew      4
 Iteration     4 Dimension    20 NMult    16 NNew      4
 Iteration     5 Dimension    24 NMult    20 NNew      4
 Iteration     6 Dimension    28 NMult    24 NNew      4
 Iteration     7 Dimension    32 NMult    28 NNew      4
 Iteration     8 Dimension    36 NMult    32 NNew      4
 Iteration     9 Dimension    40 NMult    36 NNew      4
 Iteration    10 Dimension    44 NMult    40 NNew      4
 Iteration    11 Dimension    48 NMult    44 NNew      4
 Iteration    12 Dimension    52 NMult    48 NNew      4
 Iteration    13 Dimension    56 NMult    52 NNew      4
 Iteration    14 Dimension    59 NMult    56 NNew      3
 Iteration    15 Dimension    63 NMult    59 NNew      4
 Iteration    16 Dimension    67 NMult    63 NNew      4
 Iteration    17 Dimension    70 NMult    67 NNew      3
 Iteration    18 Dimension    71 NMult    70 NNew      1
 Iteration    19 Dimension    72 NMult    71 NNew      1
 Iteration    20 Dimension    74 NMult    72 NNew      2
 Iteration    21 Dimension    75 NMult    74 NNew      1
 Iteration    22 Dimension    76 NMult    75 NNew      1
 Iteration    23 Dimension    77 NMult    76 NNew      1
 ***********************************************************************
 Excited states from <AA,BB:AA,BB> singles matrix:
 ***********************************************************************
 
 Ground to excited state transition densities written to RWF  633
 Ground to excited state transition electric dipole moments (Au):
       state          X           Y           Z        Dip. S.      Osc.
         1        -0.1040      0.1056      0.0002      0.0220      0.0001
         2         0.1044      0.1028      0.0219      0.0220      0.0001
 Ground to excited state transition velocity dipole moments (Au):
       state          X           Y           Z        Dip. S.      Osc.
         1        -0.0096      0.0098      0.0000      0.0002      0.0229
         2         0.0097      0.0095      0.0020      0.0002      0.0229
 Ground to excited state transition magnetic dipole moments (Au):
       state          X           Y           Z
         1        -0.5454     -0.5371     -0.0736
         2        -0.5389      0.5471      0.0005
 Ground to excited state transition velocity quadrupole moments (Au):
       state          XX          YY          ZZ          XY          XZ          YZ
         1        -0.0533      0.0541     -0.0001      0.0004      0.0619     -0.0628
         2         0.0535      0.0527     -0.0260      0.0531     -0.0565     -0.0556
 <0|del|b> * <b|rxdel|0> + <0|del|b> * <b|delr+rdel|0>
 Rotatory Strengths (R) in cgs (10**-40 erg-esu-cm/Gauss)
       state          XX          YY          ZZ    R(velocity)    E-M Angle
         1      -378.7753    378.6334      0.1206     -0.0071       90.00
         2       378.7829   -378.6583     -0.1133      0.0038       90.00
 1/2[<0|r|b>*<b|rxdel|0> + (<0|rxdel|b>*<b|r|0>)*]
 Rotatory Strengths (R) in cgs (10**-40 erg-esu-cm/Gauss)
       state          XX          YY          ZZ     R(length)
         1       -40.1032     40.0957      0.0080      0.0002
         2        39.7938    -39.7859     -0.0078      0.0000
  1/2[<0|del|b>*<b|r|0> + (<0|r|b>*<b|del|0>)*] (Au)
       state          X           Y           Z        Dip. S.   Osc.(frdel)
         1         0.0010      0.0010      0.0000     -0.0020     -0.0014
         2         0.0010      0.0010      0.0000     -0.0020     -0.0014

 Excitation energies and oscillator strengths:
 
 Excited state symmetry could not be determined.
 Excited State   1:      Singlet-?Sym    0.1486 eV 8344.42 nm  f=0.0001  <S**2>=0.000
       4 ->  7        -0.76144
       4 -> 10        -0.10386
       4 <-  7         0.29431
 This state for optimization and/or second-order correction.
 Total Energy, E(TD-HF/TD-DFT) =  -107.232062804    
 Copying the excited state density for this state as the 1-particle RhoCI density.
 
 Excited state symmetry could not be determined.
 Excited State   2:      Singlet-?Sym    0.1486 eV 8344.41 nm  f=0.0001  <S**2>=0.000
       5 ->  7        -0.76144
       5 -> 10        -0.10386
       5 <-  7         0.29431
 SavETr:  write IOETrn=   770 NScale= 10 NData=  16 NLR=1 NState=    2 LETran=      46.
          IDoAtm=11
          Differentiating once with respect to electric field.
                with respect to dipole field.
          Differentiating once with respect to nuclear coordinates.
 Keep R1 ints in memory in canonical form, NReq=973697.
          There are     1 degrees of freedom in the 1st order CPHF.  IDoFFX=0 NUNeed=     1.
 LinEq1:  Iter=  0 NonCon=     1 RMS=1.95D+00 Max=2.29D+01 NDo=     1
 AX will form     1 AO Fock derivatives at one time.
 LinEq1:  Iter=  1 NonCon=     1 RMS=2.71D-01 Max=3.01D+00 NDo=     1
 LinEq1:  Iter=  2 NonCon=     1 RMS=4.05D-02 Max=2.71D-01 NDo=     1
 LinEq1:  Iter=  3 NonCon=     1 RMS=6.46D-03 Max=4.65D-02 NDo=     1
 LinEq1:  Iter=  4 NonCon=     1 RMS=8.50D-04 Max=7.89D-03 NDo=     1
 LinEq1:  Iter=  5 NonCon=     1 RMS=1.90D-04 Max=1.26D-03 NDo=     1
 LinEq1:  Iter=  6 NonCon=     1 RMS=2.37D-05 Max=1.33D-04 NDo=     1
 LinEq1:  Iter=  7 NonCon=     1 RMS=8.28D-07 Max=4.84D-06 NDo=     1
 LinEq1:  Iter=  8 NonCon=     1 RMS=1.21D-07 Max=1.27D-06 NDo=     1
 LinEq1:  Iter=  9 NonCon=     1 RMS=2.14D-08 Max=1.39D-07 NDo=     1
 LinEq1:  Iter= 10 NonCon=     1 RMS=1.63D-09 Max=9.92D-09 NDo=     1
 LinEq1:  Iter= 11 NonCon=     1 RMS=1.30D-10 Max=7.93D-10 NDo=     1
 LinEq1:  Iter= 12 NonCon=     0 RMS=1.34D-11 Max=7.64D-11 NDo=     1
 Linear equations converged to 1.000D-10 1.000D-09 after    12 iterations.
 End of Minotr F.D. properties file   721 does not exist.
 End of Minotr F.D. properties file   722 does not exist.
 End of Minotr F.D. properties file   788 does not exist.

 **********************************************************************

            Population analysis using the SCF Density.

 **********************************************************************

 Alpha  occ. eigenvalues --  -24.45603  -2.13765  -0.88960  -0.16653  -0.16653
 Alpha  occ. eigenvalues --   -0.16641
 Alpha virt. eigenvalues --   -0.12300  -0.04669  -0.04669  -0.02283   0.07560
 Alpha virt. eigenvalues --    0.08066   0.08066   0.12776   0.38748   0.38749
 Alpha virt. eigenvalues --    0.39185   0.39185   0.39433   1.04314   1.13254
 Alpha virt. eigenvalues --    1.36807   1.36807   1.38589   2.05169   2.05169
 Alpha virt. eigenvalues --    2.05276   2.06277   2.06277   3.62255
     Molecular Orbital Coefficients:
                           1         2         3         4         5
                           O         O         O         O         O
     Eigenvalues --   -24.45603  -2.13765  -0.88960  -0.16653  -0.16653
   1 1   Li 1S          0.00003   0.99849  -0.00182  -0.00000  -0.00001
   2        2S          0.00043   0.05285  -0.01578   0.00000   0.00004
   3        2PX        -0.00002   0.00025   0.00058   0.00942  -0.00946
   4        2PY        -0.00002   0.00025   0.00057  -0.00956  -0.00931
   5        2PZ         0.00019  -0.00237  -0.00545  -0.00001  -0.00197
   6        3S         -0.00041  -0.02456   0.01873   0.00000   0.00004
   7        3PX         0.00004  -0.00014  -0.00177  -0.05381   0.05405
   8        3PY         0.00004  -0.00014  -0.00177   0.05464   0.05321
   9        3PZ        -0.00038   0.00135   0.01678   0.00008   0.01132
  10        4XX        -0.00003  -0.00594   0.00086   0.00038  -0.00038
  11        4YY        -0.00003  -0.00594   0.00086  -0.00038  -0.00038
  12        4ZZ        -0.00010  -0.00609   0.00420   0.00001   0.00075
  13        4XY        -0.00000  -0.00000   0.00004  -0.00000  -0.00043
  14        4XZ         0.00001   0.00002  -0.00041  -0.00206   0.00202
  15        4YZ         0.00001   0.00002  -0.00041   0.00209   0.00199
  16 2   F  1S          0.99313  -0.00012  -0.23991   0.00000   0.00000
  17        2S          0.01984  -0.00063   0.50818  -0.00000  -0.00000
  18        2PX         0.00001   0.00000   0.00042  -0.45643   0.45848
  19        2PY         0.00001   0.00000   0.00042   0.46347   0.45137
  20        2PZ        -0.00009  -0.00004  -0.00403   0.00069   0.09589
  21        3S          0.01376   0.00211   0.57986  -0.00000  -0.00001
  22        3PX         0.00000  -0.00000   0.00027  -0.34821   0.34978
  23        3PY         0.00000  -0.00000   0.00027   0.35359   0.34435
  24        3PZ        -0.00001   0.00002  -0.00251   0.00053   0.07316
  25        4XX        -0.00765  -0.00043  -0.00185  -0.00023   0.00023
  26        4YY        -0.00765  -0.00043  -0.00185   0.00023   0.00023
  27        4ZZ        -0.00767  -0.00052   0.00289  -0.00000  -0.00046
  28        4XY        -0.00000  -0.00000   0.00006   0.00000   0.00026
  29        4XZ         0.00000   0.00001  -0.00058   0.00125  -0.00123
  30        4YZ         0.00000   0.00001  -0.00058  -0.00127  -0.00121
                           6         7         8         9        10
                           O         V         V         V         V
     Eigenvalues --    -0.16641  -0.12300  -0.04669  -0.04669  -0.02283
   1 1   Li 1S          0.08302  -0.16318   0.00000   0.00000  -0.03505
   2        2S         -0.24722   0.48290  -0.00000  -0.00000   0.34279
   3        2PX         0.00528   0.01982  -0.45096   0.45216  -0.07057
   4        2PY         0.00527   0.01980   0.45710   0.44596  -0.07049
   5        2PZ        -0.05005  -0.18781   0.00060   0.09474   0.66861
   6        3S         -0.25335   0.44392   0.00000   0.00000  -0.07544
   7        3PX         0.00539   0.01255  -0.28554   0.28630  -0.03364
   8        3PY         0.00538   0.01253   0.28943   0.28238  -0.03360
   9        3PZ        -0.05099  -0.11888   0.00038   0.05999   0.31869
  10        4XX         0.02695  -0.00663  -0.00307   0.00307   0.00922
  11        4YY         0.02695  -0.00663   0.00310   0.00303   0.00923
  12        4ZZ         0.01131  -0.01857  -0.00004  -0.00610  -0.06091
  13        4XY        -0.00020  -0.00016   0.00003   0.00352  -0.00091
  14        4XZ         0.00193   0.00147   0.01678  -0.01645   0.00864
  15        4YZ         0.00193   0.00147  -0.01700  -0.01622   0.00863
  16 2   F  1S         -0.00694   0.00096  -0.00000  -0.00000   0.01496
  17        2S          0.00939  -0.00339  -0.00000  -0.00000  -0.01610
  18        2PX        -0.05943  -0.02719   0.03259  -0.03268  -0.01733
  19        2PY        -0.05937  -0.02716  -0.03303  -0.03223  -0.01731
  20        2PZ         0.56374   0.25763  -0.00004  -0.00685   0.16423
  21        3S          0.03931  -0.00192   0.00000   0.00000  -0.09950
  22        3PX        -0.04557  -0.02104   0.02682  -0.02689  -0.01491
  23        3PY        -0.04552  -0.02102  -0.02718  -0.02652  -0.01489
  24        3PZ         0.43222   0.19939  -0.00004  -0.00563   0.14127
  25        4XX        -0.00255  -0.00036  -0.00009   0.00009   0.00996
  26        4YY        -0.00255  -0.00036   0.00009   0.00009   0.00996
  27        4ZZ        -0.00606  -0.00081  -0.00000  -0.00018   0.01109
  28        4XY        -0.00005  -0.00001   0.00000   0.00010   0.00001
  29        4XZ         0.00043   0.00006   0.00049  -0.00048  -0.00014
  30        4YZ         0.00043   0.00006  -0.00049  -0.00047  -0.00014
                          11        12        13        14        15
                           V         V         V         V         V
     Eigenvalues --     0.07560   0.08066   0.08066   0.12776   0.38748
   1 1   Li 1S          0.05834  -0.00000   0.00000   0.08084  -0.00000
   2        2S          2.03393  -0.00000   0.00001   2.51881  -0.00000
   3        2PX         0.12730  -1.09491  -1.07974  -0.09825  -0.00000
   4        2PY         0.12716   1.09174  -1.08298  -0.09815   0.00000
   5        2PZ        -1.20615  -0.00046  -0.22813   0.93096  -0.00000
   6        3S         -1.63272   0.00000  -0.00001  -2.06949   0.00000
   7        3PX        -0.13318   1.14967   1.13374   0.11575   0.00000
   8        3PY        -0.13304  -1.14633   1.13713   0.11562  -0.00000
   9        3PZ         1.26183   0.00048   0.23954  -1.09670   0.00000
  10        4XX        -0.20504  -0.00244  -0.00241  -0.23424  -0.85653
  11        4YY        -0.20504   0.00243  -0.00241  -0.23424   0.85657
  12        4ZZ        -0.17972   0.00001   0.00482  -0.23692  -0.00004
  13        4XY         0.00033  -0.00000  -0.00278  -0.00003  -0.00082
  14        4XZ        -0.00312   0.01336   0.01288   0.00033  -0.10447
  15        4YZ        -0.00312  -0.01332   0.01292   0.00033   0.10419
  16 2   F  1S          0.01056  -0.00000  -0.00000  -0.02973   0.00000
  17        2S          0.01574  -0.00000  -0.00000   0.01247   0.00000
  18        2PX         0.00111  -0.02521  -0.02486   0.00412  -0.00000
  19        2PY         0.00111   0.02514  -0.02493   0.00411   0.00000
  20        2PZ        -0.01055  -0.00001  -0.00525  -0.03901  -0.00000
  21        3S         -0.12899   0.00000   0.00000   0.26576  -0.00000
  22        3PX        -0.00018  -0.02503  -0.02469   0.00660   0.00000
  23        3PY        -0.00018   0.02496  -0.02476   0.00659  -0.00000
  24        3PZ         0.00167  -0.00001  -0.00522  -0.06253   0.00000
  25        4XX         0.02003   0.00001   0.00001  -0.02958  -0.00010
  26        4YY         0.02003  -0.00001   0.00001  -0.02958   0.00010
  27        4ZZ         0.01857  -0.00000  -0.00002  -0.02536  -0.00000
  28        4XY        -0.00002   0.00000   0.00001   0.00005  -0.00000
  29        4XZ         0.00018  -0.00005  -0.00005  -0.00052  -0.00001
  30        4YZ         0.00018   0.00005  -0.00005  -0.00052   0.00001
                          16        17        18        19        20
                           V         V         V         V         V
     Eigenvalues --     0.38749   0.39185   0.39185   0.39433   1.04314
   1 1   Li 1S         -0.00000  -0.00000  -0.00000  -0.00198   0.10750
   2        2S         -0.00001  -0.00000  -0.00000   0.00189   9.14711
   3        2PX         0.00000   0.03139   0.03215  -0.00592   0.00103
   4        2PY         0.00000   0.03181  -0.03175  -0.00592   0.00103
   5        2PZ        -0.00000   0.00667   0.00005   0.05610  -0.00978
   6        3S          0.00000   0.00000   0.00000   0.00901  -2.82377
   7        3PX         0.00000  -0.01501  -0.01538   0.00203  -0.00176
   8        3PY         0.00000  -0.01521   0.01518   0.00203  -0.00176
   9        3PZ         0.00000  -0.00319  -0.00002  -0.01927   0.01665
  10        4XX        -0.01013  -0.12557  -0.12859  -0.48169  -3.05175
  11        4YY        -0.00871  -0.12709   0.12682  -0.48173  -3.05175
  12        4ZZ         0.01885   0.25266   0.00177   0.96381  -3.05382
  13        4XY         0.98911  -0.14587  -0.00086   0.01880  -0.00003
  14        4XZ         0.10306   0.67143   0.70335  -0.17817   0.00026
  15        4YZ         0.10335   0.68048  -0.69465  -0.17798   0.00026
  16 2   F  1S          0.00000  -0.00000  -0.00000  -0.00358   0.01080
  17        2S          0.00000  -0.00000  -0.00000  -0.07409   0.23688
  18        2PX        -0.00000  -0.00560  -0.00574  -0.00521  -0.01614
  19        2PY        -0.00000  -0.00568   0.00567  -0.00520  -0.01612
  20        2PZ        -0.00000  -0.00119  -0.00001   0.04935   0.15290
  21        3S         -0.00000   0.00001   0.00000   0.14470  -0.42376
  22        3PX         0.00000   0.00162   0.00166   0.00090   0.01198
  23        3PY         0.00000   0.00164  -0.00164   0.00089   0.01197
  24        3PZ         0.00000   0.00034   0.00000  -0.00849  -0.11354
  25        4XX        -0.00000   0.00019   0.00020  -0.04320   0.10117
  26        4YY        -0.00000   0.00019  -0.00020  -0.04320   0.10117
  27        4ZZ         0.00000  -0.00039  -0.00000  -0.03450   0.13964
  28        4XY         0.00011   0.00023   0.00000   0.00011   0.00050
  29        4XZ         0.00001  -0.00104  -0.00109  -0.00107  -0.00474
  30        4YZ         0.00001  -0.00105   0.00107  -0.00107  -0.00474
                          21        22        23        24        25
                           V         V         V         V         V
     Eigenvalues --     1.13254   1.36807   1.36807   1.38589   2.05169
   1 1   Li 1S          0.04025  -0.00000  -0.00000   0.00668  -0.00000
   2        2S          1.76315  -0.00000  -0.00001   1.55492  -0.00003
   3        2PX        -0.01939  -0.02894   0.02913  -0.00065  -0.00328
   4        2PY        -0.01937   0.02945   0.02862  -0.00065  -0.00329
   5        2PZ         0.18370   0.00005   0.00609   0.00617  -0.00070
   6        3S         -0.79202   0.00000   0.00000  -0.37384   0.00001
   7        3PX         0.03562   0.04741  -0.04772  -0.00996   0.00953
   8        3PY         0.03558  -0.04824  -0.04688  -0.00995   0.00956
   9        3PZ        -0.33747  -0.00008  -0.00998   0.09437   0.00201
  10        4XX        -0.47512  -0.00104   0.00105  -0.57205  -0.00034
  11        4YY        -0.47512   0.00106   0.00103  -0.57205  -0.00034
  12        4ZZ        -0.55226  -0.00002  -0.00208  -0.49451   0.00070
  13        4XY        -0.00100   0.00001   0.00120   0.00101  -0.00040
  14        4XZ         0.00951   0.00571  -0.00562  -0.00956   0.00184
  15        4YZ         0.00950  -0.00580  -0.00552  -0.00955   0.00185
  16 2   F  1S         -0.09750  -0.00000  -0.00000   0.00667   0.00000
  17        2S         -1.91734   0.00000   0.00000   0.15204   0.00000
  18        2PX         0.00496   0.66735  -0.67171   0.09827  -0.00039
  19        2PY         0.00495  -0.67902  -0.65992   0.09817  -0.00039
  20        2PZ        -0.04698  -0.00116  -0.14046  -0.93113  -0.00008
  21        3S          3.74028  -0.00000   0.00000  -0.28947  -0.00000
  22        3PX        -0.00357  -0.73106   0.73585  -0.10932   0.00164
  23        3PY        -0.00357   0.74385   0.72293  -0.10921   0.00165
  24        3PZ         0.03385   0.00127   0.15388   1.03586   0.00035
  25        4XX        -0.89688  -0.00025   0.00025   0.05799  -0.12630
  26        4YY        -0.89688   0.00026   0.00025   0.05799  -0.12651
  27        4ZZ        -0.88611  -0.00000  -0.00050   0.07163   0.25282
  28        4XY         0.00014   0.00000   0.00029   0.00018  -0.14593
  29        4XZ        -0.00133   0.00138  -0.00136  -0.00168   0.67538
  30        4YZ        -0.00133  -0.00141  -0.00134  -0.00168   0.67730
                          26        27        28        29        30
                           V         V         V         V         V
     Eigenvalues --     2.05169   2.05276   2.06277   2.06277   3.62255
   1 1   Li 1S          0.00000  -0.00560   0.00000  -0.00000   0.01407
   2        2S          0.00000  -0.58027   0.00000  -0.00000   0.23633
   3        2PX        -0.00333   0.00400  -0.00000  -0.00000  -0.00937
   4        2PY         0.00332   0.00399  -0.00000   0.00000  -0.00936
   5        2PZ        -0.00000  -0.03786   0.00000  -0.00000   0.08880
   6        3S         -0.00000   0.18279  -0.00000   0.00000  -0.20496
   7        3PX         0.00966  -0.00233   0.00000   0.00000   0.01889
   8        3PY        -0.00964  -0.00233   0.00000  -0.00000   0.01887
   9        3PZ         0.00000   0.02211  -0.00000   0.00000  -0.17896
  10        4XX        -0.00035   0.19324  -0.00000  -0.00016  -0.02313
  11        4YY         0.00035   0.19324   0.00000   0.00016  -0.02313
  12        4ZZ         0.00000   0.17607  -0.00000   0.00000  -0.05823
  13        4XY        -0.00000  -0.00022  -0.00018   0.00000  -0.00046
  14        4XZ         0.00191   0.00212  -0.00002  -0.00002   0.00433
  15        4YZ        -0.00190   0.00211  -0.00002   0.00002   0.00432
  16 2   F  1S         -0.00000   0.00320  -0.00000   0.00000  -0.50392
  17        2S         -0.00000   0.00847   0.00000   0.00000  -0.57955
  18        2PX        -0.00039  -0.00082   0.00000  -0.00000  -0.00143
  19        2PY         0.00039  -0.00082   0.00000   0.00000  -0.00143
  20        2PZ        -0.00000   0.00775  -0.00000   0.00000   0.01352
  21        3S          0.00000  -0.03753   0.00000  -0.00000   4.50376
  22        3PX         0.00167   0.00102  -0.00000   0.00000   0.00297
  23        3PY        -0.00166   0.00102  -0.00000  -0.00000   0.00296
  24        3PZ         0.00000  -0.00965   0.00000  -0.00000  -0.02811
  25        4XX        -0.12803  -0.47317  -0.00747   0.85656  -1.91610
  26        4YY         0.12755  -0.47320  -0.01138  -0.85653  -1.91610
  27        4ZZ         0.00048   0.97821   0.01885  -0.00002  -1.91093
  28        4XY        -0.00012   0.01887   0.98911  -0.00226   0.00007
  29        4XZ         0.70030  -0.17890   0.10337   0.10415  -0.00064
  30        4YZ        -0.69849  -0.17871   0.10301  -0.10451  -0.00064
     Density Matrix:
                           1         2         3         4         5
   1 1   Li 1S          2.00774
   2        2S          0.06456   0.12832
   3        2PX         0.00137  -0.00260   0.00041
   4        2PY         0.00137  -0.00260   0.00005   0.00041
   5        2PZ        -0.01302   0.02467  -0.00050  -0.00050   0.00509
   6        3S         -0.09118   0.12208  -0.00267  -0.00266   0.02527
   7        3PX         0.00062  -0.00262  -0.00198   0.00008  -0.00073
   8        3PY         0.00061  -0.00262   0.00008  -0.00198  -0.00073
   9        3PZ        -0.00583   0.02483  -0.00073  -0.00073   0.00487
  10        4XX        -0.00740  -0.01398   0.00030   0.00028  -0.00268
  11        4YY        -0.00740  -0.01398   0.00028   0.00030  -0.00268
  12        4ZZ        -0.01030  -0.00637   0.00011   0.00011  -0.00115
  13        4XY        -0.00004   0.00010   0.00001   0.00001   0.00002
  14        4XZ         0.00036  -0.00094  -0.00006   0.00002  -0.00020
  15        4YZ         0.00036  -0.00094   0.00002  -0.00006  -0.00020
  16 2   F  1S         -0.00046   0.01185  -0.00039  -0.00039   0.00368
  17        2S         -0.00154  -0.02073   0.00068   0.00068  -0.00647
  18        2PX        -0.00987   0.02940  -0.01790  -0.00044   0.00415
  19        2PY        -0.00986   0.02937  -0.00044  -0.01790   0.00414
  20        2PZ         0.09354  -0.27860   0.00415   0.00414  -0.05676
  21        3S          0.00863  -0.03750   0.00108   0.00108  -0.01026
  22        3PX        -0.00758   0.02255  -0.01366  -0.00034   0.00319
  23        3PY        -0.00757   0.02252  -0.00034  -0.01366   0.00318
  24        3PZ         0.07182  -0.21362   0.00319   0.00318  -0.04352
  25        4XX        -0.00128   0.00126  -0.00004  -0.00003   0.00027
  26        4YY        -0.00128   0.00126  -0.00003  -0.00004   0.00027
  27        4ZZ        -0.00206   0.00285  -0.00005  -0.00005   0.00058
  28        4XY        -0.00001   0.00002  -0.00001  -0.00001   0.00000
  29        4XZ         0.00010  -0.00019   0.00005   0.00000  -0.00003
  30        4YZ         0.00010  -0.00019   0.00000   0.00005  -0.00003
                           6         7         8         9        10
   6        3S          0.13028
   7        3PX        -0.00279   0.01170
   8        3PY        -0.00278  -0.00006   0.01170
   9        3PZ         0.02640   0.00061   0.00060   0.00602
  10        4XX        -0.01333   0.00021   0.00029  -0.00274   0.00153
  11        4YY        -0.01333   0.00029   0.00021  -0.00274   0.00152
  12        4ZZ        -0.00527   0.00019   0.00019  -0.00101   0.00069
  13        4XY         0.00010  -0.00005  -0.00005   0.00001  -0.00001
  14        4XZ        -0.00099   0.00046   0.00001  -0.00016   0.00010
  15        4YZ        -0.00099   0.00001   0.00046  -0.00016   0.00010
  16 2   F  1S         -0.00628   0.00085   0.00085  -0.00809  -0.00085
  17        2S          0.01430  -0.00170  -0.00170   0.01608   0.00139
  18        2PX         0.03016   0.09804  -0.00173   0.01638  -0.00390
  19        2PY         0.03013  -0.00173   0.09804   0.01637  -0.00319
  20        2PZ        -0.28579   0.01638   0.01636  -0.05546   0.03030
  21        3S          0.00169  -0.00163  -0.00163   0.01545   0.00309
  22        3PX         0.02312   0.07479  -0.00132   0.01252  -0.00298
  23        3PY         0.02310  -0.00132   0.07479   0.01251  -0.00245
  24        3PZ        -0.21910   0.01252   0.01251  -0.04251   0.02323
  25        4XX         0.00125   0.00003  -0.00002   0.00021  -0.00014
  26        4YY         0.00125  -0.00002   0.00003   0.00021  -0.00013
  27        4ZZ         0.00321  -0.00013  -0.00012   0.00071  -0.00031
  28        4XY         0.00003   0.00003   0.00003   0.00001  -0.00000
  29        4XZ        -0.00024  -0.00026   0.00001  -0.00009   0.00002
  30        4YZ        -0.00024   0.00001  -0.00026  -0.00009   0.00002
                          11        12        13        14        15
  11        4YY         0.00153
  12        4ZZ         0.00069   0.00037
  13        4XY        -0.00001  -0.00000   0.00000
  14        4XZ         0.00010   0.00004  -0.00000   0.00002
  15        4YZ         0.00010   0.00004  -0.00000   0.00001   0.00002
  16 2   F  1S         -0.00085  -0.00236  -0.00002   0.00019   0.00019
  17        2S          0.00139   0.00448   0.00004  -0.00038  -0.00038
  18        2PX        -0.00320  -0.00066  -0.00037   0.00350  -0.00031
  19        2PY        -0.00389  -0.00066  -0.00037  -0.00031   0.00350
  20        2PZ         0.03030   0.01286  -0.00031   0.00256   0.00256
  21        3S          0.00309   0.00573   0.00003  -0.00033  -0.00033
  22        3PX        -0.00245  -0.00051  -0.00028   0.00267  -0.00024
  23        3PY        -0.00298  -0.00051  -0.00028  -0.00024   0.00267
  24        3PZ         0.02324   0.00986  -0.00024   0.00196   0.00196
  25        4XX        -0.00013  -0.00007   0.00000  -0.00001  -0.00001
  26        4YY        -0.00014  -0.00007   0.00000  -0.00001  -0.00001
  27        4ZZ        -0.00031  -0.00011   0.00000  -0.00003  -0.00003
  28        4XY        -0.00000  -0.00000  -0.00000   0.00000   0.00000
  29        4XZ         0.00002   0.00000   0.00000  -0.00001   0.00000
  30        4YZ         0.00002   0.00000   0.00000   0.00000  -0.00001
                          16        17        18        19        20
  16 2   F  1S          2.08783
  17        2S         -0.20455   0.51746
  18        2PX         0.00064  -0.00068   0.84411
  19        2PY         0.00064  -0.00068  -0.00214   0.84412
  20        2PZ        -0.00607   0.00649   0.02029   0.02027   0.65402
  21        3S         -0.25144   0.59062  -0.00418  -0.00418   0.03965
  22        3PX         0.00051  -0.00059   0.64401  -0.00161   0.01522
  23        3PY         0.00051  -0.00059  -0.00161   0.64402   0.01521
  24        3PZ        -0.00480   0.00556   0.01522   0.01521   0.50137
  25        4XX        -0.01427  -0.00223   0.00072   0.00030  -0.00281
  26        4YY        -0.01427  -0.00223   0.00030   0.00072  -0.00281
  27        4ZZ        -0.01653   0.00252   0.00031   0.00031  -0.00695
  28        4XY        -0.00003   0.00006   0.00025   0.00025  -0.00000
  29        4XZ         0.00028  -0.00059  -0.00233  -0.00000   0.00026
  30        4YZ         0.00028  -0.00058  -0.00000  -0.00233   0.00026
                          21        22        23        24        25
  21        3S          0.67595
  22        3PX        -0.00328   0.49135
  23        3PY        -0.00327  -0.00120   0.49135
  24        3PZ         0.03106   0.01142   0.01141   0.38435
  25        4XX        -0.00256   0.00055   0.00023  -0.00216   0.00014
  26        4YY        -0.00256   0.00023   0.00055  -0.00216   0.00014
  27        4ZZ         0.00266   0.00024   0.00024  -0.00532   0.00014
  28        4XY         0.00007   0.00019   0.00019  -0.00000   0.00000
  29        4XZ        -0.00064  -0.00178  -0.00000   0.00020  -0.00000
  30        4YZ        -0.00064  -0.00000  -0.00178   0.00020  -0.00000
                          26        27        28        29        30
  26        4YY         0.00014
  27        4ZZ         0.00014   0.00021
  28        4XY         0.00000   0.00000   0.00000
  29        4XZ        -0.00000  -0.00001  -0.00000   0.00001
  30        4YZ        -0.00000  -0.00001  -0.00000   0.00000   0.00001
    Full Mulliken population analysis:
                           1         2         3         4         5
   1 1   Li 1S          2.00774
   2        2S          0.00938   0.12832
   3        2PX         0.00000   0.00000   0.00041
   4        2PY         0.00000   0.00000   0.00000   0.00041
   5        2PZ         0.00000   0.00000   0.00000   0.00000   0.00509
   6        3S         -0.01694   0.11054   0.00000   0.00000   0.00000
   7        3PX         0.00000   0.00000  -0.00159   0.00000   0.00000
   8        3PY         0.00000   0.00000   0.00000  -0.00159   0.00000
   9        3PZ         0.00000   0.00000   0.00000   0.00000   0.00391
  10        4XX        -0.00074  -0.01013   0.00000   0.00000   0.00000
  11        4YY        -0.00074  -0.01013   0.00000   0.00000   0.00000
  12        4ZZ        -0.00103  -0.00461   0.00000   0.00000   0.00000
  13        4XY         0.00000   0.00000   0.00000   0.00000   0.00000
  14        4XZ         0.00000   0.00000   0.00000   0.00000   0.00000
  15        4YZ         0.00000   0.00000   0.00000   0.00000   0.00000
  16 2   F  1S         -0.00000   0.00001   0.00000   0.00000   0.00001
  17        2S         -0.00000  -0.00013  -0.00000  -0.00000  -0.00013
  18        2PX        -0.00000   0.00001  -0.00003   0.00000   0.00001
  19        2PY        -0.00000   0.00001   0.00000  -0.00003   0.00001
  20        2PZ        -0.00000   0.00118   0.00001   0.00001   0.00071
  21        3S          0.00000  -0.00080  -0.00001  -0.00001  -0.00064
  22        3PX        -0.00000   0.00008  -0.00018   0.00000   0.00003
  23        3PY        -0.00000   0.00008   0.00000  -0.00018   0.00003
  24        3PZ        -0.00000   0.00720   0.00003   0.00003   0.00368
  25        4XX        -0.00000   0.00001   0.00000   0.00000   0.00001
  26        4YY        -0.00000   0.00001   0.00000   0.00000   0.00001
  27        4ZZ        -0.00000   0.00005   0.00000   0.00000   0.00003
  28        4XY        -0.00000   0.00000  -0.00000  -0.00000   0.00000
  29        4XZ        -0.00000   0.00000  -0.00000   0.00000   0.00000
  30        4YZ        -0.00000   0.00000   0.00000  -0.00000   0.00000
                           6         7         8         9        10
   6        3S          0.13028
   7        3PX         0.00000   0.01170
   8        3PY         0.00000   0.00000   0.01170
   9        3PZ         0.00000   0.00000   0.00000   0.00602
  10        4XX        -0.00795   0.00000   0.00000   0.00000   0.00153
  11        4YY        -0.00795   0.00000   0.00000   0.00000   0.00051
  12        4ZZ        -0.00315   0.00000   0.00000   0.00000   0.00023
  13        4XY         0.00000   0.00000   0.00000   0.00000   0.00000
  14        4XZ         0.00000   0.00000   0.00000   0.00000   0.00000
  15        4YZ         0.00000   0.00000   0.00000   0.00000   0.00000
  16 2   F  1S         -0.00003  -0.00000  -0.00000  -0.00010  -0.00000
  17        2S          0.00040   0.00001   0.00001   0.00122   0.00000
  18        2PX         0.00003   0.00063   0.00000   0.00004   0.00000
  19        2PY         0.00003   0.00000   0.00063   0.00004  -0.00000
  20        2PZ         0.00267   0.00004   0.00004   0.00103  -0.00000
  21        3S          0.00012   0.00003   0.00003   0.00285   0.00000
  22        3PX         0.00014   0.00304   0.00000   0.00019   0.00000
  23        3PY         0.00014   0.00000   0.00304   0.00019  -0.00000
  24        3PZ         0.01283   0.00019   0.00019   0.00447  -0.00003
  25        4XX         0.00005  -0.00000   0.00000   0.00002  -0.00000
  26        4YY         0.00005   0.00000  -0.00000   0.00002  -0.00000
  27        4ZZ         0.00016   0.00000   0.00000   0.00009  -0.00000
  28        4XY         0.00000   0.00000   0.00000   0.00000   0.00000
  29        4XZ         0.00000   0.00000   0.00000   0.00000   0.00000
  30        4YZ         0.00000   0.00000   0.00000   0.00000  -0.00000
                          11        12        13        14        15
  11        4YY         0.00153
  12        4ZZ         0.00023   0.00037
  13        4XY         0.00000   0.00000   0.00000
  14        4XZ         0.00000   0.00000   0.00000   0.00002
  15        4YZ         0.00000   0.00000   0.00000   0.00000   0.00002
  16 2   F  1S         -0.00000  -0.00000  -0.00000  -0.00000  -0.00000
  17        2S          0.00000   0.00000   0.00000   0.00000   0.00000
  18        2PX        -0.00000  -0.00000   0.00000   0.00000   0.00000
  19        2PY         0.00000  -0.00000   0.00000   0.00000   0.00000
  20        2PZ        -0.00000  -0.00001   0.00000   0.00000   0.00000
  21        3S          0.00000   0.00005   0.00000   0.00000   0.00000
  22        3PX        -0.00000  -0.00000   0.00000   0.00001   0.00000
  23        3PY         0.00000  -0.00000   0.00000   0.00000   0.00001
  24        3PZ        -0.00003  -0.00024   0.00000   0.00001   0.00001
  25        4XX        -0.00000  -0.00000   0.00000   0.00000   0.00000
  26        4YY        -0.00000  -0.00000   0.00000   0.00000   0.00000
  27        4ZZ        -0.00000  -0.00000   0.00000   0.00000   0.00000
  28        4XY         0.00000  -0.00000  -0.00000   0.00000   0.00000
  29        4XZ        -0.00000  -0.00000   0.00000   0.00000   0.00000
  30        4YZ         0.00000  -0.00000   0.00000   0.00000   0.00000
                          16        17        18        19        20
  16 2   F  1S          2.08783
  17        2S         -0.04997   0.51746
  18        2PX         0.00000   0.00000   0.84411
  19        2PY         0.00000   0.00000   0.00000   0.84412
  20        2PZ         0.00000   0.00000   0.00000   0.00000   0.65402
  21        3S         -0.04316   0.45095   0.00000   0.00000   0.00000
  22        3PX         0.00000   0.00000   0.32169   0.00000   0.00000
  23        3PY         0.00000   0.00000   0.00000   0.32170   0.00000
  24        3PZ         0.00000   0.00000   0.00000   0.00000   0.25044
  25        4XX        -0.00033  -0.00100   0.00000   0.00000   0.00000
  26        4YY        -0.00033  -0.00100   0.00000   0.00000   0.00000
  27        4ZZ        -0.00038   0.00113   0.00000   0.00000   0.00000
  28        4XY         0.00000   0.00000   0.00000   0.00000   0.00000
  29        4XZ         0.00000   0.00000   0.00000   0.00000   0.00000
  30        4YZ         0.00000   0.00000   0.00000   0.00000   0.00000
                          21        22        23        24        25
  21        3S          0.67595
  22        3PX         0.00000   0.49135
  23        3PY         0.00000   0.00000   0.49135
  24        3PZ         0.00000   0.00000   0.00000   0.38435
  25        4XX        -0.00181   0.00000   0.00000   0.00000   0.00014
  26        4YY        -0.00181   0.00000   0.00000   0.00000   0.00005
  27        4ZZ         0.00189   0.00000   0.00000   0.00000   0.00005
  28        4XY         0.00000   0.00000   0.00000   0.00000   0.00000
  29        4XZ         0.00000   0.00000   0.00000   0.00000   0.00000
  30        4YZ         0.00000   0.00000   0.00000   0.00000   0.00000
                          26        27        28        29        30
  26        4YY         0.00014
  27        4ZZ         0.00005   0.00021
  28        4XY         0.00000   0.00000   0.00000
  29        4XZ         0.00000   0.00000   0.00000   0.00001
  30        4YZ         0.00000   0.00000   0.00000   0.00000   0.00001
     Gross orbital populations:
                           1
   1 1   Li 1S          1.99769
   2        2S          0.23110
   3        2PX        -0.00135
   4        2PY        -0.00135
   5        2PZ         0.01275
   6        3S          0.22145
   7        3PX         0.01407
   8        3PY         0.01407
   9        3PZ         0.02002
  10        4XX        -0.01658
  11        4YY        -0.01658
  12        4ZZ        -0.00816
  13        4XY         0.00000
  14        4XZ         0.00004
  15        4YZ         0.00004
  16 2   F  1S          1.99355
  17        2S          0.91895
  18        2PX         1.16651
  19        2PY         1.16651
  20        2PZ         0.91013
  21        3S          1.08364
  22        3PX         0.81636
  23        3PY         0.81636
  24        3PZ         0.66314
  25        4XX        -0.00281
  26        4YY        -0.00281
  27        4ZZ         0.00326
  28        4XY         0.00000
  29        4XZ         0.00001
  30        4YZ         0.00001
          Condensed to atoms (all electrons):
               1          2
     1  Li   2.421684   0.045510
     2  F    0.045510   9.487295
 Mulliken charges:
               1
     1  Li   0.532805
     2  F   -0.532805
 Sum of Mulliken charges =   0.00000
 Mulliken charges with hydrogens summed into heavy atoms:
               1
     1  Li   0.532805
     2  F   -0.532805
 Electronic spatial extent (au):  <R**2>=            819.9565
 Charge=              0.0000 electrons
 Dipole moment (field-independent basis, Debye):
    X=              1.2096    Y=              1.2083    Z=            -11.4607  Tot=             11.5875
 Quadrupole moment (field-independent basis, Debye-Ang):
   XX=             -7.0019   YY=             -7.0045   ZZ=            -67.2059
   XY=              2.0295   XZ=             -6.5508   YZ=             -6.5523
 Traceless Quadrupole moment (field-independent basis, Debye-Ang):
   XX=             20.0688   YY=             20.0663   ZZ=            -40.1351
   XY=              2.0295   XZ=             -6.5508   YZ=             -6.5523
 Octapole moment (field-independent basis, Debye-Ang**2):
  XXX=            -18.0895  YYY=            -18.0914  ZZZ=           -354.5479  XYY=             -4.2925
  XXY=             -4.2906  XXZ=            -32.8152  XZZ=            -43.2023  YZZ=            -43.2062
  YYZ=            -32.8177  XYZ=             -3.4235
 Hexadecapole moment (field-independent basis, Debye-Ang**3):
 XXXX=            -50.2520 YYYY=            -50.2477 ZZZZ=          -1954.4737 XXXY=            -13.6277
 XXXZ=            -60.6566 YYYX=            -13.6303 YYYZ=            -60.6621 ZZZX=           -226.8189
 ZZZY=           -226.8408 XXYY=            -14.7257 XXZZ=           -155.9923 YYZZ=           -155.9967
 XXYZ=            -21.1631 YYXZ=            -21.1633 ZZXY=            -28.0700
 N-N= 3.653250064998D+00 E-N=-2.651959795043D+02  KE= 1.065502818419D+02
 Orbital energies and kinetic energies (alpha):
                                 1                 2
   1         O               -24.456029         37.090229
   2         O                -2.137650          3.592973
   3         O                -0.889604          3.940197
   4         O                -0.166527          3.105418
   5         O                -0.166527          3.105418
   6         O                -0.166410          2.440904
   7         V                -0.123005          0.714423
   8         V                -0.046693          0.183568
   9         V                -0.046693          0.183568
  10         V                -0.022831          0.410612
  11         V                 0.075597          0.314516
  12         V                 0.080657          0.323629
  13         V                 0.080657          0.323629
  14         V                 0.127761          0.352389
  15         V                 0.387485          0.700000
  16         V                 0.387486          0.700000
  17         V                 0.391853          0.699971
  18         V                 0.391853          0.699971
  19         V                 0.394333          0.711582
  20         V                 1.043136          1.528842
  21         V                 1.132535          2.261672
  22         V                 1.368073          4.716264
  23         V                 1.368073          4.716264
  24         V                 1.385885          4.677625
  25         V                 2.051689          2.800232
  26         V                 2.051689          2.800232
  27         V                 2.052761          2.806195
  28         V                 2.062766          2.800000
  29         V                 2.062766          2.800000
  30         V                 3.622547         10.329013
 Total kinetic energy from orbitals= 1.065502818419D+02
 Calling FoFJK, ICntrl=  10005127 FMM=F ISym2X=0 I1Cent= 0 IOpClX= 0 NMat=1 NMatS=1 NMatT=0.
 -------------------------------------------------------------------
 Center     Atomic                   Forces (Hartrees/Bohr)
 Number     Number              X              Y              Z
 -------------------------------------------------------------------
      1        3          -0.000510392   -0.000509844    0.004831759
      2        9           0.000510392    0.000509844   -0.004831759
 -------------------------------------------------------------------
 Cartesian Forces:  Max     0.004831759 RMS     0.002820540

 GradGradGradGradGradGradGradGradGradGradGradGradGradGradGradGradGradGrad
 Berny optimization.
 Search for a local minimum.
 Step number   1 out of a maximum of    2
 All quantities printed in internal units (Hartrees-Bohrs-Radians)
 Second derivative matrix not updated -- first step.
 The second derivative matrix:
                          X1        Y1        Z1        X2        Y2
           X1           1.00000
           Y1           0.00000   1.00000
           Z1           0.00000   0.00000   1.00000
           X2           0.00000   0.00000   0.00000   1.00000
           Y2           0.00000   0.00000   0.00000   0.00000   1.00000
           Z2           0.00000   0.00000   0.00000   0.00000   0.00000
                          Z2
           Z2           1.00000
 ITU=  0
     Eigenvalues ---    1.00000   1.00000   1.00000   1.00000   1.00000
     Eigenvalues ---    1.00000
 Angle between quadratic step and forces=   0.00 degrees.
 Linear search not attempted -- first point.
 B after Tr=     0.000001    0.000001   -0.000000
         Rot=    1.000000   -0.000000    0.000000    0.000000 Ang=  -0.00 deg.
 Variable       Old X    -DE/DX   Delta X   Delta X   Delta X     New X
                                 (Linear)    (Quad)   (Total)
    X1        1.92926  -0.00051   0.00000  -0.00051  -0.00051   1.92875
    Y1        1.92860  -0.00051   0.00000  -0.00051  -0.00051   1.92809
    Z1        1.54674   0.00483   0.00000   0.00483   0.00483   1.55158
    X2        1.15777   0.00051   0.00000   0.00051   0.00051   1.15828
    Y2        1.15794   0.00051   0.00000   0.00051   0.00051   1.15845
    Z2        8.85653  -0.00483   0.00000  -0.00483  -0.00483   8.85170
         Item               Value     Threshold  Converged?
 Maximum Force            0.004832     0.000450     NO 
 RMS     Force            0.002821     0.000300     NO 
 Maximum Displacement     0.004832     0.001800     NO 
 RMS     Displacement     0.002821     0.001200     NO 
 Predicted change in Energy=-2.386634D-05
 GradGradGradGradGradGradGradGradGradGradGradGradGradGradGradGradGradGrad

 Unable to Open any file for archive entry.
 1\1\GINC-BHP0004\Force\RB3LYP TD-FC\6-31G(d)\F1Li1\BWEIGHT\30-Dec-2022
 \0\\# B3LYP/6-31G* SCF=XQC TD=(singlets,nstates=2,root=1) FORCE nosym 
 pop=full guess=read\\MD Step 122\\0,1\Li,1.02091832,1.02057256,0.81850
 136\F,0.61266711,0.61275768,4.68667607\\Version=ES64L-G16RevC.01\HF=-1
 07.2375231\RMSD=4.248e-09\RMSF=2.821e-03\Dipole=0.2165164,0.2162845,-2
 .051489\PG=C*V [C*(Li1F1)]\\@
 The archive entry for this job was punched.


 CONTRAIWISE...CONTINUED TWEEDLEDEE, IF IT WAS SO, IT MIGHT BE,
 AND IF IT WERE SO, IT WOULD BE.....
 BUT AS IT ISN'T, IT AIN'T....
 THAT'S LOGIC.....
 ALICE THROUGH THE LOOKING GLASS
 Job cpu time:       0 days  0 hours  0 minutes 14.9 seconds.
 Elapsed time:       0 days  0 hours  0 minutes 15.1 seconds.
 File lengths (MBytes):  RWF=    272 Int=      0 D2E=      0 Chk=     32 Scr=     32
 Normal termination of Gaussian 16 at Fri Dec 30 21:57:46 2022.
