 Entering Gaussian System, Link 0=g16
 Initial command:
 /software/gaussian/g16-c01/avx/g16/l1.exe "/gpfs/fs2/scratch/bweight/software/many_molecule_many_mode_NAMD/src/NAMD/TEST_overlap/G16/GS_NEW/Gau-21107.inp" -scrdir="/gpfs/fs2/scratch/bweight/software/many_molecule_many_mode_NAMD/src/NAMD/TEST_overlap/G16/GS_NEW/"
 Entering Link 1 = /software/gaussian/g16-c01/avx/g16/l1.exe PID=     21108.
  
 Copyright (c) 1988-2019, Gaussian, Inc.  All Rights Reserved.
  
 This is part of the Gaussian(R) 16 program.  It is based on
 the Gaussian(R) 09 system (copyright 2009, Gaussian, Inc.),
 the Gaussian(R) 03 system (copyright 2003, Gaussian, Inc.),
 the Gaussian(R) 98 system (copyright 1998, Gaussian, Inc.),
 the Gaussian(R) 94 system (copyright 1995, Gaussian, Inc.),
 the Gaussian 92(TM) system (copyright 1992, Gaussian, Inc.),
 the Gaussian 90(TM) system (copyright 1990, Gaussian, Inc.),
 the Gaussian 88(TM) system (copyright 1988, Gaussian, Inc.),
 the Gaussian 86(TM) system (copyright 1986, Carnegie Mellon
 University), and the Gaussian 82(TM) system (copyright 1983,
 Carnegie Mellon University). Gaussian is a federally registered
 trademark of Gaussian, Inc.
  
 This software contains proprietary and confidential information,
 including trade secrets, belonging to Gaussian, Inc.
  
 This software is provided under written license and may be
 used, copied, transmitted, or stored only in accord with that
 written license.
  
 The following legend is applicable only to US Government
 contracts under FAR:
  
                    RESTRICTED RIGHTS LEGEND
  
 Use, reproduction and disclosure by the US Government is
 subject to restrictions as set forth in subparagraphs (a)
 and (c) of the Commercial Computer Software - Restricted
 Rights clause in FAR 52.227-19.
  
 Gaussian, Inc.
 340 Quinnipiac St., Bldg. 40, Wallingford CT 06492
  
  
 ---------------------------------------------------------------
 Warning -- This program may not be used in any manner that
 competes with the business of Gaussian, Inc. or will provide
 assistance to any competitor of Gaussian, Inc.  The licensee
 of this program is prohibited from giving any competitor of
 Gaussian, Inc. access to this program.  By using this program,
 the user acknowledges that Gaussian, Inc. is engaged in the
 business of creating and licensing software in the field of
 computational chemistry and represents and warrants to the
 licensee that it is not a competitor of Gaussian, Inc. and that
 it will not use this program in any manner prohibited above.
 ---------------------------------------------------------------
  

 Cite this work as:
 Gaussian 16, Revision C.01,
 M. J. Frisch, G. W. Trucks, H. B. Schlegel, G. E. Scuseria, 
 M. A. Robb, J. R. Cheeseman, G. Scalmani, V. Barone, 
 G. A. Petersson, H. Nakatsuji, X. Li, M. Caricato, A. V. Marenich, 
 J. Bloino, B. G. Janesko, R. Gomperts, B. Mennucci, H. P. Hratchian, 
 J. V. Ortiz, A. F. Izmaylov, J. L. Sonnenberg, D. Williams-Young, 
 F. Ding, F. Lipparini, F. Egidi, J. Goings, B. Peng, A. Petrone, 
 T. Henderson, D. Ranasinghe, V. G. Zakrzewski, J. Gao, N. Rega, 
 G. Zheng, W. Liang, M. Hada, M. Ehara, K. Toyota, R. Fukuda, 
 J. Hasegawa, M. Ishida, T. Nakajima, Y. Honda, O. Kitao, H. Nakai, 
 T. Vreven, K. Throssell, J. A. Montgomery, Jr., J. E. Peralta, 
 F. Ogliaro, M. J. Bearpark, J. J. Heyd, E. N. Brothers, K. N. Kudin, 
 V. N. Staroverov, T. A. Keith, R. Kobayashi, J. Normand, 
 K. Raghavachari, A. P. Rendell, J. C. Burant, S. S. Iyengar, 
 J. Tomasi, M. Cossi, J. M. Millam, M. Klene, C. Adamo, R. Cammi, 
 J. W. Ochterski, R. L. Martin, K. Morokuma, O. Farkas, 
 J. B. Foresman, and D. J. Fox, Gaussian, Inc., Wallingford CT, 2019.
 
 ******************************************
 Gaussian 16:  ES64L-G16RevC.01  3-Jul-2019
                31-Dec-2022 
 ******************************************
 %chk=geometry.chk
 %nprocshared=1
 Will use up to    1 processors via shared memory.
 %mem=5GB
 ------------------------------------------
 # BLYP/STO-3G SCF=XQC FORCE nosym pop=full
 ------------------------------------------
 1/10=7,30=1,38=1/1,3;
 2/12=2,15=1,17=6,18=5,40=1/2;
 3/6=3,11=2,25=1,30=1,71=1,74=402/1,2,3;
 4//1;
 5/5=2,8=3,13=1,38=5/2,8;
 6/7=3,28=1/1;
 7/29=1,30=1/1,2,3,16;
 1/10=7,30=1/3;
 99//99;
 ---------
 MD Step 0
 ---------
 Symbolic Z-matrix:
 Charge =  0 Multiplicity = 1
 C                    -0.3833    0.73227   0. 
 H                     0.14987  -0.19544   0. 
 H                    -1.4533    0.73227   0. 
 C                     0.29198   1.90724   0. 
 H                    -0.24118   2.83495   0. 
 H                     1.36198   1.90724   0. 
 

 GradGradGradGradGradGradGradGradGradGradGradGradGradGradGradGradGradGrad
 Berny optimization.
 Initialization pass.
 Trust Radius=3.00D-01 FncErr=1.00D-07 GrdErr=1.00D-07 EigMax=2.50D+02 EigMin=1.00D-04
 Number of steps in this run=      2 maximum allowed number of steps=      2.
 GradGradGradGradGradGradGradGradGradGradGradGradGradGradGradGradGradGrad

                          Input orientation:                          
 ---------------------------------------------------------------------
 Center     Atomic      Atomic             Coordinates (Angstroms)
 Number     Number       Type             X           Y           Z
 ---------------------------------------------------------------------
      1          6           0       -0.383295    0.732265    0.000000
      2          1           0        0.149869   -0.195439    0.000000
      3          1           0       -1.453295    0.732265    0.000000
      4          6           0        0.291979    1.907243    0.000000
      5          1           0       -0.241185    2.834948    0.000000
      6          1           0        1.361979    1.907243    0.000000
 ---------------------------------------------------------------------
                    Distance matrix (angstroms):
                    1          2          3          4          5
     1  C    0.000000
     2  H    1.070000   0.000000
     3  H    1.070000   1.852234   0.000000
     4  C    1.355200   2.107479   2.103938   0.000000
     5  H    2.107479   3.055514   2.427032   1.070000   0.000000
     6  H    2.103938   2.427032   3.050630   1.070000   1.852234
                    6
     6  H    0.000000
 Symmetry turned off by external request.
 Stoichiometry    C2H4
 Framework group  C2H[SGH(C2H4)]
 Deg. of freedom     5
 Full point group                 C2H     NOp   4
 Rotational constants (GHZ):         146.1648702          29.8053190          24.7569808
 Standard basis: STO-3G (5D, 7F)
    14 basis functions,    42 primitive gaussians,    14 cartesian basis functions
     8 alpha electrons        8 beta electrons
       nuclear repulsion energy        33.3121056435 Hartrees.
 NAtoms=    6 NActive=    6 NUniq=    6 SFac= 1.00D+00 NAtFMM=   60 NAOKFM=F Big=F
 Integral buffers will be    131072 words long.
 Raffenetti 2 integral format.
 Two-electron integral symmetry is turned off.
 One-electron integrals computed using PRISM.
 NBasis=    14 RedAO= T EigKep=  1.95D-01  NBF=    14
 NBsUse=    14 1.00D-06 EigRej= -1.00D+00 NBFU=    14
 ExpMin= 1.69D-01 ExpMax= 7.16D+01 ExpMxC= 7.16D+01 IAcc=3 IRadAn=         5 AccDes= 0.00D+00
 Harris functional with IExCor=  402 and IRadAn=       5 diagonalized for initial guess.
 HarFok:  IExCor=  402 AccDes= 0.00D+00 IRadAn=         5 IDoV= 1 UseB2=F ITyADJ=14
 ICtDFT=  3500011 ScaDFX=  1.000000  1.000000  1.000000  1.000000
 FoFCou: FMM=F IPFlag=           0 FMFlag=      100000 FMFlg1=           0
         NFxFlg=           0 DoJE=T BraDBF=F KetDBF=T FulRan=T
         wScrn=  0.000000 ICntrl=       500 IOpCl=  0 I1Cent=   200000004 NGrid=           0
         NMat0=    1 NMatS0=      1 NMatT0=    0 NMatD0=    1 NMtDS0=    0 NMtDT0=    0
 Symmetry not used in FoFCou.
 Keep J ints in memory in canonical form, NReq=868756.
 Requested convergence on RMS density matrix=1.00D-08 within  32 cycles.
 Requested convergence on MAX density matrix=1.00D-06.
 Requested convergence on             energy=1.00D-06.
 No special actions if energy rises.
 Integral accuracy reduced to 1.0D-05 until final iterations.
 Initial convergence to 1.0D-05 achieved.  Increase integral accuracy.
 SCF Done:  E(RB-LYP) =  -77.5620598843     A.U. after    7 cycles
            NFock=  7  Conv=0.82D-08     -V/T= 2.0141
 QCSCF skips out because SCF is already converged.

 **********************************************************************

            Population analysis using the SCF Density.

 **********************************************************************

 Alpha  occ. eigenvalues --   -9.72924  -9.72855  -0.63477  -0.48200  -0.38291
 Alpha  occ. eigenvalues --   -0.31409  -0.27847  -0.16800
 Alpha virt. eigenvalues --    0.07605   0.37071   0.39650   0.40936   0.60078
 Alpha virt. eigenvalues --    0.60705
     Molecular Orbital Coefficients:
                           1         2         3         4         5
                           O         O         O         O         O
     Eigenvalues --    -9.72924  -9.72855  -0.63477  -0.48200  -0.38291
   1 1   C  1S          0.69977   0.70077  -0.17892  -0.14183   0.00005
   2        2S          0.03999   0.02496   0.47004   0.42727  -0.00019
   3        2PX         0.00303  -0.00183   0.04707  -0.09854   0.34748
   4        2PY         0.00530  -0.00317   0.08225  -0.17137  -0.20013
   5        2PZ        -0.00000  -0.00000  -0.00000   0.00000  -0.00000
   6 2   H  1S         -0.00713  -0.00682   0.12204   0.21725   0.25112
   7 3   H  1S         -0.00714  -0.00683   0.12212   0.21652  -0.25186
   8 4   C  1S         -0.69977   0.70077  -0.17892   0.14183  -0.00005
   9        2S         -0.03999   0.02496   0.47004  -0.42727   0.00019
  10        2PX         0.00303   0.00183  -0.04707  -0.09854   0.34748
  11        2PY         0.00530   0.00317  -0.08225  -0.17137  -0.20013
  12        2PZ        -0.00000  -0.00000  -0.00000   0.00000   0.00000
  13 5   H  1S          0.00713  -0.00682   0.12204  -0.21725  -0.25112
  14 6   H  1S          0.00714  -0.00683   0.12212  -0.21652   0.25186
                           6         7         8         9        10
                           O         O         O         V         V
     Eigenvalues --    -0.31409  -0.27847  -0.16800   0.07605   0.37071
   1 1   C  1S         -0.01881   0.00043   0.00000   0.00000   0.00310
   2        2S          0.03924  -0.00123  -0.00000  -0.00000  -0.01910
   3        2PX         0.25022  -0.34130  -0.00000   0.00000  -0.62592
   4        2PY         0.44501   0.18787  -0.00000  -0.00000   0.35845
   5        2PZ         0.00000   0.00000   0.63734   0.80631   0.00000
   6 2   H  1S         -0.21337  -0.34328  -0.00000  -0.00000   0.64729
   7 3   H  1S         -0.20355   0.34953   0.00000   0.00000  -0.63045
   8 4   C  1S         -0.01881   0.00043  -0.00000  -0.00000  -0.00310
   9        2S          0.03924  -0.00123   0.00000   0.00000   0.01910
  10        2PX        -0.25022   0.34130  -0.00000  -0.00000  -0.62592
  11        2PY        -0.44501  -0.18787  -0.00000  -0.00000   0.35845
  12        2PZ        -0.00000   0.00000   0.63734  -0.80631   0.00000
  13 5   H  1S         -0.21337  -0.34328   0.00000  -0.00000  -0.64729
  14 6   H  1S         -0.20355   0.34953  -0.00000   0.00000   0.63045
                          11        12        13        14
                           V         V         V         V
     Eigenvalues --     0.39650   0.40936   0.60078   0.60705
   1 1   C  1S         -0.12804  -0.16738  -0.11810  -0.00008
   2        2S          0.83761   1.04043   0.84342   0.00086
   3        2PX        -0.25161  -0.12602   0.55634   0.83213
   4        2PY        -0.43454  -0.19637   0.97557  -0.48067
   5        2PZ        -0.00000  -0.00000   0.00000  -0.00000
   6 2   H  1S         -0.63534  -0.64730   0.10840  -0.62609
   7 3   H  1S         -0.63568  -0.66519   0.10015   0.62523
   8 4   C  1S         -0.12804   0.16738   0.11810  -0.00008
   9        2S          0.83761  -1.04043  -0.84342   0.00086
  10        2PX         0.25161  -0.12602   0.55634  -0.83213
  11        2PY         0.43454  -0.19637   0.97557   0.48067
  12        2PZ        -0.00000   0.00000   0.00000   0.00000
  13 5   H  1S         -0.63534   0.64730  -0.10840  -0.62609
  14 6   H  1S         -0.63568   0.66519  -0.10015   0.62523
     Density Matrix:
                           1         2         3         4         5
   1 1   C  1S          2.06648
   2        2S         -0.19993   0.81452
   3        2PX         0.00311  -0.01946   0.62355
   4        2PY         0.00555  -0.03431  -0.00305   0.61909
   5        2PZ        -0.00000  -0.00000  -0.00000  -0.00000   0.81240
   6 2   H  1S         -0.11709   0.28348   0.27071  -0.47381  -0.00000
   7 3   H  1S         -0.11675   0.28217  -0.54668  -0.00317   0.00000
   8 4   C  1S          0.02730  -0.06948  -0.06134  -0.10645   0.00000
   9        2S         -0.06948   0.07789   0.14873   0.25757   0.00000
  10        2PX         0.06134  -0.14873  -0.10170  -0.20750  -0.00000
  11        2PY         0.10645  -0.25757  -0.20750  -0.34131  -0.00000
  12        2PZ        -0.00000  -0.00000   0.00000  -0.00000   0.81240
  13 5   H  1S          0.02608  -0.08650   0.00739  -0.12371   0.00000
  14 6   H  1S          0.02611  -0.08692  -0.11119  -0.05622  -0.00000
                           6         7         8         9        10
   6 2   H  1S          0.57723
   7 3   H  1S         -0.15552   0.57786
   8 4   C  1S          0.02608   0.02611   2.06648
   9        2S         -0.08650  -0.08692  -0.19993   0.81452
  10        2PX        -0.00739   0.11119  -0.00311   0.01946   0.62355
  11        2PY         0.12371   0.05622  -0.00555   0.03431  -0.00305
  12        2PZ        -0.00000   0.00000   0.00000   0.00000   0.00000
  13 5   H  1S          0.13599  -0.09090  -0.11709   0.28348  -0.27071
  14 6   H  1S         -0.09090   0.13641  -0.11675   0.28217   0.54668
                          11        12        13        14
  11        2PY         0.61909
  12        2PZ        -0.00000   0.81240
  13 5   H  1S          0.47381   0.00000   0.57723
  14 6   H  1S          0.00317  -0.00000  -0.15552   0.57786
    Full Mulliken population analysis:
                           1         2         3         4         5
   1 1   C  1S          2.06648
   2        2S         -0.04965   0.81452
   3        2PX         0.00000   0.00000   0.62355
   4        2PY         0.00000   0.00000   0.00000   0.61909
   5        2PZ         0.00000   0.00000   0.00000   0.00000   0.81240
   6 2   H  1S         -0.00764   0.14240   0.06394   0.19474   0.00000
   7 3   H  1S         -0.00762   0.14174   0.25915   0.00000   0.00000
   8 4   C  1S          0.00000  -0.00290  -0.00212  -0.00639   0.00000
   9        2S         -0.00290   0.03018   0.02994   0.09021   0.00000
  10        2PX        -0.00212   0.02994  -0.00936   0.05015   0.00000
  11        2PY        -0.00639   0.09021   0.05015   0.06471   0.00000
  12        2PZ         0.00000   0.00000   0.00000   0.00000   0.18760
  13 5   H  1S          0.00016  -0.00918   0.00007  -0.01672   0.00000
  14 6   H  1S          0.00016  -0.00929  -0.01256  -0.00428   0.00000
                           6         7         8         9        10
   6 2   H  1S          0.57723
   7 3   H  1S         -0.02352   0.57786
   8 4   C  1S          0.00016   0.00016   2.06648
   9        2S         -0.00918  -0.00929  -0.04965   0.81452
  10        2PX         0.00007  -0.01256   0.00000   0.00000   0.62355
  11        2PY        -0.01672  -0.00428   0.00000   0.00000   0.00000
  12        2PZ         0.00000   0.00000   0.00000   0.00000   0.00000
  13 5   H  1S          0.00221  -0.00515  -0.00764   0.14240   0.06394
  14 6   H  1S         -0.00515   0.00224  -0.00762   0.14174   0.25915
                          11        12        13        14
  11        2PY         0.61909
  12        2PZ         0.00000   0.81240
  13 5   H  1S          0.19474   0.00000   0.57723
  14 6   H  1S          0.00000   0.00000  -0.02352   0.57786
     Gross orbital populations:
                           1
   1 1   C  1S          1.99048
   2        2S          1.17796
   3        2PX         1.00276
   4        2PY         0.99152
   5        2PZ         1.00000
   6 2   H  1S          0.91853
   7 3   H  1S          0.91874
   8 4   C  1S          1.99048
   9        2S          1.17796
  10        2PX         1.00276
  11        2PY         0.99152
  12        2PZ         1.00000
  13 5   H  1S          0.91853
  14 6   H  1S          0.91874
          Condensed to atoms (all electrons):
               1          2          3          4          5          6
     1  C    4.836736   0.393438   0.393274   0.590918  -0.025673  -0.025963
     2  H    0.393438   0.577233  -0.023516  -0.025673   0.002207  -0.005155
     3  H    0.393274  -0.023516   0.577859  -0.025963  -0.005155   0.002237
     4  C    0.590918  -0.025673  -0.025963   4.836736   0.393438   0.393274
     5  H   -0.025673   0.002207  -0.005155   0.393438   0.577233  -0.023516
     6  H   -0.025963  -0.005155   0.002237   0.393274  -0.023516   0.577859
 Mulliken charges:
               1
     1  C   -0.162730
     2  H    0.081466
     3  H    0.081264
     4  C   -0.162730
     5  H    0.081466
     6  H    0.081264
 Sum of Mulliken charges =   0.00000
 Mulliken charges with hydrogens summed into heavy atoms:
               1
     1  C    0.000000
     4  C   -0.000000
 Electronic spatial extent (au):  <R**2>=            180.0049
 Charge=             -0.0000 electrons
 Dipole moment (field-independent basis, Debye):
    X=             -0.0000    Y=             -0.0000    Z=              0.0000  Tot=              0.0000
 Quadrupole moment (field-independent basis, Debye-Ang):
   XX=            -11.6229   YY=            -11.7629   ZZ=            -13.4748
   XY=             -0.1385   XZ=             -0.0000   YZ=              0.0000
 Traceless Quadrupole moment (field-independent basis, Debye-Ang):
   XX=              0.6640   YY=              0.5240   ZZ=             -1.1879
   XY=             -0.1385   XZ=             -0.0000   YZ=              0.0000
 Octapole moment (field-independent basis, Debye-Ang**2):
  XXX=              1.5920  YYY=            -46.5726  ZZZ=              0.0000  XYY=              0.1716
  XXY=            -15.3267  XXZ=             -0.0000  XZZ=              0.6152  YZZ=            -17.7835
  YYZ=              0.0000  XYZ=             -0.0000
 Hexadecapole moment (field-independent basis, Debye-Ang**3):
 XXXX=            -30.8599 YYYY=           -173.7416 ZZZZ=            -10.8780 XXXY=             -5.0099
 XXXZ=              0.0000 YYYX=             -8.8003 YYYZ=              0.0000 ZZZX=              0.0000
 ZZZY=              0.0000 XXYY=            -35.0250 XXZZ=             -7.9425 YYZZ=            -34.6979
 XXYZ=             -0.0000 YYXZ=             -0.0000 ZZXY=             -2.0304
 N-N= 3.331210564351D+01 E-N=-2.459787909709D+02  KE= 7.648475313633D+01
 Orbital energies and kinetic energies (alpha):
                                 1                 2
   1         O                -9.729240         15.556163
   2         O                -9.728547         15.602101
   3         O                -0.634771          1.423405
   4         O                -0.481997          1.245977
   5         O                -0.382909          0.887685
   6         O                -0.314095          1.208172
   7         O                -0.278472          1.047987
   8         O                -0.168004          1.270886
   9         V                 0.076047          1.808784
  10         V                 0.370712          1.997937
  11         V                 0.396497          2.347181
  12         V                 0.409356          2.585073
  13         V                 0.600781          3.315009
  14         V                 0.607052          2.643126
 Total kinetic energy from orbitals= 7.648475313633D+01
 Calling FoFJK, ICntrl=      2527 FMM=F ISym2X=0 I1Cent= 0 IOpClX= 0 NMat=1 NMatS=1 NMatT=0.
 -------------------------------------------------------------------
 Center     Atomic                   Forces (Hartrees/Bohr)
 Number     Number              X              Y              Z
 -------------------------------------------------------------------
      1        6           0.021906011    0.039807215    0.000000000
      2        1           0.009222248   -0.026708682    0.000000000
      3        1          -0.027869890   -0.005820237   -0.000000000
      4        6          -0.021906011   -0.039807215   -0.000000000
      5        1          -0.009222248    0.026708682    0.000000000
      6        1           0.027869890    0.005820237    0.000000000
 -------------------------------------------------------------------
 Cartesian Forces:  Max     0.039807215 RMS     0.020203127

 GradGradGradGradGradGradGradGradGradGradGradGradGradGradGradGradGradGrad
 Berny optimization.
 Search for a local minimum.
 Step number   1 out of a maximum of    2
 All quantities printed in internal units (Hartrees-Bohrs-Radians)
 Second derivative matrix not updated -- first step.
 The second derivative matrix:
                          X1        Y1        Z1        X2        Y2
           X1           0.77728
           Y1           0.07094   0.86164
           Z1           0.00000   0.00000   0.16618
           X2          -0.17450   0.10645   0.00000   0.15127
           Y2           0.11368  -0.31112   0.00000  -0.12703   0.29930
           Z2           0.00000   0.00000  -0.05521   0.00000   0.00000
           X3          -0.37230   0.00000   0.00000   0.00000   0.00000
           Y3          -0.00714  -0.11316   0.00000   0.03393   0.01950
           Z3           0.00000   0.00000  -0.05506   0.00000   0.00000
           X4          -0.25371  -0.16404   0.00000   0.02323   0.01335
           Y4          -0.16404  -0.44507   0.00000  -0.01335  -0.00767
           Z4           0.00000   0.00000  -0.08713   0.00000   0.00000
           X5           0.02323  -0.01335   0.00000   0.00000   0.00000
           Y5           0.01335  -0.00767   0.00000   0.00000   0.00000
           Z5           0.00000   0.00000   0.01560   0.00000   0.00000
           X6           0.00000   0.00000   0.00000   0.00000   0.00000
           Y6          -0.02679   0.01540   0.00000   0.00000   0.00000
           Z6           0.00000   0.00000   0.01563   0.00000   0.00000
                          Z2        X3        Y3        Z3        X4
           Z2           0.02858
           X3           0.00000   0.37230
           Y3           0.00000   0.00000   0.07827
           Z3           0.01101   0.00000   0.00000   0.02846
           X4           0.00000   0.00000  -0.02679   0.00000   0.77728
           Y4           0.00000   0.00000   0.01540   0.00000   0.07094
           Z4           0.01560   0.00000   0.00000   0.01563   0.00000
           X5           0.00000   0.00000   0.00000   0.00000  -0.17450
           Y5           0.00000   0.00000   0.00000   0.00000   0.11368
           Z5           0.00878   0.00000   0.00000  -0.00875   0.00000
           X6           0.00000   0.00000   0.00000   0.00000  -0.37230
           Y6           0.00000   0.00000   0.00000   0.00000  -0.00714
           Z6          -0.00875   0.00000   0.00000   0.00872   0.00000
                          Y4        Z4        X5        Y5        Z5
           Y4           0.86164
           Z4           0.00000   0.16618
           X5           0.10645   0.00000   0.15127
           Y5          -0.31112   0.00000  -0.12703   0.29930
           Z5           0.00000  -0.05521   0.00000   0.00000   0.02858
           X6           0.00000   0.00000   0.00000   0.00000   0.00000
           Y6          -0.11316   0.00000   0.03393   0.01950   0.00000
           Z6           0.00000  -0.05506   0.00000   0.00000   0.01101
                          X6        Y6        Z6
           X6           0.37230
           Y6           0.00000   0.07827
           Z6           0.00000   0.00000   0.02846
 ITU=  0
     Eigenvalues ---    0.03502   0.04554   0.09781   0.09844   0.13569
     Eigenvalues ---    0.19109   0.24999   0.31575   0.56605   0.79168
     Eigenvalues ---    1.05555   1.51681
 Angle between quadratic step and forces=  47.71 degrees.
 Linear search not attempted -- first point.
 B after Tr=    -0.000514   -0.000018    0.000000
         Rot=    1.000000    0.000000   -0.000000    0.000103 Ang=   0.01 deg.
 Variable       Old X    -DE/DX   Delta X   Delta X   Delta X     New X
                                 (Linear)    (Quad)   (Total)
    X1       -0.72432   0.02191   0.00000   0.00186   0.00164  -0.72269
    Y1        1.38378   0.03981   0.00000   0.00741   0.00754   1.39133
    Z1        0.00000   0.00000   0.00000   0.00000   0.00000   0.00000
    X2        0.28321   0.00922   0.00000   0.00067   0.00007   0.28328
    Y2       -0.36933  -0.02671   0.00000  -0.07925  -0.07932  -0.44865
    Z2        0.00000   0.00000   0.00000  -0.00000  -0.00000  -0.00000
    X3       -2.74633  -0.02787   0.00000  -0.07300  -0.07323  -2.81956
    Y3        1.38378  -0.00582   0.00000  -0.04320  -0.04264   1.34114
    Z3        0.00000  -0.00000   0.00000  -0.00000  -0.00000  -0.00000
    X4        0.55176  -0.02191   0.00000  -0.00186  -0.00164   0.55013
    Y4        3.60417  -0.03981   0.00000  -0.00741  -0.00754   3.59662
    Z4        0.00000  -0.00000   0.00000  -0.00000  -0.00000  -0.00000
    X5       -0.45577  -0.00922   0.00000  -0.00067  -0.00007  -0.45584
    Y5        5.35727   0.02671   0.00000   0.07925   0.07932   5.43660
    Z5        0.00000   0.00000   0.00000   0.00000   0.00000   0.00000
    X6        2.57377   0.02787   0.00000   0.07300   0.07323   2.64700
    Y6        3.60417   0.00582   0.00000   0.04320   0.04264   3.64680
    Z6        0.00000   0.00000   0.00000   0.00000  -0.00000  -0.00000
         Item               Value     Threshold  Converged?
 Maximum Force            0.039807     0.000450     NO 
 RMS     Force            0.020203     0.000300     NO 
 Maximum Displacement     0.079322     0.001800     NO 
 RMS     Displacement     0.038777     0.001200     NO 
 Predicted change in Energy=-4.744502D-03
 GradGradGradGradGradGradGradGradGradGradGradGradGradGradGradGradGradGrad

 Unable to Open any file for archive entry.
 1\1\GINC-BHG0001\Force\RBLYP\STO-3G\C2H4\BWEIGHT\31-Dec-2022\0\\# BLYP
 /STO-3G SCF=XQC FORCE nosym pop=full\\MD Step 0\\0,1\C,-0.3832952,0.73
 226544,0.\H,0.14986855,-0.19543948,0.\H,-1.4532952,0.73226544,0.\C,0.2
 9197911,1.90724273,0.\H,-0.24118464,2.83494765,0.\H,1.36197911,1.90724
 273,0.\\Version=ES64L-G16RevC.01\HF=-77.5620599\RMSD=8.221e-09\RMSF=2.
 020e-02\Dipole=0.,0.,0.\Quadrupole=0.4936607,0.3895497,-0.8832104,-0.1
 029525,0.,0.\PG=C02H [SGH(C2H4)]\\@
 The archive entry for this job was punched.


 THE TEST OF A FIRST RATE INTELLIGENCE IS THE ABILITY TO HOLD TWO OPPOSED
 IDEAS IN THE MIND AT THE SAME TIME, AND STILL RETAIN THE ABILITY TO FUNCTION.
 ONE SHOULD, FOR EXAMPLE, BE ABLE TO SEE THAT THINGS ARE HOPELESS AND YET BE
 DETERMINED TO MAKE THEM OTHERWISE.

                                                       -- F. SCOTT FITZGERALD
 Job cpu time:       0 days  0 hours  0 minutes  3.8 seconds.
 Elapsed time:       0 days  0 hours  0 minutes  4.2 seconds.
 File lengths (MBytes):  RWF=    272 Int=      0 D2E=      0 Chk=     32 Scr=     32
 Normal termination of Gaussian 16 at Sat Dec 31 14:51:02 2022.
