6
MD Step 0
C  -0.33763715 -0.58748864 0.00000000
H  0.19552659 -1.51519357 0.00000000
H  -1.40763715 -0.58748864 0.00000000
C  0.33763715 0.58748865 0.00000000
H  -0.19552659 1.51519357 0.00000000
H  1.40763715 0.58748865 0.00000000
6
MD Step 1
C  -0.33800545 -0.58783562 -0.00039373
H  0.19788529 -1.51298862 0.00234485
H  -1.40542013 -0.58520847 0.00234836
C  0.33721685 0.58704664 -0.00039429
H  -0.19318805 1.51768737 0.00234671
H  1.41011984 0.58991116 0.00235022
6
MD Step 2
C  -0.33831362 -0.58808202 -0.00078353
H  0.20024377 -1.51111575 0.00466624
H  -1.40354664 -0.58310072 0.00467333
C  0.33675300 0.58651677 -0.00078462
H  -0.19088923 1.52042535 0.00466984
H  1.41278850 0.59244268 0.00467674
6
MD Step 3
C  -0.33856265 -0.58823149 -0.00117379
H  0.20262700 -1.50955887 0.00699028
H  -1.40203436 -0.58114604 0.00700129
C  0.33624622 0.58589862 -0.00117530
H  -0.18859661 1.52340382 0.00699516
H  1.41560667 0.59509963 0.00700508
6
MD Step 4
C  -0.33875053 -0.58828504 -0.00156519
H  0.20503446 -1.50831700 0.00932089
H  -1.40091399 -0.57934639 0.00933656
C  0.33570116 0.58519650 -0.00156686
H  -0.18629677 1.52659131 0.00932600
H  1.41851264 0.59787519 0.00933816
6
MD Step 5
C  -0.33886932 -0.58823801 -0.00195165
H  0.20742221 -1.50742233 0.01162173
H  -1.40024613 -0.57774303 0.01164339
C  0.33512945 0.58442235 -0.00195307
H  -0.18401481 1.52991149 0.01162527
H  1.42140310 0.60072139 0.01163836
6
MD Step 6
C  -0.33892278 -0.58809757 -0.00233781
H  0.20980696 -1.50683622 0.01392020
H  -1.40001561 -0.57631244 0.01394985
C  0.33453205 0.58357820 -0.00233834
H  -0.18171092 1.53334833 0.01391945
H  1.42423955 0.60365329 0.01393160
6
MD Step 7
C  -0.33890509 -0.58786133 -0.00271774
H  0.21213983 -1.50657634 0.01618083
H  -1.40025823 -0.57509295 0.01622125
C  0.33392048 0.58267726 -0.00271653
H  -0.17940742 1.53682036 0.01617206
H  1.42692261 0.60662240 0.01618074
6
MD Step 8
C  -0.33881291 -0.58752929 -0.00308687
H  0.21437769 -1.50664605 0.01837626
H  -1.40098884 -0.57411365 0.01843104
C  0.33330473 0.58173195 -0.00308286
H  -0.17711832 1.54025300 0.01835467
H  1.42936507 0.60958794 0.01835667
6
MD Step 9
C  -0.33865228 -0.58711065 -0.00344892
H  0.21652472 -1.50699372 0.02052846
H  -1.40215989 -0.57335309 0.02060184
C  0.33268629 0.58074674 -0.00344081
H  -0.17480872 1.54362107 0.02048812
H  1.43153476 0.61255824 0.02047973
6
MD Step 10
C  -0.33843049 -0.58661565 -0.00380779
H  0.21858493 -1.50756184 0.02266062
H  -1.40371088 -0.57278749 0.02275732
C  0.33206615 0.57972620 -0.00379407
H  -0.17244329 1.54690147 0.02259448
H  1.43340688 0.61554270 0.02257160
6
MD Step 11
C  -0.33814752 -0.58604695 -0.00415909
H  0.22051223 -1.50833861 0.02474659
H  -1.40562061 -0.57244116 0.02487185
C  0.33145332 0.57868334 -0.00413812
H  -0.17003713 1.55002344 0.02464663
H  1.43491383 0.61850130 0.02460470
6
MD Step 12
C  -0.33780342 -0.58540699 -0.00449756
H  0.22225528 -1.50931443 0.02675526
H  -1.40786371 -0.57234215 0.02691480
C  0.33085729 0.57763203 -0.00446762
H  -0.16761189 1.55291398 0.02661263
H  1.43599064 0.62138918 0.02654663
6
MD Step 13
C  -0.33740954 -0.58470926 -0.00482849
H  0.22382571 -1.51041504 0.02871825
H  -1.41034411 -0.57245460 0.02891752
C  0.33027659 0.57657557 -0.00478773
H  -0.16512859 1.55556645 0.02852320
H  1.43664350 0.62422446 0.02842824
6
MD Step 14
C  -0.33696613 -0.58395581 -0.00514528
H  0.22516562 -1.51163568 0.03059673
H  -1.41303060 -0.57281166 0.03084137
C  0.32972119 0.57552884 -0.00509195
H  -0.16262067 1.55790810 0.03033906
H  1.43681658 0.62695524 0.03020994
6
MD Step 15
C  -0.33648305 -0.58315810 -0.00545048
H  0.22627265 -1.51291734 0.03240616
H  -1.41583354 -0.57339106 0.03270118
C  0.32919149 0.57449739 -0.00538279
H  -0.16006994 1.55992531 0.03207515
H  1.43651727 0.62958437 0.03190704
6
MD Step 16
C  -0.33596502 -0.58232217 -0.00574102
H  0.22711326 -1.51423488 0.03412892
H  -1.41869428 -0.57420223 0.03447890
C  0.32869296 0.57349188 -0.00565736
H  -0.15749376 1.56157691 0.03371370
H  1.43572891 0.63208227 0.03350192
6
MD Step 17
C  -0.33541903 -0.58145614 -0.00601584
H  0.22766793 -1.51555297 0.03575927
H  -1.42154195 -0.57524151 0.03616801
C  0.32822860 0.57252054 -0.00591477
H  -0.15490042 1.56283943 0.03524897
H  1.43445573 0.63443195 0.03498926
6
MD Step 18
C  -0.33485058 -0.58056647 -0.00627223
H  0.22791025 -1.51684808 0.03728196
H  -1.42431647 -0.57651351 0.03775251
C  0.32780251 0.57159265 -0.00615263
H  -0.15231044 1.56368612 0.03666602
H  1.43270166 0.63660774 0.03635450
6
MD Step 19
C  -0.33426652 -0.57966078 -0.00650883
H  0.22782447 -1.51809176 0.03868962
H  -1.42695262 -0.57801381 0.03922402
C  0.32741692 0.57071553 -0.00636987
H  -0.14973939 1.56410465 0.03795795
H  1.43048757 0.63859279 0.03759138
6
MD Step 20
C  -0.33367542 -0.57874834 -0.00672616
H  0.22740907 -1.51924795 0.03998605
H  -1.42937818 -0.57972584 0.04058497
C  0.32707166 0.56989396 -0.00656731
H  -0.14719463 1.56410042 0.03912914
H  1.42785436 0.64038241 0.03870529
6
MD Step 21
C  -0.33308865 -0.57784111 -0.00692787
H  0.22668393 -1.52026646 0.04119335
H  -1.43150826 -0.58161396 0.04185544
C  0.32676297 0.56912894 -0.00674879
H  -0.14466818 1.56370366 0.04020224
H  1.42486954 0.64199116 0.03972053
6
MD Step 22
C  -0.33251337 -0.57694674 -0.00711369
H  0.22564934 -1.52112466 0.04231052
H  -1.43328802 -0.58366468 0.04303299
C  0.32649049 0.56842458 -0.00691440
H  -0.14217764 1.56292803 0.04117723
H  1.42158511 0.64341157 0.04063828
6
MD Step 23
C  -0.33195677 -0.57607289 -0.00728387
H  0.22431215 -1.52180176 0.04333972
H  -1.43466745 -0.58586078 0.04411822
C  0.32625288 0.56778370 -0.00706475
H  -0.13973999 1.56179647 0.04205736
H  1.41806296 0.64464033 0.04146319
6
MD Step 24
C  -0.33142201 -0.57522310 -0.00743508
H  0.22266175 -1.52230305 0.04426211
H  -1.43562617 -0.58820538 0.04509151
C  0.32605191 0.56721181 -0.00719711
H  -0.13739534 1.56031701 0.04282527
H  1.41435004 0.64565417 0.04217862
6
MD Step 25
C  -0.33091467 -0.57440330 -0.00756710
H  0.22070909 -1.52262104 0.04507703
H  -1.43613468 -0.59068321 0.04595092
C  0.32588589 0.56671062 -0.00731170
H  -0.13516787 1.55852147 0.04348172
H  1.41051657 0.64644905 0.04278662
6
MD Step 26
C  -0.33044057 -0.57361963 -0.00768068
H  0.21847378 -1.52274828 0.04578920
H  -1.43616761 -0.59327345 0.04669975
C  0.32575193 0.56628011 -0.00740963
H  -0.13307828 1.55645227 0.04403284
H  1.40664214 0.64702731 0.04329483
6
MD Step 27
C  -0.33000340 -0.57287606 -0.00777509
H  0.21597030 -1.52269115 0.04639487
H  -1.43571774 -0.59596355 0.04733329
C  0.32564825 0.56592095 -0.00749064
H  -0.13115708 1.55414812 0.04447650
H  1.40280059 0.64738388 0.04370228
6
MD Step 28
C  -0.32960450 -0.57217419 -0.00784793
H  0.21320651 -1.52247106 0.04688055
H  -1.43479749 -0.59875068 0.04783775
C  0.32557456 0.56563466 -0.00755294
H  -0.12944544 1.55164205 0.04480100
H  1.39905729 0.64750494 0.04399785
6
MD Step 29
C  -0.32925008 -0.57152055 -0.00790272
H  0.21022706 -1.52208067 0.04726680
H  -1.43339520 -0.60159841 0.04823199
C  0.32552473 0.56541644 -0.00760013
H  -0.12795153 1.54900424 0.04502828
H  1.39551109 0.64741154 0.04420534
6
MD Step 30
C  -0.32893876 -0.57091398 -0.00793585
H  0.20703836 -1.52155849 0.04753306
H  -1.43155011 -0.60451134 0.04849584
C  0.32549956 0.56526772 -0.00762928
H  -0.12672421 1.54626628 0.04513962
H  1.39221765 0.64708460 0.04430604
6
MD Step 31
C  -0.32867139 -0.57035567 -0.00794689
H  0.20366750 -1.52092930 0.04767711
H  -1.42929279 -0.60747627 0.04862693
C  0.32549685 0.56518634 -0.00764036
H  -0.12579374 1.54347936 0.04513439
H  1.38924689 0.64652409 0.04429974
6
MD Step 32
C  -0.32845329 -0.56985141 -0.00794107
H  0.20017527 -1.52019030 0.04772859
H  -1.42663135 -0.61044889 0.04865342
C  0.32550930 0.56516445 -0.00763830
H  -0.12515782 1.54072661 0.04504334
H  1.38669460 0.64576247 0.04421883
6
MD Step 33
C  -0.32827949 -0.56939668 -0.00791351
H  0.19656728 -1.51939933 0.04765987
H  -1.42364007 -0.61344229 0.04854919
C  0.32553952 0.56520341 -0.00761897
H  -0.12486904 1.53803308 0.04484044
H  1.38459141 0.64477571 0.04403607
6
MD Step 34
C  -0.32815234 -0.56899452 -0.00786799
H  0.19289888 -1.51856869 0.04749205
H  -1.42035305 -0.61642190 0.04833478
C  0.32558241 0.56529628 -0.00758586
H  -0.12492940 1.53547004 0.04454769
H  1.38300695 0.64358887 0.04377411
6
MD Step 35
C  -0.32806617 -0.56864007 -0.00780061
H  0.18918304 -1.51775624 0.04720280
H  -1.41685532 -0.61939703 0.04798961
C  0.32564061 0.56544329 -0.00753557
H  -0.12538089 1.53306196 0.04414380
H  1.38195625 0.64218423 0.04341009
6
MD Step 36
C  -0.32802046 -0.56833385 -0.00771364
H  0.18546780 -1.51698649 0.04680461
H  -1.41320368 -0.62234309 0.04752652
C  0.32571149 0.56563890 -0.00747008
H  -0.12622727 1.53086335 0.04364182
H  1.38147690 0.64057936 0.04295673
6
MD Step 37
C  -0.32800763 -0.56806953 -0.00760257
H  0.18176272 -1.51632277 0.04627158
H  -1.40949862 -0.62527460 0.04692197
C  0.32579944 0.56588415 -0.00738532
H  -0.12750626 1.52888454 0.04301627
H  1.38155502 0.63875397 0.04238629
6
MD Step 38
C  -0.32802853 -0.56784946 -0.00747239
H  0.17813005 -1.51577435 0.04563137
H  -1.40579068 -0.62815329 0.04620389
C  0.32590038 0.56617129 -0.00728557
H  -0.12919745 1.52718278 0.04229487
H  1.38221716 0.63674200 0.04172617
6
MD Step 39
C  -0.32808074 -0.56767298 -0.00732516
H  0.17461405 -1.51536583 0.04489485
H  -1.40214957 -0.63095845 0.04538434
C  0.32601361 0.56649576 -0.00717241
H  -0.13129191 1.52579083 0.04148833
H  1.38345949 0.63456119 0.04098594
6
MD Step 40
C  -0.32815833 -0.56753610 -0.00715955
H  0.17123821 -1.51513845 0.04405396
H  -1.39866477 -0.63368910 0.04445729
C  0.32614212 0.56685655 -0.00704439
H  -0.13379402 1.52471409 0.04058815
H  1.38524574 0.63221100 0.04015513
6
MD Step 41
C  -0.32825930 -0.56743904 -0.00697875
H  0.16804867 -1.51510505 0.04312565
H  -1.39539949 -0.63631989 0.04344087
C  0.32628514 0.56724888 -0.00690393
H  -0.13667738 1.52397429 0.03961076
H  1.38755235 0.62971668 0.03924916
6
MD Step 42
C  -0.32836914 -0.56736972 -0.00677271
H  0.16501497 -1.51534831 0.04205333
H  -1.39248781 -0.63890022 0.04228208
C  0.32645459 0.56768087 -0.00674187
H  -0.13998374 1.52351027 0.03849809
H  1.39027035 0.62703049 0.03820659
6
MD Step 43
C  -0.32849703 -0.56733971 -0.00655638
H  0.16224302 -1.51580533 0.04091986
H  -1.38991749 -0.64133943 0.04106326
C  0.32663910 0.56813746 -0.00657108
H  -0.14360891 1.52339297 0.03733301
H  1.39342251 0.62424569 0.03711102
6
MD Step 44
C  -0.32864410 -0.56735262 -0.00633603
H  0.15978621 -1.51645674 0.03975942
H  -1.38771863 -0.64359637 0.03981946
C  0.32683565 0.56861224 -0.00639671
H  -0.14749210 1.52363586 0.03614928
H  1.39697402 0.62140752 0.03599565
6
MD Step 45
C  -0.32880075 -0.56740148 -0.00610644
H  0.15762964 -1.51734216 0.03854214
H  -1.38597822 -0.64569539 0.03852311
C  0.32705208 0.56911014 -0.00621377
H  -0.15163210 1.52417959 0.03491552
H  1.40081786 0.61849749 0.03482720
6
MD Step 46
C  -0.32896038 -0.56748224 -0.00586511
H  0.15576955 -1.51847952 0.03725369
H  -1.38475779 -0.64764574 0.03716150
C  0.32729355 0.56963384 -0.00601971
H  -0.15600769 1.52497341 0.03361601
H  1.40485785 0.61551339 0.03358870
6
MD Step 47
C  -0.32912024 -0.56759447 -0.00561306
H  0.15421739 -1.51986060 0.03589928
H  -1.38408729 -0.64943726 0.03574084
C  0.32756173 0.57018289 -0.00581516
H  -0.16057411 1.52598066 0.03225507
H  1.40901526 0.61247353 0.03228383
6
MD Step 48
C  -0.32927618 -0.56773611 -0.00534914
H  0.15296810 -1.52148286 0.03447231
H  -1.38399583 -0.65107213 0.03425540
C  0.32785997 0.57075908 -0.00559889
H  -0.16529564 1.52714821 0.03082499
H  1.41319894 0.60938495 0.03090431
6
MD Step 49
C  -0.32942675 -0.56790741 -0.00507434
H  0.15202409 -1.52332558 0.03297806
H  -1.38448674 -0.65254072 0.03271083
C  0.32818923 0.57136218 -0.00537158
H  -0.17012237 1.52843186 0.02933044
H  1.41733135 0.60626736 0.02945465
6
MD Step 50
C  -0.32956746 -0.56810524 -0.00478565
H  0.15136118 -1.52538472 0.03139978
H  -1.38557178 -0.65385616 0.03109068
C  0.32855374 0.57199571 -0.00513047
H  -0.17502555 1.52976317 0.02775355
H  1.42131566 0.60311868 0.02791683
6
MD Step 51
C  -0.32969819 -0.56833029 -0.00448383
H  0.15097246 -1.52762950 0.02974202
H  -1.38722716 -0.65501021 0.02939927
C  0.32895361 0.57265943 -0.00487625
H  -0.17995436 1.53109481 0.02609847
H  1.42508146 0.59995874 0.02629521
6
MD Step 52
C  -0.32982719 -0.56859097 -0.00417762
H  0.15089183 -1.52997974 0.02805355
H  -1.38937101 -0.65594980 0.02768463
C  0.32938097 0.57334525 -0.00461674
H  -0.18481317 1.53242513 0.02441521
H  1.42860944 0.59685226 0.02464041
6
MD Step 53
C  -0.32995015 -0.56888288 -0.00386206
H  0.15107314 -1.53242923 0.02630716
H  -1.39198751 -0.65670009 0.02591908
C  0.32984025 0.57405789 -0.00434758
H  -0.18958500 1.53367660 0.02267554
H  1.43180893 0.59378710 0.02292453
6
MD Step 54
C  -0.33006908 -0.56920733 -0.00353819
H  0.15150099 -1.53493523 0.02450912
H  -1.39501681 -0.65725276 0.02410807
C  0.33032971 0.57479601 -0.00406985
H  -0.19422056 1.53480830 0.02088592
H  1.43463076 0.59078474 0.02115454
6
MD Step 55
C  -0.33018203 -0.56956125 -0.00320253
H  0.15213200 -1.53747913 0.02264048
H  -1.39841635 -0.65762614 0.02223181
C  0.33085131 0.57556219 -0.00378055
H  -0.19869885 1.53575705 0.01902681
H  1.43700802 0.58784080 0.01931144
6
MD Step 56
C  -0.33029452 -0.56994843 -0.00285896
H  0.15296239 -1.53999965 0.02072349
H  -1.40209484 -0.65779733 0.02031158
C  0.33139955 0.57635148 -0.00348337
H  -0.20295982 1.53650595 0.01712132
H  1.43892467 0.58499210 0.01741900
6
MD Step 57
C  -0.33040488 -0.57036521 -0.00250373
H  0.15394381 -1.54247913 0.01873783
H  -1.40599975 -0.65778809 0.01832612
C  0.33197558 0.57716580 -0.00317512
H  -0.20699058 1.53699951 0.01514857
H  1.44033005 0.58223174 0.01545690
6
MD Step 58
C  -0.33052273 -0.57081857 -0.00214466
H  0.15509208 -1.54483534 0.01672773
H  -1.41001013 -0.65755537 0.01631876
C  0.33256917 0.57799546 -0.00286308
H  -0.21071619 1.53725339 0.01315435
H  1.44124880 0.57961732 0.01347154
6
MD Step 59
C  -0.33064943 -0.57130709 -0.00178113
H  0.15637489 -1.54703611 0.01469022
H  -1.41405269 -0.65710571 0.01428576
C  0.33317760 0.57883839 -0.00254685
H  -0.21411429 1.53724081 0.01113579
H  1.44166636 0.57715781 0.01146056
6
MD Step 60
C  -0.33078168 -0.57182447 -0.00140785
H  0.15773343 -1.54907872 0.01259617
H  -1.41808216 -0.65647388 0.01219729
C  0.33380215 0.57969653 -0.00222178
H  -0.21719385 1.53691424 0.00906291
H  1.44155055 0.57483460 0.00939443
6
MD Step 61
C  -0.33092255 -0.57237043 -0.00102634
H  0.15914786 -1.55092488 0.01045471
H  -1.42201689 -0.65565705 0.01006198
C  0.33443723 0.58056476 -0.00188945
H  -0.21992966 1.53627137 0.00694504
H  1.44091764 0.57266667 0.00728287
6
MD Step 62
C  -0.33108524 -0.57295442 -0.00064888
H  0.16066002 -1.55247885 0.00833531
H  -1.42571799 -0.65459219 0.00794886
C  0.33506670 0.58142710 -0.00156119
H  -0.22223994 1.53537763 0.00485360
H  1.43985471 0.57073277 0.00519756
6
MD Step 63
C  -0.33126487 -0.57356800 -0.00026960
H  0.16220976 -1.55375337 0.00620520
H  -1.42915654 -0.65332222 0.00582493
C  0.33569137 0.58228466 -0.00123170
H  -0.22415220 1.53420064 0.00275468
H  1.43835274 0.56900695 0.00310477
6
MD Step 64
C  -0.33146259 -0.57420852 0.00011075
H  0.16377622 -1.55472805 0.00406907
H  -1.43227234 -0.65185339 0.00369481
C  0.33630548 0.58313174 -0.00090175
H  -0.22566092 1.53275233 0.00065273
H  1.43644903 0.56749973 0.00100902
6
MD Step 65
C  -0.33168402 -0.57487768 0.00048628
H  0.16536935 -1.55535839 0.00196043
H  -1.43498344 -0.65016400 0.00159200
C  0.33689822 0.58395731 -0.00057677
H  -0.22673636 1.53108007 -0.00141832
H  1.43421790 0.56624927 -0.00105583
6
MD Step 66
C  -0.33192346 -0.57556600 0.00086222
H  0.16693772 -1.55566908 -0.00015012
H  -1.43728008 -0.64829778 -0.00051272
C  0.33746924 0.58476074 -0.00025189
H  -0.22741777 1.52917329 -0.00348917
H  1.43167647 0.56522876 -0.00312064
6
MD Step 67
C  -0.33218365 -0.57627227 0.00123466
H  0.16848441 -1.55563758 -0.00224009
H  -1.43910842 -0.64624691 -0.00259661
C  0.33800939 0.58553226 0.00006927
H  -0.22769660 1.52707986 -0.00553755
H  1.42890091 0.56446231 -0.00516341
6
MD Step 68
C  -0.33246769 -0.57699571 0.00159875
H  0.17002013 -1.55524149 -0.00428176
H  -1.44041835 -0.64399937 -0.00463162
C  0.33850863 0.58626093 0.00038230
H  -0.22756369 1.52485832 -0.00753594
H  1.42597793 0.56397781 -0.00715701
6
MD Step 69
C  -0.33276498 -0.57772206 0.00196316
H  0.17148043 -1.55454195 -0.00632462
H  -1.44124725 -0.64162250 -0.00666685
C  0.33897004 0.58694883 0.00069548
H  -0.22709262 1.52249399 -0.00953575
H  1.42291975 0.56372396 -0.00915325
6
MD Step 70
C  -0.33307704 -0.57844914 0.00232369
H  0.17287742 -1.55353080 -0.00834461
H  -1.44156708 -0.63910983 -0.00867782
C  0.33938449 0.58758535 0.00100503
H  -0.22628654 1.52005116 -0.01151351
H  1.41981641 0.56372217 -0.01112918
6
MD Step 71
C  -0.33340108 -0.57917068 0.00268010
H  0.17420310 -1.55222750 -0.01034024
H  -1.44138163 -0.63647836 -0.01066257
C  0.33974689 0.58816367 0.00131088
H  -0.22517511 1.51757521 -0.01346884
H  1.41673677 0.56396990 -0.01308497
6
MD Step 72
C  -0.33373621 -0.57988240 0.00302978
H  0.17546558 -1.55064259 -0.01229662
H  -1.44069016 -0.63373200 -0.01260572
C  0.34005030 0.58867473 0.00161081
H  -0.22377765 1.51512811 -0.01538781
H  1.41376330 0.56447687 -0.01500729
6
MD Step 73
C  -0.33407718 -0.58057603 0.00337414
H  0.17665240 -1.54881407 -0.01422186
H  -1.43952407 -0.63089828 -0.01451501
C  0.34029213 0.58911352 0.00190638
H  -0.22213925 1.51275081 -0.01727993
H  1.41095342 0.56522854 -0.01690612
6
MD Step 74
C  -0.33441830 -0.58124305 0.00371466
H  0.17775290 -1.54678436 -0.01612469
H  -1.43792392 -0.62800553 -0.01639887
C  0.34047048 0.58947536 0.00219930
H  -0.22030751 1.51048473 -0.01915539
H  1.40836056 0.56620871 -0.01879202
6
MD Step 75
C  -0.33476179 -0.58188320 0.00404452
H  0.17880754 -1.54455005 -0.01796523
H  -1.43588929 -0.62503294 -0.01821685
C  0.34057594 0.58974768 0.00248313
H  -0.21828209 1.50842044 -0.02097510
H  1.40608226 0.56744913 -0.02062655
6
MD Step 76
C  -0.33509810 -0.58248482 0.00436844
H  0.17979103 -1.54217872 -0.01977123
H  -1.43349588 -0.62202790 -0.01999678
C  0.34061130 0.58992983 0.00276276
H  -0.21613113 1.50657896 -0.02276845
H  1.40414055 0.56891273 -0.02243902
6
MD Step 77
C  -0.33542970 -0.58304869 0.00467885
H  0.18075261 -1.53966705 -0.02149794
H  -1.43075352 -0.61896443 -0.02169337
C  0.34056799 0.59000950 0.00303082
H  -0.21384914 1.50505177 -0.02449139
H  1.40262209 0.57063444 -0.02418592
6
MD Step 78
C  -0.33575004 -0.58356704 0.00497697
H  0.18169118 -1.53706545 -0.02315239
H  -1.42773100 -0.61586845 -0.02331381
C  0.34044710 0.58998388 0.00328866
H  -0.21148126 1.50387414 -0.02615209
H  1.40155076 0.57259644 -0.02587516
6
MD Step 79
C  -0.33605216 -0.58403222 0.00526421
H  0.18260557 -1.53442654 -0.02474293
H  -1.42450442 -0.61276676 -0.02486684
C  0.34025094 0.58985126 0.00353780
H  -0.20907158 1.50307458 -0.02775983
H  1.40093761 0.57477884 -0.02751545
6
MD Step 80
C  -0.33633131 -0.58443929 0.00553974
H  0.18350904 -1.53178929 -0.02626432
H  -1.42114077 -0.60967192 -0.02634759
C  0.33998049 0.58960862 0.00377740
H  -0.20664738 1.50268865 -0.02930991
H  1.40079532 0.57717470 -0.02910154
6
MD Step 81
C  -0.33657774 -0.58477888 0.00580758
H  0.18438580 -1.52922146 -0.02774067
H  -1.41773995 -0.60662537 -0.02778142
C  0.33964261 0.58925901 0.00401160
H  -0.20426158 1.50271460 -0.03082697
H  1.40109469 0.57974686 -0.03065660
6
MD Step 82
C  -0.33678953 -0.58504984 0.00606427
H  0.18526552 -1.52674340 -0.02915069
H  -1.41435760 -0.60362204 -0.02914742
C  0.33923738 0.58879897 0.00423665
H  -0.20191704 1.50318776 -0.03228950
H  1.40184046 0.58250304 -0.03215849
6
MD Step 83
C  -0.33696058 -0.58524744 0.00631057
H  0.18615162 -1.52439885 -0.03049871
H  -1.41107522 -0.60068188 -0.03045111
C  0.33877000 0.58823066 0.00445317
H  -0.19963755 1.50410821 -0.03370147
H  1.40300001 0.58542443 -0.03360979
6
MD Step 84
C  -0.33708405 -0.58536662 0.00654825
H  0.18704023 -1.52223470 -0.03179535
H  -1.40797886 -0.59783028 -0.03170471
C  0.33824744 0.58755862 0.00466282
H  -0.19744816 1.50545985 -0.03507279
H  1.40452380 0.58848512 -0.03501866
6
MD Step 85
C  -0.33715917 -0.58540871 0.00677376
H  0.18795920 -1.52026066 -0.03301814
H  -1.40511749 -0.59505852 -0.03288636
C  0.33767172 0.58678315 0.00486139
H  -0.19533561 1.50724986 -0.03637969
H  1.40638634 0.59169147 -0.03636061
6
MD Step 86
C  -0.33717940 -0.58536968 0.00698952
H  0.18889732 -1.51851942 -0.03418179
H  -1.40257210 -0.59239442 -0.03401276
C  0.33705160 0.58591214 0.00505115
H  -0.19331903 1.50943812 -0.03763544
H  1.40851670 0.59501164 -0.03764697
6
MD Step 87
C  -0.33714296 -0.58525040 0.00719409
H  0.18986520 -1.51702461 -0.03527704
H  -1.40039222 -0.58984091 -0.03507589
C  0.33639222 0.58495076 0.00523012
H  -0.19138897 1.51199920 -0.03882886
H  1.41086176 0.59843687 -0.03886545
6
MD Step 88
C  -0.33705531 -0.58505919 0.00738002
H  0.19090951 -1.51574602 -0.03625616
H  -1.39857990 -0.58736163 -0.03602746
C  0.33569257 0.58389892 0.00538936
H  -0.18949339 1.51493756 -0.03990991
H  1.41340231 0.60199596 -0.03996676
6
MD Step 89
C  -0.33690807 -0.58479055 0.00755358
H  0.19198711 -1.51473574 -0.03715875
H  -1.39721535 -0.58500712 -0.03691010
C  0.33496653 0.58277238 0.00553553
H  -0.18766417 1.51816222 -0.04091587
H  1.41602790 0.60562921 -0.04098545
6
MD Step 90
C  -0.33670696 -0.58445310 0.00770877
H  0.19313059 -1.51396171 -0.03794592
H  -1.39628883 -0.58274872 -0.03768438
C  0.33421494 0.58157475 0.00566116
H  -0.18585203 1.52165432 -0.04180527
H  1.41870535 0.60935455 -0.04188097
6
MD Step 91
C  -0.33644685 -0.58404447 0.00785054
H  0.19429946 -1.51345715 -0.03864936
H  -1.39584973 -0.58062779 -0.03838440
C  0.33345053 0.58032238 0.00577154
H  -0.18407621 1.52531911 -0.04260711
H  1.42133077 0.61311845 -0.04268026
6
MD Step 92
C  -0.33613083 -0.58357037 0.00797719
H  0.19549342 -1.51320707 -0.03925795
H  -1.39589199 -0.57864232 -0.03899923
C  0.33267881 0.57902514 0.00586421
H  -0.18231208 1.52910108 -0.04330764
H  1.42384505 0.61690947 -0.04336972
6
MD Step 93
C  -0.33575871 -0.58303296 0.00809094
H  0.19668407 -1.51321713 -0.03978635
H  -1.39642277 -0.57681543 -0.03954461
C  0.33190947 0.57769778 0.00594145
H  -0.18056034 1.53291688 -0.04391884
H  1.42616666 0.62068987 -0.04396057
6
MD Step 94
C  -0.33533041 -0.58243421 0.00819481
H  0.19783524 -1.51349382 -0.04025493
H  -1.39744227 -0.57517523 -0.04004206
C  0.33115295 0.57635634 0.00600665
H  -0.17882764 1.53667707 -0.04445846
H  1.42821338 0.62441596 -0.04446960
6
MD Step 95
C  -0.33485592 -0.58178589 0.00828356
H  0.19896305 -1.51398498 -0.04062972
H  -1.39888436 -0.57369512 -0.04045584
C  0.33041029 0.57500800 0.00605335
H  -0.17706779 1.54034741 -0.04489067
H  1.42996331 0.62809819 -0.04486286
6
MD Step 96
C  -0.33433824 -0.58109245 0.00835906
H  0.20003529 -1.51468177 -0.04092393
H  -1.40071946 -0.57239463 -0.04079932
C  0.32969010 0.57366778 0.00608377
H  -0.17528289 1.54384899 -0.04522659
H  1.43135440 0.63170005 -0.04515132
6
MD Step 97
C  -0.33378696 -0.58036473 0.00841792
H  0.20105366 -1.51553732 -0.04111568
H  -1.40287393 -0.57125784 -0.04104878
C  0.32899473 0.57234474 0.00609373
H  -0.17344242 1.54714132 -0.04544317
H  1.43236704 0.63522033 -0.04531365
6
MD Step 98
C  -0.33320168 -0.57960314 0.00846632
H  0.20195537 -1.51656650 -0.04124767
H  -1.40533101 -0.57033176 -0.04124788
C  0.32833696 0.57105831 0.00609103
H  -0.17158190 1.55012450 -0.04558102
H  1.43292573 0.63859415 -0.04538925
6
MD Step 99
C  -0.33260091 -0.57882707 0.00849379
H  0.20278853 -1.51767142 -0.04125079
H  -1.40795690 -0.56955211 -0.04132340
C  0.32771029 0.56980895 0.00606301
H  -0.16962939 1.55281511 -0.04557166
H  1.43307457 0.64186859 -0.04531347
6
MD Step 100
C  -0.33199211 -0.57804455 0.00850019
H  0.20353331 -1.51882191 -0.04112497
H  -1.41068330 -0.56892189 -0.04127392
C  0.32711935 0.56860795 0.00600971
H  -0.16758382 1.55516754 -0.04541468
H  1.43279777 0.64502299 -0.04508688
6
MD Step 101
C  -0.33138066 -0.57726138 0.00848733
H  0.20415762 -1.52000101 -0.04088356
H  -1.41345400 -0.56845633 -0.04111200
C  0.32657047 0.56746811 0.00593370
H  -0.16546025 1.55712979 -0.04512305
H  1.43207500 0.64802449 -0.04472290
6
MD Step 102
C  -0.33077695 -0.57648838 0.00845258
H  0.20466089 -1.52116228 -0.04050958
H  -1.41618305 -0.56813984 -0.04081856
C  0.32606433 0.56639636 0.00583204
H  -0.16324697 1.55868733 -0.04468066
H  1.43092479 0.65087160 -0.04420712
6
MD Step 103
C  -0.33018503 -0.57572983 0.00839890
H  0.20500676 -1.52229801 -0.04002410
H  -1.41882412 -0.56799305 -0.04041401
C  0.32560740 0.56540495 0.00570880
H  -0.16097255 1.55979603 -0.04410862
H  1.42933713 0.65352663 -0.04356096
6
MD Step 104
C  -0.32961190 -0.57499299 0.00832645
H  0.20518015 -1.52338299 -0.03942883
H  -1.42131486 -0.56801652 -0.03989875
C  0.32520222 0.56450188 0.00556454
H  -0.15864960 1.56043914 -0.04340964
H  1.42733017 0.65597273 -0.04278817
6
MD Step 105
C  -0.32906095 -0.57428139 0.00823833
H  0.20514862 -1.52441384 -0.03874565
H  -1.42361694 -0.56822926 -0.03929402
C  0.32485402 0.56369727 0.00540356
H  -0.15631324 1.56058880 -0.04260607
H  1.42491145 0.65817504 -0.04191149
6
MD Step 106
C  -0.32854043 -0.57360351 0.00813296
H  0.20491411 -1.52535794 -0.03796433
H  -1.42566533 -0.56861774 -0.03858813
C  0.32456193 0.56299474 0.00522435
H  -0.15397011 1.56025752 -0.04168962
H  1.42212917 0.66013247 -0.04092395
6
MD Step 107
C  -0.32805725 -0.57296644 0.00800946
H  0.20447660 -1.52619029 -0.03707957
H  -1.42740586 -0.56917205 -0.03777463
C  0.32432516 0.56239742 0.00502631
H  -0.15163432 1.55946183 -0.04065703
H  1.41903533 0.66184120 -0.03982334
6
MD Step 108
C  -0.32761834 -0.57237728 0.00786651
H  0.20384252 -1.52688569 -0.03608263
H  -1.42878787 -0.56987788 -0.03684370
C  0.32414161 0.56190654 0.00480825
H  -0.14931914 1.55823030 -0.03950201
H  1.41569334 0.66330297 -0.03860443
6
MD Step 109
C  -0.32722628 -0.57183868 0.00770615
H  0.20299903 -1.52744470 -0.03498759
H  -1.42979070 -0.57074192 -0.03580902
C  0.32401231 0.56152565 0.00457312
H  -0.14706220 1.55657775 -0.03824022
H  1.41215162 0.66449922 -0.03728330
6
MD Step 110
C  -0.32688898 -0.57135876 0.00752495
H  0.20197330 -1.52783495 -0.03377120
H  -1.43036498 -0.57173369 -0.03464641
C  0.32393139 0.56125091 0.00431714
H  -0.14486697 1.55456367 -0.03685185
H  1.40850147 0.66545038 -0.03584118
6
MD Step 111
C  -0.32660414 -0.57093515 0.00732821
H  0.20073792 -1.52808537 -0.03246890
H  -1.43052755 -0.57287873 -0.03339153
C  0.32390216 0.56108666 0.00404706
H  -0.14279553 1.55219787 -0.03537327
H  1.40478207 0.66612120 -0.03431437
6
MD Step 112
C  -0.32637181 -0.57056791 0.00711842
H  0.19928757 -1.52820980 -0.03109695
H  -1.43028473 -0.57418306 -0.03206067
C  0.32392419 0.56103279 0.00376618
H  -0.14089266 1.54951618 -0.03382257
H  1.40105573 0.66649747 -0.03272105
6
MD Step 113
C  -0.32619386 -0.57025897 0.00689569
H  0.19763568 -1.52821001 -0.02965575
H  -1.42963534 -0.57563632 -0.03065419
C  0.32399387 0.56108535 0.00347495
H  -0.13918871 1.54657668 -0.03220261
H  1.39740356 0.66658283 -0.03106428
6
MD Step 114
C  -0.32607203 -0.57001015 0.00665958
H  0.19580237 -1.52808758 -0.02814195
H  -1.42858273 -0.57722368 -0.02916882
C  0.32410656 0.56123858 0.00317311
H  -0.13771084 1.54344680 -0.03051262
H  1.39391191 0.66638665 -0.02934331
6
MD Step 115
C  -0.32600769 -0.56982290 0.00640932
H  0.19381299 -1.52784504 -0.02654967
H  -1.42713604 -0.57892722 -0.02759892
C  0.32425690 0.56148528 0.00285994
H  -0.13648368 1.54020100 -0.02874935
H  1.39066922 0.66592260 -0.02755479
6
MD Step 116
C  -0.32599616 -0.56969258 0.00614905
H  0.19166330 -1.52752014 -0.02490569
H  -1.42534469 -0.58076013 -0.02597187
C  0.32444487 0.56182264 0.00254044
H  -0.13556288 1.53688496 -0.02694068
H  1.38772955 0.66517378 -0.02572604
6
MD Step 117
C  -0.32603923 -0.56962123 0.00587620
H  0.18939521 -1.52710987 -0.02319237
H  -1.42322200 -0.58269186 -0.02427045
C  0.32466294 0.56223986 0.00221175
H  -0.13495949 1.53358973 -0.02507170
H  1.38518619 0.66416867 -0.02384178
6
MD Step 118
C  -0.32613111 -0.56960323 0.00559470
H  0.18701084 -1.52665538 -0.02143439
H  -1.42083038 -0.58473271 -0.02252006
C  0.32491081 0.56273249 0.00187837
H  -0.13472367 1.53036491 -0.02316800
H  1.38308436 0.66289515 -0.02192686
6
MD Step 119
C  -0.32626348 -0.56963051 0.00531026
H  0.18450254 -1.52621121 -0.01966800
H  -1.41825017 -0.58690388 -0.02075777
C  0.32519029 0.56329761 0.00154678
H  -0.13491388 1.52724723 -0.02126602
H  1.38144970 0.66133085 -0.02001690
6
MD Step 120
C  -0.32644161 -0.56970899 0.00501511
H  0.18194987 -1.52574765 -0.01784256
H  -1.41548121 -0.58914130 -0.01893351
C  0.32548891 0.56391786 0.00120823
H  -0.13550003 1.52435572 -0.01931802
H  1.38038369 0.65954042 -0.01806350
6
MD Step 121
C  -0.32666276 -0.56983658 0.00470855
H  0.17938820 -1.52528108 -0.01595306
H  -1.41257366 -0.59142535 -0.01704303
C  0.32580230 0.56458342 0.00086192
H  -0.13649196 1.52175919 -0.01731998
H  1.37993072 0.65754408 -0.01606190
6
MD Step 122
C  -0.32692265 -0.57000979 0.00439090
H  0.17684694 -1.52483496 -0.01400098
H  -1.40958857 -0.59374282 -0.01508855
C  0.32612769 0.56528581 0.00050811
H  -0.13790044 1.51951274 -0.01527389
H  1.38011487 0.65535618 -0.01401328
6
MD Step 123
C  -0.32721218 -0.57022039 0.00406672
H  0.17432914 -1.52445921 -0.01201447
H  -1.40661678 -0.59610684 -0.01309899
C  0.32646737 0.56602142 0.00015160
H  -0.13975628 1.51763616 -0.01320747
H  1.38091905 0.65296501 -0.01194466
6
MD Step 124
C  -0.32752084 -0.57045889 0.00374167
H  0.17183055 -1.52420977 -0.01002857
H  -1.40375739 -0.59853743 -0.01111002
C  0.32682535 0.56678839 -0.00020163
H  -0.14209039 1.51613234 -0.01115495
H  1.38230466 0.65035257 -0.00988967
6
MD Step 125
C  -0.32785330 -0.57073125 0.00340651
H  0.16943839 -1.52404883 -0.00798535
H  -1.40101659 -0.60096295 -0.00906422
C  0.32719049 0.56757020 -0.00056162
H  -0.14483494 1.51508523 -0.00905931
H  1.38431125 0.64759378 -0.00779094