 Entering Gaussian System, Link 0=g16
 Initial command:
 /software/gaussian/g16-c01/avx2/g16/l1.exe "/gpfs/fs2/scratch/bweight/software/many_molecule_many_mode_NAMD/src/NAMD/TEST_NVT/TRAJ/traj-1/G16/GS_NEW/Gau-2427.inp" -scrdir="/gpfs/fs2/scratch/bweight/software/many_molecule_many_mode_NAMD/src/NAMD/TEST_NVT/TRAJ/traj-1/G16/GS_NEW/"
 Entering Link 1 = /software/gaussian/g16-c01/avx2/g16/l1.exe PID=      2428.
  
 Copyright (c) 1988-2019, Gaussian, Inc.  All Rights Reserved.
  
 This is part of the Gaussian(R) 16 program.  It is based on
 the Gaussian(R) 09 system (copyright 2009, Gaussian, Inc.),
 the Gaussian(R) 03 system (copyright 2003, Gaussian, Inc.),
 the Gaussian(R) 98 system (copyright 1998, Gaussian, Inc.),
 the Gaussian(R) 94 system (copyright 1995, Gaussian, Inc.),
 the Gaussian 92(TM) system (copyright 1992, Gaussian, Inc.),
 the Gaussian 90(TM) system (copyright 1990, Gaussian, Inc.),
 the Gaussian 88(TM) system (copyright 1988, Gaussian, Inc.),
 the Gaussian 86(TM) system (copyright 1986, Carnegie Mellon
 University), and the Gaussian 82(TM) system (copyright 1983,
 Carnegie Mellon University). Gaussian is a federally registered
 trademark of Gaussian, Inc.
  
 This software contains proprietary and confidential information,
 including trade secrets, belonging to Gaussian, Inc.
  
 This software is provided under written license and may be
 used, copied, transmitted, or stored only in accord with that
 written license.
  
 The following legend is applicable only to US Government
 contracts under FAR:
  
                    RESTRICTED RIGHTS LEGEND
  
 Use, reproduction and disclosure by the US Government is
 subject to restrictions as set forth in subparagraphs (a)
 and (c) of the Commercial Computer Software - Restricted
 Rights clause in FAR 52.227-19.
  
 Gaussian, Inc.
 340 Quinnipiac St., Bldg. 40, Wallingford CT 06492
  
  
 ---------------------------------------------------------------
 Warning -- This program may not be used in any manner that
 competes with the business of Gaussian, Inc. or will provide
 assistance to any competitor of Gaussian, Inc.  The licensee
 of this program is prohibited from giving any competitor of
 Gaussian, Inc. access to this program.  By using this program,
 the user acknowledges that Gaussian, Inc. is engaged in the
 business of creating and licensing software in the field of
 computational chemistry and represents and warrants to the
 licensee that it is not a competitor of Gaussian, Inc. and that
 it will not use this program in any manner prohibited above.
 ---------------------------------------------------------------
  

 Cite this work as:
 Gaussian 16, Revision C.01,
 M. J. Frisch, G. W. Trucks, H. B. Schlegel, G. E. Scuseria, 
 M. A. Robb, J. R. Cheeseman, G. Scalmani, V. Barone, 
 G. A. Petersson, H. Nakatsuji, X. Li, M. Caricato, A. V. Marenich, 
 J. Bloino, B. G. Janesko, R. Gomperts, B. Mennucci, H. P. Hratchian, 
 J. V. Ortiz, A. F. Izmaylov, J. L. Sonnenberg, D. Williams-Young, 
 F. Ding, F. Lipparini, F. Egidi, J. Goings, B. Peng, A. Petrone, 
 T. Henderson, D. Ranasinghe, V. G. Zakrzewski, J. Gao, N. Rega, 
 G. Zheng, W. Liang, M. Hada, M. Ehara, K. Toyota, R. Fukuda, 
 J. Hasegawa, M. Ishida, T. Nakajima, Y. Honda, O. Kitao, H. Nakai, 
 T. Vreven, K. Throssell, J. A. Montgomery, Jr., J. E. Peralta, 
 F. Ogliaro, M. J. Bearpark, J. J. Heyd, E. N. Brothers, K. N. Kudin, 
 V. N. Staroverov, T. A. Keith, R. Kobayashi, J. Normand, 
 K. Raghavachari, A. P. Rendell, J. C. Burant, S. S. Iyengar, 
 J. Tomasi, M. Cossi, J. M. Millam, M. Klene, C. Adamo, R. Cammi, 
 J. W. Ochterski, R. L. Martin, K. Morokuma, O. Farkas, 
 J. B. Foresman, and D. J. Fox, Gaussian, Inc., Wallingford CT, 2019.
 
 ******************************************
 Gaussian 16:  ES64L-G16RevC.01  3-Jul-2019
                11-Jan-2023 
 ******************************************
 %oldchk=../GS_OLD/geometry.chk
 %chk=geometry.chk
 %nprocshared=4
 Will use up to    4 processors via shared memory.
 %mem=5GB
 Copying data from "../GS_OLD/geometry.chk" to current chk file "geometry.chk"
 IOpt=  2 FromEx=T IUOpen= 4 IOptOp= 5 NList=   0 IFRang= 0 IUIn= 4 IUOut= 2.
 -------------------------------------------------------
 # WB97XD/6-311G SCF=XQC FORCE nosym pop=full guess=read
 -------------------------------------------------------
 1/10=7,30=1,38=1/1,3;
 2/12=2,15=1,17=6,18=5,40=1/2;
 3/5=4,6=6,11=2,25=1,30=1,71=1,74=-58,116=-2/1,2,3;
 4/5=1/1;
 5/5=2,8=3,13=1,38=6/2,8;
 6/7=3,28=1/1;
 7/29=1,30=1/1,2,3,16;
 1/10=7,30=1/3;
 99//99;
 -----------
 MD Step 999
 -----------
 Symbolic Z-matrix:
 Charge =  0 Multiplicity = 1
 C                    -0.33508  -0.58072   0.00507 
 H                     0.20482  -1.53157  -0.01417 
 H                    -1.41703  -0.58869  -0.01497 
 C                     0.33341   0.57657   0.00408 
 H                    -0.17247   1.56753  -0.01675 
 H                     1.45161   0.64923  -0.01603 
 

 GradGradGradGradGradGradGradGradGradGradGradGradGradGradGradGradGradGrad
 Berny optimization.
 Initialization pass.
 Trust Radius=3.00D-01 FncErr=1.00D-07 GrdErr=1.00D-07 EigMax=2.50D+02 EigMin=1.00D-04
 Number of steps in this run=      2 maximum allowed number of steps=      2.
 GradGradGradGradGradGradGradGradGradGradGradGradGradGradGradGradGradGrad

                          Input orientation:                          
 ---------------------------------------------------------------------
 Center     Atomic      Atomic             Coordinates (Angstroms)
 Number     Number       Type             X           Y           Z
 ---------------------------------------------------------------------
      1          6           0       -0.335078   -0.580718    0.005069
      2          1           0        0.204824   -1.531573   -0.014170
      3          1           0       -1.417030   -0.588686   -0.014970
      4          6           0        0.333412    0.576570    0.004078
      5          1           0       -0.172470    1.567531   -0.016752
      6          1           0        1.451612    0.649234   -0.016031
 ---------------------------------------------------------------------
                    Distance matrix (angstroms):
                    1          2          3          4          5
     1  C    0.000000
     2  H    1.093614   0.000000
     3  H    1.082166   1.876019   0.000000
     4  C    1.336486   2.112140   2.102910   0.000000
     5  H    2.154504   3.121987   2.489619   1.112813   0.000000
     6  H    2.169214   2.512052   3.124348   1.120739   1.865721
                    6
     6  H    0.000000
 Symmetry turned off by external request.
 Stoichiometry    C2H4
 Framework group  C1[X(C2H4)]
 Deg. of freedom    12
 Full point group                 C1      NOp   1
 Rotational constants (GHZ):         143.2138403          29.6841848          24.5911367
 Standard basis: 6-311G (5D, 7F)
    38 basis functions,    72 primitive gaussians,    38 cartesian basis functions
     8 alpha electrons        8 beta electrons
       nuclear repulsion energy        33.0557928072 Hartrees.
 NAtoms=    6 NActive=    6 NUniq=    6 SFac= 1.00D+00 NAtFMM=   60 NAOKFM=F Big=F
 Integral buffers will be    131072 words long.
 Raffenetti 2 integral format.
 Two-electron integral symmetry is turned off.
 Nuclear repulsion after empirical dispersion term =       33.0549521138 Hartrees.
 One-electron integrals computed using PRISM.
 NBasis=    38 RedAO= T EigKep=  6.40D-03  NBF=    38
 NBsUse=    38 1.00D-06 EigRej= -1.00D+00 NBFU=    38
 Initial guess from the checkpoint file:  "geometry.chk"
 B after Tr=    -0.000240   -0.000403   -0.000528
         Rot=    1.000000   -0.000003    0.000002    0.000006 Ang=  -0.00 deg.
 Keep R1 ints in memory in canonical form, NReq=4036876.
 Requested convergence on RMS density matrix=1.00D-08 within  32 cycles.
 Requested convergence on MAX density matrix=1.00D-06.
 Requested convergence on             energy=1.00D-06.
 No special actions if energy rises.
 SCF Done:  E(RwB97XD) =  -78.5555876666     A.U. after    8 cycles
            NFock=  8  Conv=0.59D-08     -V/T= 2.0053
 QCSCF skips out because SCF is already converged.

 **********************************************************************

            Population analysis using the SCF Density.

 **********************************************************************

 Alpha  occ. eigenvalues --  -10.29189 -10.28714  -0.86394  -0.67157  -0.55875
 Alpha  occ. eigenvalues --   -0.50992  -0.43566  -0.35722
 Alpha virt. eigenvalues --    0.08023   0.14076   0.16409   0.16966   0.24065
 Alpha virt. eigenvalues --    0.37600   0.39195   0.39777   0.46249   0.48770
 Alpha virt. eigenvalues --    0.49351   0.59108   0.66467   0.69030   0.77114
 Alpha virt. eigenvalues --    0.77677   0.84363   0.95341   2.23211   2.28910
 Alpha virt. eigenvalues --    2.33315   2.40719   2.67121   2.81787   2.87814
 Alpha virt. eigenvalues --    2.95128   3.14087   3.31733  23.35093  23.70678
     Molecular Orbital Coefficients:
                           1         2         3         4         5
                           O         O         O         O         O
     Eigenvalues --   -10.29189 -10.28714  -0.86394  -0.67157  -0.55875
   1 1   C  1S          0.05291   0.56089  -0.08887   0.06620  -0.00059
   2        2S          0.04375   0.46162  -0.14047   0.10605  -0.00098
   3        2PX         0.00016  -0.00000   0.02568   0.03810   0.13778
   4        2PY         0.00028   0.00001   0.04627   0.06269  -0.07586
   5        2PZ         0.00000  -0.00000  -0.00082   0.00124   0.00014
   6        3S          0.00050   0.01466   0.37667  -0.28933   0.00276
   7        3PX        -0.00065   0.00037   0.03368   0.06082   0.21570
   8        3PY        -0.00111   0.00067   0.06058   0.10111  -0.11934
   9        3PZ        -0.00001  -0.00002  -0.00137   0.00221   0.00020
  10        4S          0.00458  -0.01438   0.19194  -0.22549   0.00293
  11        4PX         0.00162  -0.00138   0.00449   0.02401   0.11162
  12        4PY         0.00282  -0.00243   0.00839   0.04178  -0.06271
  13        4PZ        -0.00000   0.00005  -0.00048   0.00111   0.00010
  14 2   H  1S         -0.00004  -0.00007   0.05287  -0.08875   0.10356
  15        2S         -0.00031   0.00007   0.05404  -0.10628   0.13086
  16        3S          0.00069   0.00175  -0.00169  -0.01543   0.04242
  17 3   H  1S         -0.00005  -0.00008   0.05456  -0.09176  -0.10549
  18        2S         -0.00031   0.00007   0.05505  -0.10929  -0.13250
  19        3S          0.00069   0.00180  -0.00165  -0.01636  -0.04302
  20 4   C  1S          0.56093  -0.05311  -0.08648  -0.06886  -0.00032
  21        2S          0.46166  -0.04350  -0.13655  -0.11042  -0.00052
  22        2PX        -0.00001  -0.00016  -0.02833   0.03599   0.11778
  23        2PY        -0.00001  -0.00028  -0.04757   0.06414  -0.07185
  24        2PZ        -0.00000   0.00000  -0.00064  -0.00124   0.00013
  25        3S          0.01426  -0.00225   0.36594   0.30172   0.00151
  26        3PX        -0.00028   0.00071  -0.03573   0.05882   0.18471
  27        3PY        -0.00046   0.00122  -0.05958   0.10432  -0.11194
  28        3PZ        -0.00002  -0.00000  -0.00111  -0.00226   0.00020
  29        4S         -0.01292   0.00728   0.18856   0.23990   0.00059
  30        4PX         0.00109  -0.00184  -0.00576   0.02605   0.10211
  31        4PY         0.00180  -0.00318  -0.00924   0.04435  -0.06073
  32        4PZ         0.00004  -0.00001  -0.00046  -0.00118   0.00010
  33 5   H  1S         -0.00005  -0.00004   0.04887   0.09194  -0.08832
  34        2S          0.00001  -0.00031   0.05025   0.11085  -0.11216
  35        3S          0.00176   0.00029  -0.00120   0.01668  -0.03614
  36 6   H  1S         -0.00003  -0.00004   0.04752   0.09071   0.08508
  37        2S         -0.00001  -0.00032   0.04953   0.10962   0.10825
  38        3S          0.00171   0.00031  -0.00130   0.01613   0.03505
                           6         7         8         9        10
                           O         O         O         V         V
     Eigenvalues --    -0.50992  -0.43566  -0.35722   0.08023   0.14076
   1 1   C  1S         -0.00445   0.00005  -0.00061   0.00168  -0.03138
   2        2S         -0.00678   0.00008  -0.00100   0.00279  -0.05027
   3        2PX         0.09527  -0.11034  -0.00216   0.00091  -0.03240
   4        2PY         0.16669   0.06586  -0.00357   0.00146  -0.06228
   5        2PZ         0.00318  -0.00003   0.17946  -0.18895  -0.00121
   6        3S          0.02431   0.00005   0.00292  -0.00847   0.10834
   7        3PX         0.13852  -0.17553  -0.00306   0.00138  -0.03901
   8        3PY         0.24354   0.10559  -0.00503   0.00220  -0.07738
   9        3PZ         0.00503  -0.00003   0.28880  -0.27814  -0.00197
  10        4S         -0.04754  -0.00258   0.00422  -0.00905   1.17473
  11        4PX         0.07014  -0.11004  -0.00249   0.00770  -0.19977
  12        4PY         0.12393   0.06591  -0.00411   0.01307  -0.37422
  13        4PZ         0.00286   0.00000   0.26696  -0.69671  -0.00734
  14 2   H  1S         -0.07950  -0.11453   0.00009   0.00262  -0.01438
  15        2S         -0.10938  -0.17683   0.00127   0.00415  -0.04314
  16        3S         -0.04083  -0.08204   0.00075   0.01079  -0.79051
  17 3   H  1S         -0.07881   0.11268   0.00007   0.00264  -0.01170
  18        2S         -0.10782   0.17296   0.00124   0.00412  -0.03747
  19        3S         -0.03999   0.07976   0.00075   0.01049  -0.75144
  20 4   C  1S         -0.00744  -0.00037  -0.00051  -0.00170  -0.03811
  21        2S         -0.01157  -0.00059  -0.00084  -0.00282  -0.06124
  22        2PX        -0.09751   0.12462   0.00206   0.00109   0.04040
  23        2PY        -0.16356  -0.07331   0.00381   0.00200   0.06446
  24        2PZ         0.00335   0.00013   0.17939   0.18967  -0.00222
  25        3S          0.03821   0.00163   0.00247   0.00842   0.13595
  26        3PX        -0.14402   0.20057   0.00287   0.00165   0.04891
  27        3PY        -0.24026  -0.11695   0.00535   0.00304   0.07644
  28        3PZ         0.00531   0.00019   0.28683   0.27770  -0.00335
  29        4S         -0.03655   0.00238   0.00421   0.01048   1.28350
  30        4PX        -0.07486   0.12887   0.00221   0.00844   0.25958
  31        4PY        -0.12373  -0.07524   0.00420   0.01479   0.42442
  32        4PZ         0.00307   0.00012   0.26685   0.69818  -0.01276
  33 5   H  1S         -0.07574  -0.12500   0.00013  -0.00255  -0.01505
  34        2S         -0.10422  -0.19583   0.00130  -0.00426  -0.04218
  35        3S         -0.03891  -0.09219   0.00073  -0.01159  -0.85987
  36 6   H  1S         -0.08067   0.12393   0.00011  -0.00257  -0.01751
  37        2S         -0.11123   0.19524   0.00127  -0.00443  -0.04831
  38        3S         -0.04156   0.09215   0.00070  -0.01200  -0.90199
                          11        12        13        14        15
                           V         V         V         V         V
     Eigenvalues --     0.16409   0.16966   0.24065   0.37600   0.39195
   1 1   C  1S          0.00065  -0.04652   0.00025   0.01122   0.00064
   2        2S          0.00105  -0.07579   0.00038   0.01584   0.00080
   3        2PX         0.09481  -0.02048   0.10103  -0.03747  -0.02188
   4        2PY        -0.05425  -0.03934  -0.05770  -0.06705   0.01159
   5        2PZ         0.00007  -0.00423   0.00004  -0.00292  -0.00014
   6        3S         -0.00232   0.17096   0.00022   0.02989   0.00601
   7        3PX         0.13636  -0.01216   0.10713  -0.04971  -0.10005
   8        3PY        -0.07874  -0.02651  -0.06216  -0.09558   0.05796
   9        3PZ         0.00009  -0.00588   0.00002  -0.00580  -0.00018
  10        4S         -0.03122   1.48207  -0.04133  -2.81364  -0.18222
  11        4PX         0.56602  -0.11954   1.16679  -1.60696  -0.56635
  12        4PY        -0.31530  -0.22778  -0.67963  -2.79587   0.12964
  13        4PZ         0.00053  -0.02768   0.00069  -0.02674  -0.00191
  14 2   H  1S         -0.03015  -0.02496   0.01378  -0.05356   0.07551
  15        2S         -0.08281  -0.01864  -0.02119  -0.62402   0.76216
  16        3S         -1.03024  -1.04332  -1.55784  -0.35532  -0.31935
  17 3   H  1S          0.02908  -0.02479  -0.01551  -0.04603  -0.07667
  18        2S          0.08113  -0.01911   0.01555  -0.55675  -0.77537
  19        3S          1.07043  -1.03443   1.59961  -0.42731   0.25032
  20 4   C  1S          0.00082   0.04141  -0.00026  -0.02001  -0.00038
  21        2S          0.00130   0.06745  -0.00042  -0.03266  -0.00065
  22        2PX         0.10408  -0.02275  -0.09971  -0.04125  -0.03331
  23        2PY        -0.06118  -0.03569   0.05724  -0.07571   0.01138
  24        2PZ         0.00010   0.00406  -0.00003   0.00229   0.00022
  25        3S         -0.00256  -0.15075   0.00036   0.03946   0.00294
  26        3PX         0.14981  -0.01779  -0.11320  -0.09042  -0.11470
  27        3PY        -0.08741  -0.02571   0.06370  -0.16961   0.04830
  28        3PZ         0.00014   0.00560  -0.00001   0.00304   0.00047
  29        4S         -0.03958  -1.28242   0.03232   3.43076   0.16769
  30        4PX         0.55052  -0.11609  -1.12201  -1.25700  -0.52074
  31        4PY        -0.32727  -0.17965   0.63764  -2.23087   0.10138
  32        4PZ         0.00062   0.02623  -0.00061   0.02325   0.00159
  33 5   H  1S          0.03187   0.02570   0.00562   0.01543  -0.08016
  34        2S          0.06957   0.02276  -0.03509   0.12842  -0.79112
  35        3S          1.07057   0.89410  -1.50080   0.45247   0.49544
  36 6   H  1S         -0.03225   0.02623  -0.00465   0.00732   0.08801
  37        2S         -0.07076   0.02350   0.03660   0.06042   0.88205
  38        3S         -1.01714   0.91429   1.47170   0.48160  -0.47444
                          16        17        18        19        20
                           V         V         V         V         V
     Eigenvalues --     0.39777   0.46249   0.48770   0.49351   0.59108
   1 1   C  1S         -0.01662   0.01499  -0.04567   0.00006  -0.00033
   2        2S         -0.02955   0.03306  -0.07594   0.00028  -0.00059
   3        2PX         0.02349  -0.06329   0.00994   0.00069   0.00135
   4        2PY         0.04205  -0.10739   0.01060   0.00093   0.00189
   5        2PZ        -0.00003  -0.00037   0.00225  -0.15139  -0.19282
   6        3S          0.07392  -0.33995   0.07212  -0.00663  -0.00051
   7        3PX         0.09760  -0.24371  -0.04273   0.00045   0.00449
   8        3PY         0.17857  -0.41214  -0.08711  -0.00005   0.00642
   9        3PZ        -0.00289  -0.00293   0.01044  -0.62722  -0.68625
  10        4S          2.40302  -0.12082   3.18893   0.03981   0.04311
  11        4PX         0.10523   0.15042   0.79485   0.01328   0.01408
  12        4PY         0.19815   0.30910   1.40832   0.02486   0.02292
  13        4PZ        -0.00239   0.00222  -0.05127   0.68513   1.24260
  14 2   H  1S         -0.03005  -0.02953  -0.07892  -0.00122  -0.00106
  15        2S         -0.58196  -0.26588  -0.94291  -0.01070  -0.00811
  16        3S          0.25816   0.02091   0.64356   0.01531   0.01441
  17 3   H  1S         -0.03443  -0.03387  -0.07611  -0.00121  -0.00097
  18        2S         -0.61886  -0.31989  -0.92539  -0.01085  -0.00619
  19        3S          0.26156   0.02870   0.59913   0.01479   0.01402
  20 4   C  1S         -0.00342  -0.00557   0.05106   0.00162   0.00043
  21        2S         -0.00914  -0.00178   0.08924   0.00295   0.00081
  22        2PX         0.00591   0.05213   0.02853  -0.00010   0.00118
  23        2PY         0.01225   0.09235   0.05410  -0.00022   0.00245
  24        2PZ        -0.00223  -0.00111   0.00236  -0.15311   0.19223
  25        3S          0.08359  -0.27316  -0.25089  -0.01226  -0.00161
  26        3PX        -0.04821   0.22727   0.06235  -0.00019   0.00425
  27        3PY        -0.07697   0.40428   0.11753  -0.00064   0.00848
  28        3PZ        -0.00649  -0.00443   0.00811  -0.63230   0.68160
  29        4S         -0.56661   0.96142  -3.00564  -0.05094  -0.03766
  30        4PX         1.12439  -0.43556   0.63566   0.00649   0.01282
  31        4PY         2.02962  -0.70890   1.06325   0.01051   0.02334
  32        4PZ        -0.01887  -0.01069   0.02478   0.69455  -1.23734
  33 5   H  1S         -0.04930  -0.06784   0.05979   0.00107   0.00095
  34        2S         -0.84639  -0.68810   0.74702   0.01689   0.00309
  35        3S         -0.11903   0.32644  -0.54417  -0.00327  -0.01411
  36 6   H  1S         -0.04373  -0.06471   0.06157   0.00114   0.00102
  37        2S         -0.78473  -0.64194   0.74925   0.01692   0.00436
  38        3S         -0.13593   0.33279  -0.57508  -0.00408  -0.01438
                          21        22        23        24        25
                           V         V         V         V         V
     Eigenvalues --     0.66467   0.69030   0.77114   0.77677   0.84363
   1 1   C  1S          0.00060  -0.00039   0.05238   0.07284   0.00085
   2        2S          0.00119  -0.00094   0.11047   0.15529   0.00180
   3        2PX        -0.11403   0.20910  -0.02372   0.11325  -0.01049
   4        2PY         0.06680  -0.12462  -0.04254   0.18662   0.00946
   5        2PZ        -0.00004   0.00019   0.00046   0.00302   0.00010
   6        3S         -0.00783   0.01491  -0.74519  -1.34356  -0.01314
   7        3PX        -0.55277   0.74830  -0.16662   0.44206  -0.22672
   8        3PY         0.32154  -0.44428  -0.29712   0.72487   0.14396
   9        3PZ        -0.00024   0.00075   0.00174   0.01057   0.00043
  10        4S          0.00833  -0.09944   0.70969   2.47725  -0.13803
  11        4PX         1.06309  -0.87007   0.10636  -0.70169   4.45390
  12        4PY        -0.62586   0.49490   0.20727  -1.04467  -2.62231
  13        4PZ         0.00045   0.00004   0.00552  -0.03413   0.00227
  14 2   H  1S          0.01747  -0.06078   0.01141   0.03192  -0.02790
  15        2S          0.06084  -0.65065   0.09363   0.08448  -1.55604
  16        3S         -0.95883   1.18299  -0.10076  -1.12926  -1.22489
  17 3   H  1S         -0.01710   0.06061   0.01105   0.03287   0.02966
  18        2S         -0.06657   0.69008   0.09341   0.08044   1.59060
  19        3S          0.95049  -1.16983  -0.11187  -1.22862   1.23388
  20 4   C  1S          0.00073  -0.00090   0.08420   0.02956   0.00081
  21        2S          0.00146  -0.00173   0.17918   0.06226   0.00179
  22        2PX        -0.16727  -0.17066  -0.09679   0.05383   0.01161
  23        2PY         0.09528   0.09572  -0.17189   0.09748  -0.00434
  24        2PZ        -0.00007  -0.00019   0.00311  -0.00070  -0.00010
  25        3S         -0.01008   0.00532  -1.49692  -0.35028  -0.01665
  26        3PX        -0.73195  -0.55703  -0.35393   0.28571   0.24989
  27        3PY         0.41860   0.31051  -0.62847   0.51187  -0.12857
  28        3PZ        -0.00035  -0.00065   0.01098  -0.00263  -0.00036
  29        4S          0.01556   0.06240   2.70596   0.07971   0.12081
  30        4PX         1.29277   0.59647   0.54342  -0.29344  -4.23402
  31        4PY        -0.73518  -0.36074   0.96600  -0.64184   2.34104
  32        4PZ         0.00054   0.00011  -0.03230   0.01606  -0.00160
  33 5   H  1S         -0.03049  -0.05325   0.03513   0.00196  -0.02264
  34        2S         -0.20334  -0.54800   0.06666   0.06136  -1.41353
  35        3S          1.17540   0.87828  -1.12407   0.29258  -1.09812
  36 6   H  1S          0.03067   0.05249   0.03491   0.00299   0.02382
  37        2S          0.19667   0.51419   0.05560   0.03349   1.40694
  38        3S         -1.17648  -0.86789  -1.09483   0.24819   1.09834
                          26        27        28        29        30
                           V         V         V         V         V
     Eigenvalues --     0.95341   2.23211   2.28910   2.33315   2.40719
   1 1   C  1S          0.09562  -0.01088  -0.01460  -0.00028  -0.00043
   2        2S          0.19868   0.00036  -0.01535  -0.00081  -0.00036
   3        2PX        -0.09176  -0.08560  -0.13402  -0.33262  -0.41276
   4        2PY        -0.15920  -0.15638  -0.22957   0.19110   0.24101
   5        2PZ         0.00010  -0.00864  -0.01100   0.00002  -0.00044
   6        3S         -1.53717  -0.18358  -0.02847   0.00325  -0.00475
   7        3PX        -0.23600   0.08315   0.21203   0.39335   0.57295
   8        3PY        -0.40324   0.16485   0.37573  -0.22796  -0.33934
   9        3PZ        -0.00161   0.00861   0.01375  -0.00007   0.00054
  10        4S          5.71543  -0.13677  -0.89675  -0.00036  -0.04689
  11        4PX         1.18314   0.05645  -0.19712   0.01793   0.96823
  12        4PY         2.00169   0.06858  -0.34759  -0.00508  -0.55780
  13        4PZ        -0.01141   0.00235   0.00519   0.00016   0.00088
  14 2   H  1S          0.01546  -0.72516  -0.77328   0.68822   0.67667
  15        2S         -0.28579   1.03440   1.16574  -1.04574  -1.49402
  16        3S         -0.08297  -0.30764  -0.45859   0.45910   0.37962
  17 3   H  1S          0.01538  -0.72145  -0.77341  -0.67407  -0.69659
  18        2S         -0.26745   1.03232   1.16423   1.02908   1.53478
  19        3S         -0.08037  -0.28672  -0.45098  -0.44683  -0.37505
  20 4   C  1S         -0.09411  -0.00938   0.01180  -0.00034   0.00021
  21        2S         -0.19526   0.00186   0.01118  -0.00054   0.00024
  22        2PX        -0.09315   0.12738  -0.12569  -0.31833   0.41323
  23        2PY        -0.16044   0.22598  -0.21573   0.18204  -0.23065
  24        2PZ         0.00019  -0.00893   0.01121  -0.00016   0.00019
  25        3S          1.50939  -0.17292   0.02334   0.00081   0.00032
  26        3PX        -0.23012  -0.16336   0.21665   0.40427  -0.58153
  27        3PY        -0.40088  -0.28665   0.36513  -0.22896   0.32250
  28        3PZ         0.00219   0.00970  -0.01437   0.00019  -0.00029
  29        4S         -5.68656  -0.13573   0.87591  -0.01239   0.03017
  30        4PX         1.12944  -0.01294  -0.19431  -0.08832  -0.86402
  31        4PY         1.98456  -0.03055  -0.33332   0.05112   0.48432
  32        4PZ         0.00790   0.00236  -0.00385   0.00006  -0.00063
  33 5   H  1S         -0.01825  -0.77612   0.69581  -0.72356   0.66163
  34        2S          0.29341   1.12262  -1.05513   1.06281  -1.42045
  35        3S          0.06100  -0.35573   0.42016  -0.52425   0.41684
  36 6   H  1S         -0.01839  -0.76422   0.71521   0.71589  -0.66093
  37        2S          0.30637   1.10248  -1.08434  -1.04776   1.41459
  38        3S          0.05551  -0.35237   0.43753   0.52251  -0.41967
                          31        32        33        34        35
                           V         V         V         V         V
     Eigenvalues --     2.67121   2.81787   2.87814   2.95128   3.14087
   1 1   C  1S          0.00031   0.00156  -0.01316   0.00011  -0.00946
   2        2S          0.00025   0.00460  -0.04444   0.00006  -0.02900
   3        2PX         0.00327   0.04586  -0.47302  -0.73556   0.45203
   4        2PY         0.00496   0.07910  -0.83646   0.40687   0.80147
   5        2PZ        -0.92191  -0.93873  -0.08765  -0.00080   0.00464
   6        3S         -0.00099  -0.03835   0.39330   0.00091   0.24386
   7        3PX        -0.00238  -0.07980   0.84333   0.88708  -0.44225
   8        3PY        -0.00358  -0.13714   1.47219  -0.48050  -0.78669
   9        3PZ         0.93603   1.14761   0.11007   0.00109  -0.00603
  10        4S          0.00806   0.08830  -0.87925  -0.00919  -0.47203
  11        4PX        -0.00136   0.06456  -0.72373  -0.66165   0.22946
  12        4PY        -0.00185   0.11124  -1.27138   0.35320   0.41055
  13        4PZ        -0.33616  -0.62204  -0.06980  -0.00088   0.00385
  14 2   H  1S          0.00747  -0.01323   0.26871  -0.37266  -0.22432
  15        2S         -0.00857   0.00870  -0.22801   0.37862   0.17007
  16        3S         -0.00185   0.02538  -0.29799   0.27526   0.07235
  17 3   H  1S          0.00750  -0.01249   0.25599   0.37671  -0.21710
  18        2S         -0.00870   0.00740  -0.20484  -0.37744   0.16292
  19        3S         -0.00225   0.02636  -0.30579  -0.29197   0.07178
  20 4   C  1S          0.00031  -0.00158   0.01406   0.00056  -0.00711
  21        2S          0.00030  -0.00486   0.04870   0.00133  -0.02303
  22        2PX        -0.00453   0.04069  -0.41362  -0.79839  -0.50101
  23        2PY        -0.00841   0.07375  -0.74829   0.45091  -0.87728
  24        2PZ        -0.92771   0.93251   0.08938   0.00010   0.00769
  25        3S         -0.00168   0.04176  -0.43647  -0.01076   0.20183
  26        3PX         0.00475  -0.07397   0.77516   0.94715   0.53051
  27        3PY         0.00867  -0.13249   1.38606  -0.52606   0.93399
  28        3PZ         0.94371  -1.14161  -0.11260  -0.00013  -0.00959
  29        4S          0.00969  -0.09114   0.92161   0.02854  -0.38769
  30        4PX        -0.00054   0.06265  -0.71061  -0.69750  -0.31838
  31        4PY        -0.00135   0.11135  -1.25247   0.37736  -0.55936
  32        4PZ        -0.34022   0.61962   0.07187   0.00006   0.00741
  33 5   H  1S          0.00728   0.01694  -0.29241   0.42216  -0.25308
  34        2S         -0.00897  -0.01366   0.26376  -0.43882   0.19849
  35        3S         -0.00074  -0.02407   0.28297  -0.23739   0.11219
  36 6   H  1S          0.00741   0.01755  -0.29478  -0.42694  -0.24950
  37        2S         -0.00936  -0.01471   0.27395   0.44345   0.19698
  38        3S         -0.00051  -0.02233   0.26385   0.23829   0.11357
                          36        37        38
                           V         V         V
     Eigenvalues --     3.31733  23.35093  23.70678
   1 1   C  1S         -0.00059  -1.40826  -1.45787
   2        2S         -0.00099   1.50176   1.57652
   3        2PX         0.78106  -0.00672   0.01189
   4        2PY        -0.44310  -0.01097   0.02111
   5        2PZ         0.00058  -0.00035  -0.00015
   6        3S          0.00428  -0.29397  -0.40116
   7        3PX        -1.11664   0.02497  -0.05546
   8        3PY         0.63335   0.04140  -0.09714
   9        3PZ        -0.00088   0.00098   0.00045
  10        4S         -0.04237   0.26843   0.77276
  11        4PX         1.95867  -0.02817   0.13152
  12        4PY        -1.12447  -0.04725   0.23069
  13        4PZ         0.00145  -0.00162  -0.00189
  14 2   H  1S          0.56111   0.01372   0.00726
  15        2S         -0.87412   0.00769  -0.01453
  16        3S         -0.47112  -0.08473  -0.03902
  17 3   H  1S         -0.57176   0.01539   0.00883
  18        2S          0.88874   0.00699  -0.01584
  19        3S          0.48866  -0.08651  -0.04070
  20 4   C  1S          0.00030  -1.45304   1.41305
  21        2S          0.00028   1.54976  -1.52829
  22        2PX        -0.71421   0.00568   0.01283
  23        2PY         0.40216   0.01027   0.02164
  24        2PZ        -0.00042  -0.00033   0.00008
  25        3S         -0.00013  -0.30446   0.38989
  26        3PX         1.01582  -0.02126  -0.05733
  27        3PY        -0.57646  -0.03792  -0.09797
  28        3PZ         0.00062   0.00096  -0.00021
  29        4S          0.01754   0.28419  -0.75997
  30        4PX        -1.79893   0.02112   0.13389
  31        4PY         1.01659   0.03946   0.22781
  32        4PZ        -0.00103  -0.00158   0.00138
  33 5   H  1S          0.48435   0.01204  -0.00391
  34        2S         -0.76019   0.00843   0.01344
  35        3S         -0.41662  -0.08213   0.03717
  36 6   H  1S         -0.48056   0.01083  -0.00260
  37        2S          0.75703   0.00991   0.01202
  38        3S          0.41437  -0.08090   0.03520
     Density Matrix:
                           1         2         3         4         5
   1 1   C  1S          0.65941
   2        2S          0.56154   0.49207
   3        2PX        -0.00052  -0.00070   0.08470
   4        2PY        -0.00127  -0.00176   0.00349   0.08792
   5        2PZ         0.00006   0.00009  -0.00007  -0.00017   0.06444
   6        3S         -0.08899  -0.15395   0.00267   0.00625  -0.00014
   7        3PX         0.00091   0.00140   0.13094   0.00110  -0.00005
   8        3PY         0.00124   0.00191   0.00105   0.13152  -0.00014
   9        3PZ         0.00011   0.00019  -0.00013  -0.00027   0.10370
  10        4S         -0.07920  -0.11399  -0.01502  -0.02717   0.00034
  11        4PX         0.00024   0.00152   0.07048  -0.00460  -0.00036
  12        4PY         0.00060   0.00297  -0.00458   0.06556  -0.00062
  13        4PZ        -0.00006  -0.00016  -0.00052  -0.00087   0.09584
  14 2   H  1S         -0.02065  -0.03288   0.03462  -0.06353  -0.00074
  15        2S         -0.02283  -0.03649   0.04891  -0.08794  -0.00055
  16        3S          0.00060  -0.00067   0.02075  -0.03295  -0.00001
  17 3   H  1S         -0.02111  -0.03357  -0.07314  -0.00188  -0.00083
  18        2S         -0.02308  -0.03686  -0.10073  -0.00168  -0.00065
  19        3S          0.00063  -0.00065  -0.03841   0.00149  -0.00004
  20 4   C  1S          0.00611   0.00984  -0.01093  -0.01880  -0.00026
  21        2S          0.00981   0.01533  -0.01749  -0.03007  -0.00042
  22        2PX         0.01035   0.01655  -0.01234  -0.03209   0.00028
  23        2PY         0.01816   0.02904  -0.03236  -0.04967   0.00055
  24        2PZ        -0.00030  -0.00049  -0.00026  -0.00038   0.06441
  25        3S         -0.02645  -0.04016   0.04912   0.08441   0.00128
  26        3PX         0.01598   0.02476  -0.01817  -0.04557   0.00036
  27        3PY         0.02798   0.04340  -0.04595  -0.07099   0.00073
  28        3PZ        -0.00051  -0.00082  -0.00044  -0.00067   0.10298
  29        4S          0.00537   0.00399   0.02062   0.03553   0.00157
  30        4PX         0.00308   0.00637  -0.01288  -0.02076   0.00041
  31        4PY         0.00530   0.01100  -0.02082  -0.03727   0.00084
  32        4PZ        -0.00043  -0.00070  -0.00068  -0.00107   0.09580
  33 5   H  1S          0.00420   0.00691  -0.00167  -0.01227  -0.00030
  34        2S          0.00644   0.01070   0.00347  -0.02498  -0.00002
  35        3S          0.00332   0.00488   0.00418  -0.01765   0.00005
  36 6   H  1S          0.00414   0.00679  -0.00992  -0.00771  -0.00031
  37        2S          0.00623   0.01037  -0.02356  -0.00947  -0.00004
  38        3S          0.00323   0.00473  -0.01744  -0.00514   0.00003
                           6         7         8         9        10
   6        3S          0.45283
   7        3PX        -0.00192   0.20273
   8        3PY        -0.00169  -0.00467   0.19725
   9        3PZ        -0.00038  -0.00010  -0.00023   0.16687
  10        4S          0.27239  -0.02554  -0.04681   0.00044   0.18041
  11        4PX        -0.00655   0.10945  -0.01030  -0.00059  -0.01452
  12        4PY        -0.01227  -0.01019   0.09875  -0.00099  -0.02805
  13        4PZ         0.00070  -0.00070  -0.00115   0.15423   0.00130
  14 2   H  1S          0.08788   0.05562  -0.09917  -0.00124   0.06908
  15        2S          0.09761   0.07893  -0.13681  -0.00092   0.08076
  16        3S          0.00595   0.03380  -0.05067  -0.00002   0.01083
  17 3   H  1S          0.08979  -0.11438  -0.00136  -0.00136   0.06862
  18        2S          0.09877  -0.15734   0.00019  -0.00106   0.07901
  19        3S          0.00611  -0.05974   0.00412  -0.00006   0.00985
  20 4   C  1S         -0.02666  -0.01703  -0.02934  -0.00044   0.00523
  21        2S         -0.04035  -0.02647  -0.04558  -0.00072   0.00395
  22        2PX        -0.04624  -0.01750  -0.04547   0.00048  -0.01777
  23        2PY        -0.08129  -0.04600  -0.07083   0.00094  -0.03164
  24        2PZ         0.00145  -0.00035  -0.00050   0.10364   0.00151
  25        3S          0.10291   0.07198   0.12389   0.00214   0.00099
  26        3PX        -0.06687  -0.02590  -0.06435   0.00063  -0.02649
  27        3PY        -0.11750  -0.06515  -0.10117   0.00126  -0.04712
  28        3PZ         0.00240  -0.00062  -0.00090   0.16572   0.00251
  29        4S          0.00168   0.03117   0.05391   0.00261  -0.03263
  30        4PX        -0.02252  -0.01917  -0.02908   0.00069  -0.00683
  31        4PY        -0.03905  -0.02932  -0.05386   0.00138  -0.01161
  32        4PZ         0.00204  -0.00096  -0.00148   0.15416   0.00231
  33 5   H  1S         -0.02057  -0.00073  -0.01770  -0.00044  -0.01537
  34        2S         -0.03200   0.00835  -0.03685   0.00002  -0.02042
  35        3S         -0.01264   0.00794  -0.02658   0.00010  -0.00401
  36 6   H  1S         -0.02014  -0.01492  -0.00933  -0.00045  -0.01514
  37        2S         -0.03091  -0.03600  -0.01063  -0.00000  -0.02020
  38        3S         -0.01212  -0.02688  -0.00605   0.00007  -0.00408
                          11        12        13        14        15
  11        4PX         0.06019
  12        4PY        -0.00900   0.05096
  13        4PZ        -0.00086  -0.00141   0.14255
  14 2   H  1S          0.03338  -0.05432  -0.00063   0.08167
  15        2S          0.04816  -0.07482  -0.00021   0.10958   0.14915
  16        3S          0.02103  -0.02758   0.00014   0.03663   0.05215
  17 3   H  1S         -0.06332   0.00180  -0.00069  -0.01307  -0.02482
  18        2S         -0.08753   0.00447  -0.00027  -0.02470  -0.04308
  19        3S         -0.03357   0.00459   0.00013  -0.01809  -0.02742
  20 4   C  1S         -0.00315  -0.00564  -0.00039   0.00424   0.00661
  21        2S         -0.00652  -0.01158  -0.00063   0.00699   0.01103
  22        2PX        -0.01335  -0.02000   0.00067   0.00197  -0.00263
  23        2PY        -0.02022  -0.03666   0.00127   0.01150   0.02414
  24        2PZ        -0.00049  -0.00076   0.09579  -0.00035  -0.00010
  25        3S          0.02316   0.04091   0.00186  -0.02099  -0.03313
  26        3PX        -0.02062  -0.02814   0.00091   0.00100  -0.00744
  27        3PY        -0.02851  -0.05326   0.00175   0.01699   0.03602
  28        3PZ        -0.00080  -0.00125   0.15317  -0.00051  -0.00009
  29        4S          0.00761   0.01424   0.00239  -0.01725  -0.02328
  30        4PX        -0.01487  -0.01230   0.00083  -0.00170  -0.00863
  31        4PY        -0.01231  -0.02943   0.00163   0.01548   0.02737
  32        4PZ        -0.00096  -0.00153   0.14249  -0.00029   0.00019
  33 5   H  1S          0.00202  -0.01567  -0.00022   0.01123   0.02340
  34        2S          0.00921  -0.02748   0.00027   0.02383   0.04457
  35        3S          0.00756  -0.01589   0.00020   0.01673   0.02798
  36 6   H  1S         -0.01481  -0.00595  -0.00023  -0.00901  -0.01806
  37        2S         -0.02870  -0.00543   0.00026  -0.01884  -0.03433
  38        3S         -0.01752  -0.00122   0.00018  -0.01024  -0.01789
                          16        17        18        19        20
  16        3S          0.02088
  17 3   H  1S         -0.01836   0.08286
  18        2S         -0.02763   0.10999   0.14815
  19        3S         -0.01295   0.03618   0.05101   0.02017
  20 4   C  1S          0.00365   0.00432   0.00674   0.00369   0.65947
  21        2S          0.00535   0.00713   0.01123   0.00542   0.56153
  22        2PX        -0.00350   0.00891   0.02194   0.01646   0.00123
  23        2PY         0.01747   0.00746   0.00970   0.00563   0.00194
  24        2PZ         0.00003  -0.00034  -0.00007   0.00005   0.00005
  25        3S         -0.01379  -0.02141  -0.03374  -0.01399  -0.08918
  26        3PX        -0.00716   0.01424   0.03471   0.02582  -0.00044
  27        3PY         0.02630   0.00948   0.01167   0.00698  -0.00098
  28        3PZ         0.00006  -0.00050  -0.00005   0.00009   0.00011
  29        4S         -0.00538  -0.01728  -0.02311  -0.00521  -0.08039
  30        4PX        -0.00715   0.01389   0.02734   0.01692  -0.00022
  31        4PY         0.01596   0.00621   0.00604   0.00169  -0.00022
  32        4PZ         0.00018  -0.00028   0.00022   0.00020  -0.00003
  33 5   H  1S          0.01620  -0.00914  -0.01822  -0.00945  -0.01989
  34        2S          0.02753  -0.01890  -0.03424  -0.01704  -0.02214
  35        3S          0.01473  -0.01021  -0.01770  -0.00902   0.00052
  36 6   H  1S         -0.00949   0.01123   0.02312   0.01577  -0.01969
  37        2S         -0.01732   0.02398   0.04433   0.02698  -0.02220
  38        3S         -0.00924   0.01682   0.02788   0.01449   0.00042
                          21        22        23        24        25
  21        2S          0.49199
  22        2PX         0.00177   0.08203
  23        2PY         0.00278   0.00403   0.08736
  24        2PZ         0.00007   0.00009   0.00014   0.06439
  25        3S         -0.15410  -0.00569  -0.00904  -0.00008   0.45326
  26        3PX        -0.00066   0.12786   0.00213   0.00006  -0.00045
  27        3PY        -0.00150   0.00224   0.13092   0.00007   0.00028
  28        3PZ         0.00018   0.00014   0.00021   0.10295  -0.00035
  29        4S         -0.11620   0.01446   0.02439   0.00043   0.27961
  30        4PX        -0.00154   0.07299  -0.00517   0.00029   0.00656
  31        4PY        -0.00233  -0.00520   0.06683   0.00054   0.01021
  32        4PZ        -0.00009   0.00049   0.00089   0.09576   0.00051
  33 5   H  1S         -0.03170  -0.03334   0.06294  -0.00081   0.08479
  34        2S         -0.03541  -0.04977   0.08837  -0.00065   0.09474
  35        3S         -0.00071  -0.02263   0.03370  -0.00007   0.00586
  36 6   H  1S         -0.03141   0.07050   0.00311  -0.00074   0.08401
  37        2S         -0.03549   0.10095   0.00156  -0.00055   0.09487
  38        3S         -0.00084   0.04057  -0.00275  -0.00003   0.00606
                          26        27        28        29        30
  26        3PX         0.19966
  27        3PY        -0.00250   0.19679
  28        3PZ         0.00008   0.00009   0.16461
  29        4S          0.02649   0.04454   0.00053   0.18937
  30        4PX         0.11446  -0.01089   0.00045   0.01650   0.06672
  31        4PY        -0.01108   0.10104   0.00086   0.02635  -0.01082
  32        4PZ         0.00062   0.00114   0.15312   0.00128   0.00071
  33 5   H  1S         -0.05362   0.09877  -0.00133   0.06738  -0.03468
  34        2S         -0.08051   0.13815  -0.00109   0.07869  -0.05257
  35        3S         -0.03707   0.05198  -0.00012   0.00988  -0.02443
  36 6   H  1S          0.11166   0.00399  -0.00123   0.06803   0.06557
  37        2S          0.15971   0.00053  -0.00094   0.08047   0.09423
  38        3S          0.06387  -0.00590  -0.00006   0.01073   0.03799
                          31        32        33        34        35
  31        4PY         0.05348
  32        4PZ         0.00136   0.14244
  33 5   H  1S          0.05553  -0.00070   0.08001
  34        2S          0.07780  -0.00032   0.10985   0.15321
  35        3S          0.02940   0.00008   0.03827   0.05590   0.02320
  36 6   H  1S         -0.00185  -0.00065  -0.01246  -0.02592  -0.01981
  37        2S         -0.00618  -0.00024  -0.02608  -0.04828  -0.03163
  38        3S         -0.00638   0.00011  -0.02009  -0.03184  -0.01574
                          36        37        38
  36 6   H  1S          0.07918
  37        2S          0.10935   0.15336
  38        3S          0.03831   0.05622   0.02342
    Full Mulliken population analysis:
                           1         2         3         4         5
   1 1   C  1S          0.65941
   2        2S          0.49329   0.49207
   3        2PX         0.00000   0.00000   0.08470
   4        2PY         0.00000   0.00000   0.00000   0.08792
   5        2PZ         0.00000   0.00000   0.00000   0.00000   0.06444
   6        3S         -0.02929  -0.06447   0.00000   0.00000   0.00000
   7        3PX         0.00000   0.00000   0.08238   0.00000   0.00000
   8        3PY         0.00000   0.00000   0.00000   0.08274   0.00000
   9        3PZ         0.00000   0.00000   0.00000   0.00000   0.06524
  10        4S         -0.01218  -0.02133   0.00000   0.00000   0.00000
  11        4PX         0.00000   0.00000   0.01552   0.00000   0.00000
  12        4PY         0.00000   0.00000   0.00000   0.01444   0.00000
  13        4PZ         0.00000   0.00000   0.00000   0.00000   0.02111
  14 2   H  1S         -0.00024  -0.00034   0.00179   0.00579   0.00000
  15        2S         -0.00168  -0.00321   0.00422   0.01337   0.00000
  16        3S          0.00005  -0.00006   0.00068   0.00191   0.00000
  17 3   H  1S         -0.00026  -0.00038   0.00806   0.00000   0.00000
  18        2S         -0.00174  -0.00333   0.01785   0.00000   0.00000
  19        3S          0.00005  -0.00006   0.00256  -0.00000   0.00000
  20 4   C  1S          0.00000   0.00000  -0.00002  -0.00006   0.00000
  21        2S          0.00000  -0.00000  -0.00002  -0.00006   0.00000
  22        2PX        -0.00002  -0.00002   0.00011   0.00086   0.00000
  23        2PY        -0.00006  -0.00005   0.00087   0.00198   0.00000
  24        2PZ        -0.00000  -0.00000  -0.00000  -0.00000   0.00042
  25        3S         -0.00060  -0.00101   0.00257   0.00766  -0.00000
  26        3PX        -0.00054  -0.00100   0.00019   0.00553   0.00000
  27        3PY        -0.00165  -0.00302   0.00558   0.01068   0.00000
  28        3PZ        -0.00000  -0.00000  -0.00000  -0.00000   0.00615
  29        4S          0.00034   0.00030   0.00094   0.00279  -0.00000
  30        4PX        -0.00018  -0.00045  -0.00070   0.00144   0.00000
  31        4PY        -0.00053  -0.00135   0.00144   0.00096   0.00000
  32        4PZ        -0.00000  -0.00000  -0.00000  -0.00000   0.00903
  33 5   H  1S          0.00000   0.00000  -0.00000  -0.00000   0.00000
  34        2S          0.00001   0.00002   0.00000  -0.00031   0.00000
  35        3S          0.00008   0.00013   0.00001  -0.00071  -0.00000
  36 6   H  1S          0.00000   0.00000  -0.00000  -0.00000   0.00000
  37        2S          0.00001   0.00002  -0.00023  -0.00006   0.00000
  38        3S          0.00007   0.00013  -0.00057  -0.00012  -0.00000
                           6         7         8         9        10
   6        3S          0.45283
   7        3PX         0.00000   0.20273
   8        3PY         0.00000   0.00000   0.19725
   9        3PZ         0.00000   0.00000   0.00000   0.16687
  10        4S          0.21102   0.00000   0.00000   0.00000   0.18041
  11        4PX         0.00000   0.07152   0.00000   0.00000   0.00000
  12        4PY         0.00000   0.00000   0.06453   0.00000   0.00000
  13        4PZ         0.00000   0.00000   0.00000   0.10078   0.00000
  14 2   H  1S          0.01629   0.01053   0.03306   0.00001   0.01833
  15        2S          0.04129   0.01907   0.05822   0.00001   0.04667
  16        3S          0.00275   0.00388   0.01025   0.00000   0.00818
  17 3   H  1S          0.01716   0.04476   0.00000   0.00001   0.01842
  18        2S          0.04251   0.07752  -0.00000   0.00001   0.04607
  19        3S          0.00284   0.01385  -0.00001   0.00000   0.00748
  20 4   C  1S         -0.00060  -0.00058  -0.00173   0.00000   0.00033
  21        2S         -0.00101  -0.00107  -0.00318   0.00000   0.00030
  22        2PX         0.00242   0.00018   0.00552   0.00000   0.00081
  23        2PY         0.00738   0.00558   0.01065   0.00000   0.00249
  24        2PZ         0.00000  -0.00000  -0.00000   0.00619   0.00000
  25        3S          0.02202   0.01353   0.04031  -0.00000   0.00038
  26        3PX         0.01257  -0.00127   0.01839   0.00000   0.00409
  27        3PY         0.03823   0.01862   0.02841   0.00000   0.01259
  28        3PZ         0.00000  -0.00000  -0.00000   0.03546   0.00000
  29        4S          0.00064   0.00481   0.01440  -0.00000  -0.02051
  30        4PX         0.00633  -0.00394   0.00575   0.00000   0.00207
  31        4PY         0.01901   0.00580   0.00121   0.00000   0.00609
  32        4PZ         0.00000  -0.00000  -0.00000   0.04934   0.00000
  33 5   H  1S         -0.00005  -0.00000  -0.00019   0.00000  -0.00082
  34        2S         -0.00123   0.00006  -0.00323  -0.00000  -0.00342
  35        3S         -0.00206   0.00010  -0.00428  -0.00000  -0.00144
  36 6   H  1S         -0.00005  -0.00012  -0.00005   0.00000  -0.00079
  37        2S         -0.00114  -0.00251  -0.00051   0.00000  -0.00331
  38        3S         -0.00193  -0.00353  -0.00055  -0.00000  -0.00145
                          11        12        13        14        15
  11        4PX         0.06019
  12        4PY         0.00000   0.05096
  13        4PZ         0.00000   0.00000   0.14255
  14 2   H  1S          0.00617   0.01769   0.00000   0.08167
  15        2S          0.01498   0.04098   0.00000   0.07740   0.14915
  16        3S          0.00512   0.01183  -0.00000   0.01369   0.04114
  17 3   H  1S          0.02373  -0.00000   0.00000  -0.00001  -0.00069
  18        2S          0.05504  -0.00002   0.00000  -0.00068  -0.00556
  19        3S          0.01647  -0.00002  -0.00000  -0.00205  -0.00810
  20 4   C  1S         -0.00018  -0.00057   0.00000   0.00000   0.00002
  21        2S         -0.00046  -0.00143   0.00000   0.00000   0.00003
  22        2PX        -0.00072   0.00139   0.00000  -0.00000   0.00000
  23        2PY         0.00140   0.00094   0.00000  -0.00000  -0.00035
  24        2PZ        -0.00000  -0.00000   0.00903   0.00000   0.00000
  25        3S          0.00651   0.01991  -0.00000  -0.00007  -0.00145
  26        3PX        -0.00424   0.00557   0.00000  -0.00000   0.00004
  27        3PY         0.00564   0.00120   0.00000  -0.00022  -0.00351
  28        3PZ        -0.00000  -0.00000   0.04903   0.00000   0.00000
  29        4S          0.00231   0.00747  -0.00000  -0.00100  -0.00416
  30        4PX        -0.00718   0.00311   0.00000   0.00002   0.00020
  31        4PY         0.00311  -0.00562   0.00000  -0.00245  -0.01028
  32        4PZ        -0.00000  -0.00000   0.08956   0.00000  -0.00000
  33 5   H  1S          0.00002  -0.00232   0.00000   0.00000   0.00000
  34        2S          0.00025  -0.00986  -0.00000   0.00000   0.00015
  35        3S          0.00026  -0.00733  -0.00000   0.00023   0.00146
  36 6   H  1S         -0.00177  -0.00049   0.00000  -0.00000  -0.00004
  37        2S         -0.00837  -0.00109  -0.00000  -0.00004  -0.00087
  38        3S         -0.00664  -0.00032  -0.00000  -0.00045  -0.00243
                          16        17        18        19        20
  16        3S          0.02088
  17 3   H  1S         -0.00208   0.08286
  18        2S         -0.00817   0.07769   0.14815
  19        3S         -0.00679   0.01352   0.04025   0.02017
  20 4   C  1S          0.00009   0.00000   0.00002   0.00009   0.65947
  21        2S          0.00016   0.00000   0.00003   0.00016   0.49327
  22        2PX         0.00001  -0.00000  -0.00028  -0.00058   0.00000
  23        2PY        -0.00073  -0.00000  -0.00008  -0.00013   0.00000
  24        2PZ        -0.00000   0.00000   0.00000  -0.00000   0.00000
  25        3S         -0.00237  -0.00007  -0.00152  -0.00243  -0.02936
  26        3PX         0.00007  -0.00016  -0.00289  -0.00362   0.00000
  27        3PY        -0.00439  -0.00007  -0.00065  -0.00065   0.00000
  28        3PZ        -0.00000   0.00000   0.00000  -0.00000   0.00000
  29        4S         -0.00201  -0.00102  -0.00419  -0.00197  -0.01236
  30        4PX         0.00021  -0.00186  -0.00865  -0.00667   0.00000
  31        4PY        -0.00752  -0.00055  -0.00127  -0.00044   0.00000
  32        4PZ        -0.00000   0.00000  -0.00000  -0.00000   0.00000
  33 5   H  1S          0.00022  -0.00000  -0.00004  -0.00043  -0.00020
  34        2S          0.00143  -0.00004  -0.00093  -0.00239  -0.00156
  35        3S          0.00246  -0.00047  -0.00248  -0.00289   0.00004
  36 6   H  1S         -0.00042   0.00000   0.00000   0.00022  -0.00019
  37        2S         -0.00235   0.00000   0.00015   0.00140  -0.00153
  38        3S         -0.00290   0.00023   0.00144   0.00242   0.00003
                          21        22        23        24        25
  21        2S          0.49199
  22        2PX         0.00000   0.08203
  23        2PY         0.00000   0.00000   0.08736
  24        2PZ         0.00000   0.00000   0.00000   0.06439
  25        3S         -0.06454   0.00000   0.00000   0.00000   0.45326
  26        3PX         0.00000   0.08044   0.00000   0.00000   0.00000
  27        3PY         0.00000   0.00000   0.08236   0.00000   0.00000
  28        3PZ         0.00000   0.00000   0.00000   0.06477   0.00000
  29        4S         -0.02175   0.00000   0.00000   0.00000   0.21661
  30        4PX         0.00000   0.01607   0.00000   0.00000   0.00000
  31        4PY         0.00000   0.00000   0.01472   0.00000   0.00000
  32        4PZ         0.00000   0.00000   0.00000   0.02109   0.00000
  33 5   H  1S         -0.00028   0.00146   0.00540   0.00000   0.01491
  34        2S         -0.00298   0.00387   0.01344   0.00000   0.03891
  35        3S         -0.00007   0.00069   0.00201   0.00000   0.00267
  36 6   H  1S         -0.00027   0.00654   0.00002   0.00000   0.01445
  37        2S         -0.00293   0.01704   0.00002   0.00000   0.03849
  38        3S         -0.00008   0.00271  -0.00001   0.00000   0.00275
                          26        27        28        29        30
  26        3PX         0.19966
  27        3PY         0.00000   0.19679
  28        3PZ         0.00000   0.00000   0.16461
  29        4S          0.00000   0.00000   0.00000   0.18937
  30        4PX         0.07480   0.00000   0.00000   0.00000   0.06672
  31        4PY         0.00000   0.06602   0.00000   0.00000   0.00000
  32        4PZ         0.00000   0.00000   0.10006   0.00000   0.00000
  33 5   H  1S          0.00902   0.03254   0.00001   0.01753   0.00589
  34        2S          0.01770   0.05949   0.00001   0.04479   0.01509
  35        3S          0.00394   0.01081   0.00000   0.00740   0.00552
  36 6   H  1S          0.04061   0.00009   0.00001   0.01756   0.02442
  37        2S          0.07666   0.00002   0.00001   0.04551   0.05940
  38        3S          0.01492  -0.00009   0.00000   0.00801   0.01891
                          31        32        33        34        35
  31        4PY         0.05348
  32        4PZ         0.00000   0.14244
  33 5   H  1S          0.01848   0.00000   0.08001
  34        2S          0.04374   0.00000   0.07760   0.15321
  35        3S          0.01302  -0.00000   0.01430   0.04410   0.02320
  36 6   H  1S         -0.00004   0.00000  -0.00001  -0.00074  -0.00228
  37        2S         -0.00025   0.00000  -0.00075  -0.00637  -0.00945
  38        3S         -0.00021  -0.00000  -0.00231  -0.00951  -0.00831
                          36        37        38
  36 6   H  1S          0.07918
  37        2S          0.07724   0.15336
  38        3S          0.01432   0.04436   0.02342
     Gross orbital populations:
                           1
   1 1   C  1S          1.10434
   2        2S          0.88586
   3        2PX         0.22793
   4        2PY         0.23676
   5        2PZ         0.16639
   6        3S          0.79343
   7        3PX         0.56190
   8        3PY         0.55697
   9        3PZ         0.42392
  10        4S          0.50048
  11        4PX         0.25868
  12        4PY         0.21094
  13        4PZ         0.41207
  14 2   H  1S          0.27511
  15        2S          0.46609
  16        3S          0.08522
  17 3   H  1S          0.27880
  18        2S          0.46427
  19        3S          0.08222
  20 4   C  1S          1.10443
  21        2S          0.88584
  22        2PX         0.22052
  23        2PY         0.23519
  24        2PZ         0.16589
  25        3S          0.79153
  26        3PX         0.55047
  27        3PY         0.55483
  28        3PZ         0.42010
  29        4S          0.51180
  30        4PX         0.27631
  31        4PY         0.21656
  32        4PZ         0.41154
  33 5   H  1S          0.26999
  34        2S          0.47131
  35        3S          0.09067
  36 6   H  1S          0.26741
  37        2S          0.47193
  38        3S          0.09231
          Condensed to atoms (all electrons):
               1          2          3          4          5          6
     1  C    5.032898   0.387601   0.388593   0.602267  -0.036318  -0.035365
     2  H    0.387601   0.516171  -0.034131  -0.039685   0.005965  -0.009504
     3  H    0.388593  -0.034131   0.514095  -0.039461  -0.009678   0.005863
     4  C    0.602267  -0.039685  -0.039461   5.056012   0.383312   0.382570
     5  H   -0.036318   0.005965  -0.009678   0.383312   0.528418  -0.039729
     6  H   -0.035365  -0.009504   0.005863   0.382570  -0.039729   0.527806
 Mulliken charges:
               1
     1  C   -0.339676
     2  H    0.173583
     3  H    0.174719
     4  C   -0.345015
     5  H    0.168030
     6  H    0.168359
 Sum of Mulliken charges =  -0.00000
 Mulliken charges with hydrogens summed into heavy atoms:
               1
     1  C    0.008626
     4  C   -0.008626
 Electronic spatial extent (au):  <R**2>=             83.7976
 Charge=             -0.0000 electrons
 Dipole moment (field-independent basis, Debye):
    X=             -0.0075    Y=              0.0088    Z=             -0.0663  Tot=              0.0673
 Quadrupole moment (field-independent basis, Debye-Ang):
   XX=            -12.2096   YY=            -12.2114   ZZ=            -15.6765
   XY=              0.0245   XZ=              0.0000   YZ=             -0.0028
 Traceless Quadrupole moment (field-independent basis, Debye-Ang):
   XX=              1.1562   YY=              1.1544   ZZ=             -2.3106
   XY=              0.0245   XZ=              0.0000   YZ=             -0.0028
 Octapole moment (field-independent basis, Debye-Ang**2):
  XXX=             -0.2987  YYY=             -0.1771  ZZZ=             -0.0719  XYY=              0.1091
  XXY=             -0.0274  XXZ=             -0.0976  XZZ=             -0.1057  YZZ=             -0.1156
  YYZ=             -0.1258  XYZ=             -0.0248
 Hexadecapole moment (field-independent basis, Debye-Ang**3):
 XXXX=            -34.3346 YYYY=            -55.2476 ZZZZ=            -17.8047 XXXY=             -7.2173
 XXXZ=              0.0081 YYYX=            -10.7111 YYYZ=              0.0139 ZZZX=              0.0134
 ZZZY=              0.0264 XXYY=            -16.2173 XXZZ=             -9.9441 YYZZ=            -13.6679
 XXYZ=              0.0046 YYXZ=              0.0014 ZZXY=             -3.2072
 N-N= 3.305495211376D+01 E-N=-2.478147960343D+02  KE= 7.814505946924D+01
 Orbital energies and kinetic energies (alpha):
                                 1                 2
   1         O               -10.291888         15.979626
   2         O               -10.287145         15.978864
   3         O                -0.863935          1.541034
   4         O                -0.671575          1.269571
   5         O                -0.558755          0.941572
   6         O                -0.509922          1.282512
   7         O                -0.435661          1.040179
   8         O                -0.357218          1.039171
   9         V                 0.080232          1.181644
  10         V                 0.140760          0.591406
  11         V                 0.164090          0.598858
  12         V                 0.169664          0.680827
  13         V                 0.240647          0.584394
  14         V                 0.375999          0.856241
  15         V                 0.391945          0.931691
  16         V                 0.397766          0.773749
  17         V                 0.462487          1.197613
  18         V                 0.487696          1.417207
  19         V                 0.493513          1.300604
  20         V                 0.591077          1.653468
  21         V                 0.664674          1.575300
  22         V                 0.690303          2.141053
  23         V                 0.771141          2.425898
  24         V                 0.776769          2.312044
  25         V                 0.843629          1.086240
  26         V                 0.953408          3.433244
  27         V                 2.232111          3.921740
  28         V                 2.289100          4.031403
  29         V                 2.333147          4.300747
  30         V                 2.407193          4.518235
  31         V                 2.671210          6.301396
  32         V                 2.817869          6.306980
  33         V                 2.878135          6.134093
  34         V                 2.951275          6.226889
  35         V                 3.140870          6.822346
  36         V                 3.317331          6.400293
  37         V                23.350927         60.073772
  38         V                23.706784         60.204783
 Total kinetic energy from orbitals= 7.814505946924D+01
 Calling FoFJK, ICntrl=      2127 FMM=F ISym2X=0 I1Cent= 0 IOpClX= 0 NMat=1 NMatS=1 NMatT=0.
 -------------------------------------------------------------------
 Center     Atomic                   Forces (Hartrees/Bohr)
 Number     Number              X              Y              Z
 -------------------------------------------------------------------
      1        6           0.012651020    0.007543309   -0.002601520
      2        1          -0.006824540    0.004615431    0.001321102
      3        1          -0.000063578   -0.003695013    0.001203937
      4        6           0.011186992    0.014391158   -0.003067045
      5        1           0.005222311   -0.017308087    0.001539707
      6        1          -0.022172205   -0.005546799    0.001603820
 -------------------------------------------------------------------
 Cartesian Forces:  Max     0.022172205 RMS     0.009141682

 GradGradGradGradGradGradGradGradGradGradGradGradGradGradGradGradGradGrad
 Berny optimization.
 Search for a local minimum.
 Step number   1 out of a maximum of    2
 All quantities printed in internal units (Hartrees-Bohrs-Radians)
 Second derivative matrix not updated -- first step.
 The second derivative matrix:
                          X1        Y1        Z1        X2        Y2
           X1           0.76404
           Y1           0.09990   0.86793
           Z1           0.00402   0.00600   0.17366
           X2          -0.16330   0.09594   0.00138   0.14048
           Y2           0.10255  -0.28938  -0.00504  -0.11551   0.27829
           Z2           0.00219  -0.00634  -0.05605  -0.00199   0.00524
           X3          -0.35715  -0.00179  -0.00556  -0.00026  -0.00014
           Y3          -0.00813  -0.11065  -0.00131   0.03290   0.01866
           Z3          -0.00709  -0.00126  -0.05662   0.00101   0.00036
           X4          -0.26851  -0.17965  -0.00053   0.02309   0.01310
           Y4          -0.18033  -0.47599  -0.00085  -0.01334  -0.00757
           Z4           0.00086   0.00158  -0.09513  -0.00040  -0.00056
           X5           0.02324  -0.01342   0.00042  -0.00000   0.00000
           Y5           0.01185  -0.00685   0.00057   0.00000  -0.00000
           Z5          -0.00035   0.00022   0.01706   0.00017  -0.00009
           X6           0.00169  -0.00097   0.00027  -0.00000   0.00000
           Y6          -0.02585   0.01493   0.00063   0.00000  -0.00000
           Z6           0.00037  -0.00020   0.01707  -0.00017   0.00009
                          Z2        X3        Y3        Z3        X4
           Z2           0.02906
           X3          -0.00020   0.35721
           Y3           0.00108   0.00205   0.07650
           Z3           0.01064   0.00606   0.00089   0.02971
           X4           0.00035   0.00020  -0.02682  -0.00034   0.70388
           Y4          -0.00019  -0.00012   0.01549   0.00021   0.12449
           Z4           0.01637  -0.00030  -0.00066   0.01626  -0.00334
           X5          -0.00017  -0.00000   0.00000   0.00017  -0.14529
           Y5           0.00011   0.00000  -0.00000  -0.00011   0.09070
           Z5           0.00931   0.00018  -0.00011  -0.00941  -0.00210
           X6          -0.00017  -0.00000   0.00000   0.00018  -0.31336
           Y6           0.00009   0.00000  -0.00000  -0.00009  -0.02181
           Z6          -0.00932  -0.00018   0.00011   0.00943   0.00596
                          Y4        Z4        X5        Y5        Z5
           Y4           0.85214
           Z4          -0.00656   0.17489
           X5           0.08300  -0.00139   0.12415
           Y5          -0.28054   0.00490  -0.10149   0.27112
           Z5           0.00609  -0.05613   0.00187  -0.00523   0.02908
           X6          -0.01371   0.00457  -0.00209  -0.00106   0.00024
           Y6          -0.10354   0.00130   0.03191   0.01627  -0.00088
           Z6           0.00130  -0.05626  -0.00090  -0.00025   0.01009
                          X6        Y6        Z6
           X6           0.31378
           Y6           0.01574   0.07233
           Z6          -0.00507  -0.00105   0.02900
 ITU=  0
     Eigenvalues ---    0.03748   0.04371   0.09348   0.09933   0.13505
     Eigenvalues ---    0.17349   0.26582   0.28793   0.52668   0.69242
     Eigenvalues ---    0.97330   1.56839
 Angle between quadratic step and forces=  32.72 degrees.
 Linear search not attempted -- first point.
 B after Tr=     0.005520    0.007568   -0.006775
         Rot=    1.000000   -0.000013    0.000006   -0.000118 Ang=  -0.01 deg.
 Variable       Old X    -DE/DX   Delta X   Delta X   Delta X     New X
                                 (Linear)    (Quad)   (Total)
    X1       -0.63321   0.01265   0.00000   0.01789   0.02367  -0.60954
    Y1       -1.09740   0.00754   0.00000   0.02209   0.02952  -1.06788
    Z1        0.00958  -0.00260   0.00000  -0.01417  -0.02098  -0.01140
    X2        0.38706  -0.00682   0.00000  -0.01782  -0.01163   0.37544
    Y2       -2.89425   0.00462   0.00000   0.02593   0.03359  -2.86066
    Z2       -0.02678   0.00132   0.00000   0.01746   0.01061  -0.01617
    X3       -2.67780  -0.00006   0.00000   0.01739   0.02318  -2.65462
    Y3       -1.11246  -0.00370   0.00000  -0.01452  -0.00758  -1.12003
    Z3       -0.02829   0.00120   0.00000   0.01713   0.01030  -0.01799
    X4        0.63006   0.01119   0.00000   0.00494   0.01020   0.64025
    Y4        1.08956   0.01439   0.00000   0.00925   0.01696   1.10652
    Z4        0.00771  -0.00307   0.00000  -0.01387  -0.02061  -0.01291
    X5       -0.32592   0.00522   0.00000   0.00763   0.01246  -0.31346
    Y5        2.96220  -0.01731   0.00000  -0.05066  -0.04316   2.91904
    Z5       -0.03166   0.00154   0.00000   0.01720   0.01050  -0.02115
    X6        2.74315  -0.02217   0.00000  -0.06312  -0.05788   2.68527
    Y6        1.22687  -0.00555   0.00000  -0.03753  -0.02933   1.19755
    Z6       -0.03029   0.00160   0.00000   0.01689   0.01018  -0.02011
         Item               Value     Threshold  Converged?
 Maximum Force            0.022172     0.000450     NO 
 RMS     Force            0.009142     0.000300     NO 
 Maximum Displacement     0.057880     0.001800     NO 
 RMS     Displacement     0.024953     0.001200     NO 
 Predicted change in Energy=-1.788096D-03
 GradGradGradGradGradGradGradGradGradGradGradGradGradGradGradGradGradGrad

 Unable to Open any file for archive entry.
 1\1\GINC-BHD0016\Force\RwB97XD\6-311G\C2H4\BWEIGHT\11-Jan-2023\0\\# WB
 97XD/6-311G SCF=XQC FORCE nosym pop=full guess=read\\MD Step 999\\0,1\
 C,-0.33507839,-0.5807177,0.00506896\H,0.20482408,-1.53157341,-0.014169
 83\H,-1.41702969,-0.58868589,-0.01496966\C,0.33341181,0.57657011,0.004
 07807\H,-0.17247016,1.56753054,-0.01675155\H,1.45161211,0.6492336,-0.0
 1603054\\Version=ES64L-G16RevC.01\HF=-78.5555877\RMSD=5.942e-09\RMSF=9
 .142e-03\Dipole=-0.0029365,0.0034637,-0.0260843\Quadrupole=0.8596355,0
 .8582637,-1.7178992,0.0182331,0.0000278,-0.002076\PG=C01 [X(C2H4)]\\@
 The archive entry for this job was punched.


 I LOVE MANKIND - IT'S PEOPLE I CAN'T STAND.
     -- LINUS OF PEANUTS
 Job cpu time:       0 days  0 hours  1 minutes  3.0 seconds.
 Elapsed time:       0 days  0 hours  0 minutes 22.3 seconds.
 File lengths (MBytes):  RWF=    272 Int=      0 D2E=      0 Chk=     32 Scr=     32
 Normal termination of Gaussian 16 at Wed Jan 11 18:27:57 2023.
