 Entering Gaussian System, Link 0=g16
 Initial command:
 /software/gaussian/g16-c01/avx2/g16/l1.exe "/gpfs/fs2/scratch/bweight/software/many_molecule_many_mode_NAMD/src/NAMD/TEST_NVT/TRAJ/traj-28/G16/GS_NEW/Gau-8612.inp" -scrdir="/gpfs/fs2/scratch/bweight/software/many_molecule_many_mode_NAMD/src/NAMD/TEST_NVT/TRAJ/traj-28/G16/GS_NEW/"
 Entering Link 1 = /software/gaussian/g16-c01/avx2/g16/l1.exe PID=      8613.
  
 Copyright (c) 1988-2019, Gaussian, Inc.  All Rights Reserved.
  
 This is part of the Gaussian(R) 16 program.  It is based on
 the Gaussian(R) 09 system (copyright 2009, Gaussian, Inc.),
 the Gaussian(R) 03 system (copyright 2003, Gaussian, Inc.),
 the Gaussian(R) 98 system (copyright 1998, Gaussian, Inc.),
 the Gaussian(R) 94 system (copyright 1995, Gaussian, Inc.),
 the Gaussian 92(TM) system (copyright 1992, Gaussian, Inc.),
 the Gaussian 90(TM) system (copyright 1990, Gaussian, Inc.),
 the Gaussian 88(TM) system (copyright 1988, Gaussian, Inc.),
 the Gaussian 86(TM) system (copyright 1986, Carnegie Mellon
 University), and the Gaussian 82(TM) system (copyright 1983,
 Carnegie Mellon University). Gaussian is a federally registered
 trademark of Gaussian, Inc.
  
 This software contains proprietary and confidential information,
 including trade secrets, belonging to Gaussian, Inc.
  
 This software is provided under written license and may be
 used, copied, transmitted, or stored only in accord with that
 written license.
  
 The following legend is applicable only to US Government
 contracts under FAR:
  
                    RESTRICTED RIGHTS LEGEND
  
 Use, reproduction and disclosure by the US Government is
 subject to restrictions as set forth in subparagraphs (a)
 and (c) of the Commercial Computer Software - Restricted
 Rights clause in FAR 52.227-19.
  
 Gaussian, Inc.
 340 Quinnipiac St., Bldg. 40, Wallingford CT 06492
  
  
 ---------------------------------------------------------------
 Warning -- This program may not be used in any manner that
 competes with the business of Gaussian, Inc. or will provide
 assistance to any competitor of Gaussian, Inc.  The licensee
 of this program is prohibited from giving any competitor of
 Gaussian, Inc. access to this program.  By using this program,
 the user acknowledges that Gaussian, Inc. is engaged in the
 business of creating and licensing software in the field of
 computational chemistry and represents and warrants to the
 licensee that it is not a competitor of Gaussian, Inc. and that
 it will not use this program in any manner prohibited above.
 ---------------------------------------------------------------
  

 Cite this work as:
 Gaussian 16, Revision C.01,
 M. J. Frisch, G. W. Trucks, H. B. Schlegel, G. E. Scuseria, 
 M. A. Robb, J. R. Cheeseman, G. Scalmani, V. Barone, 
 G. A. Petersson, H. Nakatsuji, X. Li, M. Caricato, A. V. Marenich, 
 J. Bloino, B. G. Janesko, R. Gomperts, B. Mennucci, H. P. Hratchian, 
 J. V. Ortiz, A. F. Izmaylov, J. L. Sonnenberg, D. Williams-Young, 
 F. Ding, F. Lipparini, F. Egidi, J. Goings, B. Peng, A. Petrone, 
 T. Henderson, D. Ranasinghe, V. G. Zakrzewski, J. Gao, N. Rega, 
 G. Zheng, W. Liang, M. Hada, M. Ehara, K. Toyota, R. Fukuda, 
 J. Hasegawa, M. Ishida, T. Nakajima, Y. Honda, O. Kitao, H. Nakai, 
 T. Vreven, K. Throssell, J. A. Montgomery, Jr., J. E. Peralta, 
 F. Ogliaro, M. J. Bearpark, J. J. Heyd, E. N. Brothers, K. N. Kudin, 
 V. N. Staroverov, T. A. Keith, R. Kobayashi, J. Normand, 
 K. Raghavachari, A. P. Rendell, J. C. Burant, S. S. Iyengar, 
 J. Tomasi, M. Cossi, J. M. Millam, M. Klene, C. Adamo, R. Cammi, 
 J. W. Ochterski, R. L. Martin, K. Morokuma, O. Farkas, 
 J. B. Foresman, and D. J. Fox, Gaussian, Inc., Wallingford CT, 2019.
 
 ******************************************
 Gaussian 16:  ES64L-G16RevC.01  3-Jul-2019
                11-Jan-2023 
 ******************************************
 %oldchk=../GS_OLD/geometry.chk
 %chk=geometry.chk
 %nprocshared=4
 Will use up to    4 processors via shared memory.
 %mem=5GB
 Copying data from "../GS_OLD/geometry.chk" to current chk file "geometry.chk"
 IOpt=  2 FromEx=T IUOpen= 4 IOptOp= 5 NList=   0 IFRang= 0 IUIn= 4 IUOut= 2.
 -------------------------------------------------------
 # WB97XD/6-311G SCF=XQC FORCE nosym pop=full guess=read
 -------------------------------------------------------
 1/10=7,30=1,38=1/1,3;
 2/12=2,15=1,17=6,18=5,40=1/2;
 3/5=4,6=6,11=2,25=1,30=1,71=1,74=-58,116=-2/1,2,3;
 4/5=1/1;
 5/5=2,8=3,13=1,38=6/2,8;
 6/7=3,28=1/1;
 7/29=1,30=1/1,2,3,16;
 1/10=7,30=1/3;
 99//99;
 ------------
 MD Step 1000
 ------------
 Symbolic Z-matrix:
 Charge =  0 Multiplicity = 1
 C                    -0.33734  -0.58348   0.00789 
 H                     0.22981  -1.52326  -0.02689 
 H                    -1.42065  -0.57221  -0.02717 
 C                     0.33257   0.57621   0.00545 
 H                    -0.14944   1.56664  -0.031 
 H                     1.44079   0.65915  -0.03027 
 

 GradGradGradGradGradGradGradGradGradGradGradGradGradGradGradGradGradGrad
 Berny optimization.
 Initialization pass.
 Trust Radius=3.00D-01 FncErr=1.00D-07 GrdErr=1.00D-07 EigMax=2.50D+02 EigMin=1.00D-04
 Number of steps in this run=      2 maximum allowed number of steps=      2.
 GradGradGradGradGradGradGradGradGradGradGradGradGradGradGradGradGradGrad

                          Input orientation:                          
 ---------------------------------------------------------------------
 Center     Atomic      Atomic             Coordinates (Angstroms)
 Number     Number       Type             X           Y           Z
 ---------------------------------------------------------------------
      1          6           0       -0.337338   -0.583484    0.007889
      2          1           0        0.229811   -1.523256   -0.026886
      3          1           0       -1.420648   -0.572206   -0.027168
      4          6           0        0.332568    0.576211    0.005453
      5          1           0       -0.149440    1.566644   -0.030996
      6          1           0        1.440789    0.659151   -0.030267
 ---------------------------------------------------------------------
                    Distance matrix (angstroms):
                    1          2          3          4          5
     1  C    0.000000
     2  H    1.098198   0.000000
     3  H    1.083935   1.904864   0.000000
     4  C    1.339281   2.102228   2.096114   0.000000
     5  H    2.158673   3.113089   2.488105   1.102097   0.000000
     6  H    2.169639   2.495872   3.115135   1.111893   1.830947
                    6
     6  H    0.000000
 Symmetry turned off by external request.
 Stoichiometry    C2H4
 Framework group  C1[X(C2H4)]
 Deg. of freedom    12
 Full point group                 C1      NOp   1
 Rotational constants (GHZ):         143.4846699          29.6746738          24.5996297
 Standard basis: 6-311G (5D, 7F)
    38 basis functions,    72 primitive gaussians,    38 cartesian basis functions
     8 alpha electrons        8 beta electrons
       nuclear repulsion energy        33.0718706108 Hartrees.
 NAtoms=    6 NActive=    6 NUniq=    6 SFac= 1.00D+00 NAtFMM=   60 NAOKFM=F Big=F
 Integral buffers will be    131072 words long.
 Raffenetti 2 integral format.
 Two-electron integral symmetry is turned off.
 Nuclear repulsion after empirical dispersion term =       33.0710281767 Hartrees.
 One-electron integrals computed using PRISM.
 NBasis=    38 RedAO= T EigKep=  6.45D-03  NBF=    38
 NBsUse=    38 1.00D-06 EigRej= -1.00D+00 NBFU=    38
 Initial guess from the checkpoint file:  "geometry.chk"
 B after Tr=    -0.000184   -0.000338   -0.000315
         Rot=    1.000000    0.000003   -0.000001    0.000006 Ang=   0.00 deg.
 Keep R1 ints in memory in canonical form, NReq=4036876.
 Requested convergence on RMS density matrix=1.00D-08 within  32 cycles.
 Requested convergence on MAX density matrix=1.00D-06.
 Requested convergence on             energy=1.00D-06.
 No special actions if energy rises.
 SCF Done:  E(RwB97XD) =  -78.5550897183     A.U. after    8 cycles
            NFock=  8  Conv=0.59D-08     -V/T= 2.0051
 QCSCF skips out because SCF is already converged.

 **********************************************************************

            Population analysis using the SCF Density.

 **********************************************************************

 Alpha  occ. eigenvalues --  -10.28994 -10.28828  -0.86382  -0.67262  -0.56000
 Alpha  occ. eigenvalues --   -0.50886  -0.43652  -0.35667
 Alpha virt. eigenvalues --    0.07947   0.14091   0.16496   0.17027   0.24076
 Alpha virt. eigenvalues --    0.36986   0.39402   0.40198   0.46441   0.48934
 Alpha virt. eigenvalues --    0.49393   0.59097   0.66584   0.69188   0.77294
 Alpha virt. eigenvalues --    0.77528   0.84107   0.95100   2.23082   2.29155
 Alpha virt. eigenvalues --    2.33273   2.40645   2.67105   2.81747   2.87799
 Alpha virt. eigenvalues --    2.95144   3.14100   3.31986  23.35289  23.70523
     Molecular Orbital Coefficients:
                           1         2         3         4         5
                           O         O         O         O         O
     Eigenvalues --   -10.28994 -10.28828  -0.86382  -0.67262  -0.56000
   1 1   C  1S          0.15374   0.54202  -0.08837   0.06680  -0.00051
   2        2S          0.12672   0.44604  -0.13970   0.10695  -0.00083
   3        2PX         0.00016  -0.00002   0.02576   0.03537   0.13992
   4        2PY         0.00028  -0.00003   0.04642   0.05717  -0.07463
   5        2PZ        -0.00000  -0.00001  -0.00149   0.00211   0.00020
   6        3S          0.00315   0.01429   0.37483  -0.29182   0.00230
   7        3PX        -0.00056   0.00048   0.03445   0.05676   0.21942
   8        3PY        -0.00095   0.00087   0.06171   0.09305  -0.11806
   9        3PZ        -0.00002  -0.00003  -0.00248   0.00376   0.00029
  10        4S          0.00181  -0.01492   0.19219  -0.22454   0.00192
  11        4PX         0.00133  -0.00169   0.00485   0.02255   0.11273
  12        4PY         0.00228  -0.00292   0.00870   0.03863  -0.06161
  13        4PZ         0.00001   0.00009  -0.00086   0.00188   0.00013
  14 2   H  1S         -0.00005  -0.00006   0.05266  -0.08583   0.10454
  15        2S         -0.00029   0.00013   0.05407  -0.10391   0.13238
  16        3S          0.00099   0.00159  -0.00193  -0.01464   0.04265
  17 3   H  1S         -0.00006  -0.00007   0.05443  -0.08992  -0.10789
  18        2S         -0.00029   0.00012   0.05520  -0.10785  -0.13545
  19        3S          0.00102   0.00164  -0.00190  -0.01574  -0.04360
  20 4   C  1S          0.54199  -0.15392  -0.08679  -0.06836  -0.00025
  21        2S          0.44612  -0.12648  -0.13701  -0.10965  -0.00039
  22        2PX        -0.00003  -0.00017  -0.02753   0.03883   0.11539
  23        2PY        -0.00004  -0.00029  -0.04627   0.06930  -0.07293
  24        2PZ        -0.00000   0.00000  -0.00114  -0.00235   0.00023
  25        3S          0.01366  -0.00479   0.36695   0.29973   0.00110
  26        3PX        -0.00013   0.00075  -0.03428   0.06275   0.18040
  27        3PY        -0.00020   0.00128  -0.05744   0.11135  -0.11300
  28        3PZ        -0.00004  -0.00000  -0.00198  -0.00421   0.00034
  29        4S         -0.01137   0.00952   0.18853   0.23808  -0.00018
  30        4PX         0.00068  -0.00198  -0.00552   0.02775   0.10002
  31        4PY         0.00113  -0.00344  -0.00900   0.04761  -0.06162
  32        4PZ         0.00007  -0.00002  -0.00083  -0.00216   0.00017
  33 5   H  1S         -0.00007  -0.00004   0.04995   0.09508  -0.08767
  34        2S         -0.00005  -0.00031   0.05089   0.11286  -0.11008
  35        3S          0.00181  -0.00003  -0.00095   0.01704  -0.03524
  36 6   H  1S         -0.00006  -0.00004   0.04862   0.09309   0.08291
  37        2S         -0.00006  -0.00032   0.05016   0.11102   0.10456
  38        3S          0.00176  -0.00003  -0.00098   0.01640   0.03378
                           6         7         8         9        10
                           O         O         O         V         V
     Eigenvalues --    -0.50886  -0.43652  -0.35667   0.07947   0.14091
   1 1   C  1S         -0.00230   0.00022  -0.00116   0.00305  -0.03361
   2        2S         -0.00328   0.00037  -0.00188   0.00507  -0.05393
   3        2PX         0.09478  -0.10829  -0.00368   0.00152  -0.03133
   4        2PY         0.16909   0.06475  -0.00640   0.00271  -0.06496
   5        2PZ         0.00562   0.00008   0.17939  -0.18900  -0.00295
   6        3S          0.01470  -0.00081   0.00548  -0.01535   0.11739
   7        3PX         0.13730  -0.17283  -0.00519   0.00229  -0.03679
   8        3PY         0.24684   0.10396  -0.00904   0.00402  -0.08036
   9        3PZ         0.00892   0.00016   0.28855  -0.27794  -0.00469
  10        4S         -0.05996  -0.00378   0.00789  -0.01770   1.23501
  11        4PX         0.06879  -0.10790  -0.00428   0.01358  -0.18695
  12        4PY         0.12506   0.06533  -0.00751   0.02358  -0.37616
  13        4PZ         0.00506   0.00016   0.26711  -0.69367  -0.01680
  14 2   H  1S         -0.08173  -0.11313   0.00016   0.00479  -0.01830
  15        2S         -0.11380  -0.17448   0.00223   0.00760  -0.04932
  16        3S         -0.04259  -0.08054   0.00135   0.02015  -0.83650
  17 3   H  1S         -0.07979   0.11055   0.00005   0.00477  -0.01429
  18        2S         -0.11037   0.16940   0.00206   0.00757  -0.03981
  19        3S         -0.04097   0.07785   0.00127   0.01951  -0.76963
  20 4   C  1S         -0.00979  -0.00051  -0.00086  -0.00286  -0.03607
  21        2S         -0.01542  -0.00085  -0.00141  -0.00474  -0.05793
  22        2PX        -0.09800   0.12722   0.00371   0.00191   0.04065
  23        2PY        -0.16089  -0.07515   0.00677   0.00342   0.06071
  24        2PZ         0.00600   0.00023   0.17896   0.18941  -0.00313
  25        3S          0.04883   0.00240   0.00418   0.01422   0.12794
  26        3PX        -0.14547   0.20325   0.00519   0.00296   0.04991
  27        3PY        -0.23710  -0.11915   0.00951   0.00531   0.07190
  28        3PZ         0.00947   0.00034   0.28641   0.27786  -0.00475
  29        4S         -0.02078   0.00336   0.00707   0.01539   1.23340
  30        4PX        -0.07649   0.13084   0.00398   0.01452   0.26918
  31        4PY        -0.12336  -0.07607   0.00740   0.02556   0.42046
  32        4PZ         0.00551   0.00020   0.26768   0.69501  -0.01906
  33 5   H  1S         -0.07301  -0.12658   0.00030  -0.00437  -0.01091
  34        2S         -0.09915  -0.19697   0.00247  -0.00729  -0.03652
  35        3S         -0.03707  -0.09269   0.00136  -0.01866  -0.81978
  36 6   H  1S         -0.07928   0.12605   0.00018  -0.00435  -0.01475
  37        2S         -0.10819   0.19725   0.00226  -0.00730  -0.04604
  38        3S         -0.04065   0.09292   0.00123  -0.01891  -0.88627
                          11        12        13        14        15
                           V         V         V         V         V
     Eigenvalues --     0.16496   0.17027   0.24076   0.36986   0.39402
   1 1   C  1S          0.00064  -0.04560   0.00013   0.00789   0.00059
   2        2S          0.00102  -0.07434   0.00020   0.01022   0.00081
   3        2PX         0.09652  -0.02001   0.09947  -0.03471  -0.02197
   4        2PY        -0.05402  -0.03577  -0.05696  -0.06296   0.01082
   5        2PZ        -0.00000  -0.00734  -0.00002  -0.00507  -0.00017
   6        3S         -0.00204   0.16865   0.00019   0.03707   0.00247
   7        3PX         0.13801  -0.01154   0.10415  -0.04024  -0.10166
   8        3PY        -0.07797  -0.02217  -0.06076  -0.07734   0.05509
   9        3PZ        -0.00001  -0.01019  -0.00010  -0.01062  -0.00028
  10        4S         -0.04003   1.43434  -0.02866  -2.33255  -0.13010
  11        4PX         0.59122  -0.11775   1.16996  -1.49659  -0.53287
  12        4PY        -0.32201  -0.19801  -0.67204  -2.59697   0.14394
  13        4PZ         0.00014  -0.04800   0.00047  -0.04613  -0.00253
  14 2   H  1S         -0.02906  -0.02550   0.01455  -0.06361   0.07364
  15        2S         -0.08266  -0.01752  -0.02425  -0.70440   0.74500
  16        3S         -1.04755  -0.99300  -1.53500  -0.24730  -0.29558
  17 3   H  1S          0.02759  -0.02570  -0.01702  -0.05694  -0.07558
  18        2S          0.08067  -0.02187   0.01718  -0.65169  -0.76402
  19        3S          1.09624  -1.02003   1.57219  -0.32815   0.23223
  20 4   C  1S          0.00181   0.04220  -0.00015  -0.01998  -0.00019
  21        2S          0.00291   0.06867  -0.00026  -0.03310  -0.00027
  22        2PX         0.10096  -0.02528  -0.10073  -0.03917  -0.03247
  23        2PY        -0.06175  -0.03740   0.05776  -0.07013   0.01352
  24        2PZ         0.00029   0.00713  -0.00001   0.00342   0.00030
  25        3S         -0.00600  -0.15155   0.00034   0.05023  -0.00019
  26        3PX         0.14502  -0.02127  -0.11569  -0.09186  -0.11209
  27        3PY        -0.08719  -0.02730   0.06495  -0.16649   0.05399
  28        3PZ         0.00040   0.00982   0.00002   0.00375   0.00058
  29        4S         -0.07690  -1.34621   0.02001   3.12615   0.14512
  30        4PX         0.52834  -0.12923  -1.12120  -1.04929  -0.54491
  31        4PY        -0.33079  -0.19705   0.64730  -1.84687   0.15745
  32        4PZ         0.00191   0.04647  -0.00061   0.03654   0.00211
  33 5   H  1S          0.03148   0.02390   0.00485   0.00445  -0.08278
  34        2S          0.06593   0.02074  -0.03593  -0.00552  -0.82344
  35        3S          1.08903   0.92803  -1.53635   0.43552   0.48798
  36 6   H  1S         -0.03122   0.02536  -0.00344  -0.00053   0.08822
  37        2S         -0.06621   0.02087   0.03744  -0.04795   0.89013
  38        3S         -0.98397   0.96484   1.51299   0.44795  -0.47523
                          16        17        18        19        20
                           V         V         V         V         V
     Eigenvalues --     0.40198   0.46441   0.48934   0.49393   0.59097
   1 1   C  1S         -0.02005   0.01276   0.04583  -0.00155  -0.00060
   2        2S         -0.03481   0.02942   0.07643  -0.00229  -0.00108
   3        2PX         0.03190  -0.06135  -0.01139   0.00155   0.00224
   4        2PY         0.05689  -0.10605  -0.01307   0.00216   0.00339
   5        2PZ         0.00081  -0.00041  -0.00959  -0.15167  -0.19240
   6        3S          0.07286  -0.33673  -0.08430  -0.00815  -0.00097
   7        3PX         0.11269  -0.24001   0.03987  -0.00097   0.00736
   8        3PY         0.20641  -0.41234   0.08222  -0.00296   0.01137
   9        3PZ        -0.00319  -0.00470  -0.04191  -0.62731  -0.68460
  10        4S          3.03631   0.17611  -3.03857   0.17323   0.07789
  11        4PX         0.42773   0.24689  -0.82425   0.05305   0.02483
  12        4PY         0.75553   0.46653  -1.44212   0.09396   0.04163
  13        4PZ         0.00048   0.00297   0.11564   0.68196   1.24002
  14 2   H  1S         -0.02413  -0.03130   0.07554  -0.00488  -0.00188
  15        2S         -0.50939  -0.30252   0.89572  -0.05082  -0.01490
  16        3S          0.37012   0.06360  -0.64846   0.05048   0.02601
  17 3   H  1S         -0.02852  -0.03426   0.07305  -0.00475  -0.00177
  18        2S         -0.54498  -0.33808   0.87031  -0.04963  -0.01276
  19        3S          0.37342   0.06451  -0.60736   0.04801   0.02532
  20 4   C  1S          0.00218  -0.00347  -0.05088   0.00469   0.00079
  21        2S         -0.00006   0.00168  -0.08880   0.00842   0.00148
  22        2PX         0.01208   0.05396  -0.02766   0.00072   0.00230
  23        2PY         0.02208   0.09372  -0.05144   0.00134   0.00443
  24        2PZ        -0.00443  -0.00225  -0.00965  -0.15246   0.19220
  25        3S          0.07602  -0.28091   0.23931  -0.03013  -0.00307
  26        3PX        -0.03594   0.23209  -0.06149   0.00156   0.00813
  27        3PY        -0.05601   0.40669  -0.11173   0.00251   0.01542
  28        3PZ        -0.01208  -0.00885  -0.03743  -0.63076   0.68227
  29        4S         -1.27284   0.75479   3.10114  -0.20172  -0.06718
  30        4PX         1.41134  -0.31042  -0.57460   0.02932   0.02324
  31        4PY         2.51947  -0.50080  -0.96958   0.04903   0.04087
  32        4PZ        -0.03966  -0.01999  -0.02170   0.69542  -1.23715
  33 5   H  1S         -0.04208  -0.06665  -0.06298   0.00426   0.00170
  34        2S         -0.81217  -0.69649  -0.81470   0.06122   0.00580
  35        3S         -0.28672   0.26788   0.52166  -0.02334  -0.02502
  36 6   H  1S         -0.03744  -0.06455  -0.06379   0.00437   0.00178
  37        2S         -0.75540  -0.66734  -0.81505   0.06132   0.00702
  38        3S         -0.28947   0.28186   0.54814  -0.02578  -0.02548
                          21        22        23        24        25
                           V         V         V         V         V
     Eigenvalues --     0.66584   0.69188   0.77294   0.77528   0.84107
   1 1   C  1S          0.00091  -0.00062   0.04446   0.07684   0.00107
   2        2S          0.00188  -0.00139   0.09370   0.16375   0.00242
   3        2PX        -0.13587   0.19564  -0.03558   0.11190  -0.00843
   4        2PY         0.07969  -0.11815  -0.06043   0.18018   0.01348
   5        2PZ        -0.00001   0.00013   0.00028   0.00533   0.00022
   6        3S         -0.01510   0.01853  -0.60512  -1.39962  -0.02419
   7        3PX        -0.62530   0.68575  -0.21197   0.42913  -0.22467
   8        3PY         0.36269  -0.41371  -0.36161   0.68026   0.16442
   9        3PZ        -0.00017   0.00056   0.00131   0.01860   0.00095
  10        4S          0.02974  -0.08804   0.51021   2.48385  -0.05416
  11        4PX         1.06241  -0.78006   0.22397  -0.74561   4.55076
  12        4PY        -0.61718   0.47059   0.29001  -0.97109  -2.62718
  13        4PZ        -0.00029   0.00160   0.01500  -0.05906   0.00205
  14 2   H  1S          0.02529  -0.05839   0.00703   0.03358  -0.02736
  15        2S          0.15895  -0.62906   0.06664   0.09782  -1.60103
  16        3S         -1.05584   1.08991  -0.00426  -1.09360  -1.24182
  17 3   H  1S         -0.02462   0.05780   0.00684   0.03450   0.03085
  18        2S         -0.17529   0.66824   0.09360   0.06733   1.64509
  19        3S          1.04499  -1.05383   0.02184  -1.25227   1.24300
  20 4   C  1S          0.00116  -0.00061   0.08124   0.03888   0.00085
  21        2S          0.00234  -0.00117   0.17303   0.08195   0.00174
  22        2PX        -0.14832  -0.18752  -0.10112   0.04411   0.00826
  23        2PY         0.08495   0.10382  -0.18267   0.08183   0.00241
  24        2PZ        -0.00004  -0.00019   0.00574  -0.00073  -0.00019
  25        3S         -0.01634   0.00120  -1.45794  -0.51274  -0.01006
  26        3PX        -0.67504  -0.63961  -0.37571   0.24829   0.22410
  27        3PY         0.38948   0.35103  -0.68351   0.45567  -0.09328
  28        3PZ        -0.00027  -0.00069   0.02034  -0.00302  -0.00068
  29        4S          0.01017   0.05450   2.66507   0.36885   0.03762
  30        4PX         1.30556   0.79637   0.54473  -0.20540  -4.11181
  31        4PY        -0.74520  -0.44145   1.08174  -0.60578   2.32171
  32        4PZ         0.00065  -0.00098  -0.05969   0.02337  -0.00187
  33 5   H  1S         -0.02386  -0.05527   0.03395   0.00608  -0.02245
  34        2S         -0.12403  -0.55152   0.07355   0.08319  -1.38945
  35        3S          1.10598   1.01228  -1.18926   0.20529  -1.07901
  36 6   H  1S          0.02459   0.05491   0.03346   0.00691   0.02247
  37        2S          0.11915   0.51628   0.07882   0.02565   1.37341
  38        3S         -1.11013  -1.02725  -1.11149   0.13085   1.08804
                          26        27        28        29        30
                           V         V         V         V         V
     Eigenvalues --     0.95100   2.23082   2.29155   2.33273   2.40645
   1 1   C  1S          0.09618  -0.00976  -0.01476   0.00048  -0.00052
   2        2S          0.19992   0.00221  -0.01438   0.00101  -0.00058
   3        2PX        -0.09078  -0.06860  -0.13099   0.35645  -0.40238
   4        2PY        -0.15746  -0.12996  -0.23074  -0.20262   0.22968
   5        2PZ         0.00028  -0.01441  -0.02049  -0.00012  -0.00060
   6        3S         -1.55092  -0.18877  -0.04285  -0.00168  -0.00514
   7        3PX        -0.23196   0.05909   0.20486  -0.42775   0.56180
   8        3PY        -0.39394   0.12852   0.37606   0.24556  -0.32336
   9        3PZ        -0.00255   0.01435   0.02545   0.00028   0.00066
  10        4S          5.71306  -0.09030  -0.87845   0.00542  -0.03015
  11        4PX         1.20612   0.05924  -0.19057  -0.08704   0.99046
  12        4PY         1.98970   0.07304  -0.36014   0.04159  -0.55297
  13        4PZ        -0.02170   0.00271   0.00917  -0.00039   0.00137
  14 2   H  1S          0.01511  -0.68982  -0.81713  -0.71328   0.63891
  15        2S         -0.28709   0.97508   1.22015   1.11745  -1.44578
  16        3S         -0.10143  -0.29332  -0.48792  -0.46507   0.35286
  17 3   H  1S          0.01528  -0.68184  -0.81038   0.70797  -0.66287
  18        2S         -0.25358   0.96613   1.21344  -1.11475   1.49586
  19        3S         -0.08453  -0.26876  -0.46635   0.45438  -0.34470
  20 4   C  1S         -0.09361  -0.01082   0.01220   0.00042   0.00033
  21        2S         -0.19407  -0.00086   0.01247   0.00063   0.00053
  22        2PX        -0.09229   0.14341  -0.11834   0.29381   0.41997
  23        2PY        -0.15903   0.24923  -0.19937  -0.16984  -0.23997
  24        2PZ         0.00040  -0.01658   0.01923   0.00023   0.00031
  25        3S          1.49964  -0.16331   0.01475   0.00000   0.00024
  26        3PX        -0.22513  -0.18506   0.20538  -0.36624  -0.58857
  27        3PY        -0.39406  -0.31655   0.33834   0.20870   0.33565
  28        3PZ         0.00415   0.01789  -0.02452  -0.00022  -0.00040
  29        4S         -5.68531  -0.19346   0.89263   0.01249   0.01342
  30        4PX         1.09587  -0.01284  -0.19125   0.13669  -0.84122
  31        4PY         1.97229  -0.03119  -0.30828  -0.07654   0.48984
  32        4PZ         0.01320   0.00586  -0.00699  -0.00012  -0.00114
  33 5   H  1S         -0.01796  -0.80374   0.65433   0.69489   0.70044
  34        2S          0.29282   1.17342  -1.00354  -0.99629  -1.47113
  35        3S          0.06231  -0.36220   0.38704   0.50859   0.44038
  36 6   H  1S         -0.01788  -0.79722   0.67517  -0.68495  -0.69627
  37        2S          0.31746   1.16162  -1.03058   0.97861   1.45687
  38        3S          0.07057  -0.36395   0.41291  -0.50703  -0.44706
                          31        32        33        34        35
                           V         V         V         V         V
     Eigenvalues --     2.67105   2.81747   2.87799   2.95144   3.14100
   1 1   C  1S          0.00055   0.00283  -0.01336   0.00010  -0.01010
   2        2S          0.00042   0.00801  -0.04330  -0.00003  -0.03078
   3        2PX         0.00480   0.08153  -0.48343  -0.71618   0.43410
   4        2PY         0.00806   0.14398  -0.86895   0.40000   0.76077
   5        2PZ        -0.92499  -0.92696  -0.15296  -0.00075   0.00591
   6        3S         -0.00159  -0.06554   0.37661   0.00236   0.25741
   7        3PX        -0.00303  -0.14018   0.84480   0.86260  -0.40557
   8        3PY        -0.00536  -0.24501   1.49228  -0.46890  -0.70957
   9        3PZ         0.94050   1.13281   0.19184   0.00113  -0.00762
  10        4S          0.01403   0.15500  -0.86634  -0.00943  -0.50856
  11        4PX        -0.00266   0.11162  -0.71176  -0.66752   0.19242
  12        4PY        -0.00364   0.19579  -1.26296   0.35390   0.33437
  13        4PZ        -0.33875  -0.61280  -0.12131  -0.00097   0.00395
  14 2   H  1S          0.01348  -0.02006   0.25469  -0.36834  -0.20666
  15        2S         -0.01524   0.01135  -0.20852   0.38469   0.15673
  16        3S         -0.00346   0.04561  -0.29872   0.27616   0.04525
  17 3   H  1S          0.01358  -0.01893   0.24278   0.36940  -0.20558
  18        2S         -0.01542   0.00895  -0.18619  -0.38072   0.15509
  19        3S         -0.00409   0.04654  -0.30373  -0.29524   0.05192
  20 4   C  1S          0.00057  -0.00271   0.01343   0.00057  -0.00712
  21        2S          0.00057  -0.00850   0.04791   0.00132  -0.02181
  22        2PX        -0.00874   0.06970  -0.39102  -0.81799  -0.51490
  23        2PY        -0.01551   0.12464  -0.69805   0.45557  -0.91151
  24        2PZ        -0.92430   0.92662   0.15775   0.00043   0.01613
  25        3S         -0.00334   0.07326  -0.43256  -0.01008   0.18610
  26        3PX         0.00926  -0.12833   0.74963   0.97724   0.56293
  27        3PY         0.01618  -0.22755   1.32789  -0.53685   1.00480
  28        3PZ         0.93983  -1.13215  -0.19879  -0.00048  -0.02049
  29        4S          0.01761  -0.15783   0.89558   0.02857  -0.35186
  30        4PX        -0.00143   0.11050  -0.70189  -0.70391  -0.35377
  31        4PY        -0.00266   0.19403  -1.22786   0.37985  -0.63549
  32        4PZ        -0.33839   0.61185   0.12694   0.00028   0.01640
  33 5   H  1S          0.01250   0.03096  -0.29515   0.42428  -0.27442
  34        2S         -0.01561  -0.02559   0.27151  -0.43192   0.21704
  35        3S         -0.00142  -0.04214   0.28070  -0.24455   0.13869
  36 6   H  1S          0.01262   0.03136  -0.29434  -0.43415  -0.26358
  37        2S         -0.01606  -0.02693   0.27777   0.44172   0.20857
  38        3S         -0.00089  -0.03958   0.26406   0.24502   0.13162
                          36        37        38
                           V         V         V
     Eigenvalues --     3.31986  23.35289  23.70523
   1 1   C  1S         -0.00053  -1.41305  -1.45322
   2        2S         -0.00079   1.50706   1.57146
   3        2PX         0.79751  -0.00657   0.01205
   4        2PY        -0.44606  -0.01058   0.02133
   5        2PZ         0.00073  -0.00060  -0.00029
   6        3S          0.00107  -0.29638  -0.39960
   7        3PX        -1.13879   0.02390  -0.05533
   8        3PY         0.63309   0.03920  -0.09672
   9        3PZ        -0.00118   0.00170   0.00087
  10        4S         -0.01907   0.27664   0.76719
  11        4PX         1.98961  -0.02532   0.13283
  12        4PY        -1.10998  -0.04209   0.22987
  13        4PZ         0.00198  -0.00287  -0.00349
  14 2   H  1S          0.57139   0.01286   0.00729
  15        2S         -0.88795   0.00766  -0.01462
  16        3S         -0.46816  -0.08412  -0.03953
  17 3   H  1S         -0.58432   0.01492   0.00887
  18        2S          0.90613   0.00706  -0.01513
  19        3S          0.49545  -0.08669  -0.04023
  20 4   C  1S          0.00016  -1.44844   1.41776
  21        2S         -0.00004   1.54483  -1.53316
  22        2PX        -0.69770   0.00619   0.01272
  23        2PY         0.39835   0.01119   0.02152
  24        2PZ        -0.00066  -0.00062   0.00014
  25        3S          0.00357  -0.30304   0.38956
  26        3PX         0.99473  -0.02261  -0.05644
  27        3PY        -0.57651  -0.04041  -0.09669
  28        3PZ         0.00102   0.00177  -0.00033
  29        4S         -0.00807   0.27776  -0.75839
  30        4PX        -1.74894   0.02409   0.13062
  31        4PY         1.01953   0.04427   0.22515
  32        4PZ        -0.00168  -0.00285   0.00234
  33 5   H  1S          0.47259   0.01372  -0.00477
  34        2S         -0.73426   0.00798   0.01397
  35        3S         -0.42757  -0.08305   0.03765
  36 6   H  1S         -0.46723   0.01224  -0.00353
  37        2S          0.72824   0.00923   0.01330
  38        3S          0.41706  -0.08125   0.03669
     Density Matrix:
                           1         2         3         4         5
   1 1   C  1S          0.65939
   2        2S          0.56148   0.49195
   3        2PX        -0.00042  -0.00053   0.08443
   4        2PY        -0.00117  -0.00161   0.00363   0.08764
   5        2PZ         0.00009   0.00015  -0.00014  -0.00031   0.06444
   6        3S         -0.08885  -0.15371   0.00223   0.00589  -0.00021
   7        3PX         0.00093   0.00143   0.13069   0.00105  -0.00012
   8        3PY         0.00122   0.00188   0.00107   0.13105  -0.00029
   9        3PZ         0.00019   0.00032  -0.00025  -0.00050   0.10365
  10        4S         -0.07933  -0.11422  -0.01605  -0.02898   0.00064
  11        4PX         0.00026   0.00159   0.06983  -0.00445  -0.00065
  12        4PY         0.00069   0.00316  -0.00445   0.06527  -0.00117
  13        4PZ        -0.00013  -0.00031  -0.00091  -0.00157   0.09590
  14 2   H  1S         -0.02063  -0.03286   0.03490  -0.06282  -0.00135
  15        2S         -0.02307  -0.03690   0.04868  -0.08773  -0.00105
  16        3S          0.00053  -0.00078   0.02016  -0.03307  -0.00004
  17 3   H  1S         -0.02120  -0.03373  -0.07282  -0.00179  -0.00145
  18        2S         -0.02341  -0.03739  -0.10032  -0.00241  -0.00115
  19        3S          0.00058  -0.00072  -0.03805   0.00074  -0.00007
  20 4   C  1S          0.00604   0.00975  -0.01093  -0.01889  -0.00045
  21        2S          0.00970   0.01517  -0.01750  -0.03025  -0.00073
  22        2PX         0.01024   0.01637  -0.01254  -0.03206   0.00054
  23        2PY         0.01788   0.02858  -0.03216  -0.04971   0.00101
  24        2PZ        -0.00055  -0.00089  -0.00039  -0.00064   0.06427
  25        3S         -0.02604  -0.03956   0.04913   0.08495   0.00222
  26        3PX         0.01577   0.02442  -0.01848  -0.04588   0.00070
  27        3PY         0.02749   0.04258  -0.04591  -0.07147   0.00132
  28        3PZ        -0.00093  -0.00150  -0.00069  -0.00113   0.10285
  29        4S          0.00539   0.00397   0.02178   0.03806   0.00275
  30        4PX         0.00305   0.00631  -0.01320  -0.02125   0.00076
  31        4PY         0.00515   0.01074  -0.02130  -0.03786   0.00146
  32        4PZ        -0.00079  -0.00128  -0.00112  -0.00189   0.09610
  33 5   H  1S          0.00418   0.00686  -0.00166  -0.01249  -0.00052
  34        2S          0.00620   0.01031   0.00365  -0.02501   0.00002
  35        3S          0.00313   0.00456   0.00434  -0.01743   0.00012
  36 6   H  1S          0.00412   0.00676  -0.01004  -0.00771  -0.00053
  37        2S          0.00607   0.01011  -0.02355  -0.00933  -0.00001
  38        3S          0.00306   0.00448  -0.01728  -0.00499   0.00008
                           6         7         8         9        10
   6        3S          0.45224
   7        3PX        -0.00203   0.20260
   8        3PY        -0.00158  -0.00505   0.19645
   9        3PZ        -0.00063  -0.00022  -0.00045   0.16672
  10        4S          0.27305  -0.02666  -0.04908   0.00084   0.18251
  11        4PX        -0.00690   0.10859  -0.01023  -0.00107  -0.01528
  12        4PY        -0.01289  -0.01022   0.09826  -0.00187  -0.02976
  13        4PZ         0.00134  -0.00122  -0.00208   0.15426   0.00243
  14 2   H  1S          0.08783   0.05642  -0.09803  -0.00225   0.06985
  15        2S          0.09875   0.07906  -0.13642  -0.00178   0.08295
  16        3S          0.00624   0.03305  -0.05083  -0.00008   0.01169
  17 3   H  1S          0.09026  -0.11393  -0.00095  -0.00237   0.06962
  18        2S          0.10021  -0.15677  -0.00058  -0.00189   0.08111
  19        3S          0.00630  -0.05922   0.00307  -0.00011   0.01047
  20 4   C  1S         -0.02645  -0.01711  -0.02960  -0.00076   0.00505
  21        2S         -0.03999  -0.02661  -0.04605  -0.00124   0.00379
  22        2PX        -0.04582  -0.01778  -0.04541   0.00093  -0.01672
  23        2PY        -0.08001  -0.04560  -0.07077   0.00172  -0.02921
  24        2PZ         0.00265  -0.00054  -0.00086   0.10337   0.00272
  25        3S          0.10158   0.07231   0.12530   0.00372   0.00084
  26        3PX        -0.06602  -0.02633  -0.06479   0.00121  -0.02469
  27        3PY        -0.11521  -0.06492  -0.10168   0.00228  -0.04308
  28        3PZ         0.00439  -0.00096  -0.00154   0.16543   0.00451
  29        4S          0.00204   0.03302   0.05797   0.00457  -0.03220
  30        4PX        -0.02235  -0.01961  -0.02977   0.00127  -0.00589
  31        4PY        -0.03833  -0.02991  -0.05456   0.00241  -0.00949
  32        4PZ         0.00373  -0.00157  -0.00262   0.15457   0.00421
  33 5   H  1S         -0.02039  -0.00054  -0.01781  -0.00075  -0.01412
  34        2S         -0.03080   0.00885  -0.03667   0.00012  -0.01812
  35        3S         -0.01173   0.00825  -0.02623   0.00021  -0.00297
  36 6   H  1S         -0.02004  -0.01504  -0.00919  -0.00076  -0.01424
  37        2S         -0.03020  -0.03597  -0.01028   0.00009  -0.01864
  38        3S         -0.01147  -0.02668  -0.00582   0.00016  -0.00341
                          11        12        13        14        15
  11        4PX         0.05927
  12        4PY        -0.00888   0.05069
  13        4PZ        -0.00152  -0.00261   0.14276
  14 2   H  1S          0.03338  -0.05382  -0.00116   0.08109
  15        2S          0.04766  -0.07470  -0.00047   0.10929   0.14929
  16        3S          0.02044  -0.02762   0.00023   0.03641   0.05193
  17 3   H  1S         -0.06269   0.00178  -0.00121  -0.01336  -0.02441
  18        2S         -0.08663   0.00381  -0.00050  -0.02428  -0.04146
  19        3S         -0.03301   0.00402   0.00022  -0.01753  -0.02631
  20 4   C  1S         -0.00325  -0.00590  -0.00068   0.00423   0.00681
  21        2S         -0.00668  -0.01198  -0.00110   0.00699   0.01138
  22        2PX        -0.01347  -0.01964   0.00125   0.00180  -0.00257
  23        2PY        -0.01974  -0.03663   0.00229   0.01129   0.02416
  24        2PZ        -0.00082  -0.00139   0.09566  -0.00064  -0.00023
  25        3S          0.02354   0.04196   0.00323  -0.02110  -0.03426
  26        3PX        -0.02075  -0.02789   0.00171   0.00113  -0.00678
  27        3PY        -0.02801  -0.05350   0.00313   0.01693   0.03631
  28        3PZ        -0.00136  -0.00229   0.15309  -0.00095  -0.00025
  29        4S          0.00882   0.01673   0.00415  -0.01841  -0.02554
  30        4PX        -0.01503  -0.01236   0.00153  -0.00153  -0.00811
  31        4PY        -0.01244  -0.02977   0.00286   0.01537   0.02747
  32        4PZ        -0.00165  -0.00282   0.14305  -0.00054   0.00027
  33 5   H  1S          0.00227  -0.01579  -0.00037   0.01118   0.02322
  34        2S          0.00961  -0.02740   0.00056   0.02374   0.04422
  35        3S          0.00771  -0.01575   0.00038   0.01664   0.02781
  36 6   H  1S         -0.01475  -0.00554  -0.00038  -0.00909  -0.01808
  37        2S         -0.02840  -0.00476   0.00054  -0.01886  -0.03416
  38        3S         -0.01730  -0.00095   0.00035  -0.01023  -0.01774
                          16        17        18        19        20
  16        3S          0.02069
  17 3   H  1S         -0.01779   0.08255
  18        2S         -0.02649   0.10970   0.14782
  19        3S         -0.01229   0.03578   0.05042   0.01979
  20 4   C  1S          0.00381   0.00431   0.00687   0.00382   0.65949
  21        2S          0.00563   0.00713   0.01146   0.00562   0.56160
  22        2PX        -0.00332   0.00889   0.02208   0.01667   0.00122
  23        2PY         0.01776   0.00729   0.00978   0.00585   0.00185
  24        2PZ         0.00003  -0.00064  -0.00019   0.00006   0.00009
  25        3S         -0.01462  -0.02145  -0.03440  -0.01452  -0.08936
  26        3PX        -0.00665   0.01421   0.03480   0.02600  -0.00046
  27        3PY         0.02674   0.00959   0.01226   0.00747  -0.00106
  28        3PZ         0.00007  -0.00094  -0.00020   0.00012   0.00020
  29        4S         -0.00646  -0.01819  -0.02473  -0.00594  -0.08013
  30        4PX        -0.00681   0.01396   0.02754   0.01707  -0.00018
  31        4PY         0.01616   0.00662   0.00692   0.00218  -0.00015
  32        4PZ         0.00030  -0.00054   0.00029   0.00032  -0.00004
  33 5   H  1S          0.01615  -0.00908  -0.01801  -0.00926  -0.02013
  34        2S          0.02729  -0.01873  -0.03374  -0.01669  -0.02202
  35        3S          0.01459  -0.01014  -0.01745  -0.00885   0.00065
  36 6   H  1S         -0.00939   0.01118   0.02303   0.01578  -0.01983
  37        2S         -0.01708   0.02381   0.04398   0.02678  -0.02199
  38        3S         -0.00909   0.01669   0.02766   0.01435   0.00053
                          21        22        23        24        25
  21        2S          0.49212
  22        2PX         0.00175   0.08276
  23        2PY         0.00264   0.00356   0.08768
  24        2PZ         0.00014   0.00015   0.00021   0.06414
  25        3S         -0.15441  -0.00560  -0.00858  -0.00017   0.45421
  26        3PX        -0.00069   0.12865   0.00189   0.00007  -0.00034
  27        3PY        -0.00161   0.00196   0.13156   0.00006   0.00068
  28        3PZ         0.00034   0.00022   0.00033   0.10265  -0.00066
  29        4S         -0.11581   0.01305   0.02185   0.00073   0.27873
  30        4PX        -0.00142   0.07385  -0.00523   0.00049   0.00603
  31        4PY        -0.00214  -0.00515   0.06765   0.00090   0.00951
  32        4PZ        -0.00015   0.00088   0.00158   0.09589   0.00087
  33 5   H  1S         -0.03206  -0.03349   0.06387  -0.00143   0.08572
  34        2S         -0.03519  -0.05011   0.08853  -0.00110   0.09416
  35        3S         -0.00053  -0.02306   0.03347  -0.00009   0.00544
  36 6   H  1S         -0.03161   0.07130   0.00288  -0.00134   0.08453
  37        2S         -0.03515   0.10140   0.00069  -0.00098   0.09400
  38        3S         -0.00068   0.04074  -0.00343  -0.00006   0.00572
                          26        27        28        29        30
  26        3PX         0.20031
  27        3PY        -0.00221   0.19795
  28        3PZ         0.00009   0.00009   0.16428
  29        4S          0.02440   0.04062   0.00091   0.18588
  30        4PX         0.11543  -0.01062   0.00077   0.01516   0.06759
  31        4PY        -0.01060   0.10232   0.00144   0.02393  -0.01054
  32        4PZ         0.00111   0.00201   0.15346   0.00221   0.00126
  33 5   H  1S         -0.05333   0.10004  -0.00236   0.06633  -0.03476
  34        2S         -0.08024   0.13817  -0.00183   0.07580  -0.05267
  35        3S         -0.03739   0.05156  -0.00015   0.00866  -0.02466
  36 6   H  1S          0.11257   0.00397  -0.00223   0.06677   0.06633
  37        2S          0.15990  -0.00033  -0.00168   0.07759   0.09471
  38        3S          0.06393  -0.00671  -0.00011   0.00972   0.03823
                          31        32        33        34        35
  31        4PY         0.05443
  32        4PZ         0.00236   0.14338
  33 5   H  1S          0.05623  -0.00122   0.08115
  34        2S          0.07786  -0.00046   0.11019   0.15216
  35        3S          0.02925   0.00020   0.03820   0.05538   0.02301
  36 6   H  1S         -0.00184  -0.00118  -0.01231  -0.02623  -0.02025
  37        2S         -0.00650  -0.00043  -0.02635  -0.04910  -0.03222
  38        3S         -0.00667   0.00019  -0.02049  -0.03238  -0.01602
                          36        37        38
  36 6   H  1S          0.08015
  37        2S          0.10977   0.15279
  38        3S          0.03843   0.05607   0.02341
    Full Mulliken population analysis:
                           1         2         3         4         5
   1 1   C  1S          0.65939
   2        2S          0.49323   0.49195
   3        2PX         0.00000   0.00000   0.08443
   4        2PY         0.00000   0.00000   0.00000   0.08764
   5        2PZ         0.00000   0.00000   0.00000   0.00000   0.06444
   6        3S         -0.02925  -0.06437   0.00000   0.00000   0.00000
   7        3PX         0.00000   0.00000   0.08222   0.00000   0.00000
   8        3PY         0.00000   0.00000   0.00000   0.08244   0.00000
   9        3PZ         0.00000   0.00000   0.00000   0.00000   0.06521
  10        4S         -0.01220  -0.02138   0.00000   0.00000   0.00000
  11        4PX         0.00000   0.00000   0.01538   0.00000   0.00000
  12        4PY         0.00000   0.00000   0.00000   0.01438   0.00000
  13        4PZ         0.00000   0.00000   0.00000   0.00000   0.02112
  14 2   H  1S         -0.00023  -0.00033   0.00185   0.00552   0.00000
  15        2S         -0.00168  -0.00321   0.00437   0.01306   0.00001
  16        3S          0.00004  -0.00007   0.00069   0.00189   0.00000
  17 3   H  1S         -0.00026  -0.00037   0.00796  -0.00000   0.00001
  18        2S         -0.00176  -0.00337   0.01773  -0.00000   0.00001
  19        3S          0.00005  -0.00007   0.00253   0.00000   0.00000
  20 4   C  1S          0.00000   0.00000  -0.00002  -0.00006   0.00000
  21        2S          0.00000  -0.00000  -0.00002  -0.00005   0.00000
  22        2PX        -0.00002  -0.00002   0.00011   0.00085   0.00000
  23        2PY        -0.00006  -0.00005   0.00085   0.00195   0.00000
  24        2PZ        -0.00000  -0.00000  -0.00000  -0.00000   0.00041
  25        3S         -0.00058  -0.00098   0.00256   0.00765  -0.00000
  26        3PX        -0.00053  -0.00097   0.00020   0.00554   0.00000
  27        3PY        -0.00160  -0.00294   0.00554   0.01070   0.00000
  28        3PZ        -0.00000  -0.00000  -0.00000  -0.00000   0.00608
  29        4S          0.00034   0.00030   0.00099   0.00299  -0.00000
  30        4PX        -0.00018  -0.00045  -0.00071   0.00147   0.00000
  31        4PY        -0.00052  -0.00132   0.00148   0.00099   0.00000
  32        4PZ        -0.00000  -0.00000  -0.00000  -0.00000   0.00903
  33 5   H  1S          0.00000   0.00000  -0.00000  -0.00000   0.00000
  34        2S          0.00001   0.00002   0.00000  -0.00031  -0.00000
  35        3S          0.00007   0.00012   0.00002  -0.00069  -0.00000
  36 6   H  1S          0.00000   0.00000  -0.00000  -0.00000   0.00000
  37        2S          0.00001   0.00002  -0.00023  -0.00006   0.00000
  38        3S          0.00007   0.00012  -0.00056  -0.00011  -0.00000
                           6         7         8         9        10
   6        3S          0.45224
   7        3PX         0.00000   0.20260
   8        3PY         0.00000   0.00000   0.19645
   9        3PZ         0.00000   0.00000   0.00000   0.16672
  10        4S          0.21153   0.00000   0.00000   0.00000   0.18251
  11        4PX         0.00000   0.07096   0.00000   0.00000   0.00000
  12        4PY         0.00000   0.00000   0.06421   0.00000   0.00000
  13        4PZ         0.00000   0.00000   0.00000   0.10080   0.00000
  14 2   H  1S          0.01608   0.01108   0.03189   0.00003   0.01845
  15        2S          0.04148   0.01993   0.05698   0.00003   0.04777
  16        3S          0.00287   0.00397   0.01013   0.00000   0.00882
  17 3   H  1S          0.01717   0.04442  -0.00000   0.00003   0.01866
  18        2S          0.04302   0.07713  -0.00000   0.00003   0.04723
  19        3S          0.00293   0.01373   0.00001   0.00000   0.00795
  20 4   C  1S         -0.00059  -0.00058  -0.00173   0.00000   0.00032
  21        2S         -0.00099  -0.00106  -0.00318   0.00000   0.00029
  22        2PX         0.00238   0.00019   0.00548   0.00000   0.00076
  23        2PY         0.00720   0.00550   0.01060   0.00000   0.00229
  24        2PZ         0.00000  -0.00000  -0.00000   0.00611   0.00000
  25        3S          0.02160   0.01353   0.04059  -0.00000   0.00032
  26        3PX         0.01235  -0.00126   0.01848   0.00000   0.00381
  27        3PY         0.03732   0.01851   0.02858   0.00000   0.01149
  28        3PZ         0.00000  -0.00000  -0.00000   0.03517   0.00000
  29        4S          0.00077   0.00509   0.01547  -0.00000  -0.02020
  30        4PX         0.00628  -0.00401   0.00590   0.00000   0.00179
  31        4PY         0.01864   0.00593   0.00130   0.00000   0.00498
  32        4PZ         0.00000  -0.00000  -0.00000   0.04933   0.00000
  33 5   H  1S         -0.00005  -0.00000  -0.00019   0.00000  -0.00075
  34        2S         -0.00117   0.00007  -0.00318  -0.00000  -0.00302
  35        3S         -0.00190   0.00012  -0.00420  -0.00000  -0.00107
  36 6   H  1S         -0.00005  -0.00012  -0.00005   0.00000  -0.00074
  37        2S         -0.00111  -0.00249  -0.00050  -0.00000  -0.00305
  38        3S         -0.00183  -0.00349  -0.00053  -0.00000  -0.00121
                          11        12        13        14        15
  11        4PX         0.05927
  12        4PY         0.00000   0.05069
  13        4PZ         0.00000   0.00000   0.14276
  14 2   H  1S          0.00645   0.01724   0.00001   0.08109
  15        2S          0.01551   0.04029   0.00001   0.07720   0.14929
  16        3S          0.00522   0.01168  -0.00000   0.01361   0.04097
  17 3   H  1S          0.02348   0.00001   0.00001  -0.00001  -0.00061
  18        2S          0.05447   0.00002   0.00001  -0.00061  -0.00502
  19        3S          0.01620   0.00002  -0.00000  -0.00192  -0.00755
  20 4   C  1S         -0.00019  -0.00059   0.00000   0.00000   0.00002
  21        2S         -0.00047  -0.00147   0.00000   0.00000   0.00003
  22        2PX        -0.00073   0.00136   0.00000  -0.00000   0.00000
  23        2PY         0.00137   0.00096   0.00000  -0.00000  -0.00037
  24        2PZ        -0.00000  -0.00000   0.00899   0.00000   0.00000
  25        3S          0.00661   0.02041  -0.00000  -0.00007  -0.00154
  26        3PX        -0.00425   0.00553   0.00000  -0.00000   0.00003
  27        3PY         0.00555   0.00128   0.00000  -0.00023  -0.00363
  28        3PZ        -0.00000  -0.00000   0.04885   0.00000   0.00000
  29        4S          0.00267   0.00877  -0.00000  -0.00109  -0.00464
  30        4PX        -0.00723   0.00313   0.00000   0.00001   0.00015
  31        4PY         0.00315  -0.00562   0.00000  -0.00247  -0.01043
  32        4PZ        -0.00000  -0.00000   0.08974   0.00000  -0.00000
  33 5   H  1S          0.00003  -0.00232   0.00000   0.00000   0.00000
  34        2S          0.00030  -0.00977  -0.00000   0.00000   0.00016
  35        3S          0.00031  -0.00725  -0.00000   0.00023   0.00147
  36 6   H  1S         -0.00175  -0.00046   0.00000  -0.00000  -0.00004
  37        2S         -0.00824  -0.00096  -0.00000  -0.00004  -0.00091
  38        3S         -0.00652  -0.00025  -0.00000  -0.00046  -0.00246
                          16        17        18        19        20
  16        3S          0.02069
  17 3   H  1S         -0.00194   0.08255
  18        2S         -0.00760   0.07749   0.14782
  19        3S         -0.00632   0.01337   0.03978   0.01979
  20 4   C  1S          0.00010   0.00000   0.00002   0.00010   0.65949
  21        2S          0.00017   0.00000   0.00003   0.00017   0.49333
  22        2PX         0.00001  -0.00000  -0.00029  -0.00059   0.00000
  23        2PY        -0.00075  -0.00000  -0.00008  -0.00014   0.00000
  24        2PZ        -0.00000   0.00000   0.00000  -0.00000   0.00000
  25        3S         -0.00255  -0.00008  -0.00158  -0.00255  -0.02942
  26        3PX         0.00005  -0.00017  -0.00296  -0.00368   0.00000
  27        3PY        -0.00450  -0.00007  -0.00068  -0.00069   0.00000
  28        3PZ        -0.00000   0.00000   0.00000  -0.00000   0.00000
  29        4S         -0.00244  -0.00109  -0.00453  -0.00226  -0.01232
  30        4PX         0.00016  -0.00189  -0.00881  -0.00678   0.00000
  31        4PY        -0.00765  -0.00059  -0.00145  -0.00057   0.00000
  32        4PZ        -0.00000   0.00000  -0.00000  -0.00000   0.00000
  33 5   H  1S          0.00023  -0.00000  -0.00004  -0.00043  -0.00022
  34        2S          0.00144  -0.00004  -0.00092  -0.00234  -0.00159
  35        3S          0.00247  -0.00047  -0.00245  -0.00284   0.00005
  36 6   H  1S         -0.00043   0.00000   0.00000   0.00022  -0.00020
  37        2S         -0.00237   0.00000   0.00016   0.00141  -0.00155
  38        3S         -0.00290   0.00023   0.00146   0.00242   0.00004
                          21        22        23        24        25
  21        2S          0.49212
  22        2PX         0.00000   0.08276
  23        2PY         0.00000   0.00000   0.08768
  24        2PZ         0.00000   0.00000   0.00000   0.06414
  25        3S         -0.06467   0.00000   0.00000   0.00000   0.45421
  26        3PX         0.00000   0.08094   0.00000   0.00000   0.00000
  27        3PY         0.00000   0.00000   0.08277   0.00000   0.00000
  28        3PZ         0.00000   0.00000   0.00000   0.06458   0.00000
  29        4S         -0.02167   0.00000   0.00000   0.00000   0.21593
  30        4PX         0.00000   0.01626   0.00000   0.00000   0.00000
  31        4PY         0.00000   0.00000   0.01490   0.00000   0.00000
  32        4PZ         0.00000   0.00000   0.00000   0.02112   0.00000
  33 5   H  1S         -0.00031   0.00148   0.00580   0.00000   0.01552
  34        2S         -0.00304   0.00379   0.01377   0.00001   0.03932
  35        3S         -0.00005   0.00067   0.00201   0.00000   0.00250
  36 6   H  1S         -0.00029   0.00687   0.00002   0.00000   0.01490
  37        2S         -0.00296   0.01729   0.00001   0.00001   0.03866
  38        3S         -0.00006   0.00272  -0.00002   0.00000   0.00261
                          26        27        28        29        30
  26        3PX         0.20031
  27        3PY         0.00000   0.19795
  28        3PZ         0.00000   0.00000   0.16428
  29        4S          0.00000   0.00000   0.00000   0.18588
  30        4PX         0.07543   0.00000   0.00000   0.00000   0.06759
  31        4PY         0.00000   0.06686   0.00000   0.00000   0.00000
  32        4PZ         0.00000   0.00000   0.10028   0.00000   0.00000
  33 5   H  1S          0.00880   0.03394   0.00003   0.01745   0.00569
  34        2S          0.01709   0.06046   0.00003   0.04351   0.01453
  35        3S          0.00381   0.01080   0.00000   0.00652   0.00534
  36 6   H  1S          0.04159   0.00011   0.00003   0.01739   0.02470
  37        2S          0.07712  -0.00001   0.00003   0.04420   0.05959
  38        3S          0.01488  -0.00012   0.00000   0.00728   0.01894
                          31        32        33        34        35
  31        4PY         0.05443
  32        4PZ         0.00000   0.14338
  33 5   H  1S          0.01891   0.00002   0.08115
  34        2S          0.04413   0.00001   0.07784   0.15216
  35        3S          0.01301  -0.00000   0.01427   0.04369   0.02301
  36 6   H  1S         -0.00005   0.00001  -0.00001  -0.00084  -0.00243
  37        2S         -0.00031   0.00001  -0.00085  -0.00698  -0.00998
  38        3S         -0.00025  -0.00000  -0.00246  -0.01003  -0.00866
                          36        37        38
  36 6   H  1S          0.08015
  37        2S          0.07754   0.15279
  38        3S          0.01436   0.04423   0.02341
     Gross orbital populations:
                           1
   1 1   C  1S          1.10435
   2        2S          0.88586
   3        2PX         0.22736
   4        2PY         0.23576
   5        2PZ         0.16631
   6        3S          0.79255
   7        3PX         0.56196
   8        3PY         0.55495
   9        3PZ         0.42346
  10        4S          0.50536
  11        4PX         0.25756
  12        4PY         0.21126
  13        4PZ         0.41229
  14 2   H  1S          0.27330
  15        2S          0.46667
  16        3S          0.08569
  17 3   H  1S          0.27780
  18        2S          0.46425
  19        3S          0.08194
  20 4   C  1S          1.10441
  21        2S          0.88584
  22        2PX         0.22228
  23        2PY         0.23622
  24        2PZ         0.16536
  25        3S          0.79290
  26        3PX         0.55213
  27        3PY         0.55738
  28        3PZ         0.41936
  29        4S          0.50532
  30        4PX         0.27688
  31        4PY         0.21749
  32        4PZ         0.41291
  33 5   H  1S          0.27354
  34        2S          0.46910
  35        3S          0.08849
  36 6   H  1S          0.27043
  37        2S          0.47045
  38        3S          0.09084
          Condensed to atoms (all electrons):
               1          2          3          4          5          6
     1  C    5.029653   0.387843   0.388971   0.601484  -0.034808  -0.034114
     2  H    0.387843   0.514627  -0.031562  -0.041632   0.006001  -0.009618
     3  H    0.388971  -0.031562   0.511435  -0.041226  -0.009531   0.005900
     4  C    0.601484  -0.041632  -0.041226   5.062876   0.383789   0.383189
     5  H   -0.034808   0.006001  -0.009531   0.383789   0.527925  -0.042242
     6  H   -0.034114  -0.009618   0.005900   0.383189  -0.042242   0.528602
 Mulliken charges:
               1
     1  C   -0.339029
     2  H    0.174342
     3  H    0.176014
     4  C   -0.348479
     5  H    0.168867
     6  H    0.168284
 Sum of Mulliken charges =   0.00000
 Mulliken charges with hydrogens summed into heavy atoms:
               1
     1  C    0.011328
     4  C   -0.011328
 Electronic spatial extent (au):  <R**2>=             83.7025
 Charge=              0.0000 electrons
 Dipole moment (field-independent basis, Debye):
    X=              0.0072    Y=              0.0342    Z=             -0.1181  Tot=              0.1231
 Quadrupole moment (field-independent basis, Debye-Ang):
   XX=            -12.2036   YY=            -12.2247   ZZ=            -15.6696
   XY=              0.0080   XZ=             -0.0018   YZ=             -0.0042
 Traceless Quadrupole moment (field-independent basis, Debye-Ang):
   XX=              1.1624   YY=              1.1412   ZZ=             -2.3036
   XY=              0.0080   XZ=             -0.0018   YZ=             -0.0042
 Octapole moment (field-independent basis, Debye-Ang**2):
  XXX=             -0.4332  YYY=             -0.0134  ZZZ=             -0.0620  XYY=              0.3007
  XXY=             -0.0143  XXZ=             -0.1546  XZZ=             -0.0994  YZZ=             -0.0877
  YYZ=             -0.2060  XYZ=             -0.0433
 Hexadecapole moment (field-independent basis, Debye-Ang**3):
 XXXX=            -34.2843 YYYY=            -55.2376 ZZZZ=            -17.8204 XXXY=             -7.2691
 XXXZ=              0.0266 YYYX=            -10.6974 YYYZ=              0.0335 ZZZX=              0.0340
 ZZZY=              0.0565 XXYY=            -16.1813 XXZZ=             -9.9196 YYZZ=            -13.6415
 XXYZ=              0.0110 YYXZ=             -0.0014 ZZXY=             -3.2039
 N-N= 3.307102817675D+01 E-N=-2.478530950804D+02  KE= 7.815487190618D+01
 Orbital energies and kinetic energies (alpha):
                                 1                 2
   1         O               -10.289940         15.977809
   2         O               -10.288282         15.980538
   3         O                -0.863815          1.536904
   4         O                -0.672618          1.271789
   5         O                -0.559996          0.942856
   6         O                -0.508856          1.284978
   7         O                -0.436519          1.044363
   8         O                -0.356674          1.038200
   9         V                 0.079470          1.182358
  10         V                 0.140908          0.589112
  11         V                 0.164958          0.592978
  12         V                 0.170266          0.679386
  13         V                 0.240761          0.583198
  14         V                 0.369859          0.845712
  15         V                 0.394021          0.934733
  16         V                 0.401977          0.793627
  17         V                 0.464409          1.194144
  18         V                 0.489336          1.414842
  19         V                 0.493932          1.302774
  20         V                 0.590967          1.652010
  21         V                 0.665837          1.572891
  22         V                 0.691880          2.147185
  23         V                 0.772942          2.394953
  24         V                 0.775275          2.349539
  25         V                 0.841072          1.083859
  26         V                 0.951001          3.419070
  27         V                 2.230817          3.931304
  28         V                 2.291554          4.024642
  29         V                 2.332734          4.307059
  30         V                 2.406446          4.515593
  31         V                 2.671053          6.300563
  32         V                 2.817467          6.304892
  33         V                 2.877987          6.142397
  34         V                 2.951440          6.226088
  35         V                 3.141002          6.819318
  36         V                 3.319856          6.403097
  37         V                23.352895         60.074970
  38         V                23.705225         60.203148
 Total kinetic energy from orbitals= 7.815487190618D+01
 Calling FoFJK, ICntrl=      2127 FMM=F ISym2X=0 I1Cent= 0 IOpClX= 0 NMat=1 NMatS=1 NMatT=0.
 -------------------------------------------------------------------
 Center     Atomic                   Forces (Hartrees/Bohr)
 Number     Number              X              Y              Z
 -------------------------------------------------------------------
      1        6           0.017180311    0.012072804   -0.004697964
      2        1          -0.011632976    0.005299068    0.002384777
      3        1           0.001393400   -0.006849114    0.002108376
      4        6           0.010139987    0.009781017   -0.005120130
      5        1          -0.000638934   -0.012593041    0.002592172
      6        1          -0.016441788   -0.007710734    0.002732770
 -------------------------------------------------------------------
 Cartesian Forces:  Max     0.017180311 RMS     0.008860175

 GradGradGradGradGradGradGradGradGradGradGradGradGradGradGradGradGradGrad
 Berny optimization.
 Search for a local minimum.
 Step number   1 out of a maximum of    2
 All quantities printed in internal units (Hartrees-Bohrs-Radians)
 Second derivative matrix not updated -- first step.
 The second derivative matrix:
                          X1        Y1        Z1        X2        Y2
           X1           0.76315
           Y1           0.09168   0.85294
           Z1           0.00673   0.01050   0.16887
           X2          -0.16763   0.09785   0.00256   0.14479
           Y2           0.10316  -0.27935  -0.00899  -0.11696   0.26789
           Z2           0.00404  -0.01128  -0.05425  -0.00372   0.00925
           X3          -0.35485   0.00262  -0.00972   0.00027   0.00018
           Y3          -0.00249  -0.11093  -0.00235   0.03215   0.01933
           Z3          -0.01247  -0.00225  -0.05552   0.00187   0.00074
           X4          -0.26627  -0.17736  -0.00079   0.02259   0.01361
           Y4          -0.17786  -0.47104  -0.00132  -0.01305  -0.00786
           Z4           0.00167   0.00298  -0.09383  -0.00071  -0.00100
           X5           0.02364  -0.01366   0.00076  -0.00001   0.00001
           Y5           0.01148  -0.00663   0.00102   0.00001  -0.00000
           Z5          -0.00060   0.00039   0.01764   0.00030  -0.00016
           X6           0.00196  -0.00113   0.00047  -0.00001   0.00001
           Y6          -0.02598   0.01501   0.00114   0.00001  -0.00000
           Z6           0.00063  -0.00033   0.01710  -0.00030   0.00016
                          Z2        X3        Y3        Z3        X4
           Z2           0.02826
           X3          -0.00032   0.35486
           Y3           0.00201  -0.00295   0.07617
           Z3           0.01056   0.01057   0.00150   0.02922
           X4           0.00061  -0.00026  -0.02672  -0.00059   0.71041
           Y4          -0.00032   0.00015   0.01543   0.00037   0.12367
           Z4           0.01538  -0.00052  -0.00115   0.01580  -0.00639
           X5          -0.00030  -0.00001   0.00001   0.00031  -0.14472
           Y5           0.00019   0.00001  -0.00000  -0.00020   0.09223
           Z5           0.00920   0.00030  -0.00019  -0.00937  -0.00374
           X6          -0.00031  -0.00001   0.00001   0.00031  -0.32175
           Y6           0.00016   0.00001  -0.00000  -0.00016  -0.02543
           Z6          -0.00915  -0.00030   0.00019   0.00932   0.01090
                          Y4        Z4        X5        Y5        Z5
           Y4           0.86163
           Z4          -0.01216   0.17763
           X5           0.08344  -0.00247   0.12360
           Y5          -0.29350   0.00898  -0.10252   0.28427
           Z5           0.01111  -0.05780   0.00329  -0.00960   0.03009
           X6          -0.01634   0.00842  -0.00250  -0.00120   0.00045
           Y6          -0.10466   0.00236   0.03273   0.01587  -0.00154
           Z6           0.00232  -0.05717  -0.00159  -0.00040   0.01024
                          X6        Y6        Z6
           X6           0.32231
           Y6           0.01866   0.07379
           Z6          -0.00934  -0.00195   0.02966
 ITU=  0
     Eigenvalues ---    0.03713   0.04383   0.09143   0.10116   0.13516
     Eigenvalues ---    0.17482   0.26296   0.29155   0.52947   0.70234
     Eigenvalues ---    0.97806   1.55820
 Angle between quadratic step and forces=  36.50 degrees.
 Linear search not attempted -- first point.
 B after Tr=     0.008252    0.009997   -0.012174
         Rot=    1.000000   -0.000073    0.000040   -0.000123 Ang=  -0.02 deg.
 Variable       Old X    -DE/DX   Delta X   Delta X   Delta X     New X
                                 (Linear)    (Quad)   (Total)
    X1       -0.63748   0.01718   0.00000   0.02469   0.03321  -0.60426
    Y1       -1.10262   0.01207   0.00000   0.02897   0.03881  -1.06381
    Z1        0.01491  -0.00470   0.00000  -0.02614  -0.03852  -0.02361
    X2        0.43428  -0.01163   0.00000  -0.04790  -0.03894   0.39534
    Y2       -2.87854   0.00530   0.00000   0.01961   0.02971  -2.84883
    Z2       -0.05081   0.00238   0.00000   0.03219   0.01963  -0.03117
    X3       -2.68464   0.00139   0.00000   0.02652   0.03505  -2.64959
    Y3       -1.08131  -0.00685   0.00000  -0.03249  -0.02315  -1.10446
    Z3       -0.05134   0.00211   0.00000   0.03106   0.01851  -0.03283
    X4        0.62846   0.01014   0.00000   0.00944   0.01742   0.64589
    Y4        1.08888   0.00978   0.00000   0.01245   0.02260   1.11148
    Z4        0.01030  -0.00512   0.00000  -0.02423  -0.03619  -0.02588
    X5       -0.28240  -0.00064   0.00000  -0.02521  -0.01768  -0.30008
    Y5        2.96053  -0.01259   0.00000  -0.03940  -0.02948   2.93105
    Z5       -0.05857   0.00259   0.00000   0.03063   0.01885  -0.03972
    X6        2.72270  -0.01644   0.00000  -0.03702  -0.02906   2.69364
    Y6        1.24562  -0.00771   0.00000  -0.04916  -0.03850   1.20712
    Z6       -0.05720   0.00273   0.00000   0.02950   0.01771  -0.03948
         Item               Value     Threshold  Converged?
 Maximum Force            0.017180     0.000450     NO 
 RMS     Force            0.008860     0.000300     NO 
 Maximum Displacement     0.038943     0.001800     NO 
 RMS     Displacement     0.029141     0.001200     NO 
 Predicted change in Energy=-1.980558D-03
 GradGradGradGradGradGradGradGradGradGradGradGradGradGradGradGradGradGrad

 Unable to Open any file for archive entry.
 1\1\GINC-BHD0005\Force\RwB97XD\6-311G\C2H4\BWEIGHT\11-Jan-2023\0\\# WB
 97XD/6-311G SCF=XQC FORCE nosym pop=full guess=read\\MD Step 1000\\0,1
 \C,-0.33733845,-0.583484,0.00788904\H,0.2298109,-1.52325561,-0.0268861
 3\H,-1.42064768,-0.57220629,-0.0271677\C,0.33256829,0.57621076,0.00545
 314\H,-0.14943955,1.5666437,-0.0309959\H,1.44078854,0.65915117,-0.0302
 6678\\Version=ES64L-G16RevC.01\HF=-78.5550897\RMSD=5.932e-09\RMSF=8.86
 0e-03\Dipole=0.0028521,0.0134561,-0.0464495\Quadrupole=0.8642044,0.848
 4653,-1.7126697,0.0059843,-0.0013247,-0.0031255\PG=C01 [X(C2H4)]\\@
 The archive entry for this job was punched.


  THE LARGE PRINT GIVETH,
  AND THE SMALL PRINT TAKETH AWAY.

                     -- TOM WAITS
 Job cpu time:       0 days  0 hours  0 minutes 43.5 seconds.
 Elapsed time:       0 days  0 hours  0 minutes 15.6 seconds.
 File lengths (MBytes):  RWF=    272 Int=      0 D2E=      0 Chk=     32 Scr=     32
 Normal termination of Gaussian 16 at Wed Jan 11 18:35:35 2023.
