 Entering Gaussian System, Link 0=g16
 Initial command:
 /software/gaussian/g16-c01/avx2/g16/l1.exe "/gpfs/fs2/scratch/bweight/software/many_molecule_many_mode_NAMD/src/NAMD/TEST_SPINLSC/G16/TD_NEW_S1/Gau-17430.inp" -scrdir="/gpfs/fs2/scratch/bweight/software/many_molecule_many_mode_NAMD/src/NAMD/TEST_SPINLSC/G16/TD_NEW_S1/"
 Entering Link 1 = /software/gaussian/g16-c01/avx2/g16/l1.exe PID=     17431.
  
 Copyright (c) 1988-2019, Gaussian, Inc.  All Rights Reserved.
  
 This is part of the Gaussian(R) 16 program.  It is based on
 the Gaussian(R) 09 system (copyright 2009, Gaussian, Inc.),
 the Gaussian(R) 03 system (copyright 2003, Gaussian, Inc.),
 the Gaussian(R) 98 system (copyright 1998, Gaussian, Inc.),
 the Gaussian(R) 94 system (copyright 1995, Gaussian, Inc.),
 the Gaussian 92(TM) system (copyright 1992, Gaussian, Inc.),
 the Gaussian 90(TM) system (copyright 1990, Gaussian, Inc.),
 the Gaussian 88(TM) system (copyright 1988, Gaussian, Inc.),
 the Gaussian 86(TM) system (copyright 1986, Carnegie Mellon
 University), and the Gaussian 82(TM) system (copyright 1983,
 Carnegie Mellon University). Gaussian is a federally registered
 trademark of Gaussian, Inc.
  
 This software contains proprietary and confidential information,
 including trade secrets, belonging to Gaussian, Inc.
  
 This software is provided under written license and may be
 used, copied, transmitted, or stored only in accord with that
 written license.
  
 The following legend is applicable only to US Government
 contracts under FAR:
  
                    RESTRICTED RIGHTS LEGEND
  
 Use, reproduction and disclosure by the US Government is
 subject to restrictions as set forth in subparagraphs (a)
 and (c) of the Commercial Computer Software - Restricted
 Rights clause in FAR 52.227-19.
  
 Gaussian, Inc.
 340 Quinnipiac St., Bldg. 40, Wallingford CT 06492
  
  
 ---------------------------------------------------------------
 Warning -- This program may not be used in any manner that
 competes with the business of Gaussian, Inc. or will provide
 assistance to any competitor of Gaussian, Inc.  The licensee
 of this program is prohibited from giving any competitor of
 Gaussian, Inc. access to this program.  By using this program,
 the user acknowledges that Gaussian, Inc. is engaged in the
 business of creating and licensing software in the field of
 computational chemistry and represents and warrants to the
 licensee that it is not a competitor of Gaussian, Inc. and that
 it will not use this program in any manner prohibited above.
 ---------------------------------------------------------------
  

 Cite this work as:
 Gaussian 16, Revision C.01,
 M. J. Frisch, G. W. Trucks, H. B. Schlegel, G. E. Scuseria, 
 M. A. Robb, J. R. Cheeseman, G. Scalmani, V. Barone, 
 G. A. Petersson, H. Nakatsuji, X. Li, M. Caricato, A. V. Marenich, 
 J. Bloino, B. G. Janesko, R. Gomperts, B. Mennucci, H. P. Hratchian, 
 J. V. Ortiz, A. F. Izmaylov, J. L. Sonnenberg, D. Williams-Young, 
 F. Ding, F. Lipparini, F. Egidi, J. Goings, B. Peng, A. Petrone, 
 T. Henderson, D. Ranasinghe, V. G. Zakrzewski, J. Gao, N. Rega, 
 G. Zheng, W. Liang, M. Hada, M. Ehara, K. Toyota, R. Fukuda, 
 J. Hasegawa, M. Ishida, T. Nakajima, Y. Honda, O. Kitao, H. Nakai, 
 T. Vreven, K. Throssell, J. A. Montgomery, Jr., J. E. Peralta, 
 F. Ogliaro, M. J. Bearpark, J. J. Heyd, E. N. Brothers, K. N. Kudin, 
 V. N. Staroverov, T. A. Keith, R. Kobayashi, J. Normand, 
 K. Raghavachari, A. P. Rendell, J. C. Burant, S. S. Iyengar, 
 J. Tomasi, M. Cossi, J. M. Millam, M. Klene, C. Adamo, R. Cammi, 
 J. W. Ochterski, R. L. Martin, K. Morokuma, O. Farkas, 
 J. B. Foresman, and D. J. Fox, Gaussian, Inc., Wallingford CT, 2019.
 
 ******************************************
 Gaussian 16:  ES64L-G16RevC.01  3-Jul-2019
                 5-Jan-2023 
 ******************************************
 %oldchk=../GS_NEW/geometry.chk
 %chk=geometry.chk
 %nprocshared=1
 Will use up to    1 processors via shared memory.
 %mem=5GB
 Copying data from "../GS_NEW/geometry.chk" to current chk file "geometry.chk"
 IOpt=  2 FromEx=T IUOpen= 4 IOptOp= 5 NList=   0 IFRang= 0 IUIn= 4 IUOut= 2.
 ----------------------------------------------------------------------
 # WB97XD/6-311G SCF=XQC TD=(singlets,nstates=2,root=1) FORCE nosym pop
 =full guess=read
 ----------------------------------------------------------------------
 1/10=7,30=1,38=1/1,3;
 2/12=2,15=1,17=6,18=5,40=1/2;
 3/5=4,6=6,11=9,25=1,30=1,71=1,74=-58,116=-2/1,2,3,8;
 4/5=1/1;
 5/5=2,8=3,13=1,38=6/2,8;
 8/6=1,10=2,107=1,108=2/1;
 9/8=1,15=2,41=2,42=1,48=1,70=2/14;
 10/5=4,28=1,31=1/2;
 6/7=3,18=1/1;
 7/12=6,13=5,14=1,29=1,30=1/1,2,3,16;
 1/10=7,30=1/3;
 99//99;
 ------------
 MD Step 1000
 ------------
 Symbolic Z-matrix:
 Charge =  0 Multiplicity = 1
 C                    -0.27004  -0.08547  -0.03439 
 H                     0.05808  -1.11773  -0.15572 
 H                    -1.36365   0.17589  -0.27978 
 C                     0.72186   0.89219   0.0218 
 H                     0.32332   1.90136  -0.26089 
 H                     1.78731   0.53627  -0.22657 
 

 GradGradGradGradGradGradGradGradGradGradGradGradGradGradGradGradGradGrad
 Berny optimization.
 Initialization pass.
 Trust Radius=3.00D-01 FncErr=1.00D-07 GrdErr=1.00D-07 EigMax=2.50D+02 EigMin=1.00D-04
 Number of steps in this run=      2 maximum allowed number of steps=      2.
 GradGradGradGradGradGradGradGradGradGradGradGradGradGradGradGradGradGrad

                          Input orientation:                          
 ---------------------------------------------------------------------
 Center     Atomic      Atomic             Coordinates (Angstroms)
 Number     Number       Type             X           Y           Z
 ---------------------------------------------------------------------
      1          6           0       -0.270037   -0.085467   -0.034393
      2          1           0        0.058079   -1.117727   -0.155723
      3          1           0       -1.363653    0.175889   -0.279780
      4          6           0        0.721863    0.892189    0.021801
      5          1           0        0.323322    1.901356   -0.260889
      6          1           0        1.787313    0.536266   -0.226573
 ---------------------------------------------------------------------
                    Distance matrix (angstroms):
                    1          2          3          4          5
     1  C    0.000000
     2  H    1.089927   0.000000
     3  H    1.150878   1.926176   0.000000
     4  C    1.393856   2.124120   2.225627   0.000000
     5  H    2.085867   3.032536   2.413188   1.121234   0.000000
     6  H    2.157817   2.393943   3.171954   1.150458   2.001978
                    6
     6  H    0.000000
 Symmetry turned off by external request.
 Stoichiometry    C2H4
 Framework group  C1[X(C2H4)]
 Deg. of freedom    12
 Full point group                 C1      NOp   1
 Rotational constants (GHZ):         124.4794962          28.6034637          23.6608270
 Standard basis: 6-311G (5D, 7F)
    38 basis functions,    72 primitive gaussians,    38 cartesian basis functions
     8 alpha electrons        8 beta electrons
       nuclear repulsion energy        32.1665782850 Hartrees.
 NAtoms=    6 NActive=    6 NUniq=    6 SFac= 1.00D+00 NAtFMM=   60 NAOKFM=F Big=F
 Integral buffers will be    131072 words long.
 Raffenetti 1 integral format.
 Two-electron integral symmetry is turned off.
 Nuclear repulsion after empirical dispersion term =       32.1656515130 Hartrees.
 One-electron integrals computed using PRISM.
 NBasis=    38 RedAO= T EigKep=  7.28D-03  NBF=    38
 NBsUse=    38 1.00D-06 EigRej= -1.00D+00 NBFU=    38
 Initial guess from the checkpoint file:  "geometry.chk"
 B after Tr=     0.000000    0.000000    0.000000
         Rot=    1.000000    0.000000    0.000000    0.000000 Ang=   0.00 deg.
 Keep R1 ints in memory in canonical form, NReq=1444237.
 Requested convergence on RMS density matrix=1.00D-08 within  32 cycles.
 Requested convergence on MAX density matrix=1.00D-06.
 Requested convergence on             energy=1.00D-06.
 No special actions if energy rises.
 SCF Done:  E(RwB97XD) =  -78.5321283638     A.U. after    1 cycles
            NFock=  1  Conv=0.13D-08     -V/T= 2.0082
 QCSCF skips out because SCF is already converged.
 DoSCS=F DFT=T ScalE2(SS,OS)=  1.000000  1.000000
 ExpMin= 1.03D-01 ExpMax= 4.56D+03 ExpMxC= 6.82D+02 IAcc=3 IRadAn=         5 AccDes= 0.00D+00
 HarFok:  IExCor=  205 AccDes= 0.00D+00 IRadAn=         5 IDoV=-2 UseB2=F ITyADJ=14
 ICtDFT= 12500011 ScaDFX=  1.000000  1.000000  1.000000  1.000000
 Range of M.O.s used for correlation:     3    38
 NBasis=    38 NAE=     8 NBE=     8 NFC=     2 NFV=     0
 NROrb=     36 NOA=     6 NOB=     6 NVA=    30 NVB=    30
 Keep R1, R2, and R3 ints in memory in canonical form, NReq=2642900.
     8 initial guesses have been made.
 Convergence on wavefunction:    0.000001000000000
 Iteration     1 Dimension     8 NMult     0 NNew      8
 CISAX will form     8 AO SS matrices at one time.
 New state      1 was old state      3
 Iteration     2 Dimension    12 NMult     8 NNew      4
 Iteration     3 Dimension    16 NMult    12 NNew      4
 New state      1 was old state      2
 New state      2 was old state      1
 Iteration     4 Dimension    20 NMult    16 NNew      4
 Iteration     5 Dimension    24 NMult    20 NNew      4
 Iteration     6 Dimension    28 NMult    24 NNew      4
 Iteration     7 Dimension    32 NMult    28 NNew      4
 Iteration     8 Dimension    36 NMult    32 NNew      4
 Iteration     9 Dimension    40 NMult    36 NNew      4
 Iteration    10 Dimension    44 NMult    40 NNew      4
 ***********************************************************************
 Excited states from <AA,BB:AA,BB> singles matrix:
 ***********************************************************************
 
 Ground to excited state transition densities written to RWF  633
 Ground to excited state transition electric dipole moments (Au):
       state          X           Y           Z        Dip. S.      Osc.
         1         0.9442      0.9330      0.0831      1.7689      0.3155
         2         0.0703     -0.1168      0.0320      0.0196      0.0037
 Ground to excited state transition velocity dipole moments (Au):
       state          X           Y           Z        Dip. S.      Osc.
         1        -0.2107     -0.2059     -0.0163      0.0871      0.2170
         2        -0.0287      0.0446     -0.0125      0.0030      0.0069
 Ground to excited state transition magnetic dipole moments (Au):
       state          X           Y           Z
         1        -0.4342      0.4039      0.0430
         2        -1.0870     -0.7923      0.0583
 Ground to excited state transition velocity quadrupole moments (Au):
       state          XX          YY          ZZ          XY          XZ          YZ
         1        -0.1792     -0.3267     -0.0099     -0.2436     -0.0706     -0.0777
         2        -0.0730      0.0996      0.0207      0.0070      0.1458     -0.1666
 <0|del|b> * <b|rxdel|0> + <0|del|b> * <b|delr+rdel|0>
 Rotatory Strengths (R) in cgs (10**-40 erg-esu-cm/Gauss)
       state          XX          YY          ZZ    R(velocity)    E-M Angle
         1      -124.7839    136.3878      8.5804      6.7281       87.51
         2       -52.6732     43.7371     -2.9084     -3.9482       93.75
 1/2[<0|r|b>*<b|rxdel|0> + (<0|rxdel|b>*<b|r|0>)*]
 Rotatory Strengths (R) in cgs (10**-40 erg-esu-cm/Gauss)
       state          XX          YY          ZZ     R(length)
         1       289.9017   -266.4885     -2.5309      6.9608
         2        54.0417    -65.4483     -1.3186     -4.2417
  1/2[<0|del|b>*<b|r|0> + (<0|r|b>*<b|del|0>)*] (Au)
       state          X           Y           Z        Dip. S.   Osc.(frdel)
         1        -0.1990     -0.1921     -0.0014      0.3924      0.2616
         2        -0.0020     -0.0052     -0.0004      0.0076      0.0051

 Excitation energies and oscillator strengths:
 
 Excited state symmetry could not be determined.
 Excited State   1:      Singlet-?Sym    7.2789 eV  170.33 nm  f=0.3155  <S**2>=0.000
       6 ->  9         0.13010
       8 ->  9         0.68969
       8 <-  9        -0.10456
 This state for optimization and/or second-order correction.
 Total Energy, E(TD-HF/TD-DFT) =  -78.2646326790    
 Copying the excited state density for this state as the 1-particle RhoCI density.
 
 Excited state symmetry could not be determined.
 Excited State   2:      Singlet-?Sym    7.7844 eV  159.27 nm  f=0.0037  <S**2>=0.000
       7 ->  9         0.69791
 SavETr:  write IOETrn=   770 NScale= 10 NData=  16 NLR=1 NState=    2 LETran=      46.
          IDoAtm=111111
          Differentiating once with respect to electric field.
                with respect to dipole field.
          Differentiating once with respect to nuclear coordinates.
 Keep R1 ints in memory in canonical form, NReq=1448038.
          There are     1 degrees of freedom in the 1st order CPHF.  IDoFFX=0 NUNeed=     1.
 LinEq1:  Iter=  0 NonCon=     1 RMS=1.30D-02 Max=7.42D-02 NDo=     1
 AX will form     1 AO Fock derivatives at one time.
 LinEq1:  Iter=  1 NonCon=     1 RMS=5.63D-03 Max=3.78D-02 NDo=     1
 LinEq1:  Iter=  2 NonCon=     1 RMS=1.43D-03 Max=1.15D-02 NDo=     1
 LinEq1:  Iter=  3 NonCon=     1 RMS=8.59D-04 Max=8.87D-03 NDo=     1
 LinEq1:  Iter=  4 NonCon=     1 RMS=2.03D-04 Max=1.70D-03 NDo=     1
 LinEq1:  Iter=  5 NonCon=     1 RMS=1.89D-05 Max=1.19D-04 NDo=     1
 LinEq1:  Iter=  6 NonCon=     1 RMS=2.08D-06 Max=9.29D-06 NDo=     1
 LinEq1:  Iter=  7 NonCon=     1 RMS=3.44D-07 Max=2.78D-06 NDo=     1
 LinEq1:  Iter=  8 NonCon=     1 RMS=5.96D-08 Max=5.11D-07 NDo=     1
 LinEq1:  Iter=  9 NonCon=     1 RMS=8.11D-09 Max=4.96D-08 NDo=     1
 LinEq1:  Iter= 10 NonCon=     1 RMS=7.11D-10 Max=4.21D-09 NDo=     1
 LinEq1:  Iter= 11 NonCon=     0 RMS=9.16D-11 Max=4.97D-10 NDo=     1
 Linear equations converged to 1.000D-10 1.000D-09 after    11 iterations.
 End of Minotr F.D. properties file   721 does not exist.
 End of Minotr F.D. properties file   722 does not exist.
 End of Minotr F.D. properties file   788 does not exist.

 **********************************************************************

            Population analysis using the SCF Density.

 **********************************************************************

 Alpha  occ. eigenvalues --  -10.30343 -10.30247  -0.85595  -0.66299  -0.55826
 Alpha  occ. eigenvalues --   -0.48673  -0.44122  -0.34946
 Alpha virt. eigenvalues --    0.05501   0.12960   0.15628   0.17210   0.23751
 Alpha virt. eigenvalues --    0.34718   0.37886   0.40005   0.47469   0.48852
 Alpha virt. eigenvalues --    0.50056   0.58462   0.64955   0.65695   0.71023
 Alpha virt. eigenvalues --    0.75096   0.76728   0.91630   2.23669   2.29931
 Alpha virt. eigenvalues --    2.31967   2.34252   2.66609   2.79919   2.89006
 Alpha virt. eigenvalues --    2.94344   3.06949   3.24122  23.34775  23.65741
     Molecular Orbital Coefficients:
                           1         2         3         4         5
                           O         O         O         O         O
     Eigenvalues --   -10.30343 -10.30247  -0.85595  -0.66299  -0.55826
   1 1   C  1S          0.18113   0.53361  -0.08630   0.06810   0.00426
   2        2S          0.14922   0.43905  -0.13639   0.10934   0.00683
   3        2PX         0.00022  -0.00013   0.03829   0.04688   0.10185
   4        2PY         0.00021  -0.00014   0.03160   0.06564  -0.10071
   5        2PZ         0.00003   0.00002  -0.00430   0.01097   0.00662
   6        3S          0.00379   0.01356   0.36723  -0.30037  -0.01808
   7        3PX        -0.00064   0.00071   0.05133   0.07270   0.16318
   8        3PY        -0.00071   0.00054   0.04135   0.09923  -0.15605
   9        3PZ        -0.00015  -0.00012  -0.00775   0.01954   0.01132
  10        4S          0.00121  -0.01390   0.19760  -0.25949  -0.02368
  11        4PX         0.00161  -0.00243   0.00677   0.02977   0.09781
  12        4PY         0.00171  -0.00199   0.00922   0.03919  -0.09442
  13        4PZ         0.00014   0.00026  -0.00452   0.01066   0.00744
  14 2   H  1S         -0.00006  -0.00008   0.05645  -0.10106   0.09292
  15        2S         -0.00029   0.00022   0.05742  -0.12031   0.11381
  16        3S          0.00100   0.00171   0.00019  -0.01868   0.03454
  17 3   H  1S         -0.00004   0.00002   0.04759  -0.08444  -0.09655
  18        2S         -0.00028   0.00009   0.05077  -0.10656  -0.12362
  19        3S          0.00084   0.00137  -0.00230  -0.01544  -0.03904
  20 4   C  1S          0.53361  -0.18127  -0.08488  -0.06904  -0.00333
  21        2S          0.43912  -0.14897  -0.13423  -0.11065  -0.00528
  22        2PX        -0.00012  -0.00021  -0.03778   0.03533   0.10632
  23        2PY        -0.00013  -0.00021  -0.03528   0.04623  -0.09669
  24        2PZ        -0.00014   0.00005  -0.01137  -0.01566   0.00346
  25        3S          0.01304  -0.00525   0.36126   0.30322   0.01362
  26        3PX        -0.00016   0.00092  -0.05341   0.05566   0.17142
  27        3PY        -0.00008   0.00090  -0.04916   0.07137  -0.15192
  28        3PZ        -0.00023   0.00006  -0.02016  -0.02808   0.00488
  29        4S         -0.01065   0.00918   0.20074   0.25840   0.01876
  30        4PX         0.00105  -0.00266  -0.00743   0.02148   0.08189
  31        4PY         0.00085  -0.00266  -0.01142   0.02782  -0.07588
  32        4PZ         0.00064  -0.00038  -0.00735  -0.01455   0.00168
  33 5   H  1S         -0.00007   0.00002   0.05383   0.08850  -0.09264
  34        2S          0.00005  -0.00034   0.05540   0.10847  -0.12429
  35        3S          0.00187  -0.00016  -0.00096   0.01581  -0.04159
  36 6   H  1S         -0.00002  -0.00002   0.04937   0.07951   0.10049
  37        2S         -0.00001  -0.00030   0.05150   0.10116   0.13752
  38        3S          0.00167  -0.00019  -0.00299   0.01427   0.04713
                           6         7         8         9        10
                           O         O         O         V         V
     Eigenvalues --    -0.48673  -0.44122  -0.34946   0.05501   0.12960
   1 1   C  1S          0.01025   0.00261  -0.00251  -0.01320  -0.03677
   2        2S          0.01633   0.00433  -0.00412  -0.02187  -0.05921
   3        2PX        -0.13130   0.08718  -0.04278  -0.02277  -0.05547
   4        2PY        -0.12181  -0.10889  -0.02835  -0.00328  -0.04343
   5        2PZ        -0.03958   0.00611   0.17068   0.18731  -0.01005
   6        3S         -0.05350  -0.01238   0.01174   0.06889   0.13671
   7        3PX        -0.20261   0.13971  -0.06277  -0.03526  -0.07007
   8        3PY        -0.18333  -0.16997  -0.03968  -0.00608  -0.05330
   9        3PZ        -0.06282   0.01024   0.27208   0.27452  -0.01739
  10        4S         -0.00476  -0.01879   0.04164   0.02520   1.12247
  11        4PX        -0.11341   0.08740  -0.04771  -0.13472  -0.32984
  12        4PY        -0.09856  -0.10574  -0.02882  -0.06113  -0.29674
  13        4PZ        -0.03747   0.00698   0.27093   0.61170  -0.05284
  14 2   H  1S          0.06125   0.12416   0.00076  -0.01709  -0.01838
  15        2S          0.08886   0.19194   0.00783  -0.01716  -0.05308
  16        3S          0.03734   0.08667   0.00729  -0.04685  -0.74027
  17 3   H  1S          0.08084  -0.11283   0.00448  -0.02347  -0.02249
  18        2S          0.11871  -0.18245   0.01732  -0.04136  -0.05366
  19        3S          0.04895  -0.08392   0.01138  -0.09349  -0.81140
  20 4   C  1S          0.00217   0.00089  -0.01127   0.02084  -0.03647
  21        2S          0.00316   0.00152  -0.01839   0.03431  -0.05851
  22        2PX         0.13571  -0.08381   0.02985  -0.01576   0.05193
  23        2PY         0.12761   0.10743   0.03473  -0.01737   0.05169
  24        2PZ        -0.03462  -0.00437   0.17374  -0.17987  -0.03179
  25        3S         -0.01768  -0.00508   0.05496  -0.10230   0.12921
  26        3PX         0.20501  -0.13576   0.04226  -0.02328   0.06337
  27        3PY         0.18940   0.17159   0.05004  -0.02467   0.06425
  28        3PZ        -0.05577  -0.00671   0.27629  -0.26012  -0.04865
  29        4S          0.05991  -0.00106   0.06146  -0.15773   1.20264
  30        4PX         0.10631  -0.08645   0.03997  -0.10650   0.25149
  31        4PY         0.09486   0.10615   0.05056  -0.10685   0.27070
  32        4PZ        -0.03595  -0.00434   0.27268  -0.59388  -0.17821
  33 5   H  1S          0.07044   0.12238  -0.00396   0.03125  -0.02723
  34        2S          0.10478   0.19049   0.00742   0.04754  -0.07459
  35        3S          0.04532   0.08678   0.00400   0.09935  -0.79552
  36 6   H  1S          0.08457  -0.10826  -0.00071   0.03795  -0.02338
  37        2S          0.12613  -0.17269   0.01537   0.06992  -0.05525
  38        3S          0.05284  -0.07912   0.00666   0.14471  -0.75356
                          11        12        13        14        15
                           V         V         V         V         V
     Eigenvalues --     0.15628   0.17210   0.23751   0.34718   0.37886
   1 1   C  1S         -0.01780  -0.03998   0.00134  -0.02016  -0.00588
   2        2S         -0.02887  -0.06469   0.00224  -0.03281  -0.01300
   3        2PX        -0.08594   0.00364  -0.08746   0.06717  -0.01631
   4        2PY         0.06497  -0.05813   0.08140   0.07775  -0.00890
   5        2PZ        -0.02700  -0.02822  -0.00768   0.02444  -0.01234
   6        3S          0.06580   0.13778  -0.00566   0.04785   0.07916
   7        3PX        -0.11546   0.02056  -0.10744   0.13108   0.04255
   8        3PY         0.09739  -0.06175   0.09262   0.15153   0.05580
   9        3PZ        -0.03685  -0.03754  -0.01222   0.02737  -0.03157
  10        4S          0.48057   1.40092  -0.10977   2.46970  -0.29621
  11        4PX        -0.47359   0.10732  -0.83324   1.51676  -1.13533
  12        4PY         0.38154  -0.28169   0.82630   1.51484  -1.43608
  13        4PZ        -0.15700  -0.18316  -0.05282   0.29880  -0.16399
  14 2   H  1S          0.01336  -0.02968  -0.00705   0.02214  -0.05821
  15        2S          0.05631  -0.03595  -0.00046   0.12536  -0.83661
  16        3S          0.58539  -1.34849   1.55479   0.42696  -0.07413
  17 3   H  1S         -0.04100  -0.01698  -0.00294   0.01143  -0.06365
  18        2S         -0.09683   0.00195  -0.01286   0.11393  -0.79181
  19        3S         -1.23184  -0.51238  -1.42848   0.41018   0.10727
  20 4   C  1S          0.01960   0.03899   0.00043   0.01252  -0.01501
  21        2S          0.03180   0.06317   0.00084   0.01833  -0.02633
  22        2PX        -0.08488   0.01324   0.08844   0.06827  -0.02563
  23        2PY         0.06563  -0.05465  -0.08096   0.07012  -0.03429
  24        2PZ         0.02385   0.04067   0.00141  -0.03712  -0.00095
  25        3S         -0.07366  -0.13832  -0.00541   0.01294   0.05699
  26        3PX        -0.11411   0.03604   0.10486   0.09374  -0.11778
  27        3PY         0.10140  -0.05664  -0.09228   0.09894  -0.13936
  28        3PZ         0.03370   0.05835  -0.00117  -0.07452  -0.01694
  29        4S         -0.54418  -1.30158  -0.00446  -2.26777   1.68419
  30        4PX        -0.47047   0.14750   0.84121   1.75455  -0.27682
  31        4PY         0.36338  -0.25899  -0.83927   1.80929   0.01340
  32        4PZ         0.13732   0.25562   0.03369  -0.19899  -0.12771
  33 5   H  1S         -0.01557   0.03119  -0.00592  -0.06680  -0.03919
  34        2S         -0.05489   0.03586   0.01345  -0.55353  -0.65847
  35        3S         -0.53347   1.32302   1.42590  -0.18153   0.33520
  36 6   H  1S          0.04057   0.01525   0.00123  -0.05778  -0.04059
  37        2S          0.08935   0.00050  -0.00966  -0.50387  -0.52541
  38        3S          1.27684   0.42500  -1.43275  -0.18351   0.39090
                          16        17        18        19        20
                           V         V         V         V         V
     Eigenvalues --     0.40005   0.47469   0.48852   0.50056   0.58462
   1 1   C  1S         -0.00745  -0.02219   0.03477   0.02811   0.00720
   2        2S         -0.01203  -0.03098   0.06190   0.05081   0.01319
   3        2PX        -0.02139  -0.05457  -0.06971  -0.02030  -0.03477
   4        2PY         0.02764  -0.04961  -0.05976  -0.03235  -0.02213
   5        2PZ        -0.00929  -0.00847   0.06381  -0.14701   0.18294
   6        3S          0.01417  -0.16687  -0.21673  -0.19623  -0.03594
   7        3PX        -0.08818  -0.28715  -0.21595  -0.04971  -0.11455
   8        3PY         0.06826  -0.29669  -0.18294  -0.10199  -0.06522
   9        3PZ        -0.02044  -0.04018   0.25192  -0.60429   0.64767
  10        4S          0.17215   1.67685  -2.18352  -1.30712  -0.32999
  11        4PX        -0.25212   0.99845  -0.65009  -0.56739  -0.10467
  12        4PY         0.52605   0.87559  -0.45978  -0.25114  -0.15085
  13        4PZ        -0.07293  -0.10361  -0.09370   0.75849  -1.18441
  14 2   H  1S          0.06242  -0.07723   0.03825   0.02041   0.01093
  15        2S          0.68561  -0.85298   0.54929   0.36303   0.09152
  16        3S         -0.22418   0.40077  -0.39559  -0.20515  -0.14605
  17 3   H  1S         -0.08900  -0.07307   0.02070   0.01287   0.00962
  18        2S         -0.94258  -0.74180   0.30926   0.15986   0.03798
  19        3S          0.56111   0.59518  -0.36452  -0.20020  -0.13985
  20 4   C  1S          0.00787   0.02610  -0.04226  -0.01353  -0.00451
  21        2S          0.01356   0.05062  -0.06913  -0.01986  -0.00799
  22        2PX        -0.00762   0.10026   0.01698  -0.00398  -0.01721
  23        2PY         0.03263   0.08460   0.01953  -0.00689  -0.02248
  24        2PZ         0.00656  -0.01055   0.06837  -0.13202  -0.19346
  25        3S         -0.03910  -0.31149   0.05024  -0.06935   0.00314
  26        3PX        -0.03973   0.35280   0.15966   0.05397  -0.04850
  27        3PY         0.09419   0.32110   0.17422   0.04548  -0.06545
  28        3PZ         0.01008  -0.04870   0.29257  -0.54095  -0.69097
  29        4S         -0.22645  -1.17297   2.29790   1.32055   0.33934
  30        4PX        -0.36002   0.23078  -1.21697  -0.66074  -0.24075
  31        4PY         0.45909  -0.06657  -1.01687  -0.66680  -0.13352
  32        4PZ         0.05544   0.16487  -0.71991   0.38148   1.20366
  33 5   H  1S         -0.05983   0.00994  -0.07155  -0.03975  -0.01480
  34        2S         -0.66082   0.25852  -0.95507  -0.45512  -0.13233
  35        3S          0.19012  -0.27403   0.53475   0.39181   0.18324
  36 6   H  1S          0.08312  -0.01981  -0.06330  -0.03435  -0.01253
  37        2S          0.94948  -0.15579  -0.73405  -0.41039  -0.05439
  38        3S         -0.48892  -0.07003   0.60276   0.43238   0.17400
                          21        22        23        24        25
                           V         V         V         V         V
     Eigenvalues --     0.64955   0.65695   0.71023   0.75096   0.76728
   1 1   C  1S          0.00415   0.00303  -0.00135  -0.00753   0.08881
   2        2S          0.00921   0.00681  -0.00236  -0.01888   0.18842
   3        2PX         0.07450   0.15609  -0.10475  -0.15551   0.04909
   4        2PY        -0.07110  -0.13955   0.09618  -0.17317   0.07687
   5        2PZ         0.00144   0.01178  -0.01274  -0.02631   0.02162
   6        3S         -0.09284  -0.07680   0.00794   0.31300  -1.46390
   7        3PX         0.11623   0.61474  -0.49887  -0.59810   0.09836
   8        3PY        -0.16948  -0.58783   0.41604  -0.67018   0.18891
   9        3PZ        -0.00555   0.04533  -0.05626  -0.09603   0.07238
  10        4S          0.24605   0.25148   0.02770  -0.49516   2.15986
  11        4PX         1.30341  -0.43658   2.90394   1.02113  -0.33813
  12        4PY        -1.16420   0.52120  -2.57519   1.18932  -0.35574
  13        4PZ         0.08750  -0.07382   0.22214   0.31075  -0.14782
  14 2   H  1S         -0.03844  -0.04208   0.02443  -0.01933   0.03275
  15        2S         -1.10445  -0.60484  -0.68974  -0.05784   0.15767
  16        3S          0.02706   1.06298  -1.34967   0.92420  -0.87237
  17 3   H  1S          0.04454   0.04114  -0.02222  -0.01590   0.02695
  18        2S          0.97472   0.47950   0.76176  -0.03356  -0.02065
  19        3S         -0.10690  -1.02882   1.36128   0.75209  -0.64347
  20 4   C  1S          0.00631   0.00375   0.00055   0.01441   0.08197
  21        2S          0.01305   0.00729   0.00126   0.03360   0.17432
  22        2PX        -0.15275   0.08105   0.09164  -0.16437  -0.04440
  23        2PY         0.16046  -0.06723  -0.08921  -0.16401  -0.05912
  24        2PZ        -0.00723   0.00177  -0.00084   0.02428   0.02341
  25        3S         -0.10111  -0.03595  -0.01527  -0.44159  -1.35935
  26        3PX        -0.45336   0.43752   0.45860  -0.61133  -0.08346
  27        3PY         0.52962  -0.37042  -0.41137  -0.61760  -0.11740
  28        3PZ        -0.02470   0.01218  -0.00096   0.08898   0.08125
  29        4S          0.03112  -0.09508  -0.12946   0.61686   2.06651
  30        4PX        -0.66985  -1.32410  -2.77742   1.02554   0.29179
  31        4PY         0.56792   1.34233   2.62270   1.07532   0.21288
  32        4PZ        -0.03771  -0.02149  -0.08307  -0.34196  -0.21060
  33 5   H  1S         -0.05347   0.01730   0.02977   0.02107   0.02841
  34        2S         -1.17404  -0.28379  -0.69850  -0.03383   0.08441
  35        3S          0.76017  -0.89058  -1.20936  -0.84710  -0.72272
  36 6   H  1S          0.05994  -0.00882  -0.02452   0.02126   0.02309
  37        2S          1.11597   0.33257   0.77088   0.01014  -0.04592
  38        3S         -0.76282   0.79382   1.22030  -0.81916  -0.61745
                          26        27        28        29        30
                           V         V         V         V         V
     Eigenvalues --     0.91630   2.23669   2.29931   2.31967   2.34252
   1 1   C  1S         -0.09170  -0.00912   0.00153   0.01069  -0.00301
   2        2S         -0.19062   0.00161   0.00057   0.00691  -0.00488
   3        2PX         0.10096  -0.14639   0.23067   0.08222   0.37123
   4        2PY         0.09371  -0.21232  -0.12893   0.10897  -0.35023
   5        2PZ         0.00623  -0.08126   0.04210   0.09497   0.03016
   6        3S          1.54954  -0.16521   0.00954   0.05498   0.00835
   7        3PX         0.16957   0.20854  -0.31766  -0.17805  -0.52219
   8        3PY         0.15511   0.26040   0.11946  -0.16585   0.49248
   9        3PZ         0.02451   0.08947  -0.06179  -0.12716  -0.03872
  10        4S         -5.80652  -0.16159   0.22143   0.81111  -0.18678
  11        4PX        -1.57157  -0.06393   0.18951   0.22496  -0.33737
  12        4PY        -1.38309   0.01470   0.03722   0.26998   0.24014
  13        4PZ         0.03673   0.00911   0.00448  -0.01301  -0.00661
  14 2   H  1S         -0.01493  -0.85414  -0.31194   0.70616  -0.87325
  15        2S          0.33712   1.25083   0.43045  -1.03057   1.56085
  16        3S          0.28402  -0.40371  -0.18993   0.39283  -0.66962
  17 3   H  1S         -0.02062  -0.77757   0.69323   0.59230   0.80169
  18        2S          0.30334   1.09690  -0.99214  -0.92262  -1.40721
  19        3S          0.15045  -0.37440   0.47864   0.40329   0.62554
  20 4   C  1S          0.09626  -0.00503  -0.00283  -0.01024   0.00154
  21        2S          0.20091   0.00844  -0.00016  -0.00456  -0.00174
  22        2PX         0.09985   0.04978   0.37877  -0.03261  -0.21980
  23        2PY         0.09492   0.13653  -0.22852   0.25053   0.18537
  24        2PZ         0.00957  -0.11441  -0.04683  -0.14574   0.04027
  25        3S         -1.64738  -0.18023  -0.03291  -0.07238   0.03236
  26        3PX         0.17765  -0.05054  -0.53450  -0.00043   0.34014
  27        3PY         0.16671  -0.15427   0.27893  -0.38609  -0.29272
  28        3PZ        -0.00041   0.12838   0.06116   0.18570  -0.04349
  29        4S          5.88597   0.00157  -0.23567  -0.77710   0.17067
  30        4PX        -1.54261  -0.01898   0.11545   0.35476   0.28311
  31        4PY        -1.51307  -0.04397   0.11682   0.22037  -0.34886
  32        4PZ        -0.27986   0.01789   0.01149   0.04581   0.00966
  33 5   H  1S          0.01707  -0.73960   0.45565  -1.12523  -0.29070
  34        2S         -0.32944   1.06495  -0.73485   1.74170   0.66337
  35        3S         -0.25594  -0.35791   0.36241  -0.73217  -0.29172
  36 6   H  1S          0.02168  -0.58797  -1.08910  -0.38201   0.65457
  37        2S         -0.34115   0.81163   1.65608   0.51343  -1.19700
  38        3S         -0.20787  -0.23685  -0.76924  -0.20370   0.48456
                          31        32        33        34        35
                           V         V         V         V         V
     Eigenvalues --     2.66609   2.79919   2.89006   2.94344   3.06949
   1 1   C  1S          0.00160  -0.01236  -0.01042  -0.00596   0.00909
   2        2S         -0.00014  -0.03160  -0.03192  -0.01376   0.02236
   3        2PX         0.10533  -0.38610  -0.25624  -0.70004  -0.73464
   4        2PY         0.02096  -0.39974  -0.59130   0.47453  -0.73298
   5        2PZ        -0.94747   0.69700  -0.55211  -0.15174  -0.09354
   6        3S          0.00358   0.23207   0.25513   0.09980  -0.16437
   7        3PX        -0.09686   0.67579   0.56927   0.90495   0.78189
   8        3PY        -0.00045   0.69791   0.97867  -0.49133   0.79439
   9        3PZ         0.98269  -0.82079   0.70613   0.19159   0.10811
  10        4S          0.03360  -0.50764  -0.47947  -0.24313   0.29688
  11        4PX        -0.00677  -0.53250  -0.53002  -0.73507  -0.50554
  12        4PY        -0.00207  -0.55869  -0.84644   0.35103  -0.42422
  13        4PZ        -0.36899   0.39799  -0.46428  -0.14301  -0.07875
  14 2   H  1S          0.06082   0.05591   0.28233  -0.35433   0.23168
  15        2S         -0.05730  -0.02352  -0.26225   0.39072  -0.15664
  16        3S         -0.00935  -0.19014  -0.30737   0.18901  -0.09613
  17 3   H  1S          0.08288   0.07395   0.14290   0.45478   0.24763
  18        2S         -0.11199  -0.05453  -0.11633  -0.48112  -0.21650
  19        3S         -0.00091  -0.12752  -0.14785  -0.24279  -0.12767
  20 4   C  1S          0.00409   0.01349   0.00996   0.00465   0.01163
  21        2S          0.00461   0.03017   0.02970   0.01077   0.02954
  22        2PX        -0.04112  -0.41294  -0.39272  -0.76323   0.60565
  23        2PY        -0.07322  -0.50929  -0.68406   0.45624   0.60851
  24        2PZ        -0.88170  -0.73462   0.61447   0.08829  -0.03883
  25        3S         -0.03059  -0.20725  -0.22874  -0.07805  -0.21576
  26        3PX         0.05147   0.68424   0.71560   0.97301  -0.54694
  27        3PY         0.07800   0.79792   1.05952  -0.47343  -0.55462
  28        3PZ         0.90443   0.88290  -0.74951  -0.10931   0.05624
  29        4S          0.13959   0.52472   0.46293   0.20686   0.40953
  30        4PX         0.01370  -0.50867  -0.60397  -0.71143   0.28699
  31        4PY        -0.04141  -0.58567  -0.84290   0.29272   0.19789
  32        4PZ        -0.33975  -0.44158   0.47742   0.07807  -0.03220
  33 5   H  1S          0.09277   0.02014  -0.29873   0.33260   0.18725
  34        2S         -0.09556  -0.06043   0.26942  -0.33548  -0.12790
  35        3S         -0.01215   0.19643   0.29637  -0.19047   0.00102
  36 6   H  1S          0.11235   0.01874  -0.15227  -0.43568   0.18908
  37        2S         -0.14562  -0.05852   0.12664   0.42189  -0.16785
  38        3S         -0.01330   0.15454   0.15921   0.26904  -0.04027
                          36        37        38
                           V         V         V
     Eigenvalues --     3.24122  23.34775  23.65741
   1 1   C  1S          0.00224  -1.43791   1.42796
   2        2S          0.00308   1.53382  -1.54210
   3        2PX         0.62537  -0.00966  -0.02010
   4        2PY        -0.63358  -0.01249  -0.01726
   5        2PZ         0.04542  -0.00332  -0.00029
   6        3S         -0.01362  -0.30202   0.38045
   7        3PX        -0.85518   0.02829   0.07121
   8        3PY         0.87985   0.03560   0.06449
   9        3PZ        -0.05973   0.00957   0.00156
  10        4S          0.04997   0.26295  -0.72077
  11        4PX         1.09866  -0.02824  -0.18063
  12        4PY        -1.06941  -0.04356  -0.16070
  13        4PZ         0.07177  -0.01318   0.00512
  14 2   H  1S          0.48735   0.01540  -0.00995
  15        2S         -0.57420   0.00558   0.02004
  16        3S         -0.35960  -0.08835   0.05025
  17 3   H  1S         -0.43230   0.00697   0.00001
  18        2S          0.53312   0.01269   0.00876
  19        3S          0.34051  -0.07515   0.03928
  20 4   C  1S          0.00116  -1.42420  -1.44172
  21        2S          0.00175   1.51927   1.55702
  22        2PX        -0.62396   0.00938  -0.01987
  23        2PY         0.61354   0.01057  -0.01834
  24        2PZ        -0.02099  -0.00355  -0.00290
  25        3S         -0.00802  -0.30193  -0.38607
  26        3PX         0.85599  -0.02680   0.07106
  27        3PY        -0.83457  -0.02968   0.06746
  28        3PZ         0.03038   0.01035   0.00925
  29        4S         -0.01880   0.28648   0.72301
  30        4PX        -1.08642   0.01875  -0.17790
  31        4PY         1.04365   0.02836  -0.17270
  32        4PZ        -0.03881  -0.02229  -0.03314
  33 5   H  1S          0.47057   0.01070   0.00804
  34        2S         -0.55499   0.00413  -0.01785
  35        3S         -0.29706  -0.08492  -0.04644
  36 6   H  1S         -0.44237   0.00719   0.00236
  37        2S          0.54261   0.00828  -0.01304
  38        3S          0.31557  -0.07667  -0.04308
     Density Matrix:
                           1         2         3         4         5
   1 1   C  1S          0.65954
   2        2S          0.56150   0.49188
   3        2PX        -0.00143  -0.00203   0.08141
   4        2PY        -0.00036  -0.00039   0.00349   0.08590
   5        2PZ         0.00069   0.00104  -0.00110  -0.00153   0.06184
   6        3S         -0.08982  -0.15502   0.00716   0.00248  -0.00189
   7        3PX        -0.00015  -0.00033   0.12692   0.00242  -0.00037
   8        3PY         0.00093   0.00142   0.00258   0.13100  -0.00136
   9        3PZ         0.00132   0.00219  -0.00145  -0.00256   0.09862
  10        4S         -0.08445  -0.12348  -0.01960  -0.01391   0.00666
  11        4PX         0.00008   0.00179   0.07234  -0.00406  -0.00435
  12        4PY        -0.00099  -0.00037  -0.00494   0.07342  -0.00380
  13        4PZ         0.00053   0.00053  -0.00996  -0.00814   0.09591
  14 2   H  1S         -0.02093  -0.03325   0.01928  -0.07042  -0.00454
  15        2S         -0.02241  -0.03581   0.02576  -0.09898  -0.00364
  16        3S          0.00108   0.00004   0.00998  -0.03778   0.00064
  17 3   H  1S         -0.01948  -0.03113  -0.06523   0.01599  -0.00979
  18        2S         -0.02294  -0.03669  -0.09575   0.02395  -0.01012
  19        3S          0.00024  -0.00105  -0.03804   0.01140  -0.00185
  20 4   C  1S          0.00517   0.00827  -0.01283  -0.01356  -0.00481
  21        2S          0.00830   0.01286  -0.02050  -0.02178  -0.00783
  22        2PX         0.01417   0.02272  -0.03073  -0.03567   0.00093
  23        2PY         0.01429   0.02300  -0.03581  -0.03314   0.00311
  24        2PZ        -0.00174  -0.00288  -0.00817  -0.00394   0.06180
  25        3S         -0.02248  -0.03385   0.05793   0.06220   0.02382
  26        3PX         0.02246   0.03501  -0.04508  -0.05337   0.00049
  27        3PY         0.02237   0.03496  -0.05212  -0.04949   0.00416
  28        3PZ        -0.00288  -0.00475  -0.01335  -0.00656   0.09827
  29        4S          0.00756   0.00832   0.02224   0.02498   0.02042
  30        4PX         0.00398   0.00822  -0.02828  -0.02348   0.00579
  31        4PY         0.00483   0.00968  -0.02445  -0.03088   0.01075
  32        4PZ        -0.00300  -0.00476  -0.01623  -0.00847   0.09564
  33 5   H  1S          0.00407   0.00679  -0.00327  -0.00991  -0.00518
  34        2S          0.00692   0.01164  -0.00584  -0.02465  -0.00318
  35        3S          0.00383   0.00577  -0.00417  -0.01977  -0.00136
  36 6   H  1S          0.00431   0.00710  -0.00932  -0.00367  -0.00561
  37        2S          0.00735   0.01218  -0.02311  -0.00515  -0.00325
  38        3S          0.00390   0.00590  -0.01753  -0.00383  -0.00191
                           6         7         8         9        10
   6        3S          0.45752
   7        3PX         0.00488   0.19812
   8        3PY        -0.00069  -0.00047   0.19996
   9        3PZ        -0.00499  -0.00010  -0.00234   0.15730
  10        4S          0.30346  -0.03374  -0.02295   0.00913   0.21849
  11        4PX        -0.00765   0.11331  -0.00840  -0.00665  -0.02351
  12        4PY        -0.00091  -0.01016   0.11238  -0.00621  -0.00965
  13        4PZ         0.00021  -0.01337  -0.01071   0.15294   0.01498
  14 2   H  1S          0.08920   0.03120  -0.10911  -0.00746   0.06518
  15        2S          0.09626   0.04219  -0.15310  -0.00599   0.07233
  16        3S          0.00420   0.01675  -0.05820   0.00110   0.00509
  17 3   H  1S          0.08342  -0.10375   0.02567  -0.01625   0.07105
  18        2S          0.09800  -0.15189   0.03876  -0.01698   0.08838
  19        3S          0.00615  -0.05994   0.01861  -0.00313   0.01255
  20 4   C  1S         -0.02214  -0.01999  -0.02084  -0.00796   0.00778
  21        2S         -0.03345  -0.03091  -0.03241  -0.01283   0.00821
  22        2PX        -0.06457  -0.04621  -0.05293   0.00185  -0.03395
  23        2PY        -0.06569  -0.05451  -0.04963   0.00523  -0.03571
  24        2PZ         0.00882  -0.01132  -0.00474   0.09845   0.01843
  25        3S          0.08595   0.08444   0.08963   0.03858  -0.01012
  26        3PX        -0.09642  -0.06776  -0.07924   0.00134  -0.05147
  27        3PY        -0.09680  -0.07933  -0.07424   0.00706  -0.05338
  28        3PZ         0.01450  -0.01852  -0.00796   0.15654   0.03016
  29        4S         -0.01325   0.03204   0.03557   0.03331  -0.05135
  30        4PX        -0.02968  -0.04317  -0.03468   0.00943  -0.01232
  31        4PY        -0.03401  -0.03702  -0.04662   0.01731  -0.01596
  32        4PZ         0.01363  -0.02320  -0.01101   0.15239   0.02779
  33 5   H  1S         -0.02094  -0.00569  -0.01619  -0.00797  -0.02587
  34        2S         -0.03574  -0.00927  -0.03887  -0.00466  -0.03604
  35        3S         -0.01559  -0.00599  -0.03040  -0.00205  -0.00996
  36 6   H  1S         -0.02153  -0.01501  -0.00565  -0.00861  -0.02331
  37        2S         -0.03679  -0.03642  -0.00734  -0.00475  -0.03208
  38        3S         -0.01600  -0.02721  -0.00513  -0.00296  -0.00779
                          11        12        13        14        15
  11        4PX         0.06657
  12        4PY        -0.00937   0.06454
  13        4PZ        -0.01411  -0.01036   0.15009
  14 2   H  1S          0.02066  -0.06280  -0.00373   0.08240
  15        2S          0.02852  -0.08842  -0.00113   0.11051   0.15104
  16        3S          0.01162  -0.03410   0.00248   0.03632   0.05240
  17 3   H  1S         -0.06176   0.02016  -0.00887  -0.01361  -0.02507
  18        2S         -0.09031   0.03011  -0.00663  -0.02644  -0.04534
  19        3S         -0.03545   0.01356   0.00044  -0.01922  -0.02878
  20 4   C  1S         -0.00257  -0.00377  -0.00695   0.00419   0.00627
  21        2S         -0.00600  -0.00794  -0.01135   0.00694   0.01054
  22        2PX        -0.02589  -0.02875   0.00751   0.00421   0.00378
  23        2PY        -0.03012  -0.02864   0.01062   0.01106   0.02728
  24        2PZ        -0.00990  -0.00436   0.09650  -0.00253  -0.00185
  25        3S          0.02356   0.02931   0.03444  -0.02131  -0.03261
  26        3PX        -0.03815  -0.04313   0.00986   0.00604   0.00447
  27        3PY        -0.04388  -0.04314   0.01502   0.01767   0.04291
  28        3PZ        -0.01588  -0.00701   0.15345  -0.00377  -0.00261
  29        4S          0.00206   0.00521   0.03277  -0.01891  -0.02364
  30        4PX        -0.02583  -0.01888   0.01423   0.00166  -0.00105
  31        4PY        -0.02111  -0.02775   0.02133   0.01704   0.03312
  32        4PZ        -0.01926  -0.00930   0.15017  -0.00264  -0.00074
  33 5   H  1S         -0.00633  -0.01412  -0.00570   0.00998   0.02324
  34        2S         -0.00828  -0.02837  -0.00121   0.02138   0.04383
  35        3S         -0.00269  -0.01843  -0.00029   0.01607   0.02805
  36 6   H  1S         -0.01298  -0.00557  -0.00549  -0.00835  -0.01713
  37        2S         -0.02664  -0.00632   0.00020  -0.01648  -0.03076
  38        3S         -0.01642  -0.00190  -0.00042  -0.00763  -0.01393
                          16        17        18        19        20
  16        3S          0.02101
  17 3   H  1S         -0.01695   0.07601
  18        2S         -0.02705   0.10722   0.15379
  19        3S         -0.01284   0.03688   0.05535   0.02268
  20 4   C  1S          0.00292   0.00422   0.00639   0.00298   0.65942
  21        2S          0.00432   0.00689   0.01054   0.00441   0.56118
  22        2PX         0.00205   0.01103   0.02619   0.01881   0.00054
  23        2PY         0.02024   0.00421   0.00277   0.00154   0.00015
  24        2PZ         0.00001  -0.00216   0.00072   0.00156  -0.00017
  25        3S         -0.01164  -0.02067  -0.03176  -0.01171  -0.08879
  26        3PX         0.00214   0.01658   0.04001   0.02896  -0.00056
  27        3PY         0.03144   0.00495   0.00144   0.00077  -0.00091
  28        3PZ         0.00008  -0.00315   0.00151   0.00253   0.00052
  29        4S         -0.00309  -0.01768  -0.02258  -0.00292  -0.08570
  30        4PX        -0.00162   0.01691   0.03259   0.01880  -0.00075
  31        4PY         0.01993   0.00070  -0.00279  -0.00227  -0.00007
  32        4PZ         0.00120  -0.00095   0.00443   0.00376  -0.00224
  33 5   H  1S          0.01673  -0.00820  -0.01856  -0.00948  -0.02021
  34        2S          0.02833  -0.01503  -0.03114  -0.01545  -0.02276
  35        3S          0.01502  -0.00695  -0.01395  -0.00727   0.00057
  36 6   H  1S         -0.00847   0.00996   0.02278   0.01591  -0.01986
  37        2S         -0.01455   0.02076   0.04316   0.02758  -0.02363
  38        3S         -0.00695   0.01466   0.02665   0.01450   0.00001
                          21        22        23        24        25
  21        2S          0.49132
  22        2PX         0.00066   0.08063
  23        2PY         0.00007   0.00407   0.08352
  24        2PZ        -0.00027   0.00220   0.00098   0.06358
  25        3S         -0.15336  -0.00364  -0.00188   0.00274   0.45239
  26        3PX        -0.00087   0.12534   0.00185   0.00233  -0.00140
  27        3PY        -0.00145   0.00209   0.12813   0.00061   0.00067
  28        3PZ         0.00082   0.00306   0.00140   0.10130   0.00095
  29        4S         -0.12524   0.02718   0.02543   0.00469   0.30653
  30        4PX        -0.00296   0.06522  -0.00199   0.00735   0.01145
  31        4PY        -0.00169  -0.00233   0.06858   0.00894   0.00773
  32        4PZ        -0.00441   0.00714   0.00768   0.09791   0.01722
  33 5   H  1S         -0.03216  -0.01914   0.06630  -0.01196   0.08587
  34        2S         -0.03645  -0.02600   0.09834  -0.01186   0.09760
  35        3S         -0.00071  -0.00966   0.04006  -0.00327   0.00576
  36 6   H  1S         -0.03169   0.06432  -0.01729  -0.00807   0.08466
  37        2S         -0.03787   0.09660  -0.02472  -0.00527   0.10129
  38        3S         -0.00148   0.03926  -0.01063  -0.00071   0.00749
                          26        27        28        29        30
  26        3PX         0.19516
  27        3PY        -0.00359   0.19682
  28        3PZ         0.00301   0.00072   0.16142
  29        4S          0.04382   0.03995   0.00488   0.22997
  30        4PX         0.10169  -0.00649   0.01128   0.02895   0.05520
  31        4PY        -0.00736   0.10556   0.01409   0.02423  -0.00519
  32        4PZ         0.00922   0.01032   0.15588   0.01879   0.01467
  33 5   H  1S         -0.03234   0.10377  -0.01973   0.07157  -0.01867
  34        2S         -0.04459   0.15360  -0.01968   0.08669  -0.02658
  35        3S         -0.01704   0.06234  -0.00527   0.01192  -0.01116
  36 6   H  1S          0.10204  -0.02922  -0.01385   0.07496   0.05578
  37        2S          0.15281  -0.04235  -0.00968   0.09547   0.08401
  38        3S          0.06177  -0.01846  -0.00137   0.01522   0.03383
                          31        32        33        34        35
  31        4PY         0.05898
  32        4PZ         0.01894   0.15187
  33 5   H  1S          0.05670  -0.01196   0.07853
  34        2S          0.08470  -0.00953   0.10952   0.15521
  35        3S          0.03464  -0.00241   0.03799   0.05628   0.02317
  36 6   H  1S         -0.01896  -0.00823  -0.01381  -0.02579  -0.01707
  37        2S         -0.02759  -0.00243  -0.02665  -0.04566  -0.02676
  38        3S         -0.01238   0.00031  -0.01850  -0.02792  -0.01235
                          36        37        38
  36 6   H  1S          0.07547
  37        2S          0.10752   0.15553
  38        3S          0.03751   0.05640   0.02306
    Full Mulliken population analysis:
                           1         2         3         4         5
   1 1   C  1S          0.65954
   2        2S          0.49324   0.49188
   3        2PX         0.00000   0.00000   0.08141
   4        2PY         0.00000   0.00000   0.00000   0.08590
   5        2PZ         0.00000   0.00000   0.00000   0.00000   0.06184
   6        3S         -0.02957  -0.06492   0.00000   0.00000   0.00000
   7        3PX         0.00000   0.00000   0.07985   0.00000   0.00000
   8        3PY         0.00000   0.00000   0.00000   0.08241   0.00000
   9        3PZ         0.00000   0.00000   0.00000   0.00000   0.06204
  10        4S         -0.01299  -0.02311   0.00000   0.00000   0.00000
  11        4PX         0.00000   0.00000   0.01593   0.00000   0.00000
  12        4PY         0.00000   0.00000   0.00000   0.01617   0.00000
  13        4PZ         0.00000   0.00000   0.00000   0.00000   0.02112
  14 2   H  1S         -0.00025  -0.00035   0.00062   0.00710   0.00005
  15        2S         -0.00166  -0.00318   0.00136   0.01646   0.00007
  16        3S          0.00009   0.00000   0.00020   0.00239  -0.00000
  17 3   H  1S         -0.00016  -0.00021   0.00502   0.00029   0.00017
  18        2S         -0.00147  -0.00281   0.01480   0.00088   0.00035
  19        3S          0.00002  -0.00010   0.00243   0.00017   0.00003
  20 4   C  1S          0.00000   0.00000  -0.00002  -0.00002  -0.00000
  21        2S          0.00000  -0.00000  -0.00002  -0.00002  -0.00000
  22        2PX        -0.00002  -0.00002   0.00056   0.00079  -0.00000
  23        2PY        -0.00002  -0.00002   0.00079   0.00058  -0.00000
  24        2PZ         0.00000   0.00000   0.00001   0.00000   0.00026
  25        3S         -0.00040  -0.00066   0.00367   0.00388   0.00009
  26        3PX        -0.00090  -0.00163   0.00347   0.00660  -0.00000
  27        3PY        -0.00088  -0.00161   0.00645   0.00363  -0.00003
  28        3PZ         0.00001   0.00001   0.00009   0.00005   0.00473
  29        4S          0.00044   0.00058   0.00139   0.00154   0.00007
  30        4PX        -0.00032  -0.00080  -0.00016   0.00189  -0.00003
  31        4PY        -0.00038  -0.00093   0.00197  -0.00025  -0.00005
  32        4PZ         0.00001   0.00003   0.00008   0.00004   0.00834
  33 5   H  1S          0.00000   0.00000  -0.00000  -0.00000   0.00000
  34        2S          0.00002   0.00003  -0.00003  -0.00038   0.00001
  35        3S          0.00010   0.00018  -0.00005  -0.00081   0.00001
  36 6   H  1S          0.00000   0.00000  -0.00000  -0.00000   0.00000
  37        2S          0.00001   0.00002  -0.00027  -0.00002   0.00000
  38        3S          0.00009   0.00016  -0.00067  -0.00004   0.00001
                           6         7         8         9        10
   6        3S          0.45752
   7        3PX         0.00000   0.19812
   8        3PY         0.00000   0.00000   0.19996
   9        3PZ         0.00000   0.00000   0.00000   0.15730
  10        4S          0.23509   0.00000   0.00000   0.00000   0.21849
  11        4PX         0.00000   0.07404   0.00000   0.00000   0.00000
  12        4PY         0.00000   0.00000   0.07343   0.00000   0.00000
  13        4PZ         0.00000   0.00000   0.00000   0.09994   0.00000
  14 2   H  1S          0.01670   0.00363   0.03989   0.00032   0.01736
  15        2S          0.04095   0.00623   0.07113   0.00033   0.04192
  16        3S          0.00194   0.00117   0.01281  -0.00003   0.00385
  17 3   H  1S          0.01318   0.03388   0.00200   0.00119   0.01776
  18        2S          0.03791   0.06799   0.00415   0.00171   0.04877
  19        3S          0.00273   0.01341   0.00099   0.00016   0.00923
  20 4   C  1S         -0.00040  -0.00080  -0.00082  -0.00002   0.00046
  21        2S         -0.00066  -0.00144  -0.00149  -0.00003   0.00058
  22        2PX         0.00409   0.00356   0.00655  -0.00001   0.00212
  23        2PY         0.00410   0.00675   0.00364  -0.00004   0.00220
  24        2PZ        -0.00003   0.00008   0.00003   0.00474  -0.00007
  25        3S          0.01606   0.02057   0.02152   0.00053  -0.00361
  26        3PX         0.02349   0.00885   0.02480  -0.00002   0.01107
  27        3PY         0.02324   0.02483   0.00902  -0.00013   0.01131
  28        3PZ        -0.00020   0.00033   0.00014   0.02910  -0.00037
  29        4S         -0.00472   0.00689   0.00754   0.00041  -0.03099
  30        4PX         0.01163  -0.00277   0.00808  -0.00013   0.00532
  31        4PY         0.01313   0.00863  -0.00331  -0.00023   0.00679
  32        4PZ        -0.00030   0.00031   0.00015   0.04570  -0.00068
  33 5   H  1S         -0.00008  -0.00002  -0.00023   0.00001  -0.00158
  34        2S         -0.00169  -0.00027  -0.00386   0.00005  -0.00670
  35        3S         -0.00277  -0.00029  -0.00494   0.00004  -0.00382
  36 6   H  1S         -0.00006  -0.00015  -0.00002   0.00001  -0.00124
  37        2S         -0.00140  -0.00303  -0.00018   0.00004  -0.00535
  38        3S         -0.00259  -0.00418  -0.00024   0.00004  -0.00280
                          11        12        13        14        15
  11        4PX         0.06657
  12        4PY         0.00000   0.06454
  13        4PZ         0.00000   0.00000   0.15009
  14 2   H  1S          0.00233   0.02228   0.00016   0.08240
  15        2S          0.00541   0.05273   0.00008   0.07806   0.15104
  16        3S          0.00172   0.01590  -0.00014   0.01357   0.04134
  17 3   H  1S          0.02179   0.00170   0.00070  -0.00000  -0.00058
  18        2S          0.05432   0.00433   0.00089  -0.00061  -0.00524
  19        3S          0.01701   0.00155  -0.00005  -0.00204  -0.00807
  20 4   C  1S         -0.00021  -0.00030  -0.00003   0.00000   0.00001
  21        2S         -0.00058  -0.00076  -0.00006   0.00000   0.00002
  22        2PX        -0.00015   0.00232  -0.00003  -0.00000  -0.00002
  23        2PY         0.00243  -0.00023  -0.00005  -0.00000  -0.00036
  24        2PZ         0.00005   0.00002   0.00842   0.00000   0.00000
  25        3S          0.00923   0.01132   0.00076  -0.00007  -0.00138
  26        3PX        -0.00245   0.01005  -0.00013  -0.00002  -0.00013
  27        3PY         0.01022  -0.00306  -0.00020  -0.00021  -0.00385
  28        3PZ         0.00021   0.00009   0.04602   0.00000   0.00002
  29        4S          0.00089   0.00222   0.00080  -0.00107  -0.00415
  30        4PX        -0.00761   0.00574  -0.00025  -0.00008   0.00012
  31        4PY         0.00642  -0.00842  -0.00037  -0.00251  -0.01165
  32        4PZ         0.00034   0.00016   0.09048   0.00003   0.00002
  33 5   H  1S         -0.00030  -0.00221   0.00010   0.00000   0.00000
  34        2S         -0.00091  -0.01045   0.00005   0.00000   0.00021
  35        3S         -0.00037  -0.00838   0.00002   0.00027   0.00170
  36 6   H  1S         -0.00183  -0.00024   0.00007  -0.00000  -0.00006
  37        2S         -0.00910  -0.00065  -0.00001  -0.00006  -0.00110
  38        3S         -0.00724  -0.00025   0.00002  -0.00041  -0.00222
                          16        17        18        19        20
  16        3S          0.02101
  17 3   H  1S         -0.00180   0.07601
  18        2S         -0.00758   0.07574   0.15379
  19        3S         -0.00650   0.01378   0.04367   0.02268
  20 4   C  1S          0.00007   0.00000   0.00001   0.00006   0.65942
  21        2S          0.00012   0.00000   0.00002   0.00011   0.49296
  22        2PX        -0.00003  -0.00000  -0.00024  -0.00066   0.00000
  23        2PY        -0.00079  -0.00000  -0.00001  -0.00002   0.00000
  24        2PZ        -0.00000   0.00000  -0.00000  -0.00001   0.00000
  25        3S         -0.00197  -0.00004  -0.00099  -0.00173  -0.02923
  26        3PX        -0.00011  -0.00012  -0.00274  -0.00412   0.00000
  27        3PY        -0.00493  -0.00001  -0.00003  -0.00004   0.00000
  28        3PZ        -0.00000   0.00000  -0.00001  -0.00005   0.00000
  29        4S         -0.00114  -0.00082  -0.00338  -0.00098  -0.01318
  30        4PX         0.00024  -0.00210  -0.01015  -0.00788   0.00000
  31        4PY        -0.00885  -0.00003   0.00030   0.00033   0.00000
  32        4PZ        -0.00005   0.00002  -0.00020  -0.00023   0.00000
  33 5   H  1S          0.00028  -0.00000  -0.00006  -0.00049  -0.00020
  34        2S          0.00172  -0.00005  -0.00105  -0.00240  -0.00157
  35        3S          0.00278  -0.00036  -0.00217  -0.00250   0.00004
  36 6   H  1S         -0.00045   0.00000   0.00000   0.00020  -0.00016
  37        2S         -0.00232   0.00000   0.00012   0.00131  -0.00152
  38        3S         -0.00243   0.00018   0.00127   0.00229   0.00000
                          21        22        23        24        25
  21        2S          0.49132
  22        2PX         0.00000   0.08063
  23        2PY         0.00000   0.00000   0.08352
  24        2PZ         0.00000   0.00000   0.00000   0.06358
  25        3S         -0.06423   0.00000   0.00000   0.00000   0.45239
  26        3PX         0.00000   0.07886   0.00000   0.00000   0.00000
  27        3PY         0.00000   0.00000   0.08061   0.00000   0.00000
  28        3PZ         0.00000   0.00000   0.00000   0.06373   0.00000
  29        4S         -0.02344   0.00000   0.00000   0.00000   0.23747
  30        4PX         0.00000   0.01436   0.00000   0.00000   0.00000
  31        4PY         0.00000   0.00000   0.01510   0.00000   0.00000
  32        4PZ         0.00000   0.00000   0.00000   0.02156   0.00000
  33 5   H  1S         -0.00027   0.00063   0.00553   0.00028   0.01475
  34        2S         -0.00300   0.00156   0.01496   0.00051   0.03957
  35        3S         -0.00007   0.00023   0.00241   0.00006   0.00261
  36 6   H  1S         -0.00021   0.00483   0.00043   0.00014   0.01339
  37        2S         -0.00290   0.01456   0.00124   0.00019   0.03921
  38        3S         -0.00013   0.00244   0.00022   0.00001   0.00333
                          26        27        28        29        30
  26        3PX         0.19516
  27        3PY         0.00000   0.19682
  28        3PZ         0.00000   0.00000   0.16142
  29        4S          0.00000   0.00000   0.00000   0.22997
  30        4PX         0.06645   0.00000   0.00000   0.00000   0.05520
  31        4PY         0.00000   0.06898   0.00000   0.00000   0.00000
  32        4PZ         0.00000   0.00000   0.10186   0.00000   0.00000
  33 5   H  1S          0.00419   0.03401   0.00181   0.01846   0.00248
  34        2S          0.00762   0.06649   0.00239   0.04901   0.00597
  35        3S          0.00142   0.01313   0.00031   0.00889   0.00198
  36 6   H  1S          0.03250   0.00311   0.00103   0.01875   0.01918
  37        2S          0.06669   0.00617   0.00098   0.05270   0.04925
  38        3S          0.01347   0.00134   0.00007   0.01119   0.01581
                          31        32        33        34        35
  31        4PY         0.05898
  32        4PZ         0.00000   0.15187
  33 5   H  1S          0.01904   0.00113   0.07853
  34        2S          0.04817   0.00152   0.07736   0.15521
  35        3S          0.01556   0.00030   0.01420   0.04440   0.02317
  36 6   H  1S          0.00218   0.00066  -0.00000  -0.00046  -0.00164
  37        2S          0.00540   0.00033  -0.00047  -0.00444  -0.00690
  38        3S          0.00193  -0.00003  -0.00178  -0.00720  -0.00592
                          36        37        38
  36 6   H  1S          0.07547
  37        2S          0.07595   0.15553
  38        3S          0.01401   0.04450   0.02306
     Gross orbital populations:
                           1
   1 1   C  1S          1.10456
   2        2S          0.88580
   3        2PX         0.21888
   4        2PY         0.22926
   5        2PZ         0.15908
   6        3S          0.79238
   7        3PX         0.54614
   8        3PY         0.55316
   9        3PZ         0.40302
  10        4S          0.53903
  11        4PX         0.25816
  12        4PY         0.24960
  13        4PZ         0.41841
  14 2   H  1S          0.27710
  15        2S          0.46560
  16        3S          0.08208
  17 3   H  1S          0.25713
  18        2S          0.47228
  19        3S          0.09429
  20 4   C  1S          1.10458
  21        2S          0.88581
  22        2PX         0.21691
  23        2PY         0.22299
  24        2PZ         0.16357
  25        3S          0.78606
  26        3PX         0.54229
  27        3PY         0.54441
  28        3PZ         0.41379
  29        4S          0.56533
  30        4PX         0.23143
  31        4PY         0.23594
  32        4PZ         0.42345
  33 5   H  1S          0.26510
  34        2S          0.47237
  35        3S          0.09282
  36 6   H  1S          0.25539
  37        2S          0.47450
  38        3S          0.09733
          Condensed to atoms (all electrons):
               1          2          3          4          5          6
     1  C    5.138560   0.381571   0.376727   0.551231  -0.049539  -0.041076
     2  H    0.381571   0.520409  -0.032430  -0.042689   0.006961  -0.009053
     3  H    0.376727  -0.032430   0.518858  -0.035749  -0.009088   0.005380
     4  C    0.551231  -0.042689  -0.035749   5.104038   0.381926   0.377799
     5  H   -0.049539   0.006961  -0.009088   0.381926   0.528835  -0.028807
     6  H   -0.041076  -0.009053   0.005380   0.377799  -0.028807   0.522972
 Mulliken charges:
               1
     1  C   -0.357474
     2  H    0.175231
     3  H    0.176302
     4  C   -0.336554
     5  H    0.169711
     6  H    0.172784
 Sum of Mulliken charges =   0.00000
 Mulliken charges with hydrogens summed into heavy atoms:
               1
     1  C   -0.005941
     4  C    0.005941
 Electronic spatial extent (au):  <R**2>=             98.2039
 Charge=              0.0000 electrons
 Dipole moment (field-independent basis, Debye):
    X=             -0.0757    Y=             -0.1456    Z=             -0.7562  Tot=              0.7738
 Quadrupole moment (field-independent basis, Debye-Ang):
   XX=            -12.4271   YY=            -12.8674   ZZ=            -15.7211
   XY=             -0.6059   XZ=             -0.1457   YZ=             -0.4845
 Traceless Quadrupole moment (field-independent basis, Debye-Ang):
   XX=              1.2447   YY=              0.8045   ZZ=             -2.0492
   XY=             -0.6059   XZ=             -0.1457   YZ=             -0.4845
 Octapole moment (field-independent basis, Debye-Ang**2):
  XXX=             -8.3423  YYY=            -15.6550  ZZZ=              1.8879  XYY=             -3.5599
  XXY=             -5.5418  XXZ=             -0.7100  XZZ=             -3.5510  YZZ=             -6.2888
  YYZ=             -0.6092  XYZ=             -0.3014
 Hexadecapole moment (field-independent basis, Debye-Ang**3):
 XXXX=            -50.4006 YYYY=            -58.7661 ZZZZ=            -19.3113 XXXY=            -14.7045
 XXXZ=             -1.0356 YYYX=            -15.6180 YYYZ=             -1.1972 ZZZX=             -0.2635
 ZZZY=              0.4594 XXYY=            -21.5287 XXZZ=            -13.1181 YYZZ=            -14.4569
 XXYZ=             -0.4172 YYXZ=             -0.4853 ZZXY=             -5.1673
 N-N= 3.216565151302D+01 E-N=-2.458044394493D+02  KE= 7.789371518356D+01
 Orbital energies and kinetic energies (alpha):
                                 1                 2
   1         O               -10.303434         15.983567
   2         O               -10.302465         15.984830
   3         O                -0.855945          1.474378
   4         O                -0.662986          1.279930
   5         O                -0.558264          0.910295
   6         O                -0.486733          1.238228
   7         O                -0.441225          1.036018
   8         O                -0.349457          1.039612
   9         V                 0.055005          1.203498
  10         V                 0.129603          0.637724
  11         V                 0.156281          0.639985
  12         V                 0.172099          0.672104
  13         V                 0.237507          0.612536
  14         V                 0.347181          0.942943
  15         V                 0.378864          0.786218
  16         V                 0.400046          0.936884
  17         V                 0.474695          1.251294
  18         V                 0.488518          1.342629
  19         V                 0.500557          1.365793
  20         V                 0.584623          1.655130
  21         V                 0.649551          1.691951
  22         V                 0.656948          1.594154
  23         V                 0.710226          1.324898
  24         V                 0.750955          2.242827
  25         V                 0.767285          2.545173
  26         V                 0.916301          3.071819
  27         V                 2.236692          3.927188
  28         V                 2.299307          4.212182
  29         V                 2.319670          4.014054
  30         V                 2.342523          4.325727
  31         V                 2.666088          6.269571
  32         V                 2.799187          6.260020
  33         V                 2.890061          6.234762
  34         V                 2.943440          6.225391
  35         V                 3.069489          6.784942
  36         V                 3.241216          6.452768
  37         V                23.347749         60.087015
  38         V                23.657405         60.172214
 Total kinetic energy from orbitals= 7.789371518356D+01
 Calling FoFJK, ICntrl=  10005127 FMM=F ISym2X=0 I1Cent= 0 IOpClX= 0 NMat=1 NMatS=1 NMatT=0.
 -------------------------------------------------------------------
 Center     Atomic                   Forces (Hartrees/Bohr)
 Number     Number              X              Y              Z
 -------------------------------------------------------------------
      1        6          -0.110060990   -0.085995598   -0.000169473
      2        1          -0.008187053    0.000297897   -0.000641411
      3        1           0.034908380   -0.009590343    0.001915977
      4        6           0.085328323    0.083606139   -0.009282633
      5        1           0.023086960   -0.009376197    0.005802788
      6        1          -0.025075619    0.021058102    0.002374751
 -------------------------------------------------------------------
 Cartesian Forces:  Max     0.110060990 RMS     0.045325981

 GradGradGradGradGradGradGradGradGradGradGradGradGradGradGradGradGradGrad
 Berny optimization.
 Search for a local minimum.
 Step number   1 out of a maximum of    2
 All quantities printed in internal units (Hartrees-Bohrs-Radians)
 Second derivative matrix not updated -- first step.
 The second derivative matrix:
                          X1        Y1        Z1        X2        Y2
           X1           0.68233
           Y1           0.06680   0.71340
           Z1           0.06761   0.04280   0.14759
           X2          -0.12330   0.06800  -0.00209   0.09766
           Y2           0.07133  -0.32116  -0.03573  -0.07943   0.31861
           Z2           0.00138  -0.04625  -0.04989  -0.00180   0.03701
           X3          -0.26401   0.04188  -0.05110   0.00586   0.00184
           Y3           0.03547  -0.10511   0.00270   0.03131   0.00876
           Z3          -0.06149   0.00631  -0.05569   0.00722   0.00111
           X4          -0.30666  -0.16426  -0.02494   0.01989   0.00602
           Y4          -0.16234  -0.29792  -0.02061  -0.01998  -0.00597
           Z4          -0.00699  -0.00248  -0.05755  -0.00333  -0.00239
           X5           0.01788  -0.01852   0.00667  -0.00006   0.00014
           Y5           0.00705  -0.00743   0.00479   0.00005  -0.00011
           Z5          -0.00002  -0.00042   0.00770   0.00026  -0.00059
           X6          -0.00623   0.00610   0.00385  -0.00004   0.00010
           Y6          -0.01831   0.01823   0.00605   0.00006  -0.00013
           Z6          -0.00049   0.00004   0.00784  -0.00026   0.00060
                          Z2        X3        Y3        Z3        X4
           Z2           0.02851
           X3           0.00016   0.26244
           Y3           0.01016  -0.04831   0.07729
           Z3           0.01011   0.05480  -0.00730   0.03427
           X4           0.00256  -0.00387  -0.01878  -0.00276   0.66168
           Y4          -0.00325   0.00415   0.01937   0.00215   0.04745
           Z4           0.01135  -0.00385  -0.00557   0.01123  -0.02959
           X5          -0.00137  -0.00025   0.00018   0.00133  -0.12019
           Y5           0.00106   0.00020  -0.00014  -0.00103   0.07208
           Z5           0.00571   0.00106  -0.00076  -0.00555  -0.01648
           X6          -0.00092  -0.00017   0.00012   0.00090  -0.25086
           Y6           0.00127   0.00024  -0.00017  -0.00123   0.05748
           Z6          -0.00579  -0.00108   0.00077   0.00562   0.07122
                          Y4        Z4        X5        Y5        Z5
           Y4           0.65437
           Z4          -0.05523   0.14795
           X5           0.07271  -0.01008   0.09690
           Y5          -0.26205   0.06737  -0.08112   0.26281
           Z5           0.08435  -0.05969   0.01702  -0.06976   0.04137
           X6           0.05802   0.05383   0.00573   0.00174  -0.00184
           Y6          -0.10781  -0.00171   0.02661   0.00692  -0.01281
           Z6          -0.00741  -0.05328  -0.01358  -0.00243   0.01046
                          X6        Y6        Z6
           X6           0.25157
           Y6          -0.06608   0.08296
           Z6          -0.05581   0.00843   0.03515
 ITU=  0
     Eigenvalues ---    0.02429   0.03940   0.05087   0.10762   0.11656
     Eigenvalues ---    0.16245   0.17296   0.28516   0.46019   0.66295
     Eigenvalues ---    0.89130   1.26245
 Quadratic step=5.729D-01 exceeds max=3.000D-01 adjusted using Lamda=-7.828D-02.
 Angle between NR and scaled steps=  19.62 degrees.
 Angle between quadratic step and forces=  48.31 degrees.
 Linear search not attempted -- first point.
 B after Tr=    -0.006838   -0.003872    0.006364
         Rot=    0.999999    0.001305   -0.001003   -0.000325 Ang=   0.19 deg.
 Variable       Old X    -DE/DX   Delta X   Delta X   Delta X     New X
                                 (Linear)    (Quad)   (Total)
    X1       -0.51030  -0.11006   0.00000  -0.09154  -0.09828  -0.60858
    Y1       -0.16151  -0.08600   0.00000  -0.09264  -0.09699  -0.25850
    Z1       -0.06499  -0.00017   0.00000   0.02901   0.03725  -0.02775
    X2        0.10975  -0.00819   0.00000  -0.09119  -0.09721   0.01254
    Y2       -2.11220   0.00030   0.00000  -0.07055  -0.07518  -2.18738
    Z2       -0.29427  -0.00064   0.00000  -0.00628   0.00574  -0.28853
    X3       -2.57693   0.03491   0.00000   0.04600   0.03786  -2.53907
    Y3        0.33238  -0.00959   0.00000  -0.06820  -0.07518   0.25720
    Z3       -0.52871   0.00192   0.00000  -0.03541  -0.02465  -0.55336
    X4        1.36412   0.08533   0.00000   0.05878   0.05085   1.41497
    Y4        1.68599   0.08361   0.00000   0.07446   0.07157   1.75757
    Z4        0.04120  -0.00928   0.00000  -0.01390  -0.01499   0.02621
    X5        0.61099   0.02309   0.00000   0.14699   0.13683   0.74782
    Y5        3.59304  -0.00938   0.00000   0.05727   0.05265   3.64569
    Z5       -0.49301   0.00580   0.00000   0.02308   0.01840  -0.47461
    X6        3.37753  -0.02508   0.00000  -0.02156  -0.03005   3.34749
    Y6        1.01340   0.02106   0.00000   0.12601   0.12314   1.13654
    Z6       -0.42816   0.00237   0.00000  -0.01841  -0.02175  -0.44991
         Item               Value     Threshold  Converged?
 Maximum Force            0.110061     0.000450     NO 
 RMS     Force            0.045326     0.000300     NO 
 Maximum Displacement     0.136830     0.001800     NO 
 RMS     Displacement     0.070549     0.001200     NO 
 Predicted change in Energy=-2.277526D-02
 GradGradGradGradGradGradGradGradGradGradGradGradGradGradGradGradGradGrad

 Unable to Open any file for archive entry.
 1\1\GINC-BHD0001\Force\RwB97XD TD-FC\6-311G\C2H4\BWEIGHT\05-Jan-2023\0
 \\# WB97XD/6-311G SCF=XQC TD=(singlets,nstates=2,root=1) FORCE nosym p
 op=full guess=read\\MD Step 1000\\0,1\C,-0.27003675,-0.08546663,-0.034
 39252\H,0.05807867,-1.11772663,-0.15572286\H,-1.36365347,0.17588947,-0
 .27978038\C,0.72186284,0.89218922,0.02180105\H,0.32332196,1.90135619,-
 0.26088867\H,1.78731277,0.53626633,-0.22657284\\Version=ES64L-G16RevC.
 01\HF=-78.5321284\RMSD=1.332e-09\RMSF=4.533e-02\Dipole=-0.0463479,-0.0
 496058,-0.3692725\PG=C01 [X(C2H4)]\\@
 The archive entry for this job was punched.


 A CHEMICAL PHYSICIST MAKES PRECISE MEASUREMENTS ON IMPURE COMPOUNDS.
 A THEORETICAL PHYSICAL CHEMIST MAKES IMPRECISE
     MEASUREMENTS ON PURE COMPOUNDS.
 AN EXPERIMENTAL PHYSICAL CHEMIST MAKES IMPRECISE
     MEASUREMENTS ON IMPURE COMPOUNDS.
 Job cpu time:       0 days  0 hours  0 minutes 32.6 seconds.
 Elapsed time:       0 days  0 hours  0 minutes 32.9 seconds.
 File lengths (MBytes):  RWF=    272 Int=      0 D2E=      0 Chk=     32 Scr=     32
 Normal termination of Gaussian 16 at Thu Jan  5 17:58:01 2023.
