 Entering Gaussian System, Link 0=g16
 Initial command:
 /software/gaussian/g16-c01/avx2/g16/l1.exe "/gpfs/fs2/scratch/bweight/software/many_molecule_many_mode_NAMD/src/NAMD/TEST_NVT/TRAJ/traj-20/G16/GS_NEW/Gau-19066.inp" -scrdir="/gpfs/fs2/scratch/bweight/software/many_molecule_many_mode_NAMD/src/NAMD/TEST_NVT/TRAJ/traj-20/G16/GS_NEW/"
 Entering Link 1 = /software/gaussian/g16-c01/avx2/g16/l1.exe PID=     19068.
  
 Copyright (c) 1988-2019, Gaussian, Inc.  All Rights Reserved.
  
 This is part of the Gaussian(R) 16 program.  It is based on
 the Gaussian(R) 09 system (copyright 2009, Gaussian, Inc.),
 the Gaussian(R) 03 system (copyright 2003, Gaussian, Inc.),
 the Gaussian(R) 98 system (copyright 1998, Gaussian, Inc.),
 the Gaussian(R) 94 system (copyright 1995, Gaussian, Inc.),
 the Gaussian 92(TM) system (copyright 1992, Gaussian, Inc.),
 the Gaussian 90(TM) system (copyright 1990, Gaussian, Inc.),
 the Gaussian 88(TM) system (copyright 1988, Gaussian, Inc.),
 the Gaussian 86(TM) system (copyright 1986, Carnegie Mellon
 University), and the Gaussian 82(TM) system (copyright 1983,
 Carnegie Mellon University). Gaussian is a federally registered
 trademark of Gaussian, Inc.
  
 This software contains proprietary and confidential information,
 including trade secrets, belonging to Gaussian, Inc.
  
 This software is provided under written license and may be
 used, copied, transmitted, or stored only in accord with that
 written license.
  
 The following legend is applicable only to US Government
 contracts under FAR:
  
                    RESTRICTED RIGHTS LEGEND
  
 Use, reproduction and disclosure by the US Government is
 subject to restrictions as set forth in subparagraphs (a)
 and (c) of the Commercial Computer Software - Restricted
 Rights clause in FAR 52.227-19.
  
 Gaussian, Inc.
 340 Quinnipiac St., Bldg. 40, Wallingford CT 06492
  
  
 ---------------------------------------------------------------
 Warning -- This program may not be used in any manner that
 competes with the business of Gaussian, Inc. or will provide
 assistance to any competitor of Gaussian, Inc.  The licensee
 of this program is prohibited from giving any competitor of
 Gaussian, Inc. access to this program.  By using this program,
 the user acknowledges that Gaussian, Inc. is engaged in the
 business of creating and licensing software in the field of
 computational chemistry and represents and warrants to the
 licensee that it is not a competitor of Gaussian, Inc. and that
 it will not use this program in any manner prohibited above.
 ---------------------------------------------------------------
  

 Cite this work as:
 Gaussian 16, Revision C.01,
 M. J. Frisch, G. W. Trucks, H. B. Schlegel, G. E. Scuseria, 
 M. A. Robb, J. R. Cheeseman, G. Scalmani, V. Barone, 
 G. A. Petersson, H. Nakatsuji, X. Li, M. Caricato, A. V. Marenich, 
 J. Bloino, B. G. Janesko, R. Gomperts, B. Mennucci, H. P. Hratchian, 
 J. V. Ortiz, A. F. Izmaylov, J. L. Sonnenberg, D. Williams-Young, 
 F. Ding, F. Lipparini, F. Egidi, J. Goings, B. Peng, A. Petrone, 
 T. Henderson, D. Ranasinghe, V. G. Zakrzewski, J. Gao, N. Rega, 
 G. Zheng, W. Liang, M. Hada, M. Ehara, K. Toyota, R. Fukuda, 
 J. Hasegawa, M. Ishida, T. Nakajima, Y. Honda, O. Kitao, H. Nakai, 
 T. Vreven, K. Throssell, J. A. Montgomery, Jr., J. E. Peralta, 
 F. Ogliaro, M. J. Bearpark, J. J. Heyd, E. N. Brothers, K. N. Kudin, 
 V. N. Staroverov, T. A. Keith, R. Kobayashi, J. Normand, 
 K. Raghavachari, A. P. Rendell, J. C. Burant, S. S. Iyengar, 
 J. Tomasi, M. Cossi, J. M. Millam, M. Klene, C. Adamo, R. Cammi, 
 J. W. Ochterski, R. L. Martin, K. Morokuma, O. Farkas, 
 J. B. Foresman, and D. J. Fox, Gaussian, Inc., Wallingford CT, 2019.
 
 ******************************************
 Gaussian 16:  ES64L-G16RevC.01  3-Jul-2019
                11-Jan-2023 
 ******************************************
 %oldchk=../GS_OLD/geometry.chk
 %chk=geometry.chk
 %nprocshared=4
 Will use up to    4 processors via shared memory.
 %mem=5GB
 Copying data from "../GS_OLD/geometry.chk" to current chk file "geometry.chk"
 IOpt=  2 FromEx=T IUOpen= 4 IOptOp= 5 NList=   0 IFRang= 0 IUIn= 4 IUOut= 2.
 -------------------------------------------------------
 # WB97XD/6-311G SCF=XQC FORCE nosym pop=full guess=read
 -------------------------------------------------------
 1/10=7,30=1,38=1/1,3;
 2/12=2,15=1,17=6,18=5,40=1/2;
 3/5=4,6=6,11=2,25=1,30=1,71=1,74=-58,116=-2/1,2,3;
 4/5=1/1;
 5/5=2,8=3,13=1,38=6/2,8;
 6/7=3,28=1/1;
 7/29=1,30=1/1,2,3,16;
 1/10=7,30=1/3;
 99//99;
 ------------
 MD Step 1000
 ------------
 Symbolic Z-matrix:
 Charge =  0 Multiplicity = 1
 C                    -0.3356   -0.58121   0.00575 
 H                     0.20948  -1.53414  -0.02008 
 H                    -1.42316  -0.59157  -0.02068 
 C                     0.33388   0.5781    0.0045 
 H                    -0.17045   1.56056  -0.02173 
 H                     1.44321   0.64079  -0.02109 
 

 GradGradGradGradGradGradGradGradGradGradGradGradGradGradGradGradGradGrad
 Berny optimization.
 Initialization pass.
 Trust Radius=3.00D-01 FncErr=1.00D-07 GrdErr=1.00D-07 EigMax=2.50D+02 EigMin=1.00D-04
 Number of steps in this run=      2 maximum allowed number of steps=      2.
 GradGradGradGradGradGradGradGradGradGradGradGradGradGradGradGradGradGrad

                          Input orientation:                          
 ---------------------------------------------------------------------
 Center     Atomic      Atomic             Coordinates (Angstroms)
 Number     Number       Type             X           Y           Z
 ---------------------------------------------------------------------
      1          6           0       -0.335598   -0.581206    0.005752
      2          1           0        0.209477   -1.534145   -0.020078
      3          1           0       -1.423165   -0.591566   -0.020678
      4          6           0        0.333879    0.578096    0.004500
      5          1           0       -0.170455    1.560563   -0.021727
      6          1           0        1.443211    0.640786   -0.021091
 ---------------------------------------------------------------------
                    Distance matrix (angstroms):
                    1          2          3          4          5
     1  C    0.000000
     2  H    1.098119   0.000000
     3  H    1.087937   1.885198   0.000000
     4  C    1.338724   2.116044   2.110912   0.000000
     5  H    2.148302   3.117943   2.490170   1.104664   0.000000
     6  H    2.158274   2.500485   3.120065   1.111397   1.857393
                    6
     6  H    0.000000
 Symmetry turned off by external request.
 Stoichiometry    C2H4
 Framework group  C1[X(C2H4)]
 Deg. of freedom    12
 Full point group                 C1      NOp   1
 Rotational constants (GHZ):         143.0984237          29.6707537          24.5807861
 Standard basis: 6-311G (5D, 7F)
    38 basis functions,    72 primitive gaussians,    38 cartesian basis functions
     8 alpha electrons        8 beta electrons
       nuclear repulsion energy        33.0538033658 Hartrees.
 NAtoms=    6 NActive=    6 NUniq=    6 SFac= 1.00D+00 NAtFMM=   60 NAOKFM=F Big=F
 Integral buffers will be    131072 words long.
 Raffenetti 2 integral format.
 Two-electron integral symmetry is turned off.
 Nuclear repulsion after empirical dispersion term =       33.0529609464 Hartrees.
 One-electron integrals computed using PRISM.
 NBasis=    38 RedAO= T EigKep=  6.45D-03  NBF=    38
 NBsUse=    38 1.00D-06 EigRej= -1.00D+00 NBFU=    38
 Initial guess from the checkpoint file:  "geometry.chk"
 B after Tr=    -0.000268   -0.000439   -0.000498
         Rot=    1.000000   -0.000001    0.000001    0.000005 Ang=  -0.00 deg.
 Keep R1 ints in memory in canonical form, NReq=4036876.
 Requested convergence on RMS density matrix=1.00D-08 within  32 cycles.
 Requested convergence on MAX density matrix=1.00D-06.
 Requested convergence on             energy=1.00D-06.
 No special actions if energy rises.
 SCF Done:  E(RwB97XD) =  -78.5560448587     A.U. after    8 cycles
            NFock=  8  Conv=0.55D-08     -V/T= 2.0052
 QCSCF skips out because SCF is already converged.

 **********************************************************************

            Population analysis using the SCF Density.

 **********************************************************************

 Alpha  occ. eigenvalues --  -10.29044 -10.28822  -0.86356  -0.67201  -0.55911
 Alpha  occ. eigenvalues --   -0.50915  -0.43683  -0.35674
 Alpha virt. eigenvalues --    0.07975   0.14089   0.16460   0.17011   0.24077
 Alpha virt. eigenvalues --    0.37522   0.39334   0.39680   0.46430   0.48761
 Alpha virt. eigenvalues --    0.49384   0.59097   0.66556   0.69066   0.77271
 Alpha virt. eigenvalues --    0.77543   0.84365   0.95164   2.23191   2.29010
 Alpha virt. eigenvalues --    2.33221   2.40683   2.67101   2.81790   2.87810
 Alpha virt. eigenvalues --    2.95235   3.13937   3.31925  23.35214  23.70533
     Molecular Orbital Coefficients:
                           1         2         3         4         5
                           O         O         O         O         O
     Eigenvalues --   -10.29044 -10.28822  -0.86356  -0.67201  -0.55911
   1 1   C  1S          0.11316   0.55192  -0.08828   0.06690  -0.00043
   2        2S          0.09333   0.45420  -0.13951   0.10717  -0.00071
   3        2PX         0.00016  -0.00002   0.02597   0.03690   0.13559
   4        2PY         0.00028  -0.00003   0.04633   0.06105  -0.07435
   5        2PZ         0.00000  -0.00001  -0.00106   0.00164   0.00014
   6        3S          0.00207   0.01447   0.37419  -0.29253   0.00199
   7        3PX        -0.00060   0.00044   0.03409   0.05912   0.21243
   8        3PY        -0.00102   0.00079   0.06061   0.09873  -0.11707
   9        3PZ        -0.00001  -0.00003  -0.00178   0.00291   0.00020
  10        4S          0.00299  -0.01471   0.19165  -0.22785   0.00186
  11        4PX         0.00145  -0.00156   0.00480   0.02372   0.11072
  12        4PY         0.00251  -0.00271   0.00867   0.04096  -0.06180
  13        4PZ         0.00001   0.00007  -0.00063   0.00145   0.00009
  14 2   H  1S         -0.00005  -0.00006   0.05221  -0.08826   0.10134
  15        2S         -0.00030   0.00011   0.05352  -0.10619   0.12829
  16        3S          0.00086   0.00165  -0.00166  -0.01533   0.04146
  17 3   H  1S         -0.00005  -0.00007   0.05351  -0.09113  -0.10336
  18        2S         -0.00030   0.00010   0.05433  -0.10901  -0.13008
  19        3S          0.00087   0.00169  -0.00166  -0.01612  -0.04205
  20 4   C  1S          0.55190  -0.11335  -0.08694  -0.06832  -0.00019
  21        2S          0.45426  -0.09309  -0.13730  -0.10955  -0.00030
  22        2PX        -0.00003  -0.00016  -0.02758   0.03708   0.12012
  23        2PY        -0.00004  -0.00028  -0.04665   0.06570  -0.07336
  24        2PZ        -0.00000   0.00000  -0.00085  -0.00161   0.00014
  25        3S          0.01398  -0.00377   0.36794   0.29935   0.00086
  26        3PX        -0.00019   0.00073  -0.03487   0.06010   0.18819
  27        3PY        -0.00031   0.00126  -0.05878   0.10607  -0.11418
  28        3PZ        -0.00003  -0.00000  -0.00147  -0.00291   0.00021
  29        4S         -0.01210   0.00862   0.18930   0.23721   0.00003
  30        4PX         0.00085  -0.00193  -0.00549   0.02612   0.10299
  31        4PY         0.00143  -0.00335  -0.00904   0.04480  -0.06172
  32        4PZ         0.00006  -0.00002  -0.00060  -0.00150   0.00010
  33 5   H  1S         -0.00006  -0.00004   0.05010   0.09272  -0.09096
  34        2S         -0.00002  -0.00031   0.05127   0.11100  -0.11493
  35        3S          0.00181   0.00011  -0.00117   0.01664  -0.03695
  36 6   H  1S         -0.00005  -0.00004   0.04906   0.09151   0.08775
  37        2S         -0.00003  -0.00032   0.05070   0.10988   0.11115
  38        3S          0.00178   0.00011  -0.00124   0.01618   0.03594
                           6         7         8         9        10
                           O         O         O         V         V
     Eigenvalues --    -0.50915  -0.43683  -0.35674   0.07975   0.14089
   1 1   C  1S         -0.00426   0.00009  -0.00083   0.00223  -0.03332
   2        2S         -0.00646   0.00015  -0.00134   0.00369  -0.05345
   3        2PX         0.09522  -0.11230  -0.00277   0.00124  -0.03271
   4        2PY         0.16718   0.06682  -0.00471   0.00209  -0.06371
   5        2PZ         0.00418   0.00000   0.17937  -0.18912  -0.00207
   6        3S          0.02356  -0.00022   0.00394  -0.01115   0.11631
   7        3PX         0.13867  -0.17910  -0.00391   0.00188  -0.03893
   8        3PY         0.24456   0.10710  -0.00664   0.00314  -0.07845
   9        3PZ         0.00662   0.00003   0.28829  -0.27803  -0.00327
  10        4S         -0.04926  -0.00258   0.00559  -0.01293   1.21541
  11        4PX         0.07022  -0.11167  -0.00322   0.01025  -0.20265
  12        4PY         0.12459   0.06694  -0.00549   0.01750  -0.38418
  13        4PZ         0.00379   0.00005   0.26727  -0.69509  -0.01225
  14 2   H  1S         -0.07974  -0.11604   0.00011   0.00348  -0.01600
  15        2S         -0.11024  -0.17947   0.00165   0.00559  -0.04536
  16        3S         -0.04126  -0.08316   0.00096   0.01450  -0.82290
  17 3   H  1S         -0.07922   0.11400   0.00007   0.00349  -0.01327
  18        2S         -0.10897   0.17555   0.00160   0.00559  -0.03936
  19        3S         -0.04053   0.08103   0.00093   0.01421  -0.78038
  20 4   C  1S         -0.00774  -0.00037  -0.00065  -0.00213  -0.03637
  21        2S         -0.01209  -0.00060  -0.00105  -0.00354  -0.05841
  22        2PX        -0.09765   0.12345   0.00270   0.00132   0.03947
  23        2PY        -0.16306  -0.07279   0.00491   0.00239   0.06242
  24        2PZ         0.00433   0.00014   0.17920   0.18950  -0.00239
  25        3S          0.03954   0.00171   0.00310   0.01064   0.12897
  26        3PX        -0.14428   0.19778   0.00378   0.00202   0.04812
  27        3PY        -0.23963  -0.11586   0.00690   0.00366   0.07441
  28        3PZ         0.00684   0.00021   0.28691   0.27787  -0.00365
  29        4S         -0.03263   0.00217   0.00540   0.01182   1.25078
  30        4PX        -0.07501   0.12581   0.00289   0.01050   0.25473
  31        4PY        -0.12355  -0.07346   0.00538   0.01846   0.41270
  32        4PZ         0.00394   0.00013   0.26741   0.69605  -0.01395
  33 5   H  1S         -0.07520  -0.12394   0.00019  -0.00323  -0.01333
  34        2S         -0.10305  -0.19308   0.00170  -0.00530  -0.03968
  35        3S         -0.03854  -0.09045   0.00098  -0.01408  -0.83270
  36 6   H  1S         -0.08007   0.12310   0.00015  -0.00324  -0.01578
  37        2S         -0.11000   0.19263   0.00164  -0.00539  -0.04607
  38        3S         -0.04121   0.09032   0.00093  -0.01437  -0.87653
                          11        12        13        14        15
                           V         V         V         V         V
     Eigenvalues --     0.16460   0.17011   0.24077   0.37522   0.39334
   1 1   C  1S          0.00060  -0.04541   0.00013   0.01128   0.00118
   2        2S          0.00097  -0.07399   0.00020   0.01603   0.00188
   3        2PX         0.09702  -0.02047   0.10016  -0.03811  -0.02442
   4        2PY        -0.05497  -0.03759  -0.05733  -0.06851   0.01034
   5        2PZ         0.00005  -0.00545   0.00002  -0.00392  -0.00014
   6        3S         -0.00209   0.16691   0.00019   0.02731  -0.00008
   7        3PX         0.13904  -0.01253   0.10683  -0.05198  -0.10667
   8        3PY        -0.07942  -0.02497  -0.06196  -0.09836   0.04976
   9        3PZ         0.00007  -0.00757  -0.00001  -0.00784  -0.00009
  10        4S         -0.03016   1.43593  -0.02609  -2.80317  -0.22297
  11        4PX         0.57394  -0.11729   1.16224  -1.59354  -0.54115
  12        4PY        -0.31734  -0.20963  -0.67040  -2.77393   0.15108
  13        4PZ         0.00044  -0.03555   0.00055  -0.03502  -0.00175
  14 2   H  1S         -0.02976  -0.02526   0.01273  -0.05363   0.07743
  15        2S         -0.07965  -0.01844  -0.02479  -0.61853   0.79284
  16        3S         -1.03838  -1.00482  -1.54204  -0.34741  -0.34523
  17 3   H  1S          0.02883  -0.02521  -0.01438  -0.04713  -0.07624
  18        2S          0.07832  -0.02028   0.01977  -0.56406  -0.76086
  19        3S          1.07707  -1.01085   1.57226  -0.41182   0.26862
  20 4   C  1S          0.00099   0.04259  -0.00015  -0.01967  -0.00008
  21        2S          0.00159   0.06935  -0.00025  -0.03200   0.00004
  22        2PX         0.10134  -0.02329  -0.10015  -0.04183  -0.03120
  23        2PY        -0.06033  -0.03680   0.05744  -0.07517   0.01225
  24        2PZ         0.00013   0.00523  -0.00002   0.00293   0.00031
  25        3S         -0.00318  -0.15455   0.00029   0.03546  -0.00279
  26        3PX         0.14563  -0.01815  -0.11283  -0.09136  -0.10947
  27        3PY        -0.08588  -0.02622   0.06369  -0.16722   0.05616
  28        3PZ         0.00018   0.00719   0.00000   0.00375   0.00071
  29        4S         -0.04557  -1.34057   0.01827   3.39110   0.15100
  30        4PX         0.54560  -0.12084  -1.13054  -1.26154  -0.57077
  31        4PY        -0.32809  -0.19316   0.64885  -2.22297   0.07328
  32        4PZ         0.00081   0.03405  -0.00053   0.03046   0.00252
  33 5   H  1S          0.03111   0.02494   0.00697   0.01480  -0.07848
  34        2S          0.06953   0.02115  -0.03293   0.12072  -0.76837
  35        3S          1.07430   0.93362  -1.52569   0.46063   0.45943
  36 6   H  1S         -0.03114   0.02565  -0.00603   0.00907   0.08778
  37        2S         -0.07009   0.02120   0.03392   0.07172   0.89812
  38        3S         -1.01321   0.95304   1.50703   0.47757  -0.43308
                          16        17        18        19        20
                           V         V         V         V         V
     Eigenvalues --     0.39680   0.46430   0.48761   0.49384   0.59097
   1 1   C  1S         -0.01687   0.01164  -0.04720  -0.00004  -0.00045
   2        2S         -0.03001   0.02757  -0.07918   0.00015  -0.00081
   3        2PX         0.02271  -0.06160   0.01391   0.00099   0.00171
   4        2PY         0.04279  -0.10614   0.01887   0.00148   0.00259
   5        2PZ        -0.00008  -0.00053   0.00331  -0.15191  -0.19251
   6        3S          0.07640  -0.33516   0.10336  -0.00809  -0.00029
   7        3PX         0.09412  -0.24419  -0.02508   0.00083   0.00572
   8        3PY         0.18103  -0.41908  -0.05391   0.00068   0.00876
   9        3PZ        -0.00363  -0.00376   0.01527  -0.62865  -0.68473
  10        4S          2.34166   0.11208   3.15963   0.06125   0.05464
  11        4PX         0.07770   0.22653   0.79754   0.02020   0.01769
  12        4PY         0.18879   0.42764   1.39445   0.03657   0.02987
  13        4PZ        -0.00414  -0.00065  -0.06797   0.68658   1.24028
  14 2   H  1S         -0.02820  -0.03581  -0.07621  -0.00172  -0.00138
  15        2S         -0.55894  -0.33820  -0.91011  -0.01556  -0.00970
  16        3S          0.25651   0.08038   0.64412   0.02182   0.01890
  17 3   H  1S         -0.03774  -0.03850  -0.07403  -0.00169  -0.00130
  18        2S         -0.64885  -0.37144  -0.88996  -0.01552  -0.00821
  19        3S          0.28059   0.08327   0.61119   0.02124   0.01849
  20 4   C  1S         -0.00315  -0.00178   0.05085   0.00220   0.00056
  21        2S         -0.00869   0.00476   0.08819   0.00399   0.00105
  22        2PX         0.00497   0.05484   0.02631  -0.00006   0.00161
  23        2PY         0.01232   0.09583   0.04848  -0.00014   0.00313
  24        2PZ        -0.00268  -0.00121   0.00342  -0.15277   0.19224
  25        3S          0.08132  -0.29101  -0.22200  -0.01577  -0.00185
  26        3PX        -0.05126   0.23532   0.04832  -0.00023   0.00568
  27        3PY        -0.07418   0.41337   0.08842  -0.00071   0.01080
  28        3PZ        -0.00795  -0.00522   0.01218  -0.63150   0.68237
  29        4S         -0.50200   0.75150  -3.10935  -0.07704  -0.04977
  30        4PX         1.09718  -0.36971   0.65543   0.01141   0.01676
  31        4PY         2.00780  -0.61264   1.11011   0.01896   0.02951
  32        4PZ        -0.02387  -0.01171   0.03213   0.69311  -1.23751
  33 5   H  1S         -0.05158  -0.06210   0.06453   0.00156   0.00126
  34        2S         -0.86534  -0.62966   0.80561   0.02404   0.00531
  35        3S         -0.11675   0.26598  -0.56193  -0.00613  -0.01829
  36 6   H  1S         -0.04100  -0.06029   0.06528   0.00161   0.00131
  37        2S         -0.75139  -0.60363   0.80381   0.02392   0.00618
  38        3S         -0.15970   0.27493  -0.58314  -0.00694  -0.01854
                          21        22        23        24        25
                           V         V         V         V         V
     Eigenvalues --     0.66556   0.69066   0.77271   0.77543   0.84365
   1 1   C  1S          0.00058  -0.00040   0.05368   0.07136   0.00078
   2        2S          0.00118  -0.00093   0.11331   0.15219   0.00174
   3        2PX        -0.13073   0.19925  -0.02237   0.11389  -0.00936
   4        2PY         0.07636  -0.11856  -0.03958   0.18818   0.01041
   5        2PZ        -0.00004   0.00014   0.00063   0.00399   0.00011
   6        3S         -0.00917   0.01310  -0.77349  -1.32205  -0.01580
   7        3PX        -0.61021   0.69900  -0.16189   0.44466  -0.22792
   8        3PY         0.35373  -0.41541  -0.28490   0.72919   0.15075
   9        3PZ        -0.00024   0.00055   0.00231   0.01394   0.00045
  10        4S          0.01685  -0.07116   0.80562   2.44136  -0.06870
  11        4PX         1.10595  -0.80084   0.12519  -0.71869   4.46002
  12        4PY        -0.64320   0.47026   0.20600  -1.04494  -2.58436
  13        4PZ         0.00024   0.00050   0.00613  -0.04521   0.00211
  14 2   H  1S          0.02240  -0.05894   0.01169   0.03208  -0.02690
  15        2S          0.11906  -0.62772   0.08273   0.08176  -1.55148
  16        3S         -1.03221   1.10841  -0.11750  -1.11640  -1.21281
  17 3   H  1S         -0.02195   0.05863   0.01154   0.03282   0.02914
  18        2S         -0.12896   0.65750   0.09075   0.06709   1.58400
  19        3S          1.02480  -1.08729  -0.12011  -1.22055   1.21760
  20 4   C  1S          0.00078  -0.00057   0.08488   0.02857   0.00073
  21        2S          0.00156  -0.00109   0.18067   0.06002   0.00155
  22        2PX        -0.15317  -0.18381  -0.09595   0.05593   0.01048
  23        2PY         0.08775   0.10322  -0.17052   0.10125  -0.00209
  24        2PZ        -0.00005  -0.00016   0.00399  -0.00094  -0.00011
  25        3S         -0.01074   0.00237  -1.50351  -0.32845  -0.01135
  26        3PX        -0.68817  -0.61975  -0.34754   0.29128   0.23900
  27        3PY         0.39594   0.34624  -0.61958   0.52402  -0.11639
  28        3PZ        -0.00026  -0.00055   0.01412  -0.00351  -0.00035
  29        4S          0.00860   0.04295   2.66623   0.04039   0.05284
  30        4PX         1.26570   0.71537   0.53575  -0.29064  -4.24046
  31        4PY        -0.72280  -0.41059   0.97842  -0.67004   2.38841
  32        4PZ         0.00048  -0.00021  -0.04067   0.02142  -0.00161
  33 5   H  1S         -0.02631  -0.05529   0.03469   0.00151  -0.02367
  34        2S         -0.15757  -0.56999   0.08042   0.06521  -1.43638
  35        3S          1.12272   0.97528  -1.13881   0.31584  -1.11645
  36 6   H  1S          0.02667   0.05489   0.03444   0.00222   0.02417
  37        2S          0.15396   0.54333   0.07558   0.02860   1.42871
  38        3S         -1.12494  -0.97798  -1.10162   0.26345   1.12058
                          26        27        28        29        30
                           V         V         V         V         V
     Eigenvalues --     0.95164   2.23191   2.29010   2.33221   2.40683
   1 1   C  1S          0.09557  -0.01031  -0.01424   0.00024  -0.00038
   2        2S          0.19854   0.00112  -0.01433   0.00067  -0.00037
   3        2PX        -0.09118  -0.08690  -0.13294   0.33792  -0.41012
   4        2PY        -0.15806  -0.15876  -0.22780  -0.19403   0.23583
   5        2PZ         0.00014  -0.01130  -0.01481  -0.00008  -0.00046
   6        3S         -1.53861  -0.18331  -0.03330  -0.00213  -0.00407
   7        3PX        -0.23169   0.08811   0.21135  -0.40554   0.57137
   8        3PY        -0.39562   0.17201   0.37390   0.23507  -0.33146
   9        3PZ        -0.00209   0.01145   0.01850   0.00017   0.00053
  10        4S          5.71578  -0.11893  -0.88939  -0.00232  -0.02846
  11        4PX         1.18540   0.05029  -0.19430  -0.02370   0.96441
  12        4PY         1.99056   0.06337  -0.35173   0.00636  -0.54588
  13        4PZ        -0.01505   0.00286   0.00652  -0.00016   0.00091
  14 2   H  1S          0.01582  -0.72127  -0.77586  -0.70424   0.66188
  15        2S         -0.28943   1.02759   1.16611   1.07465  -1.46823
  16        3S         -0.08984  -0.31029  -0.46297  -0.47263   0.37617
  17 3   H  1S          0.01594  -0.71586  -0.77927   0.68987  -0.67952
  18        2S         -0.26830   1.02237   1.17253  -1.05674   1.50490
  19        3S         -0.08014  -0.29170  -0.45563   0.46007  -0.37070
  20 4   C  1S         -0.09420  -0.01020   0.01241   0.00035   0.00020
  21        2S         -0.19544   0.00057   0.01229   0.00049   0.00031
  22        2PX        -0.09217   0.12672  -0.12577   0.31264   0.41566
  23        2PY        -0.15899   0.22244  -0.21185  -0.18048  -0.23601
  24        2PZ         0.00024  -0.01147   0.01420   0.00022   0.00017
  25        3S          1.51217  -0.17138   0.02163  -0.00006  -0.00010
  26        3PX        -0.22670  -0.15905   0.21404  -0.38951  -0.58264
  27        3PY        -0.39528  -0.27618   0.35615   0.22330   0.33016
  28        3PZ         0.00284   0.01222  -0.01814  -0.00025  -0.00026
  29        4S         -5.69663  -0.15632   0.88650   0.01400   0.01386
  30        4PX         1.11986  -0.01754  -0.19684   0.08647  -0.87780
  31        4PY         1.98527  -0.03576  -0.32819  -0.05081   0.50288
  32        4PZ         0.01038   0.00334  -0.00520  -0.00009  -0.00071
  33 5   H  1S         -0.01773  -0.77892   0.69200   0.71025   0.67768
  34        2S          0.28992   1.12738  -1.05233  -1.04114  -1.45350
  35        3S          0.06711  -0.34993   0.41318   0.50873   0.41642
  36 6   H  1S         -0.01777  -0.77083   0.71326  -0.69714  -0.67685
  37        2S          0.30644   1.11401  -1.08197   1.01897   1.44748
  38        3S          0.06939  -0.34822   0.43451  -0.50397  -0.42034
                          31        32        33        34        35
                           V         V         V         V         V
     Eigenvalues --     2.67101   2.81790   2.87810   2.95235   3.13937
   1 1   C  1S          0.00042   0.00206  -0.01339   0.00002  -0.00940
   2        2S          0.00037   0.00601  -0.04469  -0.00017  -0.02877
   3        2PX         0.00459   0.05899  -0.46658  -0.74015   0.45501
   4        2PY         0.00738   0.10321  -0.83498   0.41195   0.80100
   5        2PZ        -0.92387  -0.93372  -0.11452  -0.00091   0.00622
   6        3S         -0.00169  -0.04988   0.39329   0.00306   0.24178
   7        3PX        -0.00381  -0.10272   0.83252   0.89096  -0.44552
   8        3PY        -0.00620  -0.17850   1.46717  -0.48414  -0.78527
   9        3PZ         0.93896   1.14125   0.14364   0.00125  -0.00804
  10        4S          0.01146   0.11488  -0.87672  -0.01142  -0.46890
  11        4PX        -0.00113   0.08310  -0.71652  -0.67237   0.23071
  12        4PY        -0.00134   0.14470  -1.26590   0.35800   0.40840
  13        4PZ        -0.33777  -0.61813  -0.09096  -0.00100   0.00520
  14 2   H  1S          0.00983  -0.01698   0.26817  -0.38066  -0.22191
  15        2S         -0.01137   0.01112  -0.22736   0.39200   0.16892
  16        3S         -0.00215   0.03307  -0.29682   0.26971   0.06952
  17 3   H  1S          0.00991  -0.01631   0.25717   0.38429  -0.21796
  18        2S         -0.01161   0.00982  -0.20860  -0.39134   0.16428
  19        3S         -0.00252   0.03368  -0.29962  -0.28561   0.07229
  20 4   C  1S          0.00040  -0.00203   0.01371   0.00049  -0.00762
  21        2S          0.00035  -0.00624   0.04767   0.00119  -0.02376
  22        2PX        -0.00555   0.05350  -0.41661  -0.79551  -0.49760
  23        2PY        -0.01002   0.09578  -0.74769   0.44434  -0.87743
  24        2PZ        -0.92559   0.93172   0.11563   0.00038   0.00976
  25        3S         -0.00180   0.05335  -0.42652  -0.00952   0.20384
  26        3PX         0.00546  -0.09691   0.77833   0.94930   0.52620
  27        3PY         0.00972  -0.17196   1.38296  -0.52151   0.93434
  28        3PZ         0.94133  -1.13924  -0.14569  -0.00048  -0.01224
  29        4S          0.01163  -0.11662   0.90084   0.02600  -0.38873
  30        4PX        -0.00016   0.08195  -0.70979  -0.69623  -0.31283
  31        4PY        -0.00071   0.14434  -1.24719   0.37494  -0.55935
  32        4PZ        -0.33901   0.61714   0.09287   0.00031   0.00934
  33 5   H  1S          0.00939   0.02169  -0.28916   0.41541  -0.25505
  34        2S         -0.01143  -0.01721   0.25918  -0.42732   0.19919
  35        3S         -0.00128  -0.03171   0.28668  -0.24719   0.11502
  36 6   H  1S          0.00953   0.02206  -0.28780  -0.42335  -0.24738
  37        2S         -0.01187  -0.01808   0.26351   0.43472   0.19290
  38        3S         -0.00101  -0.03004   0.27130   0.24980   0.11188
                          36        37        38
                           V         V         V
     Eigenvalues --     3.31925  23.35214  23.70533
   1 1   C  1S         -0.00043  -1.41731  -1.44903
   2        2S         -0.00069   1.51154   1.56693
   3        2PX         0.77623  -0.00659   0.01210
   4        2PY        -0.43704  -0.01084   0.02129
   5        2PZ         0.00059  -0.00045  -0.00020
   6        3S          0.00196  -0.29666  -0.39844
   7        3PX        -1.10826   0.02408  -0.05546
   8        3PY         0.62280   0.04015  -0.09673
   9        3PZ        -0.00090   0.00128   0.00058
  10        4S         -0.02268   0.27397   0.76757
  11        4PX         1.94731  -0.02611   0.13204
  12        4PY        -1.10136  -0.04422   0.22927
  13        4PZ         0.00148  -0.00215  -0.00246
  14 2   H  1S          0.55249   0.01320   0.00675
  15        2S         -0.86184   0.00778  -0.01443
  16        3S         -0.46101  -0.08408  -0.03913
  17 3   H  1S         -0.56261   0.01467   0.00789
  18        2S          0.87592   0.00738  -0.01497
  19        3S          0.47960  -0.08575  -0.03987
  20 4   C  1S          0.00015  -1.44426   1.42205
  21        2S          0.00003   1.54037  -1.53784
  22        2PX        -0.72000   0.00606   0.01267
  23        2PY         0.40851   0.01083   0.02152
  24        2PZ        -0.00043  -0.00044   0.00011
  25        3S          0.00192  -0.30243   0.39128
  26        3PX         1.02498  -0.02225  -0.05652
  27        3PY        -0.58750  -0.03946  -0.09697
  28        3PZ         0.00065   0.00125  -0.00029
  29        4S         -0.00021   0.27970  -0.76032
  30        4PX        -1.81021   0.02315   0.13196
  31        4PY         1.04036   0.04242   0.22682
  32        4PZ        -0.00110  -0.00203   0.00181
  33 5   H  1S          0.49490   0.01309  -0.00491
  34        2S         -0.77374   0.00805   0.01384
  35        3S         -0.43111  -0.08309   0.03789
  36 6   H  1S         -0.49207   0.01207  -0.00390
  37        2S          0.77104   0.00916   0.01308
  38        3S          0.42635  -0.08184   0.03683
     Density Matrix:
                           1         2         3         4         5
   1 1   C  1S          0.65941
   2        2S          0.56152   0.49201
   3        2PX        -0.00058  -0.00078   0.08421
   4        2PY        -0.00132  -0.00184   0.00360   0.08768
   5        2PZ         0.00007   0.00011  -0.00010  -0.00021   0.06439
   6        3S         -0.08898  -0.15390   0.00290   0.00647  -0.00014
   7        3PX         0.00085   0.00131   0.13040   0.00125  -0.00007
   8        3PY         0.00120   0.00183   0.00124   0.13122  -0.00017
   9        3PZ         0.00014   0.00023  -0.00017  -0.00033   0.10349
  10        4S         -0.07947  -0.11450  -0.01519  -0.02720   0.00044
  11        4PX         0.00023   0.00151   0.07050  -0.00454  -0.00047
  12        4PY         0.00054   0.00288  -0.00456   0.06565  -0.00083
  13        4PZ        -0.00009  -0.00022  -0.00067  -0.00114   0.09592
  14 2   H  1S         -0.02053  -0.03270   0.03456  -0.06318  -0.00100
  15        2S         -0.02281  -0.03647   0.04904  -0.08795  -0.00076
  16        3S          0.00056  -0.00072   0.02084  -0.03311  -0.00004
  17 3   H  1S         -0.02094  -0.03333  -0.07267  -0.00205  -0.00108
  18        2S         -0.02307  -0.03685  -0.10069  -0.00192  -0.00084
  19        3S          0.00059  -0.00069  -0.03860   0.00140  -0.00006
  20 4   C  1S          0.00606   0.00977  -0.01082  -0.01869  -0.00033
  21        2S          0.00974   0.01522  -0.01731  -0.02990  -0.00055
  22        2PX         0.01039   0.01661  -0.01246  -0.03207   0.00037
  23        2PY         0.01814   0.02901  -0.03220  -0.04969   0.00069
  24        2PZ        -0.00040  -0.00064  -0.00033  -0.00052   0.06432
  25        3S         -0.02625  -0.03984   0.04857   0.08394   0.00164
  26        3PX         0.01606   0.02489  -0.01826  -0.04573   0.00047
  27        3PY         0.02800   0.04342  -0.04584  -0.07119   0.00091
  28        3PZ        -0.00067  -0.00108  -0.00057  -0.00091   0.10298
  29        4S          0.00536   0.00400   0.02061   0.03582   0.00204
  30        4PX         0.00309   0.00639  -0.01298  -0.02093   0.00054
  31        4PY         0.00529   0.01099  -0.02096  -0.03737   0.00105
  32        4PZ        -0.00057  -0.00093  -0.00087  -0.00144   0.09596
  33 5   H  1S          0.00420   0.00691  -0.00171  -0.01222  -0.00039
  34        2S          0.00639   0.01063   0.00342  -0.02488  -0.00003
  35        3S          0.00331   0.00485   0.00412  -0.01757   0.00007
  36 6   H  1S          0.00416   0.00683  -0.00980  -0.00765  -0.00040
  37        2S          0.00626   0.01042  -0.02334  -0.00946  -0.00005
  38        3S          0.00324   0.00475  -0.01726  -0.00520   0.00006
                           6         7         8         9        10
   6        3S          0.45276
   7        3PX        -0.00164   0.20221
   8        3PY        -0.00143  -0.00442   0.19690
   9        3PZ        -0.00045  -0.00012  -0.00027   0.16633
  10        4S          0.27405  -0.02588  -0.04694   0.00056   0.18268
  11        4PX        -0.00655   0.10967  -0.01020  -0.00077  -0.01488
  12        4PY        -0.01199  -0.01021   0.09895  -0.00133  -0.02816
  13        4PZ         0.00096  -0.00089  -0.00150   0.15416   0.00171
  14 2   H  1S          0.08741   0.05563  -0.09868  -0.00166   0.06907
  15        2S          0.09759   0.07930  -0.13690  -0.00128   0.08118
  16        3S          0.00605   0.03403  -0.05095  -0.00007   0.01097
  17 3   H  1S          0.08917  -0.11385  -0.00164  -0.00177   0.06887
  18        2S          0.09872  -0.15757  -0.00020  -0.00139   0.07986
  19        3S          0.00614  -0.06016   0.00398  -0.00010   0.01010
  20 4   C  1S         -0.02645  -0.01686  -0.02915  -0.00057   0.00520
  21        2S         -0.04005  -0.02619  -0.04531  -0.00092   0.00393
  22        2PX        -0.04649  -0.01778  -0.04550   0.00063  -0.01800
  23        2PY        -0.08126  -0.04577  -0.07092   0.00119  -0.03159
  24        2PZ         0.00192  -0.00044  -0.00069   0.10337   0.00198
  25        3S          0.10206   0.07115   0.12314   0.00275   0.00095
  26        3PX        -0.06735  -0.02620  -0.06468   0.00083  -0.02684
  27        3PY        -0.11765  -0.06498  -0.10156   0.00158  -0.04705
  28        3PZ         0.00319  -0.00078  -0.00122   0.16550   0.00330
  29        4S          0.00159   0.03112   0.05425   0.00338  -0.03260
  30        4PX        -0.02260  -0.01942  -0.02941   0.00089  -0.00679
  31        4PY        -0.03906  -0.02954  -0.05405   0.00173  -0.01139
  32        4PZ         0.00272  -0.00122  -0.00199   0.15423   0.00306
  33 5   H  1S         -0.02060  -0.00073  -0.01765  -0.00057  -0.01533
  34        2S         -0.03180   0.00836  -0.03674   0.00002  -0.02018
  35        3S         -0.01252   0.00789  -0.02645   0.00013  -0.00389
  36 6   H  1S         -0.02030  -0.01486  -0.00932  -0.00058  -0.01532
  37        2S         -0.03116  -0.03585  -0.01074   0.00000  -0.02035
  38        3S         -0.01221  -0.02669  -0.00620   0.00011  -0.00410
                          11        12        13        14        15
  11        4PX         0.06052
  12        4PY        -0.00906   0.05124
  13        4PZ        -0.00112  -0.00189   0.14290
  14 2   H  1S          0.03347  -0.05426  -0.00086   0.08121
  15        2S          0.04848  -0.07515  -0.00032   0.10957   0.14993
  16        3S          0.02121  -0.02784   0.00016   0.03682   0.05267
  17 3   H  1S         -0.06329   0.00176  -0.00091  -0.01310  -0.02489
  18        2S         -0.08798   0.00442  -0.00036  -0.02481  -0.04339
  19        3S         -0.03389   0.00458   0.00015  -0.01819  -0.02769
  20 4   C  1S         -0.00316  -0.00567  -0.00050   0.00422   0.00664
  21        2S         -0.00653  -0.01161  -0.00081   0.00697   0.01108
  22        2PX        -0.01321  -0.02012   0.00088   0.00184  -0.00278
  23        2PY        -0.02025  -0.03679   0.00162   0.01156   0.02432
  24        2PZ        -0.00063  -0.00104   0.09582  -0.00046  -0.00013
  25        3S          0.02313   0.04093   0.00237  -0.02095  -0.03331
  26        3PX        -0.02027  -0.02846   0.00120   0.00100  -0.00737
  27        3PY        -0.02864  -0.05352   0.00222   0.01710   0.03633
  28        3PZ        -0.00104  -0.00171   0.15341  -0.00068  -0.00012
  29        4S          0.00791   0.01470   0.00309  -0.01740  -0.02367
  30        4PX        -0.01465  -0.01255   0.00109  -0.00154  -0.00832
  31        4PY        -0.01260  -0.02951   0.00206   0.01539   0.02731
  32        4PZ        -0.00125  -0.00209   0.14297  -0.00038   0.00025
  33 5   H  1S          0.00186  -0.01563  -0.00029   0.01119   0.02340
  34        2S          0.00895  -0.02736   0.00034   0.02371   0.04445
  35        3S          0.00738  -0.01581   0.00026   0.01659   0.02783
  36 6   H  1S         -0.01450  -0.00597  -0.00030  -0.00905  -0.01820
  37        2S         -0.02817  -0.00550   0.00033  -0.01874  -0.03428
  38        3S         -0.01725  -0.00132   0.00025  -0.01009  -0.01768
                          16        17        18        19        20
  16        3S          0.02116
  17 3   H  1S         -0.01838   0.08225
  18        2S         -0.02783   0.10987   0.14890
  19        3S         -0.01311   0.03635   0.05156   0.02049
  20 4   C  1S          0.00364   0.00429   0.00670   0.00365   0.65947
  21        2S          0.00536   0.00707   0.01117   0.00537   0.56155
  22        2PX        -0.00355   0.00908   0.02230   0.01672   0.00111
  23        2PY         0.01763   0.00744   0.00969   0.00564   0.00176
  24        2PZ         0.00003  -0.00046  -0.00010   0.00005   0.00007
  25        3S         -0.01386  -0.02123  -0.03352  -0.01385  -0.08921
  26        3PX        -0.00710   0.01436   0.03504   0.02610  -0.00052
  27        3PY         0.02654   0.00953   0.01176   0.00704  -0.00107
  28        3PZ         0.00006  -0.00067  -0.00008   0.00010   0.00015
  29        4S         -0.00555  -0.01731  -0.02325  -0.00526  -0.08014
  30        4PX        -0.00698   0.01393   0.02744   0.01698  -0.00021
  31        4PY         0.01595   0.00646   0.00646   0.00189  -0.00023
  32        4PZ         0.00022  -0.00037   0.00028   0.00024  -0.00003
  33 5   H  1S          0.01627  -0.00908  -0.01823  -0.00950  -0.02015
  34        2S          0.02752  -0.01868  -0.03405  -0.01702  -0.02226
  35        3S          0.01466  -0.01004  -0.01750  -0.00895   0.00058
  36 6   H  1S         -0.00956   0.01119   0.02322   0.01595  -0.01997
  37        2S         -0.01728   0.02377   0.04425   0.02708  -0.02228
  38        3S         -0.00913   0.01661   0.02768   0.01444   0.00049
                          21        22        23        24        25
  21        2S          0.49204
  22        2PX         0.00159   0.08269
  23        2PY         0.00249   0.00372   0.08757
  24        2PZ         0.00010   0.00012   0.00018   0.06427
  25        3S         -0.15418  -0.00517  -0.00823  -0.00014   0.45357
  26        3PX        -0.00078   0.12862   0.00184   0.00008  -0.00008
  27        3PY        -0.00163   0.00191   0.13125   0.00009   0.00073
  28        3PZ         0.00025   0.00018   0.00028   0.10290  -0.00050
  29        4S         -0.11578   0.01409   0.02388   0.00056   0.27838
  30        4PX        -0.00149   0.07271  -0.00499   0.00038   0.00633
  31        4PY        -0.00231  -0.00498   0.06683   0.00069   0.01014
  32        4PZ        -0.00011   0.00065   0.00117   0.09588   0.00064
  33 5   H  1S         -0.03210  -0.03365   0.06342  -0.00103   0.08585
  34        2S         -0.03557  -0.04974   0.08840  -0.00081   0.09519
  35        3S         -0.00064  -0.02238   0.03346  -0.00007   0.00573
  36 6   H  1S         -0.03183   0.07119   0.00277  -0.00096   0.08514
  37        2S         -0.03561   0.10110   0.00125  -0.00072   0.09526
  38        3S         -0.00075   0.04026  -0.00273  -0.00004   0.00595
                          26        27        28        29        30
  26        3PX         0.20039
  27        3PY        -0.00275   0.19727
  28        3PZ         0.00011   0.00014   0.16475
  29        4S          0.02565   0.04330   0.00072   0.18684
  30        4PX         0.11372  -0.01050   0.00059   0.01574   0.06557
  31        4PY        -0.01059   0.10096   0.00110   0.02554  -0.01018
  32        4PZ         0.00083   0.00150   0.15351   0.00169   0.00094
  33 5   H  1S         -0.05391   0.09931  -0.00169   0.06732  -0.03435
  34        2S         -0.08012   0.13792  -0.00136   0.07797  -0.05155
  35        3S         -0.03648   0.05155  -0.00011   0.00954  -0.02370
  36 6   H  1S          0.11241   0.00346  -0.00160   0.06776   0.06530
  37        2S          0.15946   0.00007  -0.00123   0.07936   0.09306
  38        3S          0.06319  -0.00580  -0.00007   0.01026   0.03718
                          31        32        33        34        35
  31        4PY         0.05320
  32        4PZ         0.00175   0.14305
  33 5   H  1S          0.05542  -0.00088   0.08079
  34        2S          0.07706  -0.00037   0.10999   0.15213
  35        3S          0.02890   0.00014   0.03791   0.05494   0.02263
  36 6   H  1S         -0.00182  -0.00084  -0.01255  -0.02586  -0.01965
  37        2S         -0.00589  -0.00031  -0.02597  -0.04767  -0.03104
  38        3S         -0.00604   0.00016  -0.01985  -0.03118  -0.01527
                          36        37        38
  36 6   H  1S          0.08009
  37        2S          0.10963   0.15241
  38        3S          0.03799   0.05529   0.02283
    Full Mulliken population analysis:
                           1         2         3         4         5
   1 1   C  1S          0.65941
   2        2S          0.49326   0.49201
   3        2PX         0.00000   0.00000   0.08421
   4        2PY         0.00000   0.00000   0.00000   0.08768
   5        2PZ         0.00000   0.00000   0.00000   0.00000   0.06439
   6        3S         -0.02929  -0.06445   0.00000   0.00000   0.00000
   7        3PX         0.00000   0.00000   0.08204   0.00000   0.00000
   8        3PY         0.00000   0.00000   0.00000   0.08256   0.00000
   9        3PZ         0.00000   0.00000   0.00000   0.00000   0.06511
  10        4S         -0.01222  -0.02143   0.00000   0.00000   0.00000
  11        4PX         0.00000   0.00000   0.01553   0.00000   0.00000
  12        4PY         0.00000   0.00000   0.00000   0.01446   0.00000
  13        4PZ         0.00000   0.00000   0.00000   0.00000   0.02112
  14 2   H  1S         -0.00023  -0.00033   0.00176   0.00563   0.00000
  15        2S         -0.00166  -0.00318   0.00423   0.01327   0.00000
  16        3S          0.00004  -0.00007   0.00069   0.00192   0.00000
  17 3   H  1S         -0.00025  -0.00036   0.00781   0.00000   0.00000
  18        2S         -0.00172  -0.00329   0.01772   0.00000   0.00000
  19        3S          0.00005  -0.00007   0.00257  -0.00000   0.00000
  20 4   C  1S          0.00000   0.00000  -0.00002  -0.00006   0.00000
  21        2S          0.00000  -0.00000  -0.00002  -0.00005   0.00000
  22        2PX        -0.00002  -0.00002   0.00011   0.00085   0.00000
  23        2PY        -0.00006  -0.00005   0.00085   0.00196   0.00000
  24        2PZ        -0.00000  -0.00000  -0.00000  -0.00000   0.00041
  25        3S         -0.00059  -0.00099   0.00253   0.00757  -0.00000
  26        3PX        -0.00054  -0.00099   0.00019   0.00552   0.00000
  27        3PY        -0.00164  -0.00300   0.00554   0.01067   0.00000
  28        3PZ        -0.00000  -0.00000  -0.00000  -0.00000   0.00610
  29        4S          0.00034   0.00030   0.00094   0.00281  -0.00000
  30        4PX        -0.00018  -0.00045  -0.00070   0.00145   0.00000
  31        4PY        -0.00053  -0.00135   0.00145   0.00097   0.00000
  32        4PZ        -0.00000  -0.00000  -0.00000  -0.00000   0.00902
  33 5   H  1S          0.00000   0.00000  -0.00000  -0.00000   0.00000
  34        2S          0.00001   0.00002   0.00000  -0.00032   0.00000
  35        3S          0.00008   0.00013   0.00001  -0.00071  -0.00000
  36 6   H  1S          0.00000   0.00000  -0.00000  -0.00000   0.00000
  37        2S          0.00001   0.00002  -0.00024  -0.00007   0.00000
  38        3S          0.00007   0.00013  -0.00057  -0.00012  -0.00000
                           6         7         8         9        10
   6        3S          0.45276
   7        3PX         0.00000   0.20221
   8        3PY         0.00000   0.00000   0.19690
   9        3PZ         0.00000   0.00000   0.00000   0.16633
  10        4S          0.21231   0.00000   0.00000   0.00000   0.18268
  11        4PX         0.00000   0.07167   0.00000   0.00000   0.00000
  12        4PY         0.00000   0.00000   0.06466   0.00000   0.00000
  13        4PZ         0.00000   0.00000   0.00000   0.10074   0.00000
  14 2   H  1S          0.01600   0.01050   0.03256   0.00001   0.01824
  15        2S          0.04100   0.01921   0.05799   0.00001   0.04675
  16        3S          0.00278   0.00393   0.01029   0.00000   0.00827
  17 3   H  1S          0.01678   0.04408   0.00001   0.00002   0.01838
  18        2S          0.04212   0.07736   0.00000   0.00002   0.04636
  19        3S          0.00285   0.01397  -0.00001   0.00000   0.00765
  20 4   C  1S         -0.00059  -0.00057  -0.00170   0.00000   0.00033
  21        2S         -0.00100  -0.00105  -0.00313   0.00000   0.00030
  22        2PX         0.00242   0.00019   0.00550   0.00000   0.00082
  23        2PY         0.00733   0.00553   0.01063   0.00000   0.00248
  24        2PZ         0.00000  -0.00000  -0.00000   0.00612   0.00000
  25        3S          0.02173   0.01332   0.03993  -0.00000   0.00036
  26        3PX         0.01261  -0.00126   0.01845   0.00000   0.00414
  27        3PY         0.03815   0.01854   0.02854   0.00000   0.01256
  28        3PZ         0.00000  -0.00000  -0.00000   0.03523   0.00000
  29        4S          0.00060   0.00480   0.01448  -0.00000  -0.02046
  30        4PX         0.00635  -0.00398   0.00582   0.00000   0.00206
  31        4PY         0.01900   0.00585   0.00128   0.00000   0.00597
  32        4PZ         0.00000  -0.00000  -0.00000   0.04925   0.00000
  33 5   H  1S         -0.00006  -0.00000  -0.00019   0.00000  -0.00083
  34        2S         -0.00125   0.00006  -0.00327  -0.00000  -0.00341
  35        3S         -0.00205   0.00010  -0.00428  -0.00000  -0.00141
  36 6   H  1S         -0.00005  -0.00013  -0.00006   0.00000  -0.00081
  37        2S         -0.00119  -0.00257  -0.00053  -0.00000  -0.00339
  38        3S         -0.00198  -0.00354  -0.00056  -0.00000  -0.00147
                          11        12        13        14        15
  11        4PX         0.06052
  12        4PY         0.00000   0.05124
  13        4PZ         0.00000   0.00000   0.14290
  14 2   H  1S          0.00622   0.01762   0.00001   0.08121
  15        2S          0.01517   0.04110   0.00000   0.07739   0.14993
  16        3S          0.00520   0.01194  -0.00000   0.01376   0.04155
  17 3   H  1S          0.02371  -0.00001   0.00001  -0.00001  -0.00067
  18        2S          0.05536  -0.00003   0.00001  -0.00066  -0.00549
  19        3S          0.01667  -0.00002  -0.00000  -0.00204  -0.00811
  20 4   C  1S         -0.00018  -0.00057   0.00000   0.00000   0.00002
  21        2S         -0.00046  -0.00143   0.00000   0.00000   0.00003
  22        2PX        -0.00071   0.00139   0.00000  -0.00000   0.00000
  23        2PY         0.00140   0.00096   0.00000  -0.00000  -0.00035
  24        2PZ        -0.00000  -0.00000   0.00901   0.00000   0.00000
  25        3S          0.00650   0.01991  -0.00000  -0.00007  -0.00144
  26        3PX        -0.00415   0.00564   0.00000  -0.00000   0.00004
  27        3PY         0.00567   0.00127   0.00000  -0.00022  -0.00351
  28        3PZ        -0.00000  -0.00000   0.04899   0.00000   0.00000
  29        4S          0.00240   0.00771  -0.00000  -0.00100  -0.00421
  30        4PX        -0.00705   0.00318   0.00000   0.00001   0.00018
  31        4PY         0.00319  -0.00558   0.00000  -0.00242  -0.01022
  32        4PZ        -0.00000  -0.00000   0.08972   0.00000  -0.00000
  33 5   H  1S          0.00002  -0.00234   0.00000   0.00000   0.00000
  34        2S          0.00025  -0.00988  -0.00000   0.00000   0.00016
  35        3S          0.00026  -0.00732  -0.00000   0.00023   0.00146
  36 6   H  1S         -0.00176  -0.00050   0.00000  -0.00000  -0.00004
  37        2S         -0.00832  -0.00111  -0.00000  -0.00004  -0.00090
  38        3S         -0.00657  -0.00034  -0.00000  -0.00045  -0.00244
                          16        17        18        19        20
  16        3S          0.02116
  17 3   H  1S         -0.00206   0.08225
  18        2S         -0.00815   0.07761   0.14890
  19        3S         -0.00683   0.01358   0.04068   0.02049
  20 4   C  1S          0.00009   0.00000   0.00002   0.00009   0.65947
  21        2S          0.00016   0.00000   0.00003   0.00016   0.49329
  22        2PX         0.00001  -0.00000  -0.00027  -0.00058   0.00000
  23        2PY        -0.00073  -0.00000  -0.00008  -0.00013   0.00000
  24        2PZ        -0.00000   0.00000   0.00000  -0.00000   0.00000
  25        3S         -0.00237  -0.00007  -0.00147  -0.00239  -0.02937
  26        3PX         0.00007  -0.00016  -0.00286  -0.00364   0.00000
  27        3PY        -0.00442  -0.00007  -0.00064  -0.00065   0.00000
  28        3PZ        -0.00000   0.00000   0.00000  -0.00000   0.00000
  29        4S         -0.00207  -0.00101  -0.00417  -0.00197  -0.01232
  30        4PX         0.00019  -0.00184  -0.00861  -0.00667   0.00000
  31        4PY        -0.00750  -0.00057  -0.00135  -0.00049   0.00000
  32        4PZ        -0.00000   0.00000  -0.00000  -0.00000   0.00000
  33 5   H  1S          0.00023  -0.00000  -0.00004  -0.00043  -0.00022
  34        2S          0.00144  -0.00004  -0.00092  -0.00238  -0.00159
  35        3S          0.00246  -0.00046  -0.00245  -0.00287   0.00005
  36 6   H  1S         -0.00043   0.00000   0.00000   0.00022  -0.00021
  37        2S         -0.00238   0.00000   0.00015   0.00141  -0.00157
  38        3S         -0.00290   0.00023   0.00145   0.00242   0.00004
                          21        22        23        24        25
  21        2S          0.49204
  22        2PX         0.00000   0.08269
  23        2PY         0.00000   0.00000   0.08757
  24        2PZ         0.00000   0.00000   0.00000   0.06427
  25        3S         -0.06457   0.00000   0.00000   0.00000   0.45357
  26        3PX         0.00000   0.08092   0.00000   0.00000   0.00000
  27        3PY         0.00000   0.00000   0.08257   0.00000   0.00000
  28        3PZ         0.00000   0.00000   0.00000   0.06474   0.00000
  29        4S         -0.02167   0.00000   0.00000   0.00000   0.21566
  30        4PX         0.00000   0.01601   0.00000   0.00000   0.00000
  31        4PY         0.00000   0.00000   0.01472   0.00000   0.00000
  32        4PZ         0.00000   0.00000   0.00000   0.02112   0.00000
  33 5   H  1S         -0.00031   0.00153   0.00563   0.00000   0.01544
  34        2S         -0.00305   0.00392   0.01357   0.00000   0.03959
  35        3S         -0.00006   0.00068   0.00199   0.00000   0.00263
  36 6   H  1S         -0.00029   0.00689   0.00002   0.00000   0.01503
  37        2S         -0.00300   0.01727   0.00001   0.00000   0.03921
  38        3S         -0.00007   0.00269  -0.00001   0.00000   0.00271
                          26        27        28        29        30
  26        3PX         0.20039
  27        3PY         0.00000   0.19727
  28        3PZ         0.00000   0.00000   0.16475
  29        4S          0.00000   0.00000   0.00000   0.18684
  30        4PX         0.07431   0.00000   0.00000   0.00000   0.06557
  31        4PY         0.00000   0.06597   0.00000   0.00000   0.00000
  32        4PZ         0.00000   0.00000   0.10031   0.00000   0.00000
  33 5   H  1S          0.00925   0.03318   0.00002   0.01767   0.00587
  34        2S          0.01778   0.05963   0.00002   0.04467   0.01485
  35        3S          0.00388   0.01069   0.00000   0.00717   0.00536
  36 6   H  1S          0.04163   0.00007   0.00001   0.01766   0.02436
  37        2S          0.07704   0.00000   0.00001   0.04522   0.05863
  38        3S          0.01473  -0.00008   0.00000   0.00769   0.01844
                          31        32        33        34        35
  31        4PY         0.05320
  32        4PZ         0.00000   0.14305
  33 5   H  1S          0.01844   0.00001   0.08079
  34        2S          0.04323   0.00001   0.07770   0.15213
  35        3S          0.01274  -0.00000   0.01416   0.04335   0.02263
  36 6   H  1S         -0.00004   0.00001  -0.00001  -0.00076  -0.00228
  37        2S         -0.00021   0.00000  -0.00076  -0.00641  -0.00936
  38        3S         -0.00017  -0.00000  -0.00231  -0.00940  -0.00811
                          36        37        38
  36 6   H  1S          0.08009
  37        2S          0.07744   0.15241
  38        3S          0.01419   0.04362   0.02283
     Gross orbital populations:
                           1
   1 1   C  1S          1.10436
   2        2S          0.88585
   3        2PX         0.22664
   4        2PY         0.23600
   5        2PZ         0.16616
   6        3S          0.79288
   7        3PX         0.56025
   8        3PY         0.55586
   9        3PZ         0.42283
  10        4S          0.50423
  11        4PX         0.26052
  12        4PY         0.21196
  13        4PZ         0.41249
  14 2   H  1S          0.27372
  15        2S          0.46732
  16        3S          0.08628
  17 3   H  1S          0.27691
  18        2S          0.46560
  19        3S          0.08351
  20 4   C  1S          1.10441
  21        2S          0.88584
  22        2PX         0.22228
  23        2PY         0.23580
  24        2PZ         0.16568
  25        3S          0.79236
  26        3PX         0.55298
  27        3PY         0.55611
  28        3PZ         0.42018
  29        4S          0.50807
  30        4PX         0.27316
  31        4PY         0.21559
  32        4PZ         0.41249
  33 5   H  1S          0.27244
  34        2S          0.46969
  35        3S          0.08872
  36 6   H  1S          0.27025
  37        2S          0.47044
  38        3S          0.09016
          Condensed to atoms (all electrons):
               1          2          3          4          5          6
     1  C    5.035336   0.386946   0.387755   0.602010  -0.036364  -0.035655
     2  H    0.386946   0.517717  -0.034008  -0.039729   0.005981  -0.009590
     3  H    0.387755  -0.034008   0.515378  -0.039399  -0.009604   0.005888
     4  C    0.602010  -0.039729  -0.039399   5.054076   0.384254   0.383743
     5  H   -0.036364   0.005981  -0.009604   0.384254   0.525963  -0.039388
     6  H   -0.035655  -0.009590   0.005888   0.383743  -0.039388   0.525850
 Mulliken charges:
               1
     1  C   -0.340028
     2  H    0.172684
     3  H    0.173990
     4  C   -0.344954
     5  H    0.169159
     6  H    0.169150
 Sum of Mulliken charges =  -0.00000
 Mulliken charges with hydrogens summed into heavy atoms:
               1
     1  C    0.006646
     4  C   -0.006646
 Electronic spatial extent (au):  <R**2>=             83.7664
 Charge=             -0.0000 electrons
 Dipole moment (field-independent basis, Debye):
    X=             -0.0010    Y=              0.0148    Z=             -0.0863  Tot=              0.0876
 Quadrupole moment (field-independent basis, Debye-Ang):
   XX=            -12.2004   YY=            -12.2193   ZZ=            -15.6757
   XY=              0.0093   XZ=              0.0007   YZ=             -0.0009
 Traceless Quadrupole moment (field-independent basis, Debye-Ang):
   XX=              1.1647   YY=              1.1459   ZZ=             -2.3106
   XY=              0.0093   XZ=              0.0007   YZ=             -0.0009
 Octapole moment (field-independent basis, Debye-Ang**2):
  XXX=             -0.2595  YYY=             -0.0701  ZZZ=             -0.0561  XYY=              0.1302
  XXY=             -0.0181  XXZ=             -0.1168  XZZ=             -0.0763  YZZ=             -0.0709
  YYZ=             -0.1533  XYZ=             -0.0316
 Hexadecapole moment (field-independent basis, Debye-Ang**3):
 XXXX=            -34.2887 YYYY=            -55.2419 ZZZZ=            -17.8170 XXXY=             -7.2380
 XXXZ=              0.0121 YYYX=            -10.7279 YYYZ=              0.0166 ZZZX=              0.0137
 ZZZY=              0.0251 XXYY=            -16.2128 XXZZ=             -9.9341 YYZZ=            -13.6554
 XXYZ=              0.0057 YYXZ=              0.0001 ZZXY=             -3.2040
 N-N= 3.305296094643D+01 E-N=-2.478137382567D+02  KE= 7.814758233589D+01
 Orbital energies and kinetic energies (alpha):
                                 1                 2
   1         O               -10.290443         15.978386
   2         O               -10.288223         15.980144
   3         O                -0.863562          1.537889
   4         O                -0.672010          1.271437
   5         O                -0.559109          0.940911
   6         O                -0.509152          1.283434
   7         O                -0.436834          1.043278
   8         O                -0.356742          1.038312
   9         V                 0.079752          1.182087
  10         V                 0.140893          0.589537
  11         V                 0.164601          0.595097
  12         V                 0.170106          0.680405
  13         V                 0.240769          0.582910
  14         V                 0.375220          0.858036
  15         V                 0.393339          0.933592
  16         V                 0.396802          0.774522
  17         V                 0.464302          1.190959
  18         V                 0.487606          1.425640
  19         V                 0.493845          1.301925
  20         V                 0.590969          1.652215
  21         V                 0.665563          1.572363
  22         V                 0.690663          2.147481
  23         V                 0.772705          2.439740
  24         V                 0.775434          2.304050
  25         V                 0.843648          1.085653
  26         V                 0.951644          3.421087
  27         V                 2.231909          3.922794
  28         V                 2.290104          4.029641
  29         V                 2.332208          4.302915
  30         V                 2.406831          4.519106
  31         V                 2.671007          6.300731
  32         V                 2.817899          6.306581
  33         V                 2.878100          6.136185
  34         V                 2.952355          6.225863
  35         V                 3.139374          6.821883
  36         V                 3.319254          6.402570
  37         V                23.352141         60.074615
  38         V                23.705326         60.203426
 Total kinetic energy from orbitals= 7.814758233589D+01
 Calling FoFJK, ICntrl=      2127 FMM=F ISym2X=0 I1Cent= 0 IOpClX= 0 NMat=1 NMatS=1 NMatT=0.
 -------------------------------------------------------------------
 Center     Atomic                   Forces (Hartrees/Bohr)
 Number     Number              X              Y              Z
 -------------------------------------------------------------------
      1        6           0.011418828    0.007086458   -0.003584761
      2        1          -0.008453650    0.006887559    0.001796026
      3        1           0.003823065   -0.003620744    0.001660845
      4        6           0.006776397    0.006932456   -0.003688745
      5        1           0.003512756   -0.012978971    0.001871804
      6        1          -0.017077396   -0.004306757    0.001944830
 -------------------------------------------------------------------
 Cartesian Forces:  Max     0.017077396 RMS     0.007272171

 GradGradGradGradGradGradGradGradGradGradGradGradGradGradGradGradGradGrad
 Berny optimization.
 Search for a local minimum.
 Step number   1 out of a maximum of    2
 All quantities printed in internal units (Hartrees-Bohrs-Radians)
 Second derivative matrix not updated -- first step.
 The second derivative matrix:
                          X1        Y1        Z1        X2        Y2
           X1           0.75413
           Y1           0.09970   0.85806
           Z1           0.00508   0.00793   0.17132
           X2          -0.16203   0.09472   0.00185   0.13947
           Y2           0.10109  -0.28451  -0.00663  -0.11401   0.27351
           Z2           0.00293  -0.00833  -0.05520  -0.00265   0.00689
           X3          -0.35022  -0.00225  -0.00714  -0.00034  -0.00019
           Y3          -0.00847  -0.10961  -0.00174   0.03252   0.01856
           Z3          -0.00916  -0.00167  -0.05601   0.00134   0.00048
           X4          -0.26671  -0.17783  -0.00067   0.02291   0.01309
           Y4          -0.17826  -0.47207  -0.00111  -0.01323  -0.00756
           Z4           0.00113   0.00204  -0.09398  -0.00054  -0.00074
           X5           0.02335  -0.01348   0.00054  -0.00001   0.00000
           Y5           0.01197  -0.00691   0.00073   0.00000  -0.00000
           Z5          -0.00047   0.00029   0.01706   0.00023  -0.00012
           X6           0.00148  -0.00086   0.00034  -0.00001   0.00000
           Y6          -0.02603   0.01504   0.00081   0.00000  -0.00000
           Z6           0.00048  -0.00026   0.01680  -0.00023   0.00012
                          Z2        X3        Y3        Z3        X4
           Z2           0.02865
           X3          -0.00027   0.35031
           Y3           0.00142   0.00259   0.07567
           Z3           0.01053   0.00779   0.00119   0.02932
           X4           0.00043   0.00026  -0.02664  -0.00041   0.71544
           Y4          -0.00023  -0.00015   0.01538   0.00026   0.11803
           Z4           0.01601  -0.00038  -0.00087   0.01618  -0.00450
           X5          -0.00022  -0.00001   0.00000   0.00022  -0.14872
           Y5           0.00013   0.00000  -0.00000  -0.00014   0.09386
           Z5           0.00921   0.00023  -0.00014  -0.00933  -0.00274
           X6          -0.00022  -0.00001   0.00000   0.00022  -0.32318
           Y6           0.00012   0.00000  -0.00000  -0.00012  -0.02052
           Z6          -0.00920  -0.00023   0.00014   0.00931   0.00789
                          Y4        Z4        X5        Y5        Z5
           Y4           0.85653
           Z4          -0.00853   0.17460
           X5           0.08599  -0.00181   0.12724
           Y5          -0.28736   0.00642  -0.10490   0.27769
           Z5           0.00796  -0.05651   0.00245  -0.00682   0.02932
           X6          -0.01237   0.00609  -0.00186  -0.00095   0.00030
           Y6          -0.10492   0.00168   0.03239   0.01659  -0.00117
           Z6           0.00166  -0.05630  -0.00118  -0.00033   0.01024
                          X6        Y6        Z6
           X6           0.32357
           Y6           0.01417   0.07330
           Z6          -0.00674  -0.00133   0.02914
 ITU=  0
     Eigenvalues ---    0.03707   0.04376   0.09264   0.09986   0.13488
     Eigenvalues ---    0.17466   0.26318   0.28922   0.52781   0.70097
     Eigenvalues ---    0.97230   1.55930
 Angle between quadratic step and forces=  31.24 degrees.
 Linear search not attempted -- first point.
 B after Tr=     0.004803    0.005728   -0.008855
         Rot=    1.000000   -0.000039    0.000021   -0.000106 Ang=  -0.01 deg.
 Variable       Old X    -DE/DX   Delta X   Delta X   Delta X     New X
                                 (Linear)    (Quad)   (Total)
    X1       -0.63419   0.01142   0.00000   0.01718   0.02221  -0.61197
    Y1       -1.09832   0.00709   0.00000   0.02009   0.02569  -1.07263
    Z1        0.01087  -0.00358   0.00000  -0.01887  -0.02784  -0.01697
    X2        0.39585  -0.00845   0.00000  -0.02788  -0.02247   0.37339
    Y2       -2.89911   0.00689   0.00000   0.02791   0.03372  -2.86539
    Z2       -0.03794   0.00180   0.00000   0.02310   0.01404  -0.02390
    X3       -2.68939   0.00382   0.00000   0.02742   0.03246  -2.65693
    Y3       -1.11790  -0.00362   0.00000  -0.01384  -0.00867  -1.12657
    Z3       -0.03908   0.00166   0.00000   0.02261   0.01355  -0.02553
    X4        0.63094   0.00678   0.00000   0.00269   0.00726   0.63820
    Y4        1.09244   0.00693   0.00000   0.00363   0.00950   1.10194
    Z4        0.00850  -0.00369   0.00000  -0.01777  -0.02652  -0.01801
    X5       -0.32211   0.00351   0.00000  -0.00024   0.00394  -0.31817
    Y5        2.94904  -0.01298   0.00000  -0.04152  -0.03585   2.91318
    Z5       -0.04106   0.00187   0.00000   0.02227   0.01363  -0.02743
    X6        2.72727  -0.01708   0.00000  -0.04797  -0.04342   2.68386
    Y6        1.21091  -0.00431   0.00000  -0.03068  -0.02438   1.18653
    Z6       -0.03986   0.00194   0.00000   0.02178   0.01313  -0.02673
         Item               Value     Threshold  Converged?
 Maximum Force            0.017077     0.000450     NO 
 RMS     Force            0.007272     0.000300     NO 
 Maximum Displacement     0.043416     0.001800     NO 
 RMS     Displacement     0.023646     0.001200     NO 
 Predicted change in Energy=-1.375227D-03
 GradGradGradGradGradGradGradGradGradGradGradGradGradGradGradGradGradGrad

 Unable to Open any file for archive entry.
 1\1\GINC-BHD0004\Force\RwB97XD\6-311G\C2H4\BWEIGHT\11-Jan-2023\0\\# WB
 97XD/6-311G SCF=XQC FORCE nosym pop=full guess=read\\MD Step 1000\\0,1
 \C,-0.33559772,-0.58120612,0.00575203\H,0.20947656,-1.53414486,-0.0200
 783\H,-1.42316457,-0.59156647,-0.02067821\C,0.3338793,0.57809625,0.004
 49973\H,-0.17045494,1.5605633,-0.021727\H,1.44321143,0.64078583,-0.021
 09126\\Version=ES64L-G16RevC.01\HF=-78.5560449\RMSD=5.493e-09\RMSF=7.2
 72e-03\Dipole=-0.0004067,0.0058319,-0.0339503\Quadrupole=0.8659279,0.8
 519226,-1.7178505,0.0068841,0.000484,-0.0006969\PG=C01 [X(C2H4)]\\@
 The archive entry for this job was punched.


 Just remember, when you're over the hill, you begin to pick up speed.
 -- Charles Schulz
 Job cpu time:       0 days  0 hours  1 minutes  2.0 seconds.
 Elapsed time:       0 days  0 hours  0 minutes 20.4 seconds.
 File lengths (MBytes):  RWF=    272 Int=      0 D2E=      0 Chk=     32 Scr=     32
 Normal termination of Gaussian 16 at Wed Jan 11 18:31:45 2023.
