6
MD Step 0
C  -0.33763715 -0.58748864 0.00000000
H  0.19552659 -1.51519357 0.00000000
H  -1.40763715 -0.58748864 0.00000000
C  0.33763715 0.58748865 0.00000000
H  -0.19552659 1.51519357 0.00000000
H  1.40763715 0.58748865 0.00000000
6
MD Step 1
C  -0.33800672 -0.58783580 -0.00039477
H  0.19789474 -1.51298521 0.00235177
H  -1.40542036 -0.58521060 0.00235224
C  0.33721693 0.58704617 -0.00039473
H  -0.19318860 1.51769617 0.00235161
H  1.41012534 0.58990893 0.00235209
6
MD Step 2
C  -0.33832498 -0.58809122 -0.00079444
H  0.20031521 -1.51105632 0.00473264
H  -1.40349454 -0.58305240 0.00473368
C  0.33674434 0.58650701 -0.00079432
H  -0.19083765 1.52049538 0.00473222
H  1.41285198 0.59249082 0.00473307
6
MD Step 3
C  -0.33857816 -0.58824384 -0.00118873
H  0.20272571 -1.50947850 0.00708146
H  -1.40196592 -0.58108217 0.00708340
C  0.33623473 0.58588549 -0.00118842
H  -0.18852735 1.52349957 0.00708028
H  1.41569199 0.59516324 0.00708114
6
MD Step 4
C  -0.33876087 -0.58829130 -0.00157499
H  0.20510576 -1.50827081 0.00938218
H  -1.40088556 -0.57932183 0.00938583
C  0.33569614 0.58518927 -0.00157425
H  -0.18626410 1.52665710 0.00937920
H  1.41856329 0.59789938 0.00937929
6
MD Step 5
C  -0.33888226 -0.58824602 -0.00196418
H  0.20751276 -1.50736366 0.01169991
H  -1.40021167 -0.57771110 0.01170663
C  0.33512309 0.58441325 -0.00196257
H  -0.18397156 1.52999325 0.01169332
H  1.42146483 0.60075286 0.01169137
6
MD Step 6
C  -0.33893775 -0.58810683 -0.00235258
H  0.20991378 -1.50676798 0.01401245
H  -1.39997881 -0.57627605 0.01402429
C  0.33452488 0.58356779 -0.00234948
H  -0.18165942 1.53344223 0.01399952
H  1.42430832 0.60368913 0.01399368
6
MD Step 7
C  -0.33892715 -0.58787699 -0.00273992
H  0.21229345 -1.50646795 0.01631786
H  -1.40018934 -0.57502152 0.01633764
C  0.33390740 0.58266051 -0.00273447
H  -0.17931644 1.53695597 0.01629482
H  1.42702780 0.60669320 0.01628263
6
MD Step 8
C  -0.33884860 -0.58755803 -0.00312320
H  0.21461798 -1.50645778 0.01859817
H  -1.40084950 -0.57396734 0.01862951
C  0.33327913 0.58170228 -0.00311430
H  -0.17694720 1.54046889 0.01856013
H  1.42954470 0.60973350 0.01853849
6
MD Step 9
C  -0.33870387 -0.58715494 -0.00350199
H  0.21686689 -1.50671110 0.02085065
H  -1.40193813 -0.57311699 0.02089789
C  0.33264580 0.58070181 -0.00348833
H  -0.17454139 1.54393038 0.02079155
H  1.43180072 0.61279337 0.02075678
6
MD Step 10
C  -0.33849795 -0.58667575 -0.00387807
H  0.21903150 -1.50718373 0.02308576
H  -1.40340938 -0.57245967 0.02315383
C  0.33201069 0.57966591 -0.00385809
H  -0.17207632 1.54730380 0.02299836
H  1.43375667 0.61586908 0.02294635
6
MD Step 11
C  -0.33823062 -0.58612298 -0.00424696
H  0.22106529 -1.50786494 0.02527693
H  -1.40524427 -0.57202041 0.02537137
C  0.33138299 0.57860776 -0.00421897
H  -0.16956747 1.55051718 0.02515293
H  1.43534299 0.61891979 0.02507906
6
MD Step 12
C  -0.33790574 -0.58550300 -0.00460742
H  0.22294066 -1.50872194 0.02741683
H  -1.40739528 -0.57180382 0.02754353
C  0.33076833 0.57753736 -0.00456959
H  -0.16701275 1.55352052 0.02724692
H  1.43651699 0.62192396 0.02714626
6
MD Step 13
C  -0.33752737 -0.58482203 -0.00495754
H  0.22462646 -1.50972388 0.02949429
H  -1.40981095 -0.57181709 0.02965931
C  0.33017257 0.57646529 -0.00490796
H  -0.16441587 1.55626359 0.02926833
H  1.43724045 0.62485648 0.02913570
6
MD Step 14
C  -0.33710402 -0.58409046 -0.00529918
H  0.22611478 -1.51081654 0.03152061
H  -1.41241125 -0.57204374 0.03172973
C  0.32959738 0.57539815 -0.00523588
H  -0.16176040 1.55872297 0.03122764
H  1.43750627 0.62771506 0.03105802
6
MD Step 15
C  -0.33663698 -0.58331118 -0.00562633
H  0.22735271 -1.51199199 0.03346070
H  -1.41515847 -0.57251229 0.03371970
C  0.32905177 0.57435005 -0.00554747
H  -0.15907857 1.56083382 0.03308938
H  1.43726982 0.63045151 0.03287753
6
MD Step 16
C  -0.33613505 -0.58249437 -0.00594017
H  0.22833150 -1.51320068 0.03532191
H  -1.41796984 -0.57320764 0.03563586
C  0.32853715 0.57332758 -0.00584395
H  -0.15636302 1.56257925 0.03486052
H  1.43653819 0.63306073 0.03460162
6
MD Step 17
C  -0.33560558 -0.58164847 -0.00624003
H  0.22903393 -1.51440526 0.03710096
H  -1.42077260 -0.57412409 0.03747412
C  0.32805620 0.57233866 -0.00612483
H  -0.15361975 1.56393769 0.03653765
H  1.43531703 0.63552769 0.03622732
6
MD Step 18
C  -0.33506195 -0.58078787 -0.00653132
H  0.22948091 -1.51553520 0.03883028
H  -1.42345962 -0.57521931 0.03926511
C  0.32760513 0.57138469 -0.00639551
H  -0.15082219 1.56492931 0.03815291
H  1.43365662 0.63787376 0.03778818
6
MD Step 19
C  -0.33450250 -0.57991165 -0.00680412
H  0.22960631 -1.51661296 0.04045211
H  -1.42601703 -0.57653953 0.04095109
C  0.32719478 0.57048155 -0.00664662
H  -0.14803614 1.56549071 0.03964934
H  1.43152587 0.64003112 0.03922682
6
MD Step 20
C  -0.33393601 -0.57902926 -0.00705923
H  0.22941009 -1.51760147 0.04197198
H  -1.42837179 -0.57806709 0.04253610
C  0.32682488 0.56963387 -0.00687924
H  -0.14526746 1.56562814 0.04103288
H  1.42896563 0.64199609 0.04055030
6
MD Step 21
C  -0.33336726 -0.57814599 -0.00729362
H  0.22887292 -1.51849011 0.04337282
H  -1.43047865 -0.57980578 0.04400213
C  0.32649837 0.56884930 -0.00709081
H  -0.14254721 1.56533212 0.04228734
H  1.42600285 0.64374348 0.04174302
6
MD Step 22
C  -0.33280738 -0.57727346 -0.00751110
H  0.22801867 -1.51923279 0.04467762
H  -1.43225871 -0.58171886 0.04536989
C  0.32621098 0.56812803 -0.00728530
H  -0.13986958 1.56463969 0.04343628
H  1.42271249 0.64528916 0.04283048
6
MD Step 23
C  -0.33225563 -0.57641121 -0.00770366
H  0.22680605 -1.51985667 0.04584046
H  -1.43370898 -0.58383715 0.04659348
C  0.32596947 0.56748092 -0.00745556
H  -0.13729946 1.56352595 0.04443550
H  1.41910852 0.64658151 0.04376830
6
MD Step 24
C  -0.33172229 -0.57556982 -0.00787518
H  0.22526603 -1.52032494 0.04688461
H  -1.43476529 -0.58612228 0.04769388
C  0.32576847 0.56690645 -0.00760570
H  -0.13483572 1.56204123 0.04530924
H  1.41528078 0.64763905 0.04458286
6
MD Step 25
C  -0.33121259 -0.57475475 -0.00802493
H  0.22340623 -1.52063260 0.04780647
H  -1.43539868 -0.58856200 0.04866619
C  0.32560669 0.56640672 -0.00773547
H  -0.13250597 1.56021524 0.04605540
H  1.41129846 0.64845479 0.04527336
6
MD Step 26
C  -0.33073295 -0.57397258 -0.00815404
H  0.22124831 -1.52076914 0.04861319
H  -1.43557853 -0.59113313 0.04951589
C  0.32548062 0.56598121 -0.00784642
H  -0.13032906 1.55809395 0.04668265
H  1.40724623 0.64903362 0.04585013
6
MD Step 27
C  -0.33028919 -0.57322925 -0.00826377
H  0.21881779 -1.52072871 0.04931258
H  -1.43528304 -0.59381164 0.05024924
C  0.32538631 0.56562850 -0.00794016
H  -0.12832473 1.55572893 0.04720037
H  1.40321279 0.64938217 0.04632427
6
MD Step 28
C  -0.32988755 -0.57253118 -0.00835664
H  0.21615026 -1.52050369 0.04991947
H  -1.43449327 -0.59656657 0.05087928
C  0.32531845 0.56534525 -0.00801944
H  -0.12650685 1.55318289 0.04762496
H  1.39929540 0.64951514 0.04671416
6
MD Step 29
C  -0.32952849 -0.57187890 -0.00842993
H  0.21325418 -1.52012170 0.05041848
H  -1.43323046 -0.59939706 0.05139027
C  0.32527666 0.56513244 -0.00808219
H  -0.12491979 1.55049176 0.04794302
H  1.39556093 0.64941802 0.04700703
6
MD Step 30
C  -0.32920672 -0.57126721 -0.00847565
H  0.21011098 -1.51964494 0.05076427
H  -1.43155546 -0.60233210 0.05173841
C  0.32526559 0.56499544 -0.00812159
H  -0.12363755 1.54766420 0.04811162
H  1.39204470 0.64904742 0.04715894
6
MD Step 31
C  -0.32892856 -0.57070266 -0.00849892
H  0.20677863 -1.51906572 0.05098617
H  -1.42946403 -0.60532699 0.05195121
C  0.32527737 0.56492663 -0.00814266
H  -0.12265997 1.54478479 0.04816147
H  1.38885301 0.64843523 0.04720263
6
MD Step 32
C  -0.32869640 -0.57018790 -0.00850153
H  0.20329837 -1.51839917 0.05109458
H  -1.42697992 -0.60835618 0.05203838
C  0.32530753 0.56492107 -0.00814735
H  -0.12200452 1.54191968 0.04810456
H  1.38606790 0.64759532 0.04715101
6
MD Step 33
C  -0.32851142 -0.56972452 -0.00848491
H  0.19971077 -1.51766639 0.05109745
H  -1.42413835 -0.61139708 0.05200752
C  0.32535230 0.56497395 -0.00813719
H  -0.12168936 1.53913165 0.04795027
H  1.38376113 0.64653975 0.04701410
6
MD Step 34
C  -0.32836836 -0.56930775 -0.00844447
H  0.19602381 -1.51692540 0.05096865
H  -1.42101699 -0.61446155 0.05183407
C  0.32541406 0.56508592 -0.00810826
H  -0.12176396 1.53644722 0.04767408
H  1.38196073 0.64524720 0.04676605
6
MD Step 35
C  -0.32826409 -0.56893516 -0.00837866
H  0.19226354 -1.51621916 0.05069932
H  -1.41768380 -0.61754498 0.05151032
C  0.32549279 0.56525469 -0.00805937
H  -0.12225765 1.53390669 0.04726829
H  1.38070083 0.64371412 0.04639821
6
MD Step 36
C  -0.32820280 -0.56861190 -0.00829451
H  0.18850417 -1.51554406 0.05032860
H  -1.41416525 -0.62059560 0.05107445
C  0.32558097 0.56546996 -0.00799674
H  -0.12314834 1.53159364 0.04677270
H  1.38005118 0.64198548 0.04595131
6
MD Step 37
C  -0.32817699 -0.56833161 -0.00818729
H  0.18475401 -1.51496305 0.04982951
H  -1.41055955 -0.62362829 0.05050193
C  0.32568280 0.56573268 -0.00791616
H  -0.12447526 1.52951956 0.04616100
H  1.38000156 0.64004075 0.04539673
6
MD Step 38
C  -0.32818649 -0.56809558 -0.00806069
H  0.18106779 -1.51449145 0.04922233
H  -1.40692192 -0.62661152 0.04981362
C  0.32579518 0.56603614 -0.00782078
H  -0.12622564 1.52773617 0.04545374
H  1.38057470 0.63790716 0.04475441
6
MD Step 39
C  -0.32822854 -0.56790273 -0.00791623
H  0.17748644 -1.51415600 0.04851466
H  -1.40332319 -0.62952719 0.04901839
C  0.32591776 0.56637612 -0.00771164
H  -0.12839395 1.52627445 0.04465851
H  1.38176598 0.63559984 0.04403068
6
MD Step 40
C  -0.32829301 -0.56774493 -0.00774799
H  0.17400800 -1.51402250 0.04767289
H  -1.39987680 -0.63239928 0.04808582
C  0.32605770 0.56675577 -0.00758332
H  -0.13101006 1.52511534 0.04374121
H  1.38351498 0.63309330 0.04318840
6
MD Step 41
C  -0.32838085 -0.56762529 -0.00756206
H  0.17069508 -1.51408643 0.04673030
H  -1.39662815 -0.63518535 0.04704988
C  0.32621139 0.56716742 -0.00744081
H  -0.13403101 1.52429794 0.04273473
H  1.38581542 0.63042985 0.04225981
6
MD Step 42
C  -0.32848825 -0.56754246 -0.00735973
H  0.16758046 -1.51436636 0.04569309
H  -1.39364726 -0.63787074 0.04591848
C  0.32638017 0.56760848 -0.00728483
H  -0.13743486 1.52382500 0.04164454
H  1.38862159 0.62762551 0.04124887
6
MD Step 43
C  -0.32860514 -0.56748896 -0.00713554
H  0.16465654 -1.51491345 0.04453041
H  -1.39103711 -0.64047885 0.04466374
C  0.32657193 0.56808309 -0.00711024
H  -0.14123115 1.52365273 0.04043837
H  1.39183952 0.62465988 0.04012063
6
MD Step 44
C  -0.32873523 -0.56747111 -0.00689856
H  0.16199269 -1.51569232 0.04329180
H  -1.38881281 -0.64295232 0.04333560
C  0.32678113 0.56858224 -0.00692458
H  -0.14534278 1.52381000 0.03916541
H  1.39544803 0.62159440 0.03892413
6
MD Step 45
C  -0.32887187 -0.56748497 -0.00664660
H  0.15959171 -1.51672475 0.04196438
H  -1.38704443 -0.64529740 0.04192323
C  0.32701282 0.56910790 -0.00672552
H  -0.14975038 1.52425463 0.03781142
H  1.39935564 0.61842861 0.03764350
6
MD Step 46
C  -0.32900968 -0.56752779 -0.00637837
H  0.15745747 -1.51802103 0.04054057
H  -1.38578692 -0.64751545 0.04042070
C  0.32727109 0.56966152 -0.00651160
H  -0.15442469 1.52494268 0.03636750
H  1.40347129 0.61516824 0.03626855
6
MD Step 47
C  -0.32914972 -0.56760304 -0.00609887
H  0.15562438 -1.51955006 0.03904749
H  -1.38504868 -0.64957291 0.03885581
C  0.32755398 0.57023887 -0.00628690
H  -0.15929733 1.52585947 0.03486030
H  1.40773645 0.61185489 0.03482564
6
MD Step 48
C  -0.32928779 -0.56770878 -0.00580692
H  0.15408834 -1.52130897 0.03747837
H  -1.38486032 -0.65147104 0.03722278
C  0.32786500 0.57084171 -0.00605015
H  -0.16433120 1.52695119 0.03328189
H  1.41205714 0.60849668 0.03330614
6
MD Step 49
C  -0.32942218 -0.56784519 -0.00550329
H  0.15285173 -1.52327805 0.03583724
H  -1.38522863 -0.65320045 0.03552619
C  0.32820545 0.57147003 -0.00580183
H  -0.16947586 1.52817152 0.03163558
H  1.41635130 0.60511324 0.03171308
6
MD Step 50
C  -0.32955167 -0.56801258 -0.00518854
H  0.15191171 -1.52543320 0.03412714
H  -1.38614826 -0.65475309 0.03376926
C  0.32857640 0.57212398 -0.00554231
H  -0.17468051 1.52947097 0.02992382
H  1.42053847 0.60172368 0.03004887
6
MD Step 51
C  -0.32967074 -0.56820658 -0.00485797
H  0.15123224 -1.52777485 0.03232227
H  -1.38763020 -0.65615083 0.03192637
C  0.32898329 0.57280858 -0.00526740
H  -0.17992328 1.53076985 0.02811940
H  1.42451295 0.59831824 0.02828616
6
MD Step 52
C  -0.32978554 -0.56843380 -0.00451839
H  0.15083783 -1.53023442 0.03046048
H  -1.38960790 -0.65735086 0.03003468
C  0.32942030 0.57351768 -0.00498314
H  -0.18511759 1.53205386 0.02626106
H  1.42823987 0.59495171 0.02646430
6
MD Step 53
C  -0.32989127 -0.56868960 -0.00416450
H  0.15068213 -1.53280802 0.02851283
H  -1.39207145 -0.65837926 0.02806482
C  0.32989235 0.57425638 -0.00468490
H  -0.19024625 1.53324213 0.02431867
H  1.43162262 0.59161129 0.02455341
6
MD Step 54
C  -0.32998885 -0.56897448 -0.00379642
H  0.15074616 -1.53545868 0.02648042
H  -1.39497000 -0.65923203 0.02601704
C  0.33039873 0.57502425 -0.00437290
H  -0.19526327 1.53428707 0.02229325
H  1.43460300 0.58831437 0.02255508
6
MD Step 55
C  -0.33007859 -0.56928778 -0.00341307
H  0.15100197 -1.53815424 0.02435804
H  -1.39825029 -0.65991243 0.02388520
C  0.33093922 0.57582157 -0.00404637
H  -0.20013174 1.53513820 0.02017933
H  1.43712480 0.58507160 0.02046443
6
MD Step 56
C  -0.33017089 -0.56963825 -0.00302358
H  0.15147645 -1.54080450 0.02219672
H  -1.40179471 -0.66036695 0.02171921
C  0.33150356 0.57663845 -0.00371364
H  -0.20476023 1.53580681 0.01802983
H  1.43919840 0.58195008 0.01833515
6
MD Step 57
C  -0.33026331 -0.57002165 -0.00262348
H  0.15211901 -1.54339624 0.01997239
H  -1.40555780 -0.66062023 0.01949403
C  0.33209367 0.57747750 -0.00337091
H  -0.20913789 1.53623228 0.01581991
H  1.44076610 0.57894007 0.01614298
6
MD Step 58
C  -0.33036184 -0.57044158 -0.00221698
H  0.15292660 -1.54586847 0.01770911
H  -1.40944237 -0.66064889 0.01723274
C  0.33270287 0.57833257 -0.00302218
H  -0.21320872 1.53640836 0.01357454
H  1.44182868 0.57607964 0.01391350
6
MD Step 59
C  -0.33046839 -0.57089729 -0.00180413
H  0.15387219 -1.54818592 0.01540776
H  -1.41337422 -0.66045469 0.01493539
C  0.33332794 0.57920101 -0.00266767
H  -0.21694485 1.53631085 0.01129470
H  1.44237241 0.57338237 0.01164825
6
MD Step 60
C  -0.33058243 -0.57138536 -0.00138260
H  0.15491518 -1.55032966 0.01305594
H  -1.41729374 -0.66005450 0.01258885
C  0.33396745 0.58008196 -0.00230548
H  -0.22033677 1.53590800 0.00896756
H  1.44237931 0.57084720 0.00933486
6
MD Step 61
C  -0.33070873 -0.57190727 -0.00095578
H  0.15604744 -1.55225169 0.01067316
H  -1.42111128 -0.65943411 0.01021203
C  0.33461420 0.58096859 -0.00193881
H  -0.22334736 1.53520679 0.00661315
H  1.44187345 0.56850410 0.00699374
6
MD Step 62
C  -0.33084945 -0.57246171 -0.00052467
H  0.15724794 -1.55392162 0.00826546
H  -1.42475483 -0.65859458 0.00781057
C  0.33526290 0.58185588 -0.00156870
H  -0.22595833 1.53420691 0.00423752
H  1.44087439 0.56636809 0.00463120
6
MD Step 63
C  -0.33100576 -0.57304624 -0.00008967
H  0.15849310 -1.55531708 0.00583540
H  -1.42816117 -0.65754214 0.00538676
C  0.33590850 0.58273899 -0.00119557
H  -0.22816027 1.53291088 0.00184300
H  1.43940711 0.56444923 0.00224975
6
MD Step 64
C  -0.33117560 -0.57365511 0.00035177
H  0.15974420 -1.55643700 0.00336921
H  -1.43128978 -0.65630125 0.00292670
C  0.33654843 0.58361544 -0.00081716
H  -0.22996575 1.53131104 -0.00058508
H  1.43748859 0.56273957 -0.00016524
6
MD Step 65
C  -0.33136474 -0.57429012 0.00079366
H  0.16101220 -1.55723680 0.00090075
H  -1.43405847 -0.65484914 0.00046433
C  0.33717182 0.58447417 -0.00043893
H  -0.23134401 1.52945465 -0.00301246
H  1.43519298 0.56127787 -0.00257962
6
MD Step 66
C  -0.33156896 -0.57494321 0.00123980
H  0.16225429 -1.55773306 -0.00159124
H  -1.43644864 -0.65322062 -0.00202147
C  0.33777692 0.58531318 -0.00005731
H  -0.23232576 1.52733915 -0.00546169
H  1.43254585 0.56004562 -0.00501615
6
MD Step 67
C  -0.33178353 -0.57560579 0.00169404
H  0.16342923 -1.55794789 -0.00412850
H  -1.43844991 -0.65145219 -0.00455216
C  0.33836193 0.58613028 0.00033137
H  -0.23294730 1.52496759 -0.00795597
H  1.42957962 0.55902239 -0.00749832
6
MD Step 68
C  -0.33201421 -0.57627956 0.00214907
H  0.16456185 -1.55784412 -0.00666933
H  -1.43999542 -0.64951683 -0.00708558
C  0.33891424 0.58691208 0.00072048
H  -0.23318542 1.52241327 -0.01045369
H  1.42639798 0.55825026 -0.00998506
6
MD Step 69
C  -0.33226161 -0.57696123 0.00260236
H  0.16565185 -1.55741726 -0.00919931
H  -1.44105441 -0.64741624 -0.00960678
C  0.33942589 0.58764968 0.00110784
H  -0.23304932 1.51972717 -0.01294134
H  1.42308208 0.55774234 -0.01246351
6
MD Step 70
C  -0.33252226 -0.57764355 0.00305510
H  0.16668000 -1.55668931 -0.01172518
H  -1.44162635 -0.64517452 -0.01212196
C  0.33989260 0.58833766 0.00149483
H  -0.23257410 1.51694350 -0.01542725
H  1.41969526 0.55748894 -0.01494265
6
MD Step 71
C  -0.33280159 -0.57832820 0.00349897
H  0.16768444 -1.55563191 -0.01419916
H  -1.44166438 -0.64276119 -0.01458254
C  0.34030116 0.58896122 0.00187382
H  -0.23174346 1.51415576 -0.01786428
H  1.41635837 0.55753393 -0.01737630
6
MD Step 72
C  -0.33309440 -0.57900653 0.00393601
H  0.16864586 -1.55428167 -0.01663308
H  -1.44119112 -0.64020685 -0.01699978
C  0.34064880 0.58951577 0.00224708
H  -0.23060485 1.51140027 -0.02026611
H  1.41313177 0.55785981 -0.01977891
6
MD Step 73
C  -0.33338675 -0.57966148 0.00437661
H  0.16949848 -1.55272861 -0.01908739
H  -1.44028717 -0.63759188 -0.01943403
C  0.34094141 0.59000512 0.00262502
H  -0.22925775 1.50866648 -0.02269612
H  1.41002491 0.55839892 -0.02221410
6
MD Step 74
C  -0.33368653 -0.58029783 0.00480887
H  0.17030924 -1.55093528 -0.02149285
H  -1.43891004 -0.63486548 -0.02181499
C  0.34116362 0.59041120 0.00299644
H  -0.22767248 1.50607644 -0.02508579
H  1.40717602 0.55921311 -0.02461460
6
MD Step 75
C  -0.33398924 -0.58090844 0.00523296
H  0.17107649 -1.54893869 -0.02385064
H  -1.43709659 -0.63204831 -0.02414344
C  0.34131261 0.59072828 0.00336189
H  -0.22589193 1.50368113 -0.02743828
H  1.40464656 0.56029238 -0.02698411
6
MD Step 76
C  -0.33429884 -0.58149489 0.00564038
H  0.17185221 -1.54672692 -0.02611058
H  -1.43483994 -0.62910917 -0.02636824
C  0.34137778 0.59094237 0.00371324
H  -0.22390747 1.50158212 -0.02970460
H  1.40254236 0.56167748 -0.02927468
6
MD Step 77
C  -0.33460761 -0.58204766 0.00603386
H  0.17262379 -1.54435740 -0.02828869
H  -1.43220810 -0.62608383 -0.02850545
C  0.34136061 0.59105134 0.00405350
H  -0.22177676 1.49981137 -0.03190282
H  1.40089213 0.56334175 -0.03150429
6
MD Step 78
C  -0.33491410 -0.58256386 0.00640970
H  0.17341851 -1.54185090 -0.03036286
H  -1.42923800 -0.62296936 -0.03053257
C  0.34125727 0.59104730 0.00437912
H  -0.21951746 1.49843518 -0.03401211
H  1.39975159 0.56529613 -0.03365239
6
MD Step 79
C  -0.33520818 -0.58303257 0.00677248
H  0.17421554 -1.53927900 -0.03236016
H  -1.42602293 -0.61981234 -0.03247745
C  0.34107323 0.59093163 0.00469489
H  -0.21719442 1.49746462 -0.03606121
H  1.39911376 0.56750136 -0.03574669
6
MD Step 80
C  -0.33547962 -0.58344327 0.00712669
H  0.17499495 -1.53671351 -0.03430769
H  -1.42266145 -0.61665885 -0.03436842
C  0.34081505 0.59070666 0.00500558
H  -0.21486919 1.49690402 -0.03807850
H  1.39895846 0.56991754 -0.03781397
6
MD Step 81
C  -0.33572557 -0.58379332 0.00746960
H  0.17578125 -1.53418128 -0.03618856
H  -1.41921145 -0.61351010 -0.03618907
C  0.34048290 0.59036841 0.00530832
H  -0.21255511 1.49679413 -0.04004751
H  1.39929688 0.57254823 -0.03983691
6
MD Step 82
C  -0.33593945 -0.58407688 0.00780215
H  0.17657641 -1.53173026 -0.03800836
H  -1.41575576 -0.61038923 -0.03794625
C  0.34008162 0.58991788 0.00560401
H  -0.21028349 1.49714419 -0.04197401
H  1.40010455 0.57537376 -0.04181954
6
MD Step 83
C  -0.33611473 -0.58428873 0.00812534
H  0.17738160 -1.52940644 -0.03977295
H  -1.41237822 -0.60731898 -0.03964754
C  0.33961701 0.58935742 0.00589354
H  -0.20808095 1.49795347 -0.04386362
H  1.40134436 0.57837336 -0.04376533
6
MD Step 84
C  -0.33625296 -0.58443211 0.00843278
H  0.17824300 -1.52720661 -0.04144229
H  -1.40911537 -0.60427508 -0.04125306
C  0.33908787 0.58868294 0.00616964
H  -0.20592262 1.49925723 -0.04567505
H  1.40301417 0.58157150 -0.04563249
6
MD Step 85
C  -0.33634414 -0.58449926 0.00872935
H  0.17913535 -1.52519446 -0.04304636
H  -1.40607188 -0.60130304 -0.04279583
C  0.33850546 0.58790360 0.00643726
H  -0.20384866 1.50100980 -0.04743711
H  1.40503079 0.58492142 -0.04744648
6
MD Step 86
C  -0.33639106 -0.58449550 0.00900832
H  0.18010449 -1.52335622 -0.04454227
H  -1.40327466 -0.59837434 -0.04423314
C  0.33786935 0.58701763 0.00668834
H  -0.20182087 1.50322837 -0.04910464
H  1.40737575 0.58844840 -0.04916184
6
MD Step 87
C  -0.33638900 -0.58441898 0.00927057
H  0.18114634 -1.52172175 -0.04593500
H  -1.40079308 -0.59550795 -0.04557229
C  0.33718758 0.58603270 0.00692327
H  -0.19984425 1.50587201 -0.05068019
H  1.40997510 0.59212857 -0.05077884
6
MD Step 88
C  -0.33634018 -0.58427497 0.00951119
H  0.18229166 -1.52027870 -0.04719230
H  -1.39865179 -0.59268487 -0.04678152
C  0.33646232 0.58495150 0.00713564
H  -0.19788218 1.50892786 -0.05212839
H  1.41278679 0.59597416 -0.05226186
6
MD Step 89
C  -0.33623876 -0.58406087 0.00973336
H  0.18351675 -1.51906196 -0.04833394
H  -1.39691917 -0.58993778 -0.04788351
C  0.33570471 0.58378672 0.00732836
H  -0.19594650 1.51232249 -0.05346576
H  1.41571270 0.59994404 -0.05362481
6
MD Step 90
C  -0.33608273 -0.58377787 0.00993758
H  0.18481257 -1.51808383 -0.04936241
H  -1.39563609 -0.58728145 -0.04888264
C  0.33492310 0.58254920 0.00750122
H  -0.19402884 1.51599282 -0.05469110
H  1.41867050 0.60401326 -0.05486509
6
MD Step 91
C  -0.33586739 -0.58342441 0.01012758
H  0.18614584 -1.51737288 -0.05030175
H  -1.39485351 -0.58475172 -0.04980593
C  0.33412951 0.58125436 0.00765795
H  -0.19214041 1.51984870 -0.05582464
H  1.42155677 0.60813421 -0.05600050
6
MD Step 92
C  -0.33559470 -0.58300538 0.01030192
H  0.18751389 -1.51691892 -0.05114270
H  -1.39457623 -0.58235053 -0.05064502
C  0.33333022 0.57991276 0.00779626
H  -0.19025804 1.52382954 -0.05685320
H  1.42430403 0.61229175 -0.05701754
6
MD Step 93
C  -0.33527092 -0.58252974 0.01045629
H  0.18893078 -1.51668734 -0.05185666
H  -1.39477675 -0.58006004 -0.05137060
C  0.33252814 0.57853229 0.00791030
H  -0.18833910 1.52789178 -0.05774446
H  1.42686809 0.61648931 -0.05788521
6
MD Step 94
C  -0.33489264 -0.58199643 0.01059596
H  0.19034467 -1.51670277 -0.05247900
H  -1.39547903 -0.57792568 -0.05202056
C  0.33173666 0.57713200 0.00800608
H  -0.18640500 1.53192726 -0.05852991
H  1.42914606 0.62066589 -0.05863289
6
MD Step 95
C  -0.33446513 -0.58141274 0.01071925
H  0.19174720 -1.51693990 -0.05299943
H  -1.39664883 -0.57594682 -0.05258420
C  0.33096123 0.57572349 0.00808125
H  -0.18443300 1.53587427 -0.05919592
H  1.43108720 0.62480577 -0.05924778
6
MD Step 96
C  -0.33399497 -0.58078692 0.01082419
H  0.19313072 -1.51736735 -0.05340543
H  -1.39823814 -0.57412003 -0.05304794
C  0.33020652 0.57431802 0.00813314
H  -0.18239990 1.53967562 -0.05972707
H  1.43265054 0.62889543 -0.05971569
6
MD Step 97
C  -0.33348740 -0.58012551 0.01091071
H  0.19447331 -1.51796375 -0.05369766
H  -1.40020199 -0.57245437 -0.05341173
C  0.32947906 0.57292893 0.00816161
H  -0.18029788 1.54326447 -0.06012142
H  1.43379013 0.63290832 -0.06003546
6
MD Step 98
C  -0.33294820 -0.57943524 0.01097888
H  0.19575118 -1.51870647 -0.05387811
H  -1.40248811 -0.57095942 -0.05367659
C  0.32878508 0.57156947 0.00816685
H  -0.17812293 1.54657747 -0.06037872
H  1.43446763 0.63681713 -0.06020769
6
MD Step 99
C  -0.33238756 -0.57872705 0.01102541
H  0.19696364 -1.51954771 -0.05392524
H  -1.40501401 -0.56962082 -0.05381828
C  0.32812642 0.57024854 0.00814474
H  -0.17585091 1.54958016 -0.06047631
H  1.43467717 0.64061853 -0.06021218
6
MD Step 100
C  -0.33180627 -0.57800201 0.01105566
H  0.19805068 -1.52049820 -0.05387780
H  -1.40775208 -0.56848264 -0.05387589
C  0.32751443 0.56898437 0.00810251
H  -0.17351988 1.55218507 -0.06045082
H  1.43436294 0.64425032 -0.06008484
6
MD Step 101
C  -0.33121550 -0.57727158 0.01106610
H  0.19901399 -1.52150708 -0.05371299
H  -1.41061014 -0.56752740 -0.05382361
C  0.32694956 0.56778427 0.00803602
H  -0.17111076 1.55437290 -0.06027941
H  1.43354005 0.64771262 -0.05980546
6
MD Step 102
C  -0.33062551 -0.57654609 0.01105417
H  0.19985003 -1.52253005 -0.05341453
H  -1.41350103 -0.56674303 -0.05364229
C  0.32643267 0.56665578 0.00794240
H  -0.16861415 1.55612578 -0.05994625
H  1.43222721 0.65100050 -0.05936060
6
MD Step 103
C  -0.33003979 -0.57582882 0.01102325
H  0.20051584 -1.52356453 -0.05300778
H  -1.41637912 -0.56615702 -0.05335646
C  0.32597094 0.56561223 0.00782665
H  -0.16606450 1.55739323 -0.05947621
H  1.43041231 0.65406946 -0.05877552
6
MD Step 104
C  -0.32947246 -0.57513387 0.01096730
H  0.20103600 -1.52454381 -0.05245168
H  -1.41913512 -0.56573086 -0.05292122
C  0.32555969 0.56465500 0.00768142
H  -0.16343476 1.55819869 -0.05883069
H  1.42815851 0.65694250 -0.05801508
6
MD Step 105
C  -0.32892614 -0.57446348 0.01089014
H  0.20136910 -1.52547123 -0.05177458
H  -1.42173170 -0.56549247 -0.05236420
C  0.32520513 0.56379561 0.00751240
H  -0.16076842 1.55850643 -0.05803823
H  1.42547070 0.65957603 -0.05710824
6
MD Step 106
C  -0.32841380 -0.57383051 0.01078623
H  0.20154175 -1.52628724 -0.05093849
H  -1.42407093 -0.56540403 -0.05164407
C  0.32490160 0.56303349 0.00731295
H  -0.15804753 1.55835473 -0.05706428
H  1.42242820 0.66199406 -0.05602352
6
MD Step 107
C  -0.32793546 -0.57323446 0.01066106
H  0.20150745 -1.52701078 -0.04998262
H  -1.42613683 -0.56550153 -0.05079981
C  0.32465562 0.56237936 0.00709080
H  -0.15533177 1.55771533 -0.05594855
H  1.41904381 0.66414665 -0.05480077
6
MD Step 108
C  -0.32749695 -0.57268086 0.01051455
H  0.20126166 -1.52762494 -0.04890672
H  -1.42788100 -0.56578132 -0.04982964
C  0.32446631 0.56183609 0.00684639
H  -0.15264510 1.55660770 -0.05469332
H  1.41537764 0.66602517 -0.05344376
6
MD Step 109
C  -0.32710045 -0.57217142 0.01034935
H  0.20078412 -1.52813466 -0.04772976
H  -1.42928091 -0.56625708 -0.04875181
C  0.32433526 0.56140824 0.00658374
H  -0.15003239 1.55504157 -0.05331943
H  1.41147930 0.66760453 -0.05197415
6
MD Step 110
C  -0.32675206 -0.57171195 0.01016406
H  0.20008585 -1.52852018 -0.04644223
H  -1.43029339 -0.56691361 -0.04755547
C  0.32425852 0.56109434 0.00630166
H  -0.14751301 1.55306327 -0.05182087
H  1.40743363 0.66889025 -0.05038739
6
MD Step 111
C  -0.32645570 -0.57130601 0.00995865
H  0.19917209 -1.52877415 -0.04504385
H  -1.43089224 -0.56774347 -0.04623951
C  0.32423302 0.56089298 0.00600065
H  -0.14511708 1.55071841 -0.05020066
H  1.40332275 0.66988121 -0.04868754
6
MD Step 112
C  -0.32621377 -0.57095561 0.00973384
H  0.19804632 -1.52889764 -0.04353948
H  -1.43106451 -0.56874296 -0.04480831
C  0.32425594 0.56080218 0.00568218
H  -0.14288096 1.54805540 -0.04846673
H  1.39922868 0.67057375 -0.04688323
6
MD Step 113
C  -0.32603149 -0.57066575 0.00948712
H  0.19673739 -1.52887326 -0.04191144
H  -1.43078372 -0.56988561 -0.04324354
C  0.32432018 0.56081505 0.00534357
H  -0.14082029 1.54515151 -0.04660585
H  1.39525855 0.67098860 -0.04496209
6
MD Step 114
C  -0.32590631 -0.57043349 0.00922237
H  0.19523449 -1.52872964 -0.04018558
H  -1.43007485 -0.57118603 -0.04157141
C  0.32442555 0.56093052 0.00499000
H  -0.13899310 1.54204751 -0.04464607
H  1.39147826 0.67110584 -0.04295202
6
MD Step 115
C  -0.32583741 -0.57025773 0.00894122
H  0.19354507 -1.52848351 -0.03837222
H  -1.42895620 -0.57264288 -0.03980251
C  0.32456897 0.56114390 0.00462382
H  -0.13744226 1.53880425 -0.04260062
H  1.38796821 0.67092284 -0.04086609
6
MD Step 116
C  -0.32582439 -0.57013792 0.00864423
H  0.19168656 -1.52814749 -0.03647433
H  -1.42744720 -0.57424685 -0.03794023
C  0.32474602 0.56144836 0.00424599
H  -0.13620276 1.53549334 -0.04047562
H  1.38481331 0.67044604 -0.03871007
6
MD Step 117
C  -0.32586626 -0.57007305 0.00833186
H  0.18967997 -1.52773592 -0.03449382
H  -1.42557438 -0.57598683 -0.03598703
C  0.32495211 0.56183614 0.00385719
H  -0.13530701 1.53218950 -0.03827598
H  1.38209447 0.66968453 -0.03648831
6
MD Step 118
C  -0.32595780 -0.57005791 0.00800778
H  0.18752719 -1.52728685 -0.03245429
H  -1.42339336 -0.57787204 -0.03396748
C  0.32518642 0.56230237 0.00346197
H  -0.13480610 1.52894670 -0.03602700
H  1.37986414 0.66862744 -0.03422500
6
MD Step 119
C  -0.32610115 -0.57009503 0.00766822
H  0.18528101 -1.52679165 -0.03032962
H  -1.42091809 -0.57986288 -0.03185613
C  0.32544010 0.56283374 0.00305589
H  -0.13469978 1.52586609 -0.03370615
H  1.37821392 0.66731409 -0.03189683
6
MD Step 120
C  -0.32629175 -0.57018026 0.00731498
H  0.18295917 -1.52627982 -0.02813094
H  -1.41820598 -0.58195535 -0.02966519
C  0.32571098 0.56342281 0.00264112
H  -0.13501975 1.52300904 -0.03132601
H  1.37718712 0.66574804 -0.02951500
6
MD Step 121
C  -0.32653505 -0.57031995 0.00693991
H  0.18064525 -1.52571791 -0.02580385
H  -1.41525633 -0.58408143 -0.02734104
C  0.32598647 0.56405155 0.00220815
H  -0.13572915 1.52049561 -0.02883585
H  1.37687719 0.66399819 -0.02702782
6
MD Step 122
C  -0.32682137 -0.57050522 0.00654852
H  0.17833537 -1.52516142 -0.02338342
H  -1.41216280 -0.58626017 -0.02492016
C  0.32626969 0.56471686 0.00176319
H  -0.13687222 1.51835033 -0.02627046
H  1.37727351 0.66204547 -0.02446843
6
MD Step 123
C  -0.32714613 -0.57073264 0.00614100
H  0.17606033 -1.52463217 -0.02087003
H  -1.40898974 -0.58847679 -0.02240410
C  0.32655866 0.56541049 0.00130623
H  -0.13845287 1.51662244 -0.02363081
H  1.37838258 0.65990542 -0.02183646
6
MD Step 124
C  -0.32749780 -0.57099199 0.00572378
H  0.17381138 -1.52419103 -0.01830392
H  -1.40584446 -0.59075565 -0.01983444
C  0.32685878 0.56613141 0.00084420
H  -0.14050682 1.51531108 -0.02095611
H  1.38015455 0.65755440 -0.01916969
6
MD Step 125
C  -0.32786883 -0.57127729 0.00529924
H  0.17160483 -1.52387213 -0.01569942
H  -1.40280997 -0.59309579 -0.01722656
C  0.32717169 0.56687513 0.00037942
H  -0.14303685 1.51442922 -0.01826019
H  1.38254916 0.65499494 -0.01648093