 Entering Gaussian System, Link 0=g16
 Initial command:
 /software/gaussian/g16-c01/avx2/g16/l1.exe "/gpfs/fs2/scratch/bweight/software/many_molecule_many_mode_NAMD/src/NAMD/TEST_NVT/TRAJ/traj-74/G16/GS_NEW/Gau-20478.inp" -scrdir="/gpfs/fs2/scratch/bweight/software/many_molecule_many_mode_NAMD/src/NAMD/TEST_NVT/TRAJ/traj-74/G16/GS_NEW/"
 Entering Link 1 = /software/gaussian/g16-c01/avx2/g16/l1.exe PID=     20479.
  
 Copyright (c) 1988-2019, Gaussian, Inc.  All Rights Reserved.
  
 This is part of the Gaussian(R) 16 program.  It is based on
 the Gaussian(R) 09 system (copyright 2009, Gaussian, Inc.),
 the Gaussian(R) 03 system (copyright 2003, Gaussian, Inc.),
 the Gaussian(R) 98 system (copyright 1998, Gaussian, Inc.),
 the Gaussian(R) 94 system (copyright 1995, Gaussian, Inc.),
 the Gaussian 92(TM) system (copyright 1992, Gaussian, Inc.),
 the Gaussian 90(TM) system (copyright 1990, Gaussian, Inc.),
 the Gaussian 88(TM) system (copyright 1988, Gaussian, Inc.),
 the Gaussian 86(TM) system (copyright 1986, Carnegie Mellon
 University), and the Gaussian 82(TM) system (copyright 1983,
 Carnegie Mellon University). Gaussian is a federally registered
 trademark of Gaussian, Inc.
  
 This software contains proprietary and confidential information,
 including trade secrets, belonging to Gaussian, Inc.
  
 This software is provided under written license and may be
 used, copied, transmitted, or stored only in accord with that
 written license.
  
 The following legend is applicable only to US Government
 contracts under FAR:
  
                    RESTRICTED RIGHTS LEGEND
  
 Use, reproduction and disclosure by the US Government is
 subject to restrictions as set forth in subparagraphs (a)
 and (c) of the Commercial Computer Software - Restricted
 Rights clause in FAR 52.227-19.
  
 Gaussian, Inc.
 340 Quinnipiac St., Bldg. 40, Wallingford CT 06492
  
  
 ---------------------------------------------------------------
 Warning -- This program may not be used in any manner that
 competes with the business of Gaussian, Inc. or will provide
 assistance to any competitor of Gaussian, Inc.  The licensee
 of this program is prohibited from giving any competitor of
 Gaussian, Inc. access to this program.  By using this program,
 the user acknowledges that Gaussian, Inc. is engaged in the
 business of creating and licensing software in the field of
 computational chemistry and represents and warrants to the
 licensee that it is not a competitor of Gaussian, Inc. and that
 it will not use this program in any manner prohibited above.
 ---------------------------------------------------------------
  

 Cite this work as:
 Gaussian 16, Revision C.01,
 M. J. Frisch, G. W. Trucks, H. B. Schlegel, G. E. Scuseria, 
 M. A. Robb, J. R. Cheeseman, G. Scalmani, V. Barone, 
 G. A. Petersson, H. Nakatsuji, X. Li, M. Caricato, A. V. Marenich, 
 J. Bloino, B. G. Janesko, R. Gomperts, B. Mennucci, H. P. Hratchian, 
 J. V. Ortiz, A. F. Izmaylov, J. L. Sonnenberg, D. Williams-Young, 
 F. Ding, F. Lipparini, F. Egidi, J. Goings, B. Peng, A. Petrone, 
 T. Henderson, D. Ranasinghe, V. G. Zakrzewski, J. Gao, N. Rega, 
 G. Zheng, W. Liang, M. Hada, M. Ehara, K. Toyota, R. Fukuda, 
 J. Hasegawa, M. Ishida, T. Nakajima, Y. Honda, O. Kitao, H. Nakai, 
 T. Vreven, K. Throssell, J. A. Montgomery, Jr., J. E. Peralta, 
 F. Ogliaro, M. J. Bearpark, J. J. Heyd, E. N. Brothers, K. N. Kudin, 
 V. N. Staroverov, T. A. Keith, R. Kobayashi, J. Normand, 
 K. Raghavachari, A. P. Rendell, J. C. Burant, S. S. Iyengar, 
 J. Tomasi, M. Cossi, J. M. Millam, M. Klene, C. Adamo, R. Cammi, 
 J. W. Ochterski, R. L. Martin, K. Morokuma, O. Farkas, 
 J. B. Foresman, and D. J. Fox, Gaussian, Inc., Wallingford CT, 2019.
 
 ******************************************
 Gaussian 16:  ES64L-G16RevC.01  3-Jul-2019
                11-Jan-2023 
 ******************************************
 %oldchk=../GS_OLD/geometry.chk
 %chk=geometry.chk
 %nprocshared=4
 Will use up to    4 processors via shared memory.
 %mem=5GB
 Copying data from "../GS_OLD/geometry.chk" to current chk file "geometry.chk"
 IOpt=  2 FromEx=T IUOpen= 4 IOptOp= 5 NList=   0 IFRang= 0 IUIn= 4 IUOut= 2.
 -------------------------------------------------------
 # WB97XD/6-311G SCF=XQC FORCE nosym pop=full guess=read
 -------------------------------------------------------
 1/10=7,30=1,38=1/1,3;
 2/12=2,15=1,17=6,18=5,40=1/2;
 3/5=4,6=6,11=2,25=1,30=1,71=1,74=-58,116=-2/1,2,3;
 4/5=1/1;
 5/5=2,8=3,13=1,38=6/2,8;
 6/7=3,28=1/1;
 7/29=1,30=1/1,2,3,16;
 1/10=7,30=1/3;
 99//99;
 ------------
 MD Step 1000
 ------------
 Symbolic Z-matrix:
 Charge =  0 Multiplicity = 1
 C                    -0.33741  -0.5828    0.00728 
 H                     0.22665  -1.52533  -0.02512 
 H                    -1.42151  -0.58481  -0.02766 
 C                     0.33256   0.57736   0.00539 
 H                    -0.15306   1.56647  -0.03123 
 H                     1.44427   0.64714  -0.02839 
 

 GradGradGradGradGradGradGradGradGradGradGradGradGradGradGradGradGradGrad
 Berny optimization.
 Initialization pass.
 Trust Radius=3.00D-01 FncErr=1.00D-07 GrdErr=1.00D-07 EigMax=2.50D+02 EigMin=1.00D-04
 Number of steps in this run=      2 maximum allowed number of steps=      2.
 GradGradGradGradGradGradGradGradGradGradGradGradGradGradGradGradGradGrad

                          Input orientation:                          
 ---------------------------------------------------------------------
 Center     Atomic      Atomic             Coordinates (Angstroms)
 Number     Number       Type             X           Y           Z
 ---------------------------------------------------------------------
      1          6           0       -0.337405   -0.582801    0.007280
      2          1           0        0.226646   -1.525328   -0.025119
      3          1           0       -1.421505   -0.584814   -0.027659
      4          6           0        0.332558    0.577355    0.005390
      5          1           0       -0.153063    1.566468   -0.031229
      6          1           0        1.444274    0.647139   -0.028386
 ---------------------------------------------------------------------
                    Distance matrix (angstroms):
                    1          2          3          4          5
     1  C    0.000000
     2  H    1.098891   0.000000
     3  H    1.084665   1.897624   0.000000
     4  C    1.339708   2.105570   2.104393   0.000000
     5  H    2.157504   3.115031   2.497393   1.102503   0.000000
     6  H    2.165273   2.490430   3.119359   1.114416   1.843003
                    6
     6  H    0.000000
 Symmetry turned off by external request.
 Stoichiometry    C2H4
 Framework group  C1[X(C2H4)]
 Deg. of freedom    12
 Full point group                 C1      NOp   1
 Rotational constants (GHZ):         143.1463892          29.6487659          24.5712797
 Standard basis: 6-311G (5D, 7F)
    38 basis functions,    72 primitive gaussians,    38 cartesian basis functions
     8 alpha electrons        8 beta electrons
       nuclear repulsion energy        33.0499108456 Hartrees.
 NAtoms=    6 NActive=    6 NUniq=    6 SFac= 1.00D+00 NAtFMM=   60 NAOKFM=F Big=F
 Integral buffers will be    131072 words long.
 Raffenetti 2 integral format.
 Two-electron integral symmetry is turned off.
 Nuclear repulsion after empirical dispersion term =       33.0490678227 Hartrees.
 One-electron integrals computed using PRISM.
 NBasis=    38 RedAO= T EigKep=  6.46D-03  NBF=    38
 NBsUse=    38 1.00D-06 EigRej= -1.00D+00 NBFU=    38
 Initial guess from the checkpoint file:  "geometry.chk"
 B after Tr=    -0.000285   -0.000439   -0.000190
         Rot=    1.000000    0.000004   -0.000001    0.000006 Ang=   0.00 deg.
 Keep R1 ints in memory in canonical form, NReq=4036876.
 Requested convergence on RMS density matrix=1.00D-08 within  32 cycles.
 Requested convergence on MAX density matrix=1.00D-06.
 Requested convergence on             energy=1.00D-06.
 No special actions if energy rises.
 SCF Done:  E(RwB97XD) =  -78.5553764837     A.U. after    8 cycles
            NFock=  8  Conv=0.39D-08     -V/T= 2.0052
 QCSCF skips out because SCF is already converged.

 **********************************************************************

            Population analysis using the SCF Density.

 **********************************************************************

 Alpha  occ. eigenvalues --  -10.29044 -10.28839  -0.86354  -0.67226  -0.55955
 Alpha  occ. eigenvalues --   -0.50882  -0.43666  -0.35661
 Alpha virt. eigenvalues --    0.07939   0.14078   0.16476   0.17012   0.24068
 Alpha virt. eigenvalues --    0.37188   0.39358   0.39978   0.46427   0.48837
 Alpha virt. eigenvalues --    0.49394   0.59086   0.66564   0.69098   0.77258
 Alpha virt. eigenvalues --    0.77523   0.84159   0.95074   2.23139   2.29092
 Alpha virt. eigenvalues --    2.33234   2.40623   2.67087   2.81748   2.87838
 Alpha virt. eigenvalues --    2.95175   3.13958   3.31884  23.35245  23.70460
     Molecular Orbital Coefficients:
                           1         2         3         4         5
                           O         O         O         O         O
     Eigenvalues --   -10.29044 -10.28839  -0.86354  -0.67226  -0.55955
   1 1   C  1S          0.12189   0.55006  -0.08836   0.06680  -0.00032
   2        2S          0.10051   0.45267  -0.13967   0.10697  -0.00052
   3        2PX         0.00016  -0.00002   0.02586   0.03613   0.13954
   4        2PY         0.00028  -0.00002   0.04626   0.05874  -0.07256
   5        2PZ        -0.00000  -0.00001  -0.00141   0.00205   0.00041
   6        3S          0.00231   0.01444   0.37473  -0.29195   0.00141
   7        3PX        -0.00059   0.00045   0.03448   0.05785   0.21860
   8        3PY        -0.00100   0.00080   0.06111   0.09533  -0.11487
   9        3PZ        -0.00002  -0.00003  -0.00235   0.00366   0.00062
  10        4S          0.00270  -0.01476   0.19218  -0.22594   0.00040
  11        4PX         0.00143  -0.00162   0.00488   0.02317   0.11288
  12        4PY         0.00245  -0.00275   0.00863   0.03943  -0.06024
  13        4PZ         0.00001   0.00009  -0.00082   0.00184   0.00031
  14 2   H  1S         -0.00004  -0.00006   0.05261  -0.08643   0.10264
  15        2S         -0.00030   0.00012   0.05395  -0.10453   0.13013
  16        3S          0.00088   0.00165  -0.00178  -0.01489   0.04205
  17 3   H  1S         -0.00005  -0.00007   0.05410  -0.09077  -0.10716
  18        2S         -0.00029   0.00009   0.05491  -0.10862  -0.13459
  19        3S          0.00092   0.00168  -0.00184  -0.01594  -0.04336
  20 4   C  1S          0.55004  -0.12208  -0.08678  -0.06841  -0.00019
  21        2S          0.45273  -0.10027  -0.13703  -0.10971  -0.00029
  22        2PX        -0.00002  -0.00017  -0.02754   0.03771   0.11586
  23        2PY        -0.00003  -0.00029  -0.04643   0.06793  -0.07483
  24        2PZ        -0.00000   0.00000  -0.00114  -0.00226   0.00041
  25        3S          0.01390  -0.00399   0.36713   0.29988   0.00074
  26        3PX        -0.00018   0.00073  -0.03440   0.06115   0.18150
  27        3PY        -0.00028   0.00127  -0.05808   0.10930  -0.11588
  28        3PZ        -0.00004  -0.00000  -0.00197  -0.00406   0.00063
  29        4S         -0.01191   0.00881   0.18892   0.23826  -0.00067
  30        4PX         0.00079  -0.00192  -0.00535   0.02679   0.10016
  31        4PY         0.00135  -0.00338  -0.00913   0.04655  -0.06317
  32        4PZ         0.00007  -0.00002  -0.00081  -0.00208   0.00033
  33 5   H  1S         -0.00007  -0.00004   0.04995   0.09467  -0.08946
  34        2S         -0.00004  -0.00031   0.05105   0.11264  -0.11250
  35        3S          0.00181   0.00008  -0.00105   0.01696  -0.03600
  36 6   H  1S         -0.00005  -0.00004   0.04863   0.09177   0.08382
  37        2S         -0.00003  -0.00033   0.05023   0.11005   0.10618
  38        3S          0.00176   0.00006  -0.00108   0.01624   0.03442
                           6         7         8         9        10
                           O         O         O         V         V
     Eigenvalues --    -0.50882  -0.43666  -0.35661   0.07939   0.14078
   1 1   C  1S         -0.00308   0.00032  -0.00108   0.00293  -0.03335
   2        2S         -0.00455   0.00056  -0.00175   0.00486  -0.05349
   3        2PX         0.09308  -0.10983  -0.00374   0.00167  -0.02987
   4        2PY         0.16925   0.06523  -0.00613   0.00250  -0.06546
   5        2PZ         0.00546  -0.00008   0.17936  -0.18905  -0.00268
   6        3S          0.01827  -0.00142   0.00511  -0.01472   0.11639
   7        3PX         0.13488  -0.17527  -0.00530   0.00252  -0.03464
   8        3PY         0.24751   0.10453  -0.00863   0.00373  -0.08124
   9        3PZ         0.00865  -0.00009   0.28841  -0.27796  -0.00428
  10        4S         -0.05545  -0.00416   0.00755  -0.01657   1.22230
  11        4PX         0.06765  -0.10898  -0.00436   0.01404  -0.18177
  12        4PY         0.12582   0.06614  -0.00707   0.02223  -0.38406
  13        4PZ         0.00491   0.00001   0.26728  -0.69358  -0.01540
  14 2   H  1S         -0.08177  -0.11437   0.00017   0.00456  -0.01813
  15        2S         -0.11364  -0.17656   0.00216   0.00715  -0.05004
  16        3S         -0.04263  -0.08147   0.00132   0.01903  -0.84261
  17 3   H  1S         -0.07859   0.11148   0.00007   0.00456  -0.01309
  18        2S         -0.10845   0.17121   0.00202   0.00731  -0.03729
  19        3S         -0.04026   0.07889   0.00124   0.01878  -0.75567
  20 4   C  1S         -0.00897  -0.00059  -0.00088  -0.00283  -0.03632
  21        2S         -0.01408  -0.00099  -0.00143  -0.00468  -0.05833
  22        2PX        -0.09916   0.12582   0.00343   0.00168   0.04254
  23        2PY        -0.16089  -0.07433   0.00664   0.00343   0.06015
  24        2PZ         0.00578   0.00038   0.17903   0.18947  -0.00320
  25        3S          0.04515   0.00284   0.00424   0.01404   0.12890
  26        3PX        -0.14722   0.20125   0.00478   0.00260   0.05270
  27        3PY        -0.23678  -0.11813   0.00935   0.00528   0.07099
  28        3PZ         0.00914   0.00058   0.28652   0.27781  -0.00485
  29        4S         -0.02556   0.00403   0.00698   0.01598   1.24093
  30        4PX        -0.07729   0.12939   0.00365   0.01328   0.27452
  31        4PY        -0.12265  -0.07462   0.00738   0.02531   0.41095
  32        4PZ         0.00531   0.00034   0.26766   0.69479  -0.01923
  33 5   H  1S         -0.07341  -0.12521   0.00027  -0.00432  -0.01124
  34        2S         -0.10002  -0.19502   0.00236  -0.00728  -0.03610
  35        3S         -0.03736  -0.09164   0.00130  -0.01863  -0.81102
  36 6   H  1S         -0.08005   0.12537   0.00015  -0.00430  -0.01618
  37        2S         -0.10976   0.19638   0.00217  -0.00717  -0.04824
  38        3S         -0.04132   0.09229   0.00118  -0.01880  -0.89779
                          11        12        13        14        15
                           V         V         V         V         V
     Eigenvalues --     0.16476   0.17012   0.24068   0.37188   0.39358
   1 1   C  1S          0.00173  -0.04563  -0.00002   0.00902   0.00168
   2        2S          0.00278  -0.07436  -0.00003   0.01213   0.00281
   3        2PX         0.09757  -0.01916   0.09982  -0.03530  -0.02468
   4        2PY        -0.05233  -0.03710  -0.05725  -0.06520   0.00710
   5        2PZ         0.00028  -0.00711   0.00010  -0.00494  -0.00023
   6        3S         -0.00593   0.16836   0.00026   0.03441  -0.00517
   7        3PX         0.13928  -0.01017   0.10522  -0.04319  -0.11022
   8        3PY        -0.07623  -0.02430  -0.06148  -0.08396   0.03996
   9        3PZ         0.00040  -0.00986   0.00003  -0.01012  -0.00028
  10        4S         -0.07755   1.43846  -0.01133  -2.48654  -0.26393
  11        4PX         0.59053  -0.11550   1.17128  -1.53040  -0.54687
  12        4PY        -0.30734  -0.20386  -0.66289  -2.66914   0.12718
  13        4PZ         0.00188  -0.04652   0.00198  -0.04536  -0.00306
  14 2   H  1S         -0.02883  -0.02587   0.01363  -0.06067   0.07552
  15        2S         -0.08095  -0.01763  -0.02426  -0.67985   0.77970
  16        3S         -1.01464  -1.00717  -1.54250  -0.27897  -0.32752
  17 3   H  1S          0.02853  -0.02513  -0.01626  -0.05336  -0.07475
  18        2S          0.08054  -0.02167   0.01751  -0.62596  -0.74147
  19        3S          1.11492  -1.01033   1.56882  -0.36204   0.22920
  20 4   C  1S          0.00159   0.04231  -0.00005  -0.02000   0.00005
  21        2S          0.00255   0.06886  -0.00010  -0.03296   0.00040
  22        2PX         0.10067  -0.02321  -0.10056  -0.04082  -0.03178
  23        2PY        -0.06229  -0.03777   0.05758  -0.07183   0.01361
  24        2PZ         0.00034   0.00697  -0.00013   0.00354   0.00045
  25        3S         -0.00506  -0.15259   0.00037   0.04590  -0.00843
  26        3PX         0.14473  -0.01860  -0.11480  -0.09385  -0.10668
  27        3PY        -0.08810  -0.02768   0.06436  -0.16727   0.06181
  28        3PZ         0.00048   0.00961  -0.00010   0.00422   0.00092
  29        4S         -0.07619  -1.34079   0.00680   3.22437   0.19756
  30        4PX         0.53051  -0.11408  -1.11792  -1.12447  -0.60407
  31        4PY        -0.33762  -0.20030   0.65533  -1.96757   0.03138
  32        4PZ         0.00209   0.04529  -0.00211   0.03628   0.00330
  33 5   H  1S          0.03113   0.02462   0.00583   0.00686  -0.07958
  34        2S          0.06709   0.02285  -0.03459   0.02731  -0.77045
  35        3S          1.08930   0.94521  -1.52645   0.45020   0.48488
  36 6   H  1S         -0.03147   0.02538  -0.00394   0.00317   0.08932
  37        2S         -0.06780   0.01948   0.03651  -0.00797   0.92121
  38        3S         -0.98764   0.93974   1.50913   0.45488  -0.45727
                          16        17        18        19        20
                           V         V         V         V         V
     Eigenvalues --     0.39978   0.46427   0.48837   0.49394   0.59086
   1 1   C  1S         -0.01892   0.01283   0.04625  -0.00045  -0.00059
   2        2S         -0.03305   0.02953   0.07722  -0.00046  -0.00107
   3        2PX         0.02734  -0.06097  -0.01172   0.00140   0.00233
   4        2PY         0.05261  -0.10692  -0.01462   0.00173   0.00328
   5        2PZ         0.00051  -0.00045  -0.00577  -0.15186  -0.19242
   6        3S          0.07273  -0.33676  -0.08786  -0.00990  -0.00067
   7        3PX         0.09974  -0.23908   0.03695   0.00070   0.00782
   8        3PY         0.19952  -0.41700   0.07495  -0.00120   0.01097
   9        3PZ        -0.00371  -0.00453  -0.02605  -0.62823  -0.68459
  10        4S          2.79944   0.10902  -3.08689   0.10038   0.07388
  11        4PX         0.29084   0.23326  -0.82828   0.03204   0.02137
  12        4PY         0.58452   0.43367  -1.42394   0.05797   0.04096
  13        4PZ        -0.00024   0.00244   0.09562   0.68465   1.23987
  14 2   H  1S         -0.02185  -0.03275   0.07604  -0.00301  -0.00178
  15        2S         -0.48680  -0.31312   0.91019  -0.02917  -0.01320
  16        3S          0.32018   0.06390  -0.64602   0.03371   0.02492
  17 3   H  1S         -0.03525  -0.03454   0.07401  -0.00293  -0.00173
  18        2S         -0.61333  -0.33192   0.87669  -0.02820  -0.01240
  19        3S          0.35286   0.06277  -0.61380   0.03255   0.02437
  20 4   C  1S          0.00034  -0.00339  -0.05097   0.00338   0.00074
  21        2S         -0.00302   0.00190  -0.08882   0.00612   0.00139
  22        2PX         0.00927   0.05502  -0.02825   0.00027   0.00206
  23        2PY         0.02021   0.09344  -0.05114   0.00005   0.00432
  24        2PZ        -0.00416  -0.00198  -0.00587  -0.15273   0.19217
  25        3S          0.07692  -0.28220   0.23657  -0.02368  -0.00267
  26        3PX        -0.04457   0.23602  -0.06092   0.00089   0.00717
  27        3PY        -0.05691   0.40700  -0.10638  -0.00051   0.01505
  28        3PZ        -0.01158  -0.00792  -0.02182  -0.63154   0.68209
  29        4S         -1.01550   0.78307   3.09232  -0.12373  -0.06472
  30        4PX         1.28263  -0.34041  -0.59861   0.01550   0.02460
  31        4PY         2.35561  -0.56780  -1.02422   0.02767   0.03797
  32        4PZ        -0.03683  -0.01890  -0.03666   0.69463  -1.23690
  33 5   H  1S         -0.04949  -0.06491  -0.06367   0.00268   0.00169
  34        2S         -0.87189  -0.66552  -0.80562   0.03992   0.00654
  35        3S         -0.21161   0.27117   0.53984  -0.01111  -0.02426
  36 6   H  1S         -0.03606  -0.06425  -0.06327   0.00269   0.00170
  37        2S         -0.71917  -0.65740  -0.80181   0.03956   0.00655
  38        3S         -0.25478   0.29361   0.55875  -0.01253  -0.02465
                          21        22        23        24        25
                           V         V         V         V         V
     Eigenvalues --     0.66564   0.69098   0.77258   0.77523   0.84159
   1 1   C  1S          0.00110  -0.00064   0.04579   0.07627   0.00101
   2        2S          0.00228  -0.00140   0.09649   0.16256   0.00242
   3        2PX        -0.13291   0.19727  -0.03518   0.11309  -0.00690
   4        2PY         0.07739  -0.11966  -0.05799   0.18112   0.01637
   5        2PZ        -0.00018   0.00034   0.00031   0.00519   0.00018
   6        3S         -0.01852   0.01769  -0.62843  -1.39119  -0.02982
   7        3PX        -0.61677   0.69153  -0.21207   0.43632  -0.21765
   8        3PY         0.35452  -0.42034  -0.35201   0.68419   0.17569
   9        3PZ        -0.00099   0.00123   0.00133   0.01816   0.00040
  10        4S          0.02780  -0.06499   0.55140   2.47897   0.03482
  11        4PX         1.07954  -0.77032   0.26435  -0.78923   4.53626
  12        4PY        -0.62116   0.49148   0.26268  -0.96389  -2.56302
  13        4PZ         0.00124   0.00109   0.01421  -0.05758   0.00877
  14 2   H  1S          0.02405  -0.05899   0.00773   0.03335  -0.02624
  15        2S          0.13721  -0.63465   0.05461   0.10693  -1.57603
  16        3S         -1.04158   1.11230  -0.02931  -1.08021  -1.23415
  17 3   H  1S         -0.02299   0.05827   0.00776   0.03407   0.03086
  18        2S         -0.15390   0.66858   0.10563   0.05811   1.62321
  19        3S          1.03062  -1.05874   0.02296  -1.26727   1.22810
  20 4   C  1S          0.00132  -0.00021   0.08150   0.03769   0.00057
  21        2S          0.00271  -0.00036   0.17359   0.07941   0.00104
  22        2PX        -0.15131  -0.18579  -0.09913   0.04498   0.01190
  23        2PY         0.08671   0.10181  -0.18211   0.08422   0.00448
  24        2PZ        -0.00025  -0.00036   0.00555  -0.00075  -0.00019
  25        3S         -0.02053  -0.00422  -1.46132  -0.49137   0.00067
  26        3PX        -0.68292  -0.62934  -0.36443   0.24892   0.24213
  27        3PY         0.39531   0.34131  -0.67936   0.46378  -0.08610
  28        3PZ        -0.00123  -0.00121   0.01965  -0.00304  -0.00033
  29        4S          0.01822   0.04201   2.65292   0.34020  -0.05028
  30        4PX         1.28985   0.76387   0.49636  -0.17388  -4.13010
  31        4PY        -0.74326  -0.39391   1.09588  -0.63166   2.38453
  32        4PZ         0.00227  -0.00082  -0.05799   0.02334  -0.00820
  33 5   H  1S         -0.02492  -0.05490   0.03433   0.00560  -0.02341
  34        2S         -0.14251  -0.56011   0.06425   0.09227  -1.40938
  35        3S          1.11529   0.97405  -1.20508   0.22583  -1.08547
  36 6   H  1S          0.02590   0.05513   0.03363   0.00610   0.02217
  37        2S          0.13294   0.52635   0.08336   0.01390   1.38491
  38        3S         -1.11995  -1.01204  -1.08467   0.13150   1.10225
                          26        27        28        29        30
                           V         V         V         V         V
     Eigenvalues --     0.95074   2.23139   2.29092   2.33234   2.40623
   1 1   C  1S          0.09595  -0.00995  -0.01457   0.00049  -0.00056
   2        2S          0.19939   0.00182  -0.01437   0.00096  -0.00073
   3        2PX        -0.09079  -0.07354  -0.12994   0.35042  -0.40790
   4        2PY        -0.15726  -0.14158  -0.23101  -0.19762   0.22728
   5        2PZ         0.00020  -0.01411  -0.01954   0.00043  -0.00122
   6        3S         -1.54692  -0.18681  -0.03940  -0.00056  -0.00489
   7        3PX        -0.23168   0.06712   0.20376  -0.42025   0.56976
   8        3PY        -0.39198   0.14580   0.37769   0.23947  -0.31850
   9        3PZ        -0.00262   0.01408   0.02435  -0.00036   0.00146
  10        4S          5.71500  -0.10034  -0.88222   0.00243  -0.00882
  11        4PX         1.21933   0.05389  -0.18206  -0.06330   0.98683
  12        4PY         1.97661   0.07112  -0.36270   0.02520  -0.53352
  13        4PZ        -0.02011   0.00293   0.00874  -0.00041   0.00287
  14 2   H  1S          0.01522  -0.70409  -0.80412  -0.70619   0.64697
  15        2S         -0.29469   0.99944   1.20074   1.09555  -1.45103
  16        3S         -0.10609  -0.30091  -0.48398  -0.46678   0.36473
  17 3   H  1S          0.01578  -0.69235  -0.79688   0.70295  -0.67190
  18        2S         -0.25282   0.98270   1.19825  -1.09460   1.50364
  19        3S         -0.07623  -0.27585  -0.45739   0.45700  -0.35361
  20 4   C  1S         -0.09383  -0.01049   0.01220   0.00055   0.00038
  21        2S         -0.19458  -0.00015   0.01225   0.00077   0.00074
  22        2PX        -0.09194   0.13822  -0.12270   0.30082   0.41572
  23        2PY        -0.15870   0.23856  -0.20310  -0.17531  -0.24241
  24        2PZ         0.00032  -0.01604   0.01884   0.00074   0.00085
  25        3S          1.50513  -0.16673   0.01766   0.00073   0.00001
  26        3PX        -0.22326  -0.17816   0.21231  -0.37605  -0.58202
  27        3PY        -0.39287  -0.30066   0.34337   0.21567   0.34054
  28        3PZ         0.00384   0.01728  -0.02403  -0.00080  -0.00115
  29        4S         -5.69004  -0.17773   0.88808   0.01642  -0.00582
  30        4PX         1.08372  -0.01154  -0.20442   0.11945  -0.84203
  31        4PY         1.98753  -0.03251  -0.31052  -0.06597   0.50765
  32        4PZ         0.01367   0.00529  -0.00688  -0.00000  -0.00259
  33 5   H  1S         -0.01799  -0.79356   0.66806   0.70281   0.69097
  34        2S          0.28604   1.15501  -1.02398  -1.01623  -1.46357
  35        3S          0.05818  -0.35681   0.39297   0.50953   0.42920
  36 6   H  1S         -0.01785  -0.78913   0.68976  -0.68903  -0.68823
  37        2S          0.31953   1.14541  -1.04693   0.99270   1.44836
  38        3S          0.07791  -0.36136   0.42627  -0.50720  -0.44108
                          31        32        33        34        35
                           V         V         V         V         V
     Eigenvalues --     2.67087   2.81748   2.87838   2.95175   3.13958
   1 1   C  1S          0.00053   0.00272  -0.01336   0.00003  -0.00988
   2        2S          0.00039   0.00778  -0.04371  -0.00026  -0.03005
   3        2PX         0.00586   0.07800  -0.46921  -0.72200   0.44825
   4        2PY         0.00761   0.13747  -0.85926   0.40891   0.77273
   5        2PZ        -0.92437  -0.92836  -0.14811  -0.00178   0.00654
   6        3S         -0.00148  -0.06396   0.38139   0.00467   0.25124
   7        3PX        -0.00423  -0.13480   0.82964   0.87089  -0.42927
   8        3PY        -0.00503  -0.23542   1.48572  -0.47777  -0.73368
   9        3PZ         0.93981   1.13430   0.18589   0.00236  -0.00838
  10        4S          0.01344   0.14959  -0.86649  -0.01186  -0.49237
  11        4PX        -0.00218   0.10747  -0.70570  -0.66868   0.21616
  12        4PY        -0.00354   0.18939  -1.26532   0.35351   0.35739
  13        4PZ        -0.33835  -0.61352  -0.11773  -0.00190   0.00477
  14 2   H  1S          0.01293  -0.02039   0.25904  -0.37429  -0.20775
  15        2S         -0.01466   0.01238  -0.21452   0.38801   0.15636
  16        3S         -0.00324   0.04414  -0.29975   0.27306   0.04954
  17 3   H  1S          0.01317  -0.01975   0.24868   0.37316  -0.21451
  18        2S         -0.01515   0.01047  -0.19548  -0.38254   0.16294
  19        3S         -0.00375   0.04415  -0.29966  -0.29179   0.06481
  20 4   C  1S          0.00055  -0.00265   0.01358   0.00058  -0.00732
  21        2S          0.00055  -0.00821   0.04780   0.00129  -0.02254
  22        2PX        -0.00740   0.06833  -0.40573  -0.81345  -0.50384
  23        2PY        -0.01530   0.12265  -0.71273   0.44497  -0.90118
  24        2PZ        -0.92490   0.92691   0.15244  -0.00047   0.01479
  25        3S         -0.00322   0.07033  -0.42930  -0.00906   0.19265
  26        3PX         0.00788  -0.12493   0.76589   0.97003   0.54228
  27        3PY         0.01589  -0.22204   1.34238  -0.52471   0.98113
  28        3PZ         0.94069  -1.13265  -0.19194   0.00061  -0.01875
  29        4S          0.01716  -0.15253   0.89519   0.02808  -0.36562
  30        4PX        -0.00088   0.10718  -0.70795  -0.70167  -0.33269
  31        4PY        -0.00267   0.18760  -1.22988   0.37709  -0.60819
  32        4PZ        -0.33882   0.61235   0.12251  -0.00053   0.01479
  33 5   H  1S          0.01233   0.02930  -0.29425   0.41881  -0.27046
  34        2S         -0.01526  -0.02374   0.26869  -0.42867   0.21315
  35        3S         -0.00147  -0.04063   0.28083  -0.24491   0.13325
  36 6   H  1S          0.01244   0.02920  -0.29025  -0.43351  -0.25289
  37        2S         -0.01576  -0.02463   0.27052   0.44292   0.19886
  38        3S         -0.00092  -0.03884   0.26705   0.24482   0.11975
                          36        37        38
                           V         V         V
     Eigenvalues --     3.31884  23.35245  23.70460
   1 1   C  1S         -0.00032  -1.41400  -1.45227
   2        2S         -0.00034   1.50805   1.57041
   3        2PX         0.79269  -0.00663   0.01214
   4        2PY        -0.43837  -0.01075   0.02131
   5        2PZ         0.00193  -0.00058  -0.00026
   6        3S         -0.00305  -0.29632  -0.39914
   7        3PX        -1.13360   0.02409  -0.05544
   8        3PY         0.61929   0.03967  -0.09647
   9        3PZ        -0.00291   0.00165   0.00079
  10        4S          0.00818   0.27517   0.76679
  11        4PX         1.98667  -0.02565   0.13394
  12        4PY        -1.07918  -0.04320   0.22851
  13        4PZ         0.00500  -0.00276  -0.00327
  14 2   H  1S          0.56385   0.01288   0.00720
  15        2S         -0.87639   0.00761  -0.01507
  16        3S         -0.46055  -0.08390  -0.04006
  17 3   H  1S         -0.57687   0.01495   0.00841
  18        2S          0.89541   0.00729  -0.01454
  19        3S          0.49369  -0.08663  -0.03957
  20 4   C  1S          0.00006  -1.44751   1.41871
  21        2S         -0.00030   1.54385  -1.53418
  22        2PX        -0.70228   0.00609   0.01269
  23        2PY         0.40811   0.01109   0.02159
  24        2PZ        -0.00177  -0.00060   0.00015
  25        3S          0.00665  -0.30300   0.38990
  26        3PX         0.99833  -0.02225  -0.05627
  27        3PY        -0.59187  -0.04001  -0.09676
  28        3PZ         0.00265   0.00171  -0.00037
  29        4S         -0.03082   0.27884  -0.75818
  30        4PX        -1.75225   0.02357   0.12958
  31        4PY         1.05201   0.04332   0.22642
  32        4PZ        -0.00459  -0.00279   0.00238
  33 5   H  1S          0.48179   0.01357  -0.00472
  34        2S         -0.74981   0.00815   0.01347
  35        3S         -0.43207  -0.08345   0.03717
  36 6   H  1S         -0.47369   0.01182  -0.00354
  37        2S          0.73982   0.00920   0.01350
  38        3S          0.41345  -0.08095   0.03725
     Density Matrix:
                           1         2         3         4         5
   1 1   C  1S          0.65940
   2        2S          0.56149   0.49197
   3        2PX        -0.00045  -0.00058   0.08437
   4        2PY        -0.00123  -0.00169   0.00361   0.08758
   5        2PZ         0.00009   0.00015  -0.00012  -0.00031   0.06441
   6        3S         -0.08890  -0.15379   0.00236   0.00610  -0.00022
   7        3PX         0.00091   0.00140   0.13062   0.00112  -0.00008
   8        3PY         0.00121   0.00187   0.00117   0.13104  -0.00029
   9        3PZ         0.00019   0.00031  -0.00021  -0.00049   0.10357
  10        4S         -0.07941  -0.11437  -0.01574  -0.02822   0.00064
  11        4PX         0.00025   0.00158   0.07000  -0.00447  -0.00063
  12        4PY         0.00063   0.00304  -0.00457   0.06548  -0.00109
  13        4PZ        -0.00012  -0.00028  -0.00091  -0.00152   0.09594
  14 2   H  1S         -0.02055  -0.03274   0.03502  -0.06278  -0.00123
  15        2S         -0.02294  -0.03669   0.04917  -0.08770  -0.00091
  16        3S          0.00054  -0.00077   0.02052  -0.03309  -0.00000
  17 3   H  1S         -0.02115  -0.03365  -0.07278  -0.00217  -0.00146
  18        2S         -0.02333  -0.03724  -0.10038  -0.00255  -0.00120
  19        3S          0.00059  -0.00069  -0.03818   0.00090  -0.00010
  20 4   C  1S          0.00604   0.00974  -0.01084  -0.01883  -0.00045
  21        2S          0.00970   0.01517  -0.01734  -0.03014  -0.00073
  22        2PX         0.01033   0.01652  -0.01249  -0.03212   0.00046
  23        2PY         0.01793   0.02867  -0.03205  -0.04969   0.00099
  24        2PZ        -0.00052  -0.00084  -0.00045  -0.00062   0.06428
  25        3S         -0.02610  -0.03963   0.04862   0.08470   0.00221
  26        3PX         0.01592   0.02468  -0.01836  -0.04597   0.00057
  27        3PY         0.02763   0.04281  -0.04565  -0.07139   0.00131
  28        3PZ        -0.00088  -0.00142  -0.00079  -0.00109   0.10287
  29        4S          0.00539   0.00400   0.02110   0.03735   0.00267
  30        4PX         0.00310   0.00638  -0.01323  -0.02121   0.00065
  31        4PY         0.00518   0.01079  -0.02123  -0.03755   0.00149
  32        4PZ        -0.00075  -0.00121  -0.00119  -0.00180   0.09606
  33 5   H  1S          0.00419   0.00687  -0.00171  -0.01246  -0.00051
  34        2S          0.00624   0.01035   0.00359  -0.02505   0.00002
  35        3S          0.00318   0.00463   0.00429  -0.01750   0.00012
  36 6   H  1S          0.00413   0.00679  -0.00990  -0.00762  -0.00053
  37        2S          0.00619   0.01031  -0.02340  -0.00939  -0.00005
  38        3S          0.00315   0.00463  -0.01725  -0.00514   0.00006
                           6         7         8         9        10
   6        3S          0.45248
   7        3PX        -0.00194   0.20252
   8        3PY        -0.00151  -0.00476   0.19656
   9        3PZ        -0.00064  -0.00016  -0.00045   0.16655
  10        4S          0.27361  -0.02631  -0.04816   0.00084   0.18271
  11        4PX        -0.00686   0.10887  -0.01015  -0.00104  -0.01511
  12        4PY        -0.01246  -0.01036   0.09863  -0.00174  -0.02906
  13        4PZ         0.00122  -0.00122  -0.00200   0.15428   0.00234
  14 2   H  1S          0.08752   0.05653  -0.09802  -0.00205   0.06938
  15        2S          0.09821   0.07973  -0.13643  -0.00154   0.08217
  16        3S          0.00621   0.03359  -0.05088  -0.00001   0.01146
  17 3   H  1S          0.09005  -0.11390  -0.00167  -0.00239   0.06951
  18        2S          0.09977  -0.15692  -0.00101  -0.00196   0.08071
  19        3S          0.00617  -0.05945   0.00324  -0.00016   0.01024
  20 4   C  1S         -0.02642  -0.01694  -0.02945  -0.00076   0.00511
  21        2S         -0.03997  -0.02633  -0.04582  -0.00124   0.00386
  22        2PX        -0.04628  -0.01777  -0.04563   0.00079  -0.01752
  23        2PY        -0.08028  -0.04547  -0.07083   0.00168  -0.03003
  24        2PZ         0.00251  -0.00063  -0.00081   0.10336   0.00265
  25        3S          0.10169   0.07146   0.12471   0.00370   0.00082
  26        3PX        -0.06686  -0.02626  -0.06512   0.00100  -0.02601
  27        3PY        -0.11586  -0.06458  -0.10170   0.00225  -0.04446
  28        3PZ         0.00416  -0.00111  -0.00146   0.16541   0.00439
  29        4S          0.00179   0.03194   0.05678   0.00444  -0.03247
  30        4PX        -0.02258  -0.01973  -0.02984   0.00109  -0.00647
  31        4PY        -0.03848  -0.02987  -0.05418   0.00245  -0.01015
  32        4PZ         0.00354  -0.00168  -0.00249   0.15447   0.00408
  33 5   H  1S         -0.02042  -0.00063  -0.01781  -0.00074  -0.01447
  34        2S         -0.03091   0.00873  -0.03677   0.00012  -0.01861
  35        3S         -0.01187   0.00818  -0.02630   0.00021  -0.00316
  36 6   H  1S         -0.02018  -0.01493  -0.00923  -0.00077  -0.01487
  37        2S         -0.03087  -0.03585  -0.01059   0.00002  -0.01976
  38        3S         -0.01194  -0.02666  -0.00612   0.00012  -0.00389
                          11        12        13        14        15
  11        4PX         0.05956
  12        4PY        -0.00900   0.05105
  13        4PZ        -0.00152  -0.00245   0.14293
  14 2   H  1S          0.03354  -0.05398  -0.00105   0.08108
  15        2S          0.04815  -0.07497  -0.00036   0.10943   0.14973
  16        3S          0.02076  -0.02780   0.00026   0.03663   0.05233
  17 3   H  1S         -0.06280   0.00166  -0.00122  -0.01326  -0.02458
  18        2S         -0.08689   0.00392  -0.00056  -0.02450  -0.04219
  19        3S         -0.03320   0.00422   0.00018  -0.01780  -0.02685
  20 4   C  1S         -0.00316  -0.00583  -0.00068   0.00422   0.00678
  21        2S         -0.00654  -0.01187  -0.00109   0.00699   0.01133
  22        2PX        -0.01324  -0.01982   0.00112   0.00180  -0.00258
  23        2PY        -0.01982  -0.03684   0.00225   0.01132   0.02416
  24        2PZ        -0.00088  -0.00127   0.09575  -0.00062  -0.00022
  25        3S          0.02315   0.04166   0.00321  -0.02109  -0.03414
  26        3PX        -0.02036  -0.02813   0.00150   0.00111  -0.00685
  27        3PY        -0.02804  -0.05377   0.00310   0.01695   0.03630
  28        3PZ        -0.00145  -0.00210   0.15324  -0.00090  -0.00024
  29        4S          0.00827   0.01602   0.00404  -0.01819  -0.02517
  30        4PX        -0.01488  -0.01242   0.00136  -0.00159  -0.00822
  31        4PY        -0.01257  -0.02969   0.00289   0.01515   0.02710
  32        4PZ        -0.00172  -0.00262   0.14312  -0.00051   0.00026
  33 5   H  1S          0.00203  -0.01593  -0.00037   0.01117   0.02321
  34        2S          0.00927  -0.02768   0.00054   0.02377   0.04429
  35        3S          0.00756  -0.01588   0.00037   0.01664   0.02783
  36 6   H  1S         -0.01451  -0.00558  -0.00040  -0.00913  -0.01820
  37        2S         -0.02811  -0.00492   0.00047  -0.01891  -0.03434
  38        3S         -0.01720  -0.00108   0.00031  -0.01021  -0.01775
                          16        17        18        19        20
  16        3S          0.02091
  17 3   H  1S         -0.01797   0.08250
  18        2S         -0.02693   0.10972   0.14802
  19        3S         -0.01258   0.03590   0.05068   0.01997
  20 4   C  1S          0.00376   0.00430   0.00678   0.00374   0.65948
  21        2S          0.00556   0.00711   0.01129   0.00550   0.56158
  22        2PX        -0.00332   0.00899   0.02221   0.01670   0.00122
  23        2PY         0.01770   0.00740   0.00976   0.00574   0.00179
  24        2PZ         0.00002  -0.00060  -0.00014   0.00008   0.00009
  25        3S         -0.01447  -0.02134  -0.03384  -0.01414  -0.08930
  26        3PX        -0.00666   0.01429   0.03495   0.02606  -0.00045
  27        3PY         0.02667   0.00959   0.01201   0.00724  -0.00108
  28        3PZ         0.00006  -0.00088  -0.00013   0.00015   0.00019
  29        4S         -0.00628  -0.01775  -0.02387  -0.00551  -0.08020
  30        4PX        -0.00684   0.01409   0.02772   0.01712  -0.00021
  31        4PY         0.01596   0.00674   0.00697   0.00214  -0.00017
  32        4PZ         0.00029  -0.00050   0.00032   0.00033  -0.00005
  33 5   H  1S          0.01614  -0.00899  -0.01795  -0.00929  -0.02019
  34        2S          0.02731  -0.01858  -0.03366  -0.01673  -0.02217
  35        3S          0.01460  -0.01004  -0.01738  -0.00886   0.00062
  36 6   H  1S         -0.00946   0.01118   0.02314   0.01585  -0.01979
  37        2S         -0.01716   0.02374   0.04409   0.02692  -0.02204
  38        3S         -0.00909   0.01663   0.02766   0.01440   0.00050
                          21        22        23        24        25
  21        2S          0.49207
  22        2PX         0.00175   0.08256
  23        2PY         0.00255   0.00359   0.08765
  24        2PZ         0.00013   0.00017   0.00020   0.06419
  25        3S         -0.15432  -0.00564  -0.00835  -0.00015   0.45397
  26        3PX        -0.00067   0.12844   0.00186   0.00011  -0.00044
  27        3PY        -0.00163   0.00189   0.13146   0.00006   0.00075
  28        3PZ         0.00032   0.00025   0.00031   0.10272  -0.00062
  29        4S         -0.11591   0.01353   0.02264   0.00070   0.27899
  30        4PX        -0.00146   0.07344  -0.00517   0.00049   0.00611
  31        4PY        -0.00220  -0.00503   0.06728   0.00092   0.00975
  32        4PZ        -0.00017   0.00083   0.00154   0.09591   0.00091
  33 5   H  1S         -0.03215  -0.03329   0.06385  -0.00146   0.08599
  34        2S         -0.03542  -0.04961   0.08861  -0.00118   0.09476
  35        3S         -0.00056  -0.02265   0.03345  -0.00014   0.00552
  36 6   H  1S         -0.03155   0.07109   0.00253  -0.00123   0.08436
  37        2S         -0.03524   0.10134   0.00055  -0.00087   0.09426
  38        3S         -0.00073   0.04069  -0.00325  -0.00003   0.00585
                          26        27        28        29        30
  26        3PX         0.20013
  27        3PY        -0.00244   0.19771
  28        3PZ         0.00015   0.00008   0.16439
  29        4S          0.02513   0.04160   0.00086   0.18679
  30        4PX         0.11487  -0.01063   0.00076   0.01560   0.06702
  31        4PY        -0.01047   0.10171   0.00148   0.02450  -0.01034
  32        4PZ         0.00105   0.00197   0.15349   0.00217   0.00118
  33 5   H  1S         -0.05311   0.09997  -0.00241   0.06686  -0.03443
  34        2S         -0.07960   0.13825  -0.00196   0.07669  -0.05203
  35        3S         -0.03679   0.05154  -0.00022   0.00888  -0.02422
  36 6   H  1S          0.11234   0.00328  -0.00206   0.06709   0.06600
  37        2S          0.15992  -0.00076  -0.00149   0.07849   0.09443
  38        3S          0.06388  -0.00652  -0.00006   0.01012   0.03806
                          31        32        33        34        35
  31        4PY         0.05384
  32        4PZ         0.00238   0.14335
  33 5   H  1S          0.05590  -0.00125   0.08105
  34        2S          0.07745  -0.00056   0.11008   0.15199
  35        3S          0.02901   0.00014   0.03798   0.05504   0.02277
  36 6   H  1S         -0.00201  -0.00109  -0.01241  -0.02611  -0.02002
  37        2S         -0.00644  -0.00034  -0.02620  -0.04860  -0.03180
  38        3S         -0.00643   0.00021  -0.02024  -0.03192  -0.01574
                          36        37        38
  36 6   H  1S          0.07988
  37        2S          0.10970   0.15305
  38        3S          0.03840   0.05610   0.02336
    Full Mulliken population analysis:
                           1         2         3         4         5
   1 1   C  1S          0.65940
   2        2S          0.49324   0.49197
   3        2PX         0.00000   0.00000   0.08437
   4        2PY         0.00000   0.00000   0.00000   0.08758
   5        2PZ         0.00000   0.00000   0.00000   0.00000   0.06441
   6        3S         -0.02926  -0.06441   0.00000   0.00000   0.00000
   7        3PX         0.00000   0.00000   0.08217   0.00000   0.00000
   8        3PY         0.00000   0.00000   0.00000   0.08244   0.00000
   9        3PZ         0.00000   0.00000   0.00000   0.00000   0.06516
  10        4S         -0.01221  -0.02140   0.00000   0.00000   0.00000
  11        4PX         0.00000   0.00000   0.01542   0.00000   0.00000
  12        4PY         0.00000   0.00000   0.00000   0.01442   0.00000
  13        4PZ         0.00000   0.00000   0.00000   0.00000   0.02113
  14 2   H  1S         -0.00023  -0.00033   0.00184   0.00552   0.00000
  15        2S         -0.00167  -0.00319   0.00439   0.01307   0.00000
  16        3S          0.00004  -0.00007   0.00070   0.00189   0.00000
  17 3   H  1S         -0.00026  -0.00037   0.00793   0.00000   0.00001
  18        2S         -0.00175  -0.00335   0.01773   0.00000   0.00001
  19        3S          0.00005  -0.00007   0.00254  -0.00000   0.00000
  20 4   C  1S          0.00000   0.00000  -0.00002  -0.00006   0.00000
  21        2S          0.00000  -0.00000  -0.00002  -0.00005   0.00000
  22        2PX        -0.00002  -0.00002   0.00011   0.00085   0.00000
  23        2PY        -0.00006  -0.00005   0.00084   0.00195   0.00000
  24        2PZ        -0.00000  -0.00000  -0.00000  -0.00000   0.00041
  25        3S         -0.00058  -0.00098   0.00253   0.00762  -0.00000
  26        3PX        -0.00054  -0.00098   0.00019   0.00554   0.00000
  27        3PY        -0.00161  -0.00295   0.00550   0.01069   0.00000
  28        3PZ        -0.00000  -0.00000  -0.00000  -0.00000   0.00607
  29        4S          0.00034   0.00030   0.00096   0.00293  -0.00000
  30        4PX        -0.00018  -0.00045  -0.00071   0.00147   0.00000
  31        4PY        -0.00052  -0.00133   0.00147   0.00098   0.00000
  32        4PZ        -0.00000  -0.00000  -0.00000  -0.00000   0.00902
  33 5   H  1S          0.00000   0.00000  -0.00000  -0.00000   0.00000
  34        2S          0.00001   0.00002   0.00000  -0.00031  -0.00000
  35        3S          0.00007   0.00013   0.00001  -0.00070  -0.00000
  36 6   H  1S          0.00000   0.00000  -0.00000  -0.00000   0.00000
  37        2S          0.00001   0.00002  -0.00023  -0.00006   0.00000
  38        3S          0.00007   0.00013  -0.00056  -0.00012  -0.00000
                           6         7         8         9        10
   6        3S          0.45248
   7        3PX         0.00000   0.20252
   8        3PY         0.00000   0.00000   0.19656
   9        3PZ         0.00000   0.00000   0.00000   0.16655
  10        4S          0.21196   0.00000   0.00000   0.00000   0.18271
  11        4PX         0.00000   0.07114   0.00000   0.00000   0.00000
  12        4PY         0.00000   0.00000   0.06445   0.00000   0.00000
  13        4PZ         0.00000   0.00000   0.00000   0.10081   0.00000
  14 2   H  1S          0.01599   0.01102   0.03192   0.00002   0.01831
  15        2S          0.04121   0.01997   0.05709   0.00002   0.04729
  16        3S          0.00286   0.00401   0.01016   0.00000   0.00864
  17 3   H  1S          0.01710   0.04436   0.00000   0.00003   0.01862
  18        2S          0.04278   0.07718   0.00000   0.00003   0.04697
  19        3S          0.00287   0.01379  -0.00000   0.00000   0.00777
  20 4   C  1S         -0.00059  -0.00057  -0.00172   0.00000   0.00032
  21        2S         -0.00099  -0.00105  -0.00316   0.00000   0.00029
  22        2PX         0.00240   0.00019   0.00550   0.00000   0.00079
  23        2PY         0.00722   0.00548   0.01060   0.00000   0.00236
  24        2PZ         0.00000  -0.00000  -0.00000   0.00610   0.00000
  25        3S          0.02160   0.01336   0.04038  -0.00000   0.00031
  26        3PX         0.01250  -0.00126   0.01856   0.00000   0.00401
  27        3PY         0.03751   0.01841   0.02859   0.00000   0.01186
  28        3PZ         0.00000  -0.00000  -0.00000   0.03513   0.00000
  29        4S          0.00068   0.00492   0.01515  -0.00000  -0.02036
  30        4PX         0.00634  -0.00404   0.00591   0.00000   0.00196
  31        4PY         0.01871   0.00592   0.00131   0.00000   0.00533
  32        4PZ         0.00000  -0.00000  -0.00000   0.04927   0.00000
  33 5   H  1S         -0.00005  -0.00000  -0.00019   0.00000  -0.00077
  34        2S         -0.00118   0.00007  -0.00319  -0.00000  -0.00310
  35        3S         -0.00192   0.00011  -0.00422  -0.00000  -0.00114
  36 6   H  1S         -0.00005  -0.00012  -0.00005   0.00000  -0.00078
  37        2S         -0.00115  -0.00252  -0.00051  -0.00000  -0.00326
  38        3S         -0.00192  -0.00351  -0.00056  -0.00000  -0.00139
                          11        12        13        14        15
  11        4PX         0.05956
  12        4PY         0.00000   0.05105
  13        4PZ         0.00000   0.00000   0.14293
  14 2   H  1S          0.00644   0.01733   0.00001   0.08108
  15        2S          0.01558   0.04054   0.00001   0.07730   0.14973
  16        3S          0.00527   0.01179  -0.00000   0.01369   0.04129
  17 3   H  1S          0.02353  -0.00000   0.00001  -0.00001  -0.00063
  18        2S          0.05465  -0.00000   0.00001  -0.00063  -0.00519
  19        3S          0.01630  -0.00000  -0.00000  -0.00196  -0.00776
  20 4   C  1S         -0.00018  -0.00059   0.00000   0.00000   0.00002
  21        2S         -0.00046  -0.00146   0.00000   0.00000   0.00003
  22        2PX        -0.00071   0.00137   0.00000  -0.00000   0.00000
  23        2PY         0.00137   0.00096   0.00000  -0.00000  -0.00036
  24        2PZ        -0.00000  -0.00000   0.00899   0.00000   0.00000
  25        3S          0.00650   0.02026  -0.00000  -0.00007  -0.00152
  26        3PX        -0.00416   0.00557   0.00000  -0.00000   0.00003
  27        3PY         0.00556   0.00130   0.00000  -0.00023  -0.00360
  28        3PZ        -0.00000  -0.00000   0.04888   0.00000   0.00000
  29        4S          0.00251   0.00841  -0.00000  -0.00107  -0.00455
  30        4PX        -0.00716   0.00315   0.00000   0.00001   0.00016
  31        4PY         0.00319  -0.00559   0.00000  -0.00242  -0.01026
  32        4PZ        -0.00000  -0.00000   0.08976   0.00000  -0.00000
  33 5   H  1S          0.00003  -0.00235   0.00000   0.00000   0.00000
  34        2S          0.00028  -0.00989  -0.00000   0.00000   0.00016
  35        3S          0.00030  -0.00731  -0.00000   0.00023   0.00147
  36 6   H  1S         -0.00174  -0.00046   0.00000  -0.00000  -0.00004
  37        2S         -0.00823  -0.00099  -0.00000  -0.00004  -0.00093
  38        3S         -0.00652  -0.00028  -0.00000  -0.00047  -0.00248
                          16        17        18        19        20
  16        3S          0.02091
  17 3   H  1S         -0.00198   0.08250
  18        2S         -0.00778   0.07751   0.14802
  19        3S         -0.00650   0.01342   0.03999   0.01997
  20 4   C  1S          0.00009   0.00000   0.00002   0.00009   0.65948
  21        2S          0.00016   0.00000   0.00003   0.00016   0.49331
  22        2PX         0.00001  -0.00000  -0.00028  -0.00059   0.00000
  23        2PY        -0.00075  -0.00000  -0.00008  -0.00013   0.00000
  24        2PZ        -0.00000   0.00000   0.00000  -0.00000   0.00000
  25        3S         -0.00251  -0.00007  -0.00151  -0.00245  -0.02940
  26        3PX         0.00006  -0.00016  -0.00290  -0.00365   0.00000
  27        3PY        -0.00448  -0.00007  -0.00066  -0.00067   0.00000
  28        3PZ        -0.00000   0.00000   0.00000  -0.00000   0.00000
  29        4S         -0.00236  -0.00105  -0.00432  -0.00208  -0.01233
  30        4PX         0.00016  -0.00188  -0.00877  -0.00676   0.00000
  31        4PY        -0.00754  -0.00060  -0.00146  -0.00056   0.00000
  32        4PZ        -0.00000   0.00000  -0.00000  -0.00000   0.00000
  33 5   H  1S          0.00023  -0.00000  -0.00004  -0.00042  -0.00022
  34        2S          0.00144  -0.00004  -0.00089  -0.00232  -0.00160
  35        3S          0.00246  -0.00045  -0.00241  -0.00282   0.00005
  36 6   H  1S         -0.00043   0.00000   0.00000   0.00022  -0.00020
  37        2S         -0.00240   0.00000   0.00015   0.00141  -0.00154
  38        3S         -0.00291   0.00023   0.00145   0.00242   0.00004
                          21        22        23        24        25
  21        2S          0.49207
  22        2PX         0.00000   0.08256
  23        2PY         0.00000   0.00000   0.08765
  24        2PZ         0.00000   0.00000   0.00000   0.06419
  25        3S         -0.06463   0.00000   0.00000   0.00000   0.45397
  26        3PX         0.00000   0.08080   0.00000   0.00000   0.00000
  27        3PY         0.00000   0.00000   0.08270   0.00000   0.00000
  28        3PZ         0.00000   0.00000   0.00000   0.06462   0.00000
  29        4S         -0.02169   0.00000   0.00000   0.00000   0.21613
  30        4PX         0.00000   0.01617   0.00000   0.00000   0.00000
  31        4PY         0.00000   0.00000   0.01482   0.00000   0.00000
  32        4PZ         0.00000   0.00000   0.00000   0.02112   0.00000
  33 5   H  1S         -0.00031   0.00148   0.00578   0.00000   0.01555
  34        2S         -0.00305   0.00378   0.01375   0.00001   0.03954
  35        3S         -0.00005   0.00067   0.00200   0.00000   0.00253
  36 6   H  1S         -0.00028   0.00678   0.00002   0.00000   0.01477
  37        2S         -0.00295   0.01724   0.00001   0.00000   0.03862
  38        3S         -0.00007   0.00272  -0.00001   0.00000   0.00266
                          26        27        28        29        30
  26        3PX         0.20013
  27        3PY         0.00000   0.19771
  28        3PZ         0.00000   0.00000   0.16439
  29        4S          0.00000   0.00000   0.00000   0.18679
  30        4PX         0.07506   0.00000   0.00000   0.00000   0.06702
  31        4PY         0.00000   0.06647   0.00000   0.00000   0.00000
  32        4PZ         0.00000   0.00000   0.10030   0.00000   0.00000
  33 5   H  1S          0.00882   0.03383   0.00003   0.01758   0.00567
  34        2S          0.01707   0.06038   0.00003   0.04401   0.01445
  35        3S          0.00378   0.01078   0.00000   0.00669   0.00528
  36 6   H  1S          0.04134   0.00008   0.00002   0.01743   0.02460
  37        2S          0.07707  -0.00002   0.00002   0.04462   0.05948
  38        3S          0.01489  -0.00010   0.00000   0.00757   0.01889
                          31        32        33        34        35
  31        4PY         0.05384
  32        4PZ         0.00000   0.14335
  33 5   H  1S          0.01876   0.00002   0.08105
  34        2S          0.04382   0.00001   0.07776   0.15199
  35        3S          0.01289  -0.00000   0.01419   0.04342   0.02277
  36 6   H  1S         -0.00005   0.00001  -0.00001  -0.00081  -0.00237
  37        2S         -0.00025   0.00001  -0.00081  -0.00674  -0.00973
  38        3S         -0.00020  -0.00000  -0.00239  -0.00977  -0.00844
                          36        37        38
  36 6   H  1S          0.07988
  37        2S          0.07749   0.15305
  38        3S          0.01435   0.04426   0.02336
     Gross orbital populations:
                           1
   1 1   C  1S          1.10435
   2        2S          0.88586
   3        2PX         0.22716
   4        2PY         0.23565
   5        2PZ         0.16622
   6        3S          0.79269
   7        3PX         0.56154
   8        3PY         0.55503
   9        3PZ         0.42313
  10        4S          0.50512
  11        4PX         0.25844
  12        4PY         0.21166
  13        4PZ         0.41253
  14 2   H  1S          0.27326
  15        2S          0.46717
  16        3S          0.08614
  17 3   H  1S          0.27766
  18        2S          0.46448
  19        3S          0.08224
  20 4   C  1S          1.10441
  21        2S          0.88584
  22        2PX         0.22180
  23        2PY         0.23607
  24        2PZ         0.16545
  25        3S          0.79260
  26        3PX         0.55178
  27        3PY         0.55698
  28        3PZ         0.41951
  29        4S          0.50719
  30        4PX         0.27585
  31        4PY         0.21672
  32        4PZ         0.41286
  33 5   H  1S          0.27323
  34        2S          0.46911
  35        3S          0.08826
  36 6   H  1S          0.26958
  37        2S          0.47107
  38        3S          0.09133
          Condensed to atoms (all electrons):
               1          2          3          4          5          6
     1  C    5.032214   0.387471   0.388447   0.601356  -0.035299  -0.034804
     2  H    0.387471   0.516255  -0.032439  -0.040982   0.005985  -0.009716
     3  H    0.388447  -0.032439   0.512309  -0.040411  -0.009398   0.005877
     4  C    0.601356  -0.040982  -0.040411   5.060076   0.383817   0.383212
     5  H   -0.035299   0.005985  -0.009398   0.383817   0.526557  -0.041057
     6  H   -0.034804  -0.009716   0.005877   0.383212  -0.041057   0.528469
 Mulliken charges:
               1
     1  C   -0.339386
     2  H    0.173427
     3  H    0.175615
     4  C   -0.347068
     5  H    0.169393
     6  H    0.168019
 Sum of Mulliken charges =  -0.00000
 Mulliken charges with hydrogens summed into heavy atoms:
               1
     1  C    0.009656
     4  C   -0.009656
 Electronic spatial extent (au):  <R**2>=             83.7778
 Charge=             -0.0000 electrons
 Dipole moment (field-independent basis, Debye):
    X=              0.0036    Y=              0.0259    Z=             -0.1144  Tot=              0.1173
 Quadrupole moment (field-independent basis, Debye-Ang):
   XX=            -12.2018   YY=            -12.2255   ZZ=            -15.6758
   XY=              0.0079   XZ=              0.0013   YZ=             -0.0063
 Traceless Quadrupole moment (field-independent basis, Debye-Ang):
   XX=              1.1659   YY=              1.1422   ZZ=             -2.3081
   XY=              0.0079   XZ=              0.0013   YZ=             -0.0063
 Octapole moment (field-independent basis, Debye-Ang**2):
  XXX=             -0.3927  YYY=              0.0104  ZZZ=             -0.0536  XYY=              0.2245
  XXY=             -0.0428  XXZ=             -0.1488  XZZ=             -0.0991  YZZ=             -0.0777
  YYZ=             -0.1979  XYZ=             -0.0422
 Hexadecapole moment (field-independent basis, Debye-Ang**3):
 XXXX=            -34.3219 YYYY=            -55.2682 ZZZZ=            -17.8298 XXXY=             -7.2650
 XXXZ=              0.0205 YYYX=            -10.7280 YYYZ=              0.0224 ZZZX=              0.0228
 ZZZY=              0.0510 XXYY=            -16.2091 XXZZ=             -9.9375 YYZZ=            -13.6532
 XXYZ=              0.0124 YYXZ=             -0.0003 ZZXY=             -3.2093
 N-N= 3.304906782266D+01 E-N=-2.478043858673D+02  KE= 7.814769590560D+01
 Orbital energies and kinetic energies (alpha):
                                 1                 2
   1         O               -10.290439         15.978355
   2         O               -10.288386         15.980222
   3         O                -0.863540          1.536651
   4         O                -0.672263          1.271576
   5         O                -0.559548          0.942084
   6         O                -0.508816          1.283420
   7         O                -0.436657          1.043398
   8         O                -0.356605          1.038141
   9         V                 0.079389          1.182482
  10         V                 0.140776          0.590020
  11         V                 0.164764          0.593975
  12         V                 0.170119          0.680423
  13         V                 0.240684          0.583497
  14         V                 0.371881          0.850307
  15         V                 0.393578          0.933105
  16         V                 0.399781          0.787455
  17         V                 0.464267          1.194118
  18         V                 0.488370          1.419056
  19         V                 0.493945          1.302634
  20         V                 0.590864          1.651791
  21         V                 0.665643          1.572718
  22         V                 0.690977          2.146685
  23         V                 0.772581          2.398466
  24         V                 0.775228          2.344971
  25         V                 0.841590          1.085612
  26         V                 0.950742          3.415844
  27         V                 2.231385          3.926904
  28         V                 2.290923          4.026187
  29         V                 2.332337          4.305267
  30         V                 2.406231          4.515801
  31         V                 2.670872          6.300329
  32         V                 2.817484          6.305106
  33         V                 2.878379          6.140609
  34         V                 2.951753          6.225711
  35         V                 3.139576          6.820430
  36         V                 3.318840          6.403036
  37         V                23.352447         60.074977
  38         V                23.704603         60.202838
 Total kinetic energy from orbitals= 7.814769590560D+01
 Calling FoFJK, ICntrl=      2127 FMM=F ISym2X=0 I1Cent= 0 IOpClX= 0 NMat=1 NMatS=1 NMatT=0.
 -------------------------------------------------------------------
 Center     Atomic                   Forces (Hartrees/Bohr)
 Number     Number              X              Y              Z
 -------------------------------------------------------------------
      1        6           0.016325157    0.010356764   -0.004516065
      2        1          -0.010922459    0.006058522    0.002305732
      3        1           0.001896123   -0.005365621    0.002067152
      4        6           0.010349219    0.007688230   -0.005060952
      5        1           0.000586007   -0.012602236    0.002531449
      6        1          -0.018234047   -0.006135659    0.002672683
 -------------------------------------------------------------------
 Cartesian Forces:  Max     0.018234047 RMS     0.008585566

 GradGradGradGradGradGradGradGradGradGradGradGradGradGradGradGradGradGrad
 Berny optimization.
 Search for a local minimum.
 Step number   1 out of a maximum of    2
 All quantities printed in internal units (Hartrees-Bohrs-Radians)
 Second derivative matrix not updated -- first step.
 The second derivative matrix:
                          X1        Y1        Z1        X2        Y2
           X1           0.76080
           Y1           0.09496   0.85228
           Z1           0.00704   0.00996   0.16948
           X2          -0.16615   0.09708   0.00231   0.14366
           Y2           0.10274  -0.27959  -0.00837  -0.11621   0.26821
           Z2           0.00372  -0.01056  -0.05418  -0.00338   0.00862
           X3          -0.35396  -0.00038  -0.00961  -0.00012  -0.00006
           Y3          -0.00597  -0.11066  -0.00228   0.03219   0.01920
           Z3          -0.01223  -0.00220  -0.05600   0.00174   0.00068
           X4          -0.26592  -0.17709  -0.00093   0.02262   0.01352
           Y4          -0.17736  -0.47033  -0.00141  -0.01307  -0.00781
           Z4           0.00145   0.00275  -0.09357  -0.00068  -0.00093
           X5           0.02359  -0.01362   0.00075  -0.00001   0.00000
           Y5           0.01156  -0.00667   0.00102   0.00001  -0.00000
           Z5          -0.00058   0.00036   0.01764   0.00028  -0.00015
           X6           0.00165  -0.00095   0.00044  -0.00001   0.00000
           Y6          -0.02593   0.01498   0.00108   0.00000  -0.00000
           Z6           0.00059  -0.00032   0.01662  -0.00028   0.00015
                          Z2        X3        Y3        Z3        X4
           Z2           0.02822
           X3          -0.00034   0.35403
           Y3           0.00192   0.00047   0.07605
           Z3           0.01054   0.01047   0.00150   0.02939
           X4           0.00059   0.00007  -0.02670  -0.00058   0.70854
           Y4          -0.00032  -0.00004   0.01542   0.00036   0.12013
           Z4           0.01529  -0.00052  -0.00114   0.01619  -0.00564
           X5          -0.00030  -0.00001   0.00001   0.00031  -0.14566
           Y5           0.00019   0.00001  -0.00000  -0.00019   0.09236
           Z5           0.00918   0.00030  -0.00019  -0.00939  -0.00379
           X6          -0.00028  -0.00001   0.00001   0.00029  -0.31966
           Y6           0.00015   0.00000  -0.00000  -0.00015  -0.02223
           Z6          -0.00905  -0.00030   0.00019   0.00926   0.01035
                          Y4        Z4        X5        Y5        Z5
           Y4           0.85915
           Z4          -0.01191   0.17588
           X5           0.08391  -0.00253   0.12419
           Y5          -0.29246   0.00899  -0.10292   0.28318
           Z5           0.01108  -0.05759   0.00338  -0.00960   0.02995
           X6          -0.01358   0.00792  -0.00210  -0.00101   0.00040
           Y6          -0.10397   0.00224   0.03262   0.01596  -0.00150
           Z6           0.00220  -0.05620  -0.00160  -0.00041   0.01022
                          X6        Y6        Z6
           X6           0.32013
           Y6           0.01553   0.07304
           Z6          -0.00876  -0.00181   0.02915
 ITU=  0
     Eigenvalues ---    0.03694   0.04375   0.09140   0.10078   0.13483
     Eigenvalues ---    0.17460   0.26216   0.29022   0.52802   0.70050
     Eigenvalues ---    0.97486   1.55514
 Angle between quadratic step and forces=  35.48 degrees.
 Linear search not attempted -- first point.
 B after Tr=     0.008044    0.007880   -0.011781
         Rot=    1.000000   -0.000045    0.000025   -0.000118 Ang=  -0.01 deg.
 Variable       Old X    -DE/DX   Delta X   Delta X   Delta X     New X
                                 (Linear)    (Quad)   (Total)
    X1       -0.63760   0.01633   0.00000   0.02445   0.03275  -0.60486
    Y1       -1.10133   0.01036   0.00000   0.02514   0.03287  -1.06846
    Z1        0.01376  -0.00452   0.00000  -0.02495  -0.03686  -0.02310
    X2        0.42830  -0.01092   0.00000  -0.04511  -0.03639   0.39191
    Y2       -2.88245   0.00606   0.00000   0.01908   0.02706  -2.85540
    Z2       -0.04747   0.00231   0.00000   0.03075   0.01873  -0.02874
    X3       -2.68626   0.00190   0.00000   0.02827   0.03658  -2.64967
    Y3       -1.10514  -0.00537   0.00000  -0.01884  -0.01158  -1.11672
    Z3       -0.05227   0.00207   0.00000   0.02994   0.01792  -0.03435
    X4        0.62844   0.01035   0.00000   0.00883   0.01661   0.64506
    Y4        1.09104   0.00769   0.00000   0.00751   0.01554   1.10658
    Z4        0.01019  -0.00506   0.00000  -0.02381  -0.03546  -0.02527
    X5       -0.28925   0.00059   0.00000  -0.01970  -0.01234  -0.30158
    Y5        2.96020  -0.01260   0.00000  -0.04338  -0.03557   2.92463
    Z5       -0.05901   0.00253   0.00000   0.02985   0.01831  -0.04070
    X6        2.72928  -0.01823   0.00000  -0.04498  -0.03721   2.69207
    Y6        1.22292  -0.00614   0.00000  -0.03683  -0.02832   1.19460
    Z6       -0.05364   0.00267   0.00000   0.02889   0.01735  -0.03629
         Item               Value     Threshold  Converged?
 Maximum Force            0.018234     0.000450     NO 
 RMS     Force            0.008586     0.000300     NO 
 Maximum Displacement     0.037214     0.001800     NO 
 RMS     Displacement     0.027616     0.001200     NO 
 Predicted change in Energy=-1.835762D-03
 GradGradGradGradGradGradGradGradGradGradGradGradGradGradGradGradGradGrad

 Unable to Open any file for archive entry.
 1\1\GINC-BHD0016\Force\RwB97XD\6-311G\C2H4\BWEIGHT\11-Jan-2023\0\\# WB
 97XD/6-311G SCF=XQC FORCE nosym pop=full guess=read\\MD Step 1000\\0,1
 \C,-0.33740546,-0.58280122,0.00728019\H,0.22664649,-1.52532836,-0.0251
 1876\H,-1.42150539,-0.584814,-0.02765859\C,0.3325582,0.57735531,0.0053
 9026\H,-0.15306336,1.5664678,-0.03122911\H,1.44427366,0.6471393,-0.028
 3861\\Version=ES64L-G16RevC.01\HF=-78.5553765\RMSD=3.880e-09\RMSF=8.58
 6e-03\Dipole=0.0014314,0.0102042,-0.045002\Quadrupole=0.8668147,0.8492
 054,-1.71602,0.0058749,0.0009978,-0.0046646\PG=C01 [X(C2H4)]\\@
 The archive entry for this job was punched.


 TOWERING GENIUS DISDAINS A BEATEN PATH.  IT SEEKS 
 REGIONS HITHERTO UNEXPLORED.

                                -- ABRAHAM LINCOLN
 Job cpu time:       0 days  0 hours  0 minutes 23.5 seconds.
 Elapsed time:       0 days  0 hours  0 minutes  7.8 seconds.
 File lengths (MBytes):  RWF=    272 Int=      0 D2E=      0 Chk=     32 Scr=     32
 Normal termination of Gaussian 16 at Wed Jan 11 18:47:50 2023.
