56
MD Step 0
C  5.00758906 -0.65379476 0.53551475
C  4.13049906 0.38860524 0.35547475
C  2.84571906 0.20286524 -0.21844525
C  2.50898906 -1.13132476 -0.56544525
C  3.37641906 -2.19835476 -0.39494525
C  4.65777906 -1.98787476 0.15730475
C  1.88090906 1.23798524 -0.41817525
C  0.33630906 -0.47165476 -1.25194525
C  0.63139906 0.90006524 -0.94565525
C  -0.42269094 1.83393524 -1.21544525
H  -0.24133094 2.88652524 -1.03392525
C  -1.64045094 1.43303524 -1.66930525
C  -1.93414094 0.04013524 -1.90676525
C  -0.87921094 -0.89466476 -1.71978525
H  5.97095906 -0.45228476 0.98590475
H  4.42173906 1.38437524 0.66948475
H  3.02535906 -3.18085476 -0.67969525
H  -2.41438094 2.17235524 -1.82023525
H  -1.02908094 -1.95407476 -1.86757525
N  -3.14942094 -0.34827476 -2.31952525
N  5.53186906 -3.02461476 0.33588475
P  -3.91690094 -0.67050476 1.35645475
C  2.19872906 2.64221524 -0.04131525
C  1.47229906 3.28191524 0.97675475
C  3.22673906 3.34471524 -0.69110525
C  1.77337906 4.59529524 1.33734475
H  0.68153906 2.74325524 1.49099475
C  3.51545906 4.66195524 -0.33550525
H  3.78618906 2.86175524 -1.48759525
C  2.79209906 5.28868524 0.68124475
H  1.20854906 5.07510524 2.13145475
H  4.30468906 5.19852524 -0.85479525
H  3.02090906 6.31341524 0.96022475
F  -2.70965094 -1.49495476 0.57668475
F  -2.90373094 -0.36288476 2.58644475
F  -3.40704094 0.71609524 0.60136475
F  -5.10762094 0.16383524 2.07179475
F  -4.40893094 -2.05028476 2.04869475
F  -4.89507094 -0.96469476 0.05771475
C  -4.25812094 0.61222524 -2.38645525
H  -5.16151094 0.07830524 -2.67440525
H  -4.41905094 1.05822524 -1.40351525
H  -4.05491094 1.38319524 -3.13861525
C  -3.45660094 -1.77667476 -2.44635525
H  -4.49267094 -1.88555476 -2.76122525
H  -2.81172094 -2.24018476 -3.20204525
H  -3.33128094 -2.26530476 -1.47762525
C  5.12942906 -4.38319476 -0.00692525
H  5.95831906 -5.06313476 0.19110475
H  4.26573906 -4.71219476 0.58605475
H  4.86959906 -4.46440476 -1.06982525
C  6.83155906 -2.79936476 0.95728475
H  6.73456906 -2.43050476 1.98700475
H  7.37929906 -3.74162476 0.98545475
H  7.42952906 -2.07907476 0.38553475
O  1.28851906 -1.43420476 -1.07825525
56
MD Step 1
C  5.00754302 -0.65441581 0.53455422
C  4.13043355 0.38816612 0.35452860
C  2.84554242 0.20246004 -0.21913703
C  2.50867484 -1.13179794 -0.56590288
C  3.37594366 -2.19898012 -0.39547118
C  4.65744053 -1.98843534 0.15654615
C  1.88087905 1.23765272 -0.41879346
C  0.33585784 -0.47189937 -1.25210620
C  0.63107462 0.89974311 -0.94606753
C  -0.42278330 1.83372641 -1.21571972
H  -0.23019847 2.89836764 -1.02321768
C  -1.64088814 1.43281109 -1.66938666
C  -1.93452583 0.03999601 -1.90655158
C  -0.87984321 -0.89501384 -1.71970999
H  5.98297867 -0.44168402 0.99621126
H  4.43315077 1.39591082 0.67966351
H  3.03531251 -3.17148605 -0.66934217
H  -2.40448962 2.18403769 -1.80943624
H  -1.01893986 -1.94454287 -1.85650702
N  -3.15047771 -0.34877451 -2.31945846
N  5.53117696 -3.02566670 0.33476493
P  -3.91857937 -0.67179838 1.35541479
C  2.19880313 2.64172794 -0.04222882
C  1.47257616 3.28169943 0.97597484
C  3.22684224 3.34411965 -0.69232677
C  1.77387276 4.59516122 1.33636115
H  0.69208688 2.75360192 1.50193179
C  3.51577077 4.66144654 -0.33692146
H  3.79762575 2.87147799 -1.47871447
C  2.79261080 5.28842105 0.67994864
H  1.21963830 5.08661747 2.14234497
H  4.31678974 5.20942904 -0.84599347
H  3.03280514 6.32523768 0.97002907
F  -2.71063502 -1.49578872 0.57619401
F  -2.90425871 -0.36331766 2.58607648
F  -3.40788219 0.71559252 0.60073225
F  -5.10844715 0.16362212 2.07170309
F  -4.40990008 -2.05083058 2.04874732
F  -4.89635036 -0.96531038 0.05749545
C  -4.25870368 0.61222306 -2.38593659
H  -5.15217473 0.08879304 -2.66297687
H  -4.40852116 1.06979483 -1.39094034
H  -4.04433174 1.39491433 -3.12805585
C  -3.45740764 -1.77684702 -2.44568898
H  -4.48363543 -1.87484157 -2.74969822
H  -2.80101288 -2.23004197 -3.19125149
H  -3.32081307 -2.25481330 -1.46488256
C  5.12882736 -4.38392481 -0.00748371
H  5.96952730 -5.05369814 0.20164920
H  4.27523263 -4.70216632 0.59727333
H  4.87943999 -4.45434208 -1.06049870
C  6.83133935 -2.80009450 0.95625016
H  6.74548301 -2.41967463 1.99802825
H  7.39059011 -3.73239615 0.99545747
H  7.44091328 -2.06811909 0.39471728
O  1.28737986 -1.43541939 -1.07911965
56
MD Step 2
C  5.00804573 -0.65496770 0.53383964
C  4.13050177 0.38828071 0.35374725
C  2.84537364 0.20220811 -0.21981256
C  2.50846558 -1.13227471 -0.56633699
C  3.37558714 -2.19937739 -0.39591726
C  4.65713373 -1.98887237 0.15580273
C  1.88100750 1.23744704 -0.41934487
C  0.33536968 -0.47191271 -1.25226922
C  0.63060233 0.89945297 -0.94653485
C  -0.42254200 1.83397176 -1.21583487
H  -0.21996867 2.90785236 -1.01317053
C  -1.64149314 1.43262803 -1.66950846
C  -1.93474302 0.03998397 -1.90631051
C  -0.88052213 -0.89514056 -1.71962951
H  5.99227895 -0.43200879 1.00514097
H  4.44334521 1.40476868 0.68877625
H  3.04250960 -3.16900640 -0.66112570
H  -2.39693306 2.19695113 -1.79930049
H  -1.01019205 -1.94161786 -1.84657343
N  -3.15171643 -0.34926777 -2.31948905
N  5.53067416 -3.02672077 0.33369586
P  -3.92026820 -0.67308562 1.35442522
C  2.19882589 2.64103271 -0.04321723
C  1.47284391 3.28157754 0.97526608
C  3.22703239 3.34360103 -0.69357738
C  1.77423422 4.59527460 1.33565358
H  0.69930375 2.76116368 1.51471967
C  3.51637458 4.66121063 -0.33846876
H  3.81089536 2.87877437 -1.47304062
C  2.79326218 5.28870586 0.67880193
H  1.23042200 5.09753232 2.15312594
H  4.32861533 5.21962168 -0.83739017
H  3.04405148 6.33459077 0.97908771
F  -2.71134523 -1.49682465 0.57552443
F  -2.90456312 -0.36368681 2.58596926
F  -3.40861522 0.71540176 0.59993400
F  -5.10955275 0.16359810 2.07176777
F  -4.41099077 -2.05170598 2.04895480
F  -4.89786756 -0.96600223 0.05697784
C  -4.25896387 0.61276137 -2.38501508
H  -5.14933524 0.09596562 -2.65375861
H  -4.39801407 1.08027151 -1.37978926
H  -4.03395233 1.40724421 -3.11887185
C  -3.45788850 -1.77703675 -2.44465140
H  -4.48077681 -1.86577020 -2.74033454
H  -2.78882607 -2.22202692 -3.18315014
H  -3.31070031 -2.24489133 -1.45213567
C  5.12855112 -4.38471994 -0.00771907
H  5.98093300 -5.04551826 0.21188009
H  4.28155250 -4.69394409 0.60976259
H  4.88737382 -4.44563128 -1.05694361
C  6.83133335 -2.80046410 0.95551311
H  6.75582544 -2.40954167 2.00773689
H  7.40302214 -3.72610152 1.00517754
H  7.45188247 -2.05736989 0.40330380
O  1.28617698 -1.43701215 -1.08007322
56
MD Step 3
C  5.00934623 -0.65533226 0.53351075
C  4.13083227 0.38919170 0.35324759
C  2.84522704 0.20213197 -0.22046472
C  2.50833531 -1.13277051 -0.56676151
C  3.37544657 -2.19935420 -0.39620978
C  4.65691185 -1.98915321 0.15509794
C  1.88127714 1.23735494 -0.41983331
C  0.33484771 -0.47168575 -1.25243885
C  0.63001560 0.89920017 -0.94705024
C  -0.42188758 1.83490060 -1.21572011
H  -0.21185340 2.91144375 -1.00477393
C  -1.64222448 1.43262748 -1.66963048
C  -1.93487064 0.04009735 -1.90607678
C  -0.88117509 -0.89488407 -1.71949803
H  5.99532220 -0.42454377 1.01083407
H  4.45074963 1.40742134 0.69537240
H  3.04575851 -3.17582377 -0.65592408
H  -2.39182941 2.20991574 -1.79011779
H  -1.00364512 -1.94729658 -1.83828802
N  -3.15309081 -0.34967772 -2.31960239
N  5.53046426 -3.02768652 0.33273048
P  -3.92195550 -0.67434925 1.35350464
C  2.19879578 2.64014337 -0.04428449
C  1.47313750 3.28163507 0.97466136
C  3.22734536 3.34323872 -0.69483074
C  1.77444457 4.59579423 1.33535533
H  0.70260929 2.76505714 1.52920272
C  3.51740302 4.66141453 -0.34015981
H  3.82574900 2.88286736 -1.47100309
C  2.79412662 5.28979230 0.67788776
H  1.24160280 5.10613718 2.16188666
H  4.33817284 5.22722333 -0.82830270
H  3.05357891 6.33782182 0.98620470
F  -2.71178333 -1.49805980 0.57467914
F  -2.90465718 -0.36399712 2.58610495
F  -3.40924153 0.71551262 0.59897757
F  -5.11092810 0.16375590 2.07198188
F  -4.41219987 -2.05290676 2.04931288
F  -4.89961917 -0.96677083 0.05616473
C  -4.25862659 0.61420517 -2.38340839
H  -5.15541779 0.09869154 -2.64771925
H  -4.38758618 1.08784741 -1.37294790
H  -4.02457030 1.41865322 -3.11068781
C  -3.45778258 -1.77720946 -2.44296581
H  -4.48600652 -1.85941836 -2.73404428
H  -2.77588866 -2.21675645 -3.17811504
H  -3.30174239 -2.23526564 -1.44158507
C  5.12882813 -4.38557682 -0.00738044
H  5.99076611 -5.03824125 0.22093814
H  4.28430930 -4.68821511 0.62282489
H  4.89253539 -4.43924169 -1.06085418
C  6.83170432 -2.80020628 0.95528874
H  6.76491256 -2.40154656 2.01315635
H  7.41577950 -3.72281006 1.01408486
H  7.46060869 -2.04867699 0.41163717
O  1.28493515 -1.43895510 -1.08109778
56
MD Step 4
C  5.01149273 -0.65541738 0.53361965
C  4.13150313 0.39094288 0.35308986
C  2.84512889 0.20225019 -0.22107947
C  2.50825112 -1.13329516 -0.56719057
C  3.37551169 -2.19903325 -0.39636068
C  4.65683334 -1.98924673 0.15446055
C  1.88166370 1.23735675 -0.42026410
C  0.33430397 -0.47122781 -1.25261790
C  0.62935831 0.89900008 -0.94759960
C  -0.42080199 1.83656746 -1.21534491
H  -0.20666727 2.90764896 -0.99866890
C  -1.64305392 1.43298235 -1.66971161
C  -1.93498806 0.04033651 -1.90588353
C  -0.88176778 -0.89436763 -1.71930735
H  5.99074105 -0.42012535 1.01242641
H  4.45444297 1.40250563 0.69867345
H  3.04515879 -3.19052316 -0.65358838
H  -2.38885984 2.22133778 -1.78213541
H  -0.99960875 -1.96012337 -1.83174713
N  -3.15455111 -0.34993608 -2.31978563
N  5.53063302 -3.02848687 0.33191702
P  -3.92362523 -0.67556988 1.35267233
C  2.19871784 2.63909354 -0.04542463
C  1.47338593 3.28188020 0.97426690
C  3.22788325 3.34305325 -0.69614633
C  1.77452955 4.59683074 1.33553493
H  0.70276842 2.76536578 1.54424337
C  3.51891222 4.66216713 -0.34195530
H  3.84100327 2.88374483 -1.47184896
C  2.79523431 5.29174846 0.67724362
H  1.25333602 5.11118721 2.16739438
H  4.34424249 5.23094731 -0.81861490
H  3.06073852 6.33333751 0.99070857
F  -2.71195237 -1.49948516 0.57366626
F  -2.90455489 -0.36425262 2.58646360
F  -3.40976152 0.71591186 0.59787499
F  -5.11255640 0.16408629 2.07233668
F  -4.41351883 -2.05442117 2.04981490
F  -4.90159315 -0.96761298 0.05506525
C  -4.25770095 0.61667431 -2.38105212
H  -5.16933189 0.09784138 -2.64477660
H  -4.37758377 1.09142187 -1.37181573
H  -4.01698498 1.42768773 -3.10323382
C  -3.45705538 -1.77737695 -2.44056698
H  -4.49798763 -1.85650169 -2.73080753
H  -2.76365498 -2.21433458 -3.17573493
H  -3.29466336 -2.22601086 -1.43479731
C  5.12972497 -4.38651119 -0.00640155
H  5.99757471 -5.03175087 0.22803405
H  4.28405722 -4.68527934 0.63507223
H  4.89472666 -4.43591353 -1.07114824
C  6.83262469 -2.79921440 0.95571266
H  6.77198838 -2.39665810 2.01266615
H  7.42755881 -3.72173377 1.02161355
H  7.46574183 -2.04338334 0.41965764
O  1.28368393 -1.44120601 -1.08216992
56
MD Step 5
C  5.01431206 -0.65518158 0.53410571
C  4.13252300 0.39335510 0.35325327
C  2.84511138 0.20256602 -0.22164707
C  2.50817075 -1.13386031 -0.56764496
C  3.37567862 -2.19879869 -0.39645577
C  4.65695095 -1.98913643 0.15391129
C  1.88213390 1.23742030 -0.42065299
C  0.33374965 -0.47057425 -1.25281313
C  0.62867476 0.89886887 -0.94817074
C  -0.41934192 1.83882660 -1.21473299
H  -0.20455635 2.89745199 -0.99488486
C  -1.64395012 1.43385024 -1.66971209
C  -1.93517407 0.04070136 -1.90576084
C  -0.88230754 -0.89393882 -1.71907869
H  5.97971900 -0.41887387 1.01034019
H  4.45444320 1.39119860 0.69884397
H  3.04199932 -3.20843724 -0.65303519
H  -2.38744344 2.22977380 -1.77544651
H  -0.99785656 -1.97578956 -1.82661422
N  -3.15605792 -0.34999499 -2.32003130
N  5.53123047 -3.02907465 0.33128110
P  -3.92526979 -0.67673566 1.35194035
C  2.19860113 2.63793226 -0.04663254
C  1.47345010 3.28225934 0.97422531
C  3.22878402 3.34301449 -0.69764677
C  1.77456865 4.59841549 1.33615734
H  0.70163236 2.76305182 1.55813326
C  3.52085673 4.66348454 -0.34377494
H  3.85497880 2.88210369 -1.47390318
C  2.79656492 5.29443203 0.67683726
H  1.26526095 5.11229972 2.16956219
H  4.34684204 5.23049694 -0.80874192
H  3.06557842 6.32200814 0.99271504
F  -2.71186856 -1.50109299 0.57249410
F  -2.90427772 -0.36446167 2.58701871
F  -3.41018391 0.71657683 0.59663652
F  -5.11442153 0.16457470 2.07281970
F  -4.41494349 -2.05623457 2.05045075
F  -4.90378101 -0.96852769 0.05369285
C  -4.25645948 0.62003191 -2.37808329
H  -5.18686958 0.09602766 -2.64383813
H  -4.36844811 1.09093145 -1.37587867
H  -4.01170418 1.43347396 -3.09641557
C  -3.45589587 -1.77757602 -2.43759034
H  -4.51257821 -1.85721482 -2.72968350
H  -2.75383409 -2.21434016 -3.17492931
H  -3.28985097 -2.21748690 -1.43217157
C  5.13114416 -4.38754066 -0.00490926
H  6.00073734 -5.02620516 0.23273511
H  4.28211678 -4.68498118 0.64488192
H  4.89447817 -4.43598798 -1.08425085
C  6.83422234 -2.79755214 0.95681282
H  6.77644223 -2.39508591 2.00641207
H  7.43702624 -3.72152174 1.02734851
H  7.46681878 -2.04189504 0.42692804
O  1.28244429 -1.44372120 -1.08327181
56
MD Step 6
C  5.01743761 -0.65462976 0.53481689
C  4.13383298 0.39605898 0.35365150
C  2.84521567 0.20307452 -0.22215198
C  2.50805921 -1.13447247 -0.56813953
C  3.37582162 -2.19909144 -0.39659246
C  4.65731423 -1.98881287 0.15347284
C  1.88265447 1.23751320 -0.42101339
C  0.33319951 -0.46977707 -1.25303023
C  0.62801365 0.89882834 -0.94874660
C  -0.41762741 1.84135668 -1.21395339
H  -0.20516501 2.88397984 -0.99299834
C  -1.64485278 1.43533924 -1.66958946
C  -1.93548753 0.04119718 -1.90573069
C  -0.88281575 -0.89398954 -1.71883850
H  5.96563237 -0.42034664 1.00606820
H  4.45151920 1.37687259 0.69681178
H  3.03786340 -3.22407675 -0.65302379
H  -2.38722758 2.23415264 -1.77020034
H  -0.99803988 -1.98931573 -1.82254418
N  -3.15756956 -0.34982059 -2.32033525
N  5.53228107 -3.02941728 0.33084093
P  -3.92687554 -0.67783262 1.35132108
C  2.19846166 2.63673505 -0.04788987
C  1.47319224 3.28270507 0.97467703
C  3.23017620 3.34308323 -0.69944149
C  1.77468480 4.60049952 1.33709871
H  0.70117593 2.75928736 1.56899123
C  3.52309375 4.66529543 -0.34548931
H  3.86587198 2.87879951 -1.47542477
C  2.79804725 5.29751683 0.67658607
H  1.27636890 5.10982373 2.16931376
H  4.34705710 5.22642360 -0.79972409
H  3.06867256 6.30684912 0.99296627
F  -2.71154844 -1.50286856 0.57117624
F  -2.90384656 -0.36463075 2.58774413
F  -3.41051552 0.71748355 0.59527670
F  -5.11650060 0.16520563 2.07341750
F  -4.41646382 -2.05832484 2.05120849
F  -4.90616514 -0.96950978 0.05206644
C  -4.25526728 0.62397639 -2.37477585
H  -5.20292215 0.09618432 -2.64358436
H  -4.36081596 1.08716283 -1.38298244
H  -4.00903081 1.43572537 -3.09057703
C  -3.45458921 -1.77783404 -2.43430072
H  -4.52486478 -1.86149518 -2.72949769
H  -2.74808617 -2.21623815 -3.17455248
H  -3.28747485 -2.21047835 -1.43305942
C  5.13289310 -4.38865242 -0.00312791
H  6.00042060 -5.02223530 0.23486280
H  4.27989948 -4.68703106 0.65067513
H  4.89257045 -4.43959551 -1.09577645
C  6.83654762 -2.79540288 0.95852215
H  6.77769720 -2.39642589 1.99611057
H  7.44302069 -3.72097483 1.03092055
H  7.46415604 -2.04377550 0.43250283
O  1.28124188 -1.44644405 -1.08438065
56
MD Step 7
C  5.02037142 -0.65381878 0.53552557
C  4.13531423 0.39855228 0.35413734
C  2.84548071 0.20375178 -0.22258581
C  2.50788972 -1.13514472 -0.56868873
C  3.37583808 -2.20024460 -0.39684590
C  4.65795583 -1.98828710 0.15315528
C  1.88319107 1.23760034 -0.42136384
C  0.33265889 -0.46890818 -1.25328046
C  0.62742017 0.89889575 -0.94931352
C  -0.41582956 1.84371522 -1.21311466
H  -0.20759995 2.87198857 -0.99209604
C  -1.64567516 1.43747419 -1.66930607
C  -1.93596741 0.04182758 -1.90580726
C  -0.88332350 -0.89480742 -1.71860658
H  5.95350836 -0.42351659 1.00200149
H  4.44715309 1.36456897 0.69420818
H  3.03414891 -3.23301434 -0.65250925
H  -2.38813063 2.23417893 -1.76646504
H  -0.99974910 -1.99671034 -1.81921323
N  -3.15905357 -0.34939826 -2.32069676
N  5.53377733 -3.02950658 0.33059509
P  -3.92843511 -0.67885371 1.35082053
C  2.19831898 2.63559618 -0.04917598
C  1.47253564 3.28316508 0.97570035
C  3.23212957 3.34322712 -0.70158916
C  1.77502350 4.60295661 1.33815855
H  0.70295006 2.75515282 1.57545732
C  3.52540911 4.66744553 -0.34695756
H  3.87241751 2.87464725 -1.47507699
C  2.79957205 5.30054334 0.67635734
H  1.28535943 5.10485340 2.16848233
H  4.34692056 5.22009232 -0.79288633
H  3.07115966 6.29257416 0.99282064
F  -2.71101934 -1.50479768 0.56972688
F  -2.90328762 -0.36476940 2.58860942
F  -3.41076964 0.71860109 0.59380880
F  -5.11877123 0.16595955 2.07411380
F  -4.41807303 -2.06066698 2.05207337
F  -4.90873047 -0.97055552 0.05020845
C  -4.25444071 0.62813998 -2.37146470
H  -5.21321863 0.10062152 -2.64283224
H  -4.35527573 1.08172182 -1.38961805
H  -4.00889830 1.43490903 -3.08629438
C  -3.45341426 -1.77815585 -2.43100380
H  -4.53078258 -1.86896248 -2.72914542
H  -2.74746774 -2.21944681 -3.17361480
H  -3.28735059 -2.20590666 -1.43581380
C  5.13474234 -4.38980970 -0.00129677
H  5.99762396 -5.02069710 0.23462801
H  4.27860335 -4.69100027 0.65146254
H  4.88986827 -4.44653498 -1.10189548
C  6.83954469 -2.79303082 0.96067084
H  6.77542232 -2.39959255 1.98490410
H  7.44499219 -3.71932859 1.03219992
H  7.45889604 -2.04771661 0.43521799
O  1.28009476 -1.44931756 -1.08547863
56
MD Step 8
C  5.02263502 -0.65281976 0.53601336
C  4.13683233 0.40035384 0.35456395
C  2.84594248 0.20456346 -0.22293797
C  2.50765840 -1.13588885 -0.56929417
C  3.37568666 -2.20237851 -0.39723698
C  4.65889430 -1.98758141 0.15296689
C  1.88371755 1.23765864 -0.42171408
C  0.33212992 -0.46804597 -1.25357451
C  0.62694242 0.89908853 -0.94985317
C  -0.41412824 1.84547621 -1.21232778
H  -0.21091910 2.86619713 -0.99126214
C  -1.64630602 1.44019339 -1.66882970
C  -1.93661750 0.04259840 -1.90599367
C  -0.88385283 -0.89648132 -1.71838585
H  5.94824614 -0.42731545 1.00048317
H  4.44285587 1.35925812 0.69266593
H  3.03155503 -3.23317447 -0.65107287
H  -2.39055608 2.23020672 -1.76440688
H  -1.00281270 -1.99618568 -1.81658888
N  -3.16047271 -0.34872236 -2.32111412
N  5.53569863 -3.02933983 0.33054208
P  -3.92993270 -0.67978838 1.35044690
C  2.19819825 2.63463390 -0.05045460
C  1.47149989 3.28362931 0.97729385
C  3.23463014 3.34344554 -0.70405203
C  1.77571527 4.60561977 1.33912814
H  0.70746582 2.75116118 1.57687542
C  3.52757633 4.66974598 -0.34804381
H  3.87403716 2.87002322 -1.47246698
C  2.80102245 5.30305413 0.67602451
H  1.29080984 5.09869800 2.16907204
H  4.34860588 5.21308004 -0.78963973
H  3.07419915 6.28402737 0.99366793
F  -2.71030493 -1.50685820 0.56816605
F  -2.90262392 -0.36488365 2.58958674
F  -3.41095481 0.71990040 0.59225145
F  -5.12120354 0.16681756 2.07489225
F  -4.41975649 -2.06322852 2.05302937
F  -4.91145092 -0.97165613 0.04814603
C  -4.25415614 0.63218733 -2.36845641
H  -5.21554042 0.11026835 -2.64100801
H  -4.35240864 1.07639818 -1.39210183
H  -4.01108726 1.43191879 -3.08439660
C  -3.45255853 -1.77851807 -2.42796445
H  -4.52833271 -1.87918608 -2.72806240
H  -2.75234198 -2.22367079 -3.17172602
H  -3.28918823 -2.20477511 -1.43847592
C  5.13650232 -4.39095156 0.00040575
H  5.99367668 -5.02260722 0.23237266
H  4.27873738 -4.69660253 0.64692021
H  4.88693962 -4.45648025 -1.10047064
C  6.84306536 -2.79070035 0.96303717
H  6.76941403 -2.40324377 1.97647085
H  7.44296352 -3.71665289 1.03115395
H  7.45252663 -2.05204826 0.43381025
O  1.27902793 -1.45227261 -1.08654164
56
MD Step 9
C  5.02394896 -0.65170591 0.53612922
C  4.13828222 0.40117152 0.35481499
C  2.84661099 0.20544049 -0.22322787
C  2.50736506 -1.13673919 -0.56996787
C  3.37537228 -2.20540119 -0.39775325
C  4.66010946 -1.98675910 0.15287980
C  1.88420515 1.23766033 -0.42209063
C  0.33158837 -0.46728974 -1.25393760
C  0.62661327 0.89940110 -0.95036378
C  -0.41268325 1.84638854 -1.21168365
H  -0.21412241 2.86968739 -0.98960783
C  -1.64665126 1.44334351 -1.66815096
C  -1.93742902 0.04350087 -1.90628799
C  -0.88443962 -0.89889374 -1.71817064
H  5.95285572 -0.43074806 1.00311065
H  4.43989689 1.36407478 0.69345191
H  3.03038922 -3.22474831 -0.64856253
H  -2.39483380 2.22352403 -1.76383704
H  -1.00693300 -1.98805785 -1.81450540
N  -3.16181969 -0.34781306 -2.32158794
N  5.53798934 -3.02895412 0.33064331
P  -3.93138001 -0.68064801 1.35019150
C  2.19812077 2.63396098 -0.05170823
C  1.47020645 3.28411689 0.97933651
C  3.23756339 3.34374483 -0.70673157
C  1.77683663 4.60830655 1.33982591
H  0.71451380 2.74758170 1.57383198
C  3.52943027 4.67199856 -0.34870446
H  3.87136977 2.86520102 -1.46784175
C  2.80232507 5.30474796 0.67548079
H  1.29208276 5.09283728 2.17288436
H  4.35400973 5.20701161 -0.79062994
H  3.07886949 6.28462114 0.99668455
F  -2.70945584 -1.50904130 0.56650625
F  -2.90189347 -0.36499074 2.59063613
F  -3.41109935 0.72133654 0.59061301
F  -5.12378023 0.16775177 2.07573056
F  -4.42151792 -2.06598207 2.05405594
F  -4.91432222 -0.97281381 0.04590670
C  -4.25445306 0.63589236 -2.36592239
H  -5.20963294 0.12495779 -2.63778696
H  -4.35220623 1.07295655 -1.38754964
H  -4.01488876 1.42824389 -3.08527689
C  -3.45211792 -1.77889558 -2.42532899
H  -4.51752728 -1.89131907 -2.72587515
H  -2.76188846 -2.22853674 -3.16874348
H  -3.29229186 -2.20743623 -1.43901144
C  5.13804781 -4.39204719 0.00186636
H  5.99018043 -5.02840437 0.22885328
H  4.28043086 -4.70332722 0.63789174
H  4.88437103 -4.46860644 -1.09101054
C  6.84688129 -2.78862914 0.96537122
H  6.76011253 -2.40579958 1.97425277
H  7.43793248 -3.71344517 1.02824825
H  7.44685021 -2.05485491 0.42771619
O  1.27803855 -1.45526205 -1.08756720
56
MD Step 10
C  5.02439607 -0.65048551 0.53591096
C  4.13964899 0.40108571 0.35490409
C  2.84748693 0.20631299 -0.22346776
C  2.50703858 -1.13771905 -0.57070112
C  3.37498028 -2.20897758 -0.39831601
C  4.66156915 -1.98588507 0.15287223
C  1.88464273 1.23760415 -0.42249959
C  0.33101570 -0.46672797 -1.25438731
C  0.62647128 0.89982756 -0.95083429
C  -0.41157741 1.84653559 -1.21119518
H  -0.21705158 2.88172974 -0.98719985
C  -1.64663655 1.44673064 -1.66727230
C  -1.93835283 0.04453004 -1.90667657
C  -0.88509565 -0.90170501 -1.71793612
H  5.96623617 -0.43382524 1.00936447
H  4.43819229 1.37805475 0.69632240
H  3.02997645 -3.21076095 -0.64565010
H  -2.40152667 2.21546379 -1.76475536
H  -1.01225987 -1.97528276 -1.81323031
N  -3.16307655 -0.34668990 -2.32211349
N  5.54060271 -3.02837655 0.33087700
P  -3.93277037 -0.68143266 1.35005497
C  2.19811233 2.63370192 -0.05289854
C  1.46886746 3.28469496 0.98163938
C  3.24073876 3.34416947 -0.70943140
C  1.77836876 4.61088582 1.34021273
H  0.72267031 2.74388132 1.56753920
C  3.53094503 4.67408197 -0.34896583
H  3.86561938 2.85982035 -1.46251580
C  2.80348977 5.30565511 0.67474466
H  1.28915323 5.08788845 2.18021245
H  4.36334783 5.20246212 -0.79583638
H  3.08506979 6.29406916 1.00172920
F  -2.70850704 -1.51132459 0.56476952
F  -2.90112392 -0.36509917 2.59172602
F  -3.41121768 0.72287436 0.58891236
F  -5.12647104 0.16873918 2.07660913
F  -4.42334513 -2.06889005 2.05513333
F  -4.91731955 -0.97402080 0.04352385
C  -4.25519123 0.63923302 -2.36380952
H  -5.19784948 0.14286319 -2.63372634
H  -4.35450757 1.07194322 -1.37581715
H  -4.01977155 1.42504500 -3.08919846
C  -3.45203224 -1.77926276 -2.42307121
H  -4.50097062 -1.90476853 -2.72303498
H  -2.77471319 -2.23416619 -3.16533637
H  -3.29624092 -2.21387589 -1.43661863
C  5.13939834 -4.39308113 0.00310033
H  5.98795379 -5.03815802 0.22454874
H  4.28291330 -4.71101853 0.62576547
H  4.88216860 -4.48221187 -1.07531875
C  6.85075736 -2.78686257 0.96753285
H  6.74812735 -2.40653112 1.97951127
H  7.43114725 -3.71098453 1.02387825
H  7.44288787 -2.05514388 0.41698250
O  1.27714099 -1.45822157 -1.08853886
56
MD Step 11
C  5.02435992 -0.64913599 0.53553471
C  4.14098407 0.40048754 0.35493527
C  2.84855173 0.20709908 -0.22368157
C  2.50671667 -1.13885238 -0.57148275
C  3.37464824 -2.21260217 -0.39881039
C  4.66321908 -1.98503869 0.15290888
C  1.88502829 1.23750062 -0.42294522
C  0.33038884 -0.46644636 -1.25494168
C  0.62654493 0.90034772 -0.95126006
C  -0.41082964 1.84628943 -1.21081403
H  -0.22000918 2.89843725 -0.98470514
C  -1.64624932 1.45015124 -1.66621830
C  -1.93932251 0.04567508 -1.90713977
C  -0.88582821 -0.90442715 -1.71765022
H  5.98405782 -0.43710699 1.01716667
H  4.43679402 1.39690603 0.69997060
H  3.02908469 -3.19620258 -0.64340399
H  -2.41079638 2.20730188 -1.76701274
H  -1.01904920 -1.96250224 -1.81309530
N  -3.16424100 -0.34538401 -2.32268481
N  5.54348373 -3.02764972 0.33121184
P  -3.93410420 -0.68214879 1.35003359
C  2.19819558 2.63396586 -0.05399259
C  1.46774585 3.28544858 0.98395690
C  3.24391698 3.34476932 -0.71192177
C  1.78019564 4.61328279 1.34038468
H  0.72998858 2.73923937 1.55981537
C  3.53224640 4.67594873 -0.34895777
H  3.85853349 2.85335512 -1.45822256
C  2.80460904 5.30610211 0.67392620
H  1.28301568 5.08378969 2.18991832
H  4.37527674 5.19913709 -0.80422650
H  3.09185288 6.30887173 1.00764770
F  -2.70749910 -1.51368728 0.56297766
F  -2.90034533 -0.36521916 2.59282297
F  -3.41132764 0.72447586 0.58716738
F  -5.12924714 0.16975493 2.07750702
F  -4.42522856 -2.07191400 2.05624034
F  -4.92042064 -0.97527080 0.04103332
C  -4.25608499 0.64239488 -2.36185026
H  -5.18452543 0.16106943 -2.62986235
H  -4.35872331 1.07291592 -1.35933895
H  -4.02519560 1.42315308 -3.09578311
C  -3.45211850 -1.77961584 -2.42099032
H  -4.48310789 -1.91895573 -2.72039714
H  -2.78882113 -2.24077918 -3.16246952
H  -3.30066816 -2.22331161 -1.43170396
C  5.14069876 -4.39408797 0.00423521
H  5.98707079 -5.05112061 0.21986922
H  4.28504326 -4.71954061 0.61252691
H  4.88006910 -4.49650635 -1.05692124
C  6.85448198 -2.78527971 0.96950192
H  6.73459381 -2.40553514 1.99097097
H  7.42409520 -3.71062134 1.01859443
H  7.44088708 -2.05292312 0.40276404
O  1.27634232 -1.46109454 -1.08944597
56
MD Step 12
C  5.02433962 -0.64763547 0.53523240
C  4.14235518 0.39989858 0.35505006
C  2.84977726 0.20771919 -0.22389286
C  2.50644436 -1.14015048 -0.57229429
C  3.37453689 -2.21571939 -0.39910753
C  4.66499667 -1.98429493 0.15295528
C  1.88537292 1.23737606 -0.42342235
C  0.32969420 -0.46651575 -1.25561107
C  0.62685240 0.90093504 -0.95163855
C  -0.41041782 1.84614769 -1.21045922
H  -0.22352760 2.91453579 -0.98310824
C  -1.64555113 1.45343542 -1.66503155
C  -1.94025633 0.04692596 -1.90765204
C  -0.88664187 -0.90654929 -1.71728233
H  6.00078229 -0.44132246 1.02383554
H  4.43442916 1.41499201 0.70264368
H  3.02622037 -3.18672044 -0.64307974
H  -2.42225349 2.19979893 -1.77040960
H  -1.02762752 -1.95471568 -1.81449396
N  -3.16531795 -0.34393176 -2.32329383
N  5.54657816 -3.02682149 0.33161930
P  -3.93537896 -0.68280163 1.35012479
C  2.19839042 2.63484137 -0.05495704
C  1.46709508 3.28645401 0.98604794
C  3.24686416 3.34558378 -0.71398296
C  1.78213560 4.61547149 1.34054083
H  0.73450484 2.73282496 1.55244216
C  3.53356213 4.67761082 -0.34886631
H  3.85177190 2.84531269 -1.45665112
C  2.80581335 5.30655587 0.67318719
H  1.27526360 5.07992637 2.19977111
H  4.38731487 5.19609728 -0.81418497
H  3.09778805 6.32398261 1.01273419
F  -2.70646840 -1.51610461 0.56115556
F  -2.89958416 -0.36535813 2.59389670
F  -3.41144299 0.72610627 0.58539903
F  -5.13207598 0.17077572 2.07840423
F  -4.42715404 -2.07501193 2.05735596
F  -4.92359671 -0.97655433 0.03847425
C  -4.25676636 0.64569677 -2.35968237
H  -5.17504736 0.17611160 -2.62755300
H  -4.36411046 1.07475973 -1.34215601
H  -4.03080280 1.42278799 -3.10410264
C  -3.45212247 -1.77997711 -2.41878680
H  -4.46921499 -1.93344225 -2.71906832
H  -2.80215257 -2.24863340 -3.16118414
H  -3.30537012 -2.23446451 -1.42575261
C  5.14217695 -4.39514081 0.00548953
H  5.98684501 -5.06594949 0.21504206
H  4.28559012 -4.72879788 0.60024465
H  4.87754197 -4.51079649 -1.04044116
C  6.85790287 -2.78365323 0.97135861
H  6.72096401 -2.40368017 2.00526917
H  7.41799570 -3.71332590 1.01291950
H  7.44028192 -2.04923611 0.38705955
O  1.27565195 -1.46382547 -1.09027630
56
MD Step 13
C  5.02476564 -0.64598799 0.53520734
C  4.14380174 0.39978257 0.35537188
C  2.85113476 0.20810772 -0.22411571
C  2.50626995 -1.14160137 -0.57310804
C  3.37476842 -2.21792378 -0.39910933
C  4.66684385 -1.98370806 0.15298939
C  1.88570217 1.23727245 -0.42391236
C  0.32893918 -0.46698184 -1.25639192
C  0.62739946 0.90156398 -0.95196705
C  -0.41030421 1.84655520 -1.21005073
H  -0.22810110 2.92532186 -0.98335055
C  -1.64467169 1.45646914 -1.66376693
C  -1.94106307 0.04827926 -1.90818277
C  -0.88755330 -0.90772298 -1.71681880
H  6.01167449 -0.44702251 1.02705597
H  4.43003657 1.42738570 0.70279768
H  3.02031738 -3.18635497 -0.64563274
H  -2.43496304 2.19301453 -1.77476719
H  -1.03818744 -1.95521777 -1.81776231
N  -3.16631054 -0.34237010 -2.32392994
N  5.54983688 -3.02593882 0.33208153
P  -3.93658303 -0.68339034 1.35032993
C  2.19871396 2.63639107 -0.05575531
C  1.46708973 3.28774127 0.98773989
C  3.24940825 3.34661785 -0.71545754
C  1.78399464 4.61744967 1.34091155
H  0.73490815 2.72423703 1.54648861
C  3.53513577 4.67910466 -0.34887078
H  3.84627844 2.83555162 -1.45886815
C  2.80721906 5.30744393 0.67268762
H  1.26749709 5.07549467 2.20722430
H  4.39670605 5.19224072 -0.82410505
H  3.10146042 6.33474845 1.01533647
F  -2.70544103 -1.51854475 0.55933272
F  -2.89885974 -0.36551820 2.59492334
F  -3.41156907 0.72773736 0.58363326
F  -5.13491863 0.17178177 2.07928309
F  -4.42909862 -2.07813726 2.05846038
F  -4.92680726 -0.97785628 0.03588880
C  -4.25694101 0.64944130 -2.35701446
H  -5.17384683 0.18507435 -2.62797855
H  -4.37003780 1.07621731 -1.32842708
H  -4.03650007 1.42353976 -3.11292239
C  -3.45183693 -1.78040331 -2.41619626
H  -4.46358335 -1.94786588 -2.71998586
H  -2.81315363 -2.25785430 -3.16225004
H  -3.31031501 -2.24596128 -1.42074834
C  5.14405321 -4.39633373 0.00709484
H  5.98615506 -5.08110637 0.21011186
H  4.28365548 -4.73865901 0.59052662
H  4.87399077 -4.52455192 -1.03028363
C  6.86094378 -2.78176603 0.97321840
H  6.70869758 -2.40220601 2.01826719
H  7.41339695 -3.71924302 1.00722455
H  7.44001245 -2.04574746 0.37216282
O  1.27508728 -1.46635685 -1.09101174
56
MD Step 14
C  5.02587457 -0.64425918 0.53554563
C  4.14530311 0.40040164 0.35593679
C  2.85258438 0.20819565 -0.22438004
C  2.50621878 -1.14318933 -0.57391223
C  3.37533946 -2.21916695 -0.39881885
C  4.66869502 -1.98333080 0.15297506
C  1.88604077 1.23722204 -0.42441106
C  0.32813487 -0.46787856 -1.25727963
C  0.62815946 0.90219537 -0.95226302
C  -0.41046765 1.84777073 -1.20955072
H  -0.23358717 2.92835499 -0.98565896