 Entering Gaussian System, Link 0=g16
 Initial command:
 /software/gaussian/g16-c01/avx2/g16/l1.exe "/gpfs/fs2/scratch/bweight/software/many_molecule_many_mode_NAMD/src/NAMD/TEST_NVT/TRAJ/traj-9/G16/GS_NEW/Gau-12455.inp" -scrdir="/gpfs/fs2/scratch/bweight/software/many_molecule_many_mode_NAMD/src/NAMD/TEST_NVT/TRAJ/traj-9/G16/GS_NEW/"
 Entering Link 1 = /software/gaussian/g16-c01/avx2/g16/l1.exe PID=     12456.
  
 Copyright (c) 1988-2019, Gaussian, Inc.  All Rights Reserved.
  
 This is part of the Gaussian(R) 16 program.  It is based on
 the Gaussian(R) 09 system (copyright 2009, Gaussian, Inc.),
 the Gaussian(R) 03 system (copyright 2003, Gaussian, Inc.),
 the Gaussian(R) 98 system (copyright 1998, Gaussian, Inc.),
 the Gaussian(R) 94 system (copyright 1995, Gaussian, Inc.),
 the Gaussian 92(TM) system (copyright 1992, Gaussian, Inc.),
 the Gaussian 90(TM) system (copyright 1990, Gaussian, Inc.),
 the Gaussian 88(TM) system (copyright 1988, Gaussian, Inc.),
 the Gaussian 86(TM) system (copyright 1986, Carnegie Mellon
 University), and the Gaussian 82(TM) system (copyright 1983,
 Carnegie Mellon University). Gaussian is a federally registered
 trademark of Gaussian, Inc.
  
 This software contains proprietary and confidential information,
 including trade secrets, belonging to Gaussian, Inc.
  
 This software is provided under written license and may be
 used, copied, transmitted, or stored only in accord with that
 written license.
  
 The following legend is applicable only to US Government
 contracts under FAR:
  
                    RESTRICTED RIGHTS LEGEND
  
 Use, reproduction and disclosure by the US Government is
 subject to restrictions as set forth in subparagraphs (a)
 and (c) of the Commercial Computer Software - Restricted
 Rights clause in FAR 52.227-19.
  
 Gaussian, Inc.
 340 Quinnipiac St., Bldg. 40, Wallingford CT 06492
  
  
 ---------------------------------------------------------------
 Warning -- This program may not be used in any manner that
 competes with the business of Gaussian, Inc. or will provide
 assistance to any competitor of Gaussian, Inc.  The licensee
 of this program is prohibited from giving any competitor of
 Gaussian, Inc. access to this program.  By using this program,
 the user acknowledges that Gaussian, Inc. is engaged in the
 business of creating and licensing software in the field of
 computational chemistry and represents and warrants to the
 licensee that it is not a competitor of Gaussian, Inc. and that
 it will not use this program in any manner prohibited above.
 ---------------------------------------------------------------
  

 Cite this work as:
 Gaussian 16, Revision C.01,
 M. J. Frisch, G. W. Trucks, H. B. Schlegel, G. E. Scuseria, 
 M. A. Robb, J. R. Cheeseman, G. Scalmani, V. Barone, 
 G. A. Petersson, H. Nakatsuji, X. Li, M. Caricato, A. V. Marenich, 
 J. Bloino, B. G. Janesko, R. Gomperts, B. Mennucci, H. P. Hratchian, 
 J. V. Ortiz, A. F. Izmaylov, J. L. Sonnenberg, D. Williams-Young, 
 F. Ding, F. Lipparini, F. Egidi, J. Goings, B. Peng, A. Petrone, 
 T. Henderson, D. Ranasinghe, V. G. Zakrzewski, J. Gao, N. Rega, 
 G. Zheng, W. Liang, M. Hada, M. Ehara, K. Toyota, R. Fukuda, 
 J. Hasegawa, M. Ishida, T. Nakajima, Y. Honda, O. Kitao, H. Nakai, 
 T. Vreven, K. Throssell, J. A. Montgomery, Jr., J. E. Peralta, 
 F. Ogliaro, M. J. Bearpark, J. J. Heyd, E. N. Brothers, K. N. Kudin, 
 V. N. Staroverov, T. A. Keith, R. Kobayashi, J. Normand, 
 K. Raghavachari, A. P. Rendell, J. C. Burant, S. S. Iyengar, 
 J. Tomasi, M. Cossi, J. M. Millam, M. Klene, C. Adamo, R. Cammi, 
 J. W. Ochterski, R. L. Martin, K. Morokuma, O. Farkas, 
 J. B. Foresman, and D. J. Fox, Gaussian, Inc., Wallingford CT, 2019.
 
 ******************************************
 Gaussian 16:  ES64L-G16RevC.01  3-Jul-2019
                11-Jan-2023 
 ******************************************
 %oldchk=../GS_OLD/geometry.chk
 %chk=geometry.chk
 %nprocshared=4
 Will use up to    4 processors via shared memory.
 %mem=5GB
 Copying data from "../GS_OLD/geometry.chk" to current chk file "geometry.chk"
 IOpt=  2 FromEx=T IUOpen= 4 IOptOp= 5 NList=   0 IFRang= 0 IUIn= 4 IUOut= 2.
 -------------------------------------------------------
 # WB97XD/6-311G SCF=XQC FORCE nosym pop=full guess=read
 -------------------------------------------------------
 1/10=7,30=1,38=1/1,3;
 2/12=2,15=1,17=6,18=5,40=1/2;
 3/5=4,6=6,11=2,25=1,30=1,71=1,74=-58,116=-2/1,2,3;
 4/5=1/1;
 5/5=2,8=3,13=1,38=6/2,8;
 6/7=3,28=1/1;
 7/29=1,30=1/1,2,3,16;
 1/10=7,30=1/3;
 99//99;
 -----------
 MD Step 999
 -----------
 Symbolic Z-matrix:
 Charge =  0 Multiplicity = 1
 C                    -0.33527  -0.57974   0.00355 
 H                     0.20996  -1.53333  -0.00796 
 H                    -1.41867  -0.59553  -0.00843 
 C                     0.33259   0.57682   0.00282 
 H                    -0.16579   1.56336  -0.00936 
 H                     1.4476    0.6414   -0.00893 
 

 GradGradGradGradGradGradGradGradGradGradGradGradGradGradGradGradGradGrad
 Berny optimization.
 Initialization pass.
 Trust Radius=3.00D-01 FncErr=1.00D-07 GrdErr=1.00D-07 EigMax=2.50D+02 EigMin=1.00D-04
 Number of steps in this run=      2 maximum allowed number of steps=      2.
 GradGradGradGradGradGradGradGradGradGradGradGradGradGradGradGradGradGrad

                          Input orientation:                          
 ---------------------------------------------------------------------
 Center     Atomic      Atomic             Coordinates (Angstroms)
 Number     Number       Type             X           Y           Z
 ---------------------------------------------------------------------
      1          6           0       -0.335269   -0.579740    0.003547
      2          1           0        0.209965   -1.533325   -0.007963
      3          1           0       -1.418672   -0.595533   -0.008433
      4          6           0        0.332589    0.576825    0.002818
      5          1           0       -0.165788    1.563365   -0.009358
      6          1           0        1.447602    0.641396   -0.008926
 ---------------------------------------------------------------------
                    Distance matrix (angstroms):
                    1          2          3          4          5
     1  C    0.000000
     2  H    1.098516   0.000000
     3  H    1.083585   1.879339   0.000000
     4  C    1.335544   2.113738   2.107478   0.000000
     5  H    2.149835   3.119404   2.496109   1.105346   0.000000
     6  H    2.161008   2.502231   3.121782   1.116943   1.858239
                    6
     6  H    0.000000
 Symmetry turned off by external request.
 Stoichiometry    C2H4
 Framework group  C1[X(C2H4)]
 Deg. of freedom    12
 Full point group                 C1      NOp   1
 Rotational constants (GHZ):         143.5554955          29.7285556          24.6294960
 Standard basis: 6-311G (5D, 7F)
    38 basis functions,    72 primitive gaussians,    38 cartesian basis functions
     8 alpha electrons        8 beta electrons
       nuclear repulsion energy        33.0835044967 Hartrees.
 NAtoms=    6 NActive=    6 NUniq=    6 SFac= 1.00D+00 NAtFMM=   60 NAOKFM=F Big=F
 Integral buffers will be    131072 words long.
 Raffenetti 2 integral format.
 Two-electron integral symmetry is turned off.
 Nuclear repulsion after empirical dispersion term =       33.0826649361 Hartrees.
 One-electron integrals computed using PRISM.
 NBasis=    38 RedAO= T EigKep=  6.38D-03  NBF=    38
 NBsUse=    38 1.00D-06 EigRej= -1.00D+00 NBFU=    38
 Initial guess from the checkpoint file:  "geometry.chk"
 B after Tr=    -0.000223   -0.000352   -0.000417
         Rot=    1.000000    0.000001    0.000000    0.000006 Ang=   0.00 deg.
 Keep R1 ints in memory in canonical form, NReq=4036876.
 Requested convergence on RMS density matrix=1.00D-08 within  32 cycles.
 Requested convergence on MAX density matrix=1.00D-06.
 Requested convergence on             energy=1.00D-06.
 No special actions if energy rises.
 SCF Done:  E(RwB97XD) =  -78.5560130537     A.U. after    8 cycles
            NFock=  8  Conv=0.51D-08     -V/T= 2.0051
 QCSCF skips out because SCF is already converged.

 **********************************************************************

            Population analysis using the SCF Density.

 **********************************************************************

 Alpha  occ. eigenvalues --  -10.29064 -10.28750  -0.86415  -0.67193  -0.55888
 Alpha  occ. eigenvalues --   -0.51017  -0.43588  -0.35733
 Alpha virt. eigenvalues --    0.08054   0.14099   0.16437   0.16989   0.24085
 Alpha virt. eigenvalues --    0.37642   0.39233   0.39783   0.46315   0.48789
 Alpha virt. eigenvalues --    0.49347   0.59127   0.66515   0.69071   0.77234
 Alpha virt. eigenvalues --    0.77638   0.84483   0.95426   2.23192   2.28915
 Alpha virt. eigenvalues --    2.33331   2.40784   2.67151   2.81818   2.87782
 Alpha virt. eigenvalues --    2.95158   3.14210   3.31896  23.35144  23.70780
     Molecular Orbital Coefficients:
                           1         2         3         4         5
                           O         O         O         O         O
     Eigenvalues --   -10.29064 -10.28750  -0.86415  -0.67193  -0.55888
   1 1   C  1S          0.08101   0.55753  -0.08857   0.06659  -0.00052
   2        2S          0.06687   0.45885  -0.13997   0.10667  -0.00085
   3        2PX         0.00016  -0.00001   0.02588   0.03791   0.13782
   4        2PY         0.00028  -0.00001   0.04665   0.06154  -0.07245
   5        2PZ         0.00000  -0.00000  -0.00049   0.00074   0.00010
   6        3S          0.00123   0.01460   0.37530  -0.29103   0.00235
   7        3PX        -0.00063   0.00040   0.03393   0.06056   0.21558
   8        3PY        -0.00107   0.00073   0.06082   0.09964  -0.11446
   9        3PZ        -0.00000  -0.00001  -0.00082   0.00131   0.00015
  10        4S          0.00387  -0.01458   0.19142  -0.22657   0.00170
  11        4PX         0.00156  -0.00149   0.00470   0.02409   0.11198
  12        4PY         0.00268  -0.00256   0.00853   0.04131  -0.06050
  13        4PZ         0.00000   0.00003  -0.00029   0.00066   0.00007
  14 2   H  1S         -0.00004  -0.00006   0.05216  -0.08782   0.10102
  15        2S         -0.00031   0.00010   0.05345  -0.10563   0.12799
  16        3S          0.00076   0.00170  -0.00166  -0.01527   0.04150
  17 3   H  1S         -0.00005  -0.00007   0.05397  -0.09209  -0.10503
  18        2S         -0.00030   0.00008   0.05457  -0.10970  -0.13186
  19        3S          0.00079   0.00175  -0.00166  -0.01638  -0.04266
  20 4   C  1S          0.55754  -0.08120  -0.08685  -0.06846  -0.00026
  21        2S          0.45889  -0.06662  -0.13714  -0.10977  -0.00041
  22        2PX        -0.00002  -0.00016  -0.02813   0.03630   0.11795
  23        2PY        -0.00003  -0.00028  -0.04719   0.06543  -0.07531
  24        2PZ        -0.00000   0.00000  -0.00038  -0.00074   0.00010
  25        3S          0.01417  -0.00297   0.36744   0.29988   0.00114
  26        3PX        -0.00025   0.00072  -0.03537   0.05926   0.18503
  27        3PY        -0.00039   0.00125  -0.05922   0.10598  -0.11689
  28        3PZ        -0.00001  -0.00000  -0.00065  -0.00134   0.00015
  29        4S         -0.01260   0.00795   0.18869   0.23775  -0.00028
  30        4PX         0.00097  -0.00188  -0.00553   0.02603   0.10164
  31        4PY         0.00164  -0.00329  -0.00911   0.04482  -0.06311
  32        4PZ         0.00003  -0.00000  -0.00027  -0.00069   0.00008
  33 5   H  1S         -0.00006  -0.00004   0.04972   0.09310  -0.09099
  34        2S         -0.00001  -0.00031   0.05090   0.11150  -0.11501
  35        3S          0.00180   0.00022  -0.00121   0.01680  -0.03696
  36 6   H  1S         -0.00004  -0.00004   0.04823   0.09057   0.08568
  37        2S         -0.00001  -0.00032   0.05003   0.10915   0.10890
  38        3S          0.00175   0.00021  -0.00125   0.01606   0.03535
                           6         7         8         9        10
                           O         O         O         V         V
     Eigenvalues --    -0.51017  -0.43588  -0.35733   0.08054   0.14099
   1 1   C  1S         -0.00434   0.00025  -0.00037   0.00101  -0.03252
   2        2S         -0.00658   0.00044  -0.00060   0.00168  -0.05214
   3        2PX         0.09334  -0.11163  -0.00127   0.00055  -0.03022
   4        2PY         0.16816   0.06630  -0.00211   0.00090  -0.06456
   5        2PZ         0.00187  -0.00002   0.17951  -0.18903  -0.00085
   6        3S          0.02378  -0.00102   0.00177  -0.00506   0.11296
   7        3PX         0.13529  -0.17794  -0.00179   0.00084  -0.03530
   8        3PY         0.24583   0.10641  -0.00297   0.00135  -0.08012
   9        3PZ         0.00297  -0.00002   0.28869  -0.27812  -0.00135
  10        4S         -0.04918  -0.00392   0.00252  -0.00572   1.20006
  11        4PX         0.06813  -0.11108  -0.00146   0.00469  -0.18970
  12        4PY         0.12520   0.06713  -0.00244   0.00783  -0.38840
  13        4PZ         0.00169   0.00001   0.26675  -0.69788  -0.00507
  14 2   H  1S         -0.08086  -0.11584   0.00005   0.00157  -0.01621
  15        2S         -0.11152  -0.17926   0.00075   0.00250  -0.04693
  16        3S         -0.04164  -0.08324   0.00044   0.00657  -0.82915
  17 3   H  1S         -0.07804   0.11332   0.00004   0.00158  -0.01150
  18        2S         -0.10683   0.17425   0.00074   0.00254  -0.03562
  19        3S         -0.03949   0.08062   0.00044   0.00644  -0.75135
  20 4   C  1S         -0.00759  -0.00052  -0.00030  -0.00099  -0.03695
  21        2S         -0.01183  -0.00087  -0.00048  -0.00163  -0.05935
  22        2PX        -0.09923   0.12377   0.00123   0.00063   0.04247
  23        2PY        -0.16239  -0.07286   0.00226   0.00114   0.06171
  24        2PZ         0.00199   0.00007   0.17939   0.18953  -0.00117
  25        3S          0.03879   0.00244   0.00142   0.00490   0.13122
  26        3PX        -0.14675   0.19879   0.00172   0.00095   0.05239
  27        3PY        -0.23815  -0.11607   0.00317   0.00175   0.07290
  28        3PZ         0.00315   0.00011   0.28712   0.27784  -0.00178
  29        4S         -0.03485   0.00363   0.00246   0.00568   1.26285
  30        4PX        -0.07646   0.12745   0.00131   0.00486   0.26967
  31        4PY        -0.12244  -0.07358   0.00248   0.00868   0.41085
  32        4PZ         0.00181   0.00006   0.26681   0.69902  -0.00682
  33 5   H  1S         -0.07475  -0.12392   0.00008  -0.00148  -0.01276
  34        2S         -0.10229  -0.19341   0.00077  -0.00247  -0.03788
  35        3S         -0.03802  -0.09097   0.00044  -0.00663  -0.82500
  36 6   H  1S         -0.08116   0.12380   0.00007  -0.00149  -0.01731
  37        2S         -0.11161   0.19440   0.00075  -0.00250  -0.04916
  38        3S         -0.04173   0.09156   0.00042  -0.00680  -0.90429
                          11        12        13        14        15
                           V         V         V         V         V
     Eigenvalues --     0.16437   0.16989   0.24085   0.37642   0.39233
   1 1   C  1S          0.00107  -0.04581   0.00011   0.01121   0.00195
   2        2S          0.00172  -0.07465   0.00017   0.01588   0.00322
   3        2PX         0.09692  -0.02071   0.10042  -0.03677  -0.02501
   4        2PY        -0.05339  -0.03841  -0.05753  -0.06758   0.00788
   5        2PZ         0.00005  -0.00250   0.00001  -0.00176  -0.00008
   6        3S         -0.00354   0.16848   0.00020   0.02907  -0.00350
   7        3PX         0.13906  -0.01239   0.10664  -0.04908  -0.11011
   8        3PY        -0.07766  -0.02583  -0.06238  -0.09653   0.04175
   9        3PZ         0.00006  -0.00347  -0.00000  -0.00353  -0.00003
  10        4S         -0.05560   1.45104  -0.02661  -2.83522  -0.32088
  11        4PX         0.57512  -0.12463   1.16868  -1.60739  -0.56142
  12        4PY        -0.30630  -0.21683  -0.66879  -2.80322   0.11405
  13        4PZ         0.00035  -0.01632   0.00040  -0.01558  -0.00101
  14 2   H  1S         -0.03018  -0.02512   0.01277  -0.05412   0.07775
  15        2S         -0.08115  -0.01723  -0.02383  -0.62801   0.80153
  16        3S         -1.01881  -1.01185  -1.54781  -0.34304  -0.35711
  17 3   H  1S          0.02899  -0.02494  -0.01528  -0.04540  -0.07509
  18        2S          0.07963  -0.02118   0.01730  -0.55742  -0.73959
  19        3S          1.08973  -1.02774   1.58406  -0.43226   0.24507
  20 4   C  1S          0.00186   0.04212  -0.00014  -0.01982  -0.00003
  21        2S          0.00298   0.06860  -0.00024  -0.03231   0.00025
  22        2PX         0.10130  -0.02390  -0.09998  -0.04168  -0.03207
  23        2PY        -0.06227  -0.03612   0.05735  -0.07469   0.01148
  24        2PZ         0.00010   0.00240  -0.00001   0.00134   0.00020
  25        3S         -0.00611  -0.15316   0.00032   0.03734  -0.00654
  26        3PX         0.14618  -0.01936  -0.11303  -0.09154  -0.10834
  27        3PY        -0.08825  -0.02540   0.06337  -0.16779   0.05795
  28        3PZ         0.00014   0.00330   0.00001   0.00174   0.00045
  29        4S         -0.08132  -1.31574   0.01944   3.44176   0.21460
  30        4PX         0.53887  -0.12072  -1.12551  -1.26532  -0.60418
  31        4PY        -0.33932  -0.19057   0.65184  -2.23687  -0.02069
  32        4PZ         0.00062   0.01561  -0.00037   0.01418   0.00161
  33 5   H  1S          0.03169   0.02492   0.00695   0.01466  -0.07692
  34        2S          0.07006   0.02257  -0.03288   0.12364  -0.73620
  35        3S          1.09773   0.91696  -1.51886   0.46276   0.47887
  36 6   H  1S         -0.03157   0.02608  -0.00524   0.00829   0.08977
  37        2S         -0.07049   0.02141   0.03516   0.06420   0.92389
  38        3S         -0.98849   0.93977   1.49359   0.47723  -0.44674
                          16        17        18        19        20
                           V         V         V         V         V
     Eigenvalues --     0.39783   0.46315   0.48789   0.49347   0.59127
   1 1   C  1S         -0.01679   0.01265  -0.04668  -0.00004  -0.00020
   2        2S         -0.02989   0.02921  -0.07810   0.00003  -0.00036
   3        2PX         0.02196  -0.06156   0.01291   0.00047   0.00078
   4        2PY         0.04335  -0.10668   0.01561   0.00064   0.00112
   5        2PZ        -0.00004  -0.00025   0.00159  -0.15162  -0.19276
   6        3S          0.07686  -0.33737   0.09350  -0.00362  -0.00020
   7        3PX         0.09023  -0.24161  -0.03029   0.00037   0.00263
   8        3PY         0.18435  -0.41606  -0.06513   0.00010   0.00380
   9        3PZ        -0.00173  -0.00178   0.00729  -0.62790  -0.68572
  10        4S          2.37835   0.05480   3.18328   0.02942   0.02548
  11        4PX         0.06063   0.20038   0.79960   0.00957   0.00806
  12        4PY         0.20479   0.38831   1.39529   0.01742   0.01408
  13        4PZ        -0.00175   0.00019  -0.03168   0.68673   1.24231
  14 2   H  1S         -0.02468  -0.03438  -0.07718  -0.00083  -0.00062
  15        2S         -0.52625  -0.32360  -0.92574  -0.00763  -0.00447
  16        3S          0.24179   0.06477   0.64602   0.01025   0.00864
  17 3   H  1S         -0.03982  -0.03730  -0.07474  -0.00081  -0.00059
  18        2S         -0.67410  -0.35884  -0.89871  -0.00751  -0.00378
  19        3S          0.28049   0.06419   0.60313   0.00992   0.00837
  20 4   C  1S         -0.00322  -0.00282   0.05096   0.00104   0.00026
  21        2S         -0.00882   0.00295   0.08861   0.00188   0.00048
  22        2PX         0.00381   0.05475   0.02628  -0.00003   0.00072
  23        2PY         0.01224   0.09462   0.04955  -0.00008   0.00144
  24        2PZ        -0.00126  -0.00063   0.00165  -0.15279   0.19237
  25        3S          0.08324  -0.28663  -0.23141  -0.00737  -0.00088
  26        3PX        -0.05649   0.23371   0.05153  -0.00010   0.00255
  27        3PY        -0.07385   0.40847   0.09517  -0.00042   0.00501
  28        3PZ        -0.00371  -0.00264   0.00589  -0.63150   0.68257
  29        4S         -0.53311   0.81819  -3.08725  -0.03672  -0.02289
  30        4PX         1.08998  -0.38571   0.64695   0.00534   0.00790
  31        4PY         2.03745  -0.63319   1.09996   0.00898   0.01355
  32        4PZ        -0.01116  -0.00544   0.01393   0.69287  -1.23856
  33 5   H  1S         -0.05359  -0.06394   0.06331   0.00076   0.00057
  34        2S         -0.89391  -0.64807   0.78652   0.01157   0.00226
  35        3S         -0.10938   0.28001  -0.55464  -0.00304  -0.00837
  36 6   H  1S         -0.03752  -0.06198   0.06427   0.00079   0.00060
  37        2S         -0.71982  -0.62133   0.79066   0.01155   0.00267
  38        3S         -0.17026   0.29557  -0.58357  -0.00355  -0.00850
                          21        22        23        24        25
                           V         V         V         V         V
     Eigenvalues --     0.66515   0.69071   0.77234   0.77638   0.84483
   1 1   C  1S          0.00102  -0.00062   0.05763   0.06858   0.00098
   2        2S          0.00210  -0.00139   0.12175   0.14624   0.00224
   3        2PX        -0.12474   0.20209  -0.01517   0.11663  -0.00735
   4        2PY         0.07287  -0.12226  -0.02705   0.18778   0.01405
   5        2PZ        -0.00003   0.00009   0.00041   0.00176   0.00007
   6        3S         -0.01605   0.01896  -0.84646  -1.28182  -0.02420
   7        3PX        -0.59064   0.71377  -0.13490   0.46488  -0.21710
   8        3PY         0.34097  -0.43159  -0.23705   0.73910   0.16562
   9        3PZ        -0.00018   0.00035   0.00151   0.00612   0.00026
  10        4S          0.02240  -0.09145   0.91104   2.43282  -0.03740
  11        4PX         1.09392  -0.81415   0.10115  -0.78502   4.47519
  12        4PY        -0.63389   0.49729   0.10535  -1.00417  -2.57447
  13        4PZ         0.00026   0.00043   0.00160  -0.02054   0.00166
  14 2   H  1S          0.02081  -0.05978   0.01368   0.03107  -0.02684
  15        2S          0.09581  -0.63162   0.08156   0.08824  -1.54571
  16        3S         -1.00826   1.14569  -0.19577  -1.07665  -1.22075
  17 3   H  1S         -0.01998   0.05920   0.01366   0.03200   0.03040
  18        2S         -0.10875   0.67398   0.11064   0.05114   1.59196
  19        3S          0.99945  -1.10465  -0.19056  -1.24806   1.22001
  20 4   C  1S          0.00121  -0.00057   0.08661   0.02273   0.00068
  21        2S          0.00246  -0.00108   0.18424   0.04771   0.00136
  22        2PX        -0.15821  -0.18020  -0.09038   0.05964   0.01311
  23        2PY         0.09025   0.09923  -0.16449   0.11075   0.00102
  24        2PZ        -0.00003  -0.00009   0.00181  -0.00055  -0.00008
  25        3S         -0.01821  -0.00004  -1.52377  -0.22811  -0.00574
  26        3PX        -0.70339  -0.60151  -0.32181   0.30435   0.25294
  27        3PY         0.40466   0.32782  -0.59226   0.56245  -0.10403
  28        3PZ        -0.00019  -0.00030   0.00639  -0.00206  -0.00023
  29        4S          0.01896   0.05770   2.70067  -0.16007   0.02373
  30        4PX         1.27452   0.68366   0.47158  -0.25637  -4.22835
  31        4PY        -0.72758  -0.37266   0.94598  -0.74617   2.40053
  32        4PZ         0.00027  -0.00034  -0.01816   0.01103  -0.00134
  33 5   H  1S         -0.02752  -0.05448   0.03502  -0.00063  -0.02430
  34        2S         -0.17675  -0.56711   0.07475   0.07704  -1.43479
  35        3S          1.14053   0.92921  -1.13588   0.40412  -1.10774
  36 6   H  1S          0.02829   0.05421   0.03457   0.00021   0.02373
  37        2S          0.16664   0.52914   0.07363   0.01222   1.41399
  38        3S         -1.14634  -0.94878  -1.05441   0.30808   1.11619
                          26        27        28        29        30
                           V         V         V         V         V
     Eigenvalues --     0.95426   2.23192   2.28915   2.33331   2.40784
   1 1   C  1S          0.09556  -0.01057  -0.01436   0.00048  -0.00056
   2        2S          0.19857   0.00078  -0.01480   0.00104  -0.00068
   3        2PX        -0.09214  -0.08531  -0.13168   0.33615  -0.41358
   4        2PY        -0.15977  -0.15938  -0.23207  -0.19077   0.23500
   5        2PZ         0.00008  -0.00511  -0.00663   0.00004  -0.00030
   6        3S         -1.53565  -0.18347  -0.03025  -0.00192  -0.00504
   7        3PX        -0.23875   0.08345   0.20758  -0.40081   0.57578
   8        3PY        -0.40485   0.17179   0.38101   0.23016  -0.32985
   9        3PZ        -0.00091   0.00514   0.00827  -0.00000   0.00035
  10        4S          5.71477  -0.12690  -0.89406   0.00462  -0.02608
  11        4PX         1.21298   0.05440  -0.18530  -0.02123   0.97665
  12        4PY         1.98808   0.06585  -0.35519   0.00403  -0.53972
  13        4PZ        -0.00697   0.00135   0.00308  -0.00012   0.00069
  14 2   H  1S          0.01557  -0.72349  -0.77934  -0.69425   0.66502
  15        2S         -0.29575   1.03196   1.17072   1.05663  -1.47322
  16        3S         -0.08804  -0.31115  -0.46842  -0.46690   0.37958
  17 3   H  1S          0.01588  -0.71642  -0.77174   0.68837  -0.68848
  18        2S         -0.25946   1.02390   1.16438  -1.05249   1.52359
  19        3S         -0.06700  -0.28670  -0.44552   0.45673  -0.36933
  20 4   C  1S         -0.09417  -0.00995   0.01216   0.00049   0.00035
  21        2S         -0.19541   0.00099   0.01197   0.00076   0.00057
  22        2PX        -0.09322   0.12850  -0.12710   0.31412   0.41347
  23        2PY        -0.16084   0.22360  -0.21489  -0.18140  -0.23722
  24        2PZ         0.00014  -0.00526   0.00654   0.00010   0.00016
  25        3S          1.50925  -0.17202   0.02090  -0.00021   0.00064
  26        3PX        -0.23064  -0.16384   0.21919  -0.39470  -0.58008
  27        3PY        -0.40550  -0.27905   0.36089   0.22474   0.33244
  28        3PZ         0.00136   0.00564  -0.00838  -0.00010  -0.00021
  29        4S         -5.69288  -0.15026   0.88407   0.01336   0.01020
  30        4PX         1.10432  -0.01389  -0.20461   0.08810  -0.86943
  31        4PY         2.00629  -0.03660  -0.32474  -0.04778   0.51107
  32        4PZ         0.00433   0.00149  -0.00232  -0.00005  -0.00057
  33 5   H  1S         -0.01806  -0.77726   0.69298   0.71439   0.67272
  34        2S          0.28336   1.12574  -1.05562  -1.04835  -1.44689
  35        3S          0.05223  -0.34936   0.41143   0.51309   0.41281
  36 6   H  1S         -0.01796  -0.76913   0.71263  -0.70639  -0.66898
  37        2S          0.31339   1.11067  -1.07900   1.03271   1.43138
  38        3S          0.06500  -0.35163   0.43857  -0.51331  -0.42197
                          31        32        33        34        35
                           V         V         V         V         V
     Eigenvalues --     2.67151   2.81818   2.87782   2.95158   3.14210
   1 1   C  1S          0.00019   0.00094  -0.01331   0.00015  -0.00927
   2        2S          0.00016   0.00276  -0.04496   0.00006  -0.02873
   3        2PX         0.00204   0.02707  -0.46695  -0.73587   0.45918
   4        2PY         0.00311   0.04736  -0.84061   0.41582   0.79935
   5        2PZ        -0.92330  -0.94003  -0.05251  -0.00045   0.00272
   6        3S         -0.00071  -0.02313   0.39872   0.00186   0.24339
   7        3PX        -0.00162  -0.04732   0.83738   0.88648  -0.45255
   8        3PY        -0.00249  -0.08215   1.47963  -0.48818  -0.78386
   9        3PZ         0.93760   1.14992   0.06587   0.00062  -0.00355
  10        4S          0.00509   0.05317  -0.88937  -0.00728  -0.47237
  11        4PX        -0.00065   0.03827  -0.72082  -0.66656   0.23850
  12        4PY        -0.00080   0.06682  -1.27891   0.35716   0.40783
  13        4PZ        -0.33692  -0.62413  -0.04169  -0.00051   0.00231
  14 2   H  1S          0.00444  -0.00800   0.27043  -0.37941  -0.21999
  15        2S         -0.00513   0.00539  -0.23071   0.38853   0.16664
  16        3S         -0.00099   0.01519  -0.29754   0.27073   0.06750
  17 3   H  1S          0.00449  -0.00769   0.25946   0.37874  -0.22215
  18        2S         -0.00525   0.00464  -0.20932  -0.38309   0.16775
  19        3S         -0.00125   0.01560  -0.30374  -0.28892   0.07731
  20 4   C  1S          0.00018  -0.00093   0.01383   0.00057  -0.00730
  21        2S          0.00016  -0.00289   0.04839   0.00126  -0.02341
  22        2PX        -0.00259   0.02476  -0.42351  -0.79847  -0.49522
  23        2PY        -0.00481   0.04405  -0.74831   0.44343  -0.87928
  24        2PZ        -0.92647   0.93666   0.05338   0.00009   0.00458
  25        3S         -0.00087   0.02489  -0.43557  -0.00919   0.20402
  26        3PX         0.00261  -0.04481   0.78884   0.94871   0.52272
  27        3PY         0.00476  -0.07928   1.38944  -0.52135   0.93764
  28        3PZ         0.94187  -1.14670  -0.06734  -0.00009  -0.00571
  29        4S          0.00544  -0.05429   0.92016   0.02698  -0.39077
  30        4PX        -0.00016   0.03803  -0.72074  -0.69441  -0.31079
  31        4PY        -0.00050   0.06662  -1.25542   0.37754  -0.56327
  32        4PZ        -0.33918   0.62280   0.04300   0.00003   0.00437
  33 5   H  1S          0.00428   0.01022  -0.29242   0.41541  -0.25829
  34        2S         -0.00524  -0.00817   0.26246  -0.42881   0.20246
  35        3S         -0.00056  -0.01450   0.28623  -0.24548   0.11798
  36 6   H  1S          0.00434   0.01043  -0.29304  -0.42545  -0.24546
  37        2S         -0.00544  -0.00873   0.27090   0.43883   0.19201
  38        3S         -0.00039  -0.01368   0.26979   0.24392   0.10949
                          36        37        38
                           V         V         V
     Eigenvalues --     3.31896  23.35144  23.70780
   1 1   C  1S         -0.00048  -1.41407  -1.45223
   2        2S         -0.00066   1.50801   1.57050
   3        2PX         0.77961  -0.00663   0.01195
   4        2PY        -0.43512  -0.01067   0.02115
   5        2PZ         0.00043  -0.00021  -0.00009
   6        3S         -0.00033  -0.29552  -0.40011
   7        3PX        -1.11646   0.02465  -0.05579
   8        3PY         0.61763   0.04045  -0.09749
   9        3PZ        -0.00067   0.00058   0.00028
  10        4S         -0.01222   0.27178   0.77226
  11        4PX         1.97030  -0.02721   0.13350
  12        4PY        -1.09129  -0.04532   0.23029
  13        4PZ         0.00112  -0.00097  -0.00115
  14 2   H  1S          0.55447   0.01309   0.00675
  15        2S         -0.86642   0.00782  -0.01473
  16        3S         -0.45993  -0.08380  -0.03912
  17 3   H  1S         -0.56802   0.01527   0.00832
  18        2S          0.88557   0.00715  -0.01501
  19        3S          0.48926  -0.08653  -0.03959
  20 4   C  1S          0.00020  -1.44739   1.41888
  21        2S         -0.00003   1.54369  -1.53458
  22        2PX        -0.71498   0.00574   0.01269
  23        2PY         0.41112   0.01049   0.02147
  24        2PZ        -0.00035  -0.00020   0.00005
  25        3S          0.00428  -0.30299   0.39149
  26        3PX         1.01645  -0.02164  -0.05713
  27        3PY        -0.59395  -0.03895  -0.09796
  28        3PZ         0.00054   0.00057  -0.00011
  29        4S         -0.01132   0.28125  -0.76301
  30        4PX        -1.79987   0.02233   0.13226
  31        4PY         1.05841   0.04145   0.22892
  32        4PZ        -0.00092  -0.00093   0.00079
  33 5   H  1S          0.49408   0.01303  -0.00461
  34        2S         -0.77492   0.00816   0.01344
  35        3S         -0.43198  -0.08318   0.03703
  36 6   H  1S         -0.48652   0.01132  -0.00325
  37        2S          0.76584   0.00945   0.01293
  38        3S          0.41743  -0.08100   0.03629
     Density Matrix:
                           1         2         3         4         5
   1 1   C  1S          0.65941
   2        2S          0.56154   0.49205
   3        2PX        -0.00053  -0.00071   0.08455
   4        2PY        -0.00138  -0.00193   0.00371   0.08778
   5        2PZ         0.00003   0.00005  -0.00004  -0.00010   0.06446
   6        3S         -0.08897  -0.15391   0.00267   0.00671  -0.00007
   7        3PX         0.00092   0.00141   0.13076   0.00129  -0.00003
   8        3PY         0.00118   0.00182   0.00130   0.13132  -0.00009
   9        3PZ         0.00006   0.00011  -0.00007  -0.00016   0.10366
  10        4S         -0.07929  -0.11415  -0.01511  -0.02734   0.00020
  11        4PX         0.00021   0.00149   0.07046  -0.00463  -0.00021
  12        4PY         0.00058   0.00295  -0.00471   0.06567  -0.00037
  13        4PZ        -0.00004  -0.00010  -0.00031  -0.00051   0.09578
  14 2   H  1S         -0.02047  -0.03261   0.03465  -0.06313  -0.00044
  15        2S         -0.02273  -0.03636   0.04924  -0.08784  -0.00032
  16        3S          0.00055  -0.00073   0.02101  -0.03309  -0.00001
  17 3   H  1S         -0.02107  -0.03352  -0.07301  -0.00230  -0.00049
  18        2S         -0.02309  -0.03687  -0.10069  -0.00213  -0.00038
  19        3S          0.00062  -0.00066  -0.03846   0.00142  -0.00003
  20 4   C  1S          0.00612   0.00986  -0.01087  -0.01880  -0.00015
  21        2S          0.00983   0.01536  -0.01740  -0.03008  -0.00024
  22        2PX         0.01043   0.01668  -0.01235  -0.03221   0.00017
  23        2PY         0.01820   0.02911  -0.03229  -0.04972   0.00033
  24        2PZ        -0.00018  -0.00029  -0.00015  -0.00022   0.06441
  25        3S         -0.02650  -0.04022   0.04876   0.08440   0.00074
  26        3PX         0.01610   0.02496  -0.01812  -0.04582   0.00022
  27        3PY         0.02806   0.04351  -0.04580  -0.07104   0.00044
  28        3PZ        -0.00031  -0.00050  -0.00026  -0.00038   0.10309
  29        4S          0.00536   0.00397   0.02039   0.03565   0.00092
  30        4PX         0.00313   0.00645  -0.01303  -0.02086   0.00025
  31        4PY         0.00527   0.01096  -0.02091  -0.03713   0.00050
  32        4PZ        -0.00026  -0.00042  -0.00040  -0.00063   0.09580
  33 5   H  1S          0.00422   0.00693  -0.00174  -0.01229  -0.00017
  34        2S          0.00639   0.01062   0.00347  -0.02491  -0.00001
  35        3S          0.00331   0.00485   0.00424  -0.01754   0.00004
  36 6   H  1S          0.00415   0.00681  -0.00981  -0.00765  -0.00018
  37        2S          0.00626   0.01043  -0.02336  -0.00944  -0.00002
  38        3S          0.00325   0.00477  -0.01734  -0.00516   0.00002
                           6         7         8         9        10
   6        3S          0.45268
   7        3PX        -0.00197   0.20253
   8        3PY        -0.00141  -0.00449   0.19698
   9        3PZ        -0.00021  -0.00005  -0.00013   0.16671
  10        4S          0.27282  -0.02566  -0.04731   0.00026   0.18129
  11        4PX        -0.00655   0.10949  -0.01040  -0.00035  -0.01452
  12        4PY        -0.01219  -0.01051   0.09897  -0.00059  -0.02842
  13        4PZ         0.00043  -0.00041  -0.00067   0.15403   0.00077
  14 2   H  1S          0.08713   0.05580  -0.09869  -0.00073   0.06897
  15        2S          0.09727   0.07964  -0.13683  -0.00055   0.08113
  16        3S          0.00608   0.03429  -0.05093  -0.00002   0.01113
  17 3   H  1S          0.08967  -0.11422  -0.00200  -0.00081   0.06882
  18        2S          0.09876  -0.15736  -0.00048  -0.00063   0.07929
  19        3S          0.00610  -0.05987   0.00404  -0.00004   0.00985
  20 4   C  1S         -0.02670  -0.01693  -0.02930  -0.00026   0.00521
  21        2S         -0.04042  -0.02630  -0.04554  -0.00041   0.00391
  22        2PX        -0.04666  -0.01756  -0.04564   0.00029  -0.01802
  23        2PY        -0.08143  -0.04577  -0.07082   0.00057  -0.03141
  24        2PZ         0.00088  -0.00020  -0.00029   0.10359   0.00090
  25        3S          0.10304   0.07135   0.12374   0.00124   0.00115
  26        3PX        -0.06753  -0.02591  -0.06470   0.00038  -0.02690
  27        3PY        -0.11773  -0.06472  -0.10113   0.00076  -0.04678
  28        3PZ         0.00146  -0.00035  -0.00051   0.16579   0.00149
  29        4S          0.00179   0.03077   0.05406   0.00153  -0.03241
  30        4PX        -0.02277  -0.01945  -0.02924   0.00041  -0.00698
  31        4PY        -0.03897  -0.02936  -0.05361   0.00082  -0.01127
  32        4PZ         0.00123  -0.00055  -0.00087   0.15406   0.00138
  33 5   H  1S         -0.02060  -0.00071  -0.01769  -0.00026  -0.01514
  34        2S         -0.03171   0.00852  -0.03672   0.00002  -0.01984
  35        3S         -0.01247   0.00810  -0.02640   0.00007  -0.00374
  36 6   H  1S         -0.02023  -0.01483  -0.00925  -0.00026  -0.01528
  37        2S         -0.03118  -0.03582  -0.01060   0.00000  -0.02047
  38        3S         -0.01228  -0.02678  -0.00608   0.00005  -0.00424
                          11        12        13        14        15
  11        4PX         0.06026
  12        4PY        -0.00931   0.05128
  13        4PZ        -0.00050  -0.00083   0.14232
  14 2   H  1S          0.03360  -0.05439  -0.00038   0.08119
  15        2S          0.04870  -0.07530  -0.00013   0.10955   0.14994
  16        3S          0.02136  -0.02792   0.00008   0.03691   0.05280
  17 3   H  1S         -0.06326   0.00169  -0.00041  -0.01305  -0.02489
  18        2S         -0.08758   0.00446  -0.00016  -0.02477  -0.04339
  19        3S         -0.03366   0.00471   0.00007  -0.01821  -0.02773
  20 4   C  1S         -0.00311  -0.00567  -0.00023   0.00422   0.00664
  21        2S         -0.00646  -0.01164  -0.00037   0.00697   0.01108
  22        2PX        -0.01312  -0.01999   0.00040   0.00189  -0.00272
  23        2PY        -0.02010  -0.03674   0.00076   0.01151   0.02420
  24        2PZ        -0.00029  -0.00044   0.09571  -0.00021  -0.00006
  25        3S          0.02295   0.04103   0.00107  -0.02095  -0.03331
  26        3PX        -0.02020  -0.02817   0.00055   0.00096  -0.00747
  27        3PY        -0.02831  -0.05335   0.00104   0.01700   0.03609
  28        3PZ        -0.00047  -0.00074   0.15319  -0.00031  -0.00006
  29        4S          0.00754   0.01454   0.00140  -0.01733  -0.02364
  30        4PX        -0.01476  -0.01227   0.00050  -0.00177  -0.00871
  31        4PY        -0.01239  -0.02934   0.00096   0.01528   0.02709
  32        4PZ        -0.00056  -0.00091   0.14235  -0.00017   0.00011
  33 5   H  1S          0.00192  -0.01580  -0.00013   0.01125   0.02345
  34        2S          0.00912  -0.02759   0.00016   0.02384   0.04460
  35        3S          0.00755  -0.01589   0.00012   0.01668   0.02796
  36 6   H  1S         -0.01456  -0.00576  -0.00013  -0.00912  -0.01833
  37        2S         -0.02828  -0.00516   0.00016  -0.01894  -0.03463
  38        3S         -0.01734  -0.00112   0.00011  -0.01027  -0.01800
                          16        17        18        19        20
  16        3S          0.02125
  17 3   H  1S         -0.01845   0.08271
  18        2S         -0.02789   0.10996   0.14835
  19        3S         -0.01316   0.03624   0.05120   0.02031
  20 4   C  1S          0.00365   0.00431   0.00670   0.00366   0.65947
  21        2S          0.00537   0.00711   0.01116   0.00537   0.56155
  22        2PX        -0.00357   0.00904   0.02220   0.01664   0.00123
  23        2PY         0.01756   0.00751   0.00966   0.00552   0.00184
  24        2PZ         0.00001  -0.00021  -0.00004   0.00003   0.00003
  25        3S         -0.01391  -0.02131  -0.03344  -0.01380  -0.08919
  26        3PX        -0.00720   0.01436   0.03498   0.02604  -0.00044
  27        3PY         0.02642   0.00951   0.01155   0.00680  -0.00107
  28        3PZ         0.00003  -0.00030  -0.00003   0.00005   0.00007
  29        4S         -0.00560  -0.01710  -0.02277  -0.00505  -0.08015
  30        4PX        -0.00719   0.01408   0.02763   0.01708  -0.00024
  31        4PY         0.01586   0.00646   0.00634   0.00175  -0.00022
  32        4PZ         0.00010  -0.00017   0.00013   0.00012  -0.00001
  33 5   H  1S          0.01629  -0.00909  -0.01822  -0.00953  -0.02013
  34        2S          0.02760  -0.01875  -0.03412  -0.01712  -0.02225
  35        3S          0.01474  -0.01015  -0.01765  -0.00906   0.00057
  36 6   H  1S         -0.00967   0.01125   0.02328   0.01593  -0.01976
  37        2S         -0.01753   0.02390   0.04439   0.02713  -0.02216
  38        3S         -0.00932   0.01675   0.02784   0.01452   0.00045
                          21        22        23        24        25
  21        2S          0.49204
  22        2PX         0.00178   0.08238
  23        2PY         0.00262   0.00384   0.08773
  24        2PZ         0.00004   0.00006   0.00008   0.06437
  25        3S         -0.15414  -0.00572  -0.00855  -0.00006   0.45332
  26        3PX        -0.00066   0.12828   0.00192   0.00004  -0.00045
  27        3PY        -0.00162   0.00199   0.13134   0.00004   0.00073
  28        3PZ         0.00011   0.00008   0.00012   0.10303  -0.00022
  29        4S         -0.11576   0.01440   0.02414   0.00025   0.27818
  30        4PX        -0.00155   0.07290  -0.00511   0.00017   0.00651
  31        4PY        -0.00232  -0.00503   0.06673   0.00032   0.01026
  32        4PZ        -0.00005   0.00030   0.00053   0.09573   0.00029
  33 5   H  1S         -0.03207  -0.03334   0.06353  -0.00048   0.08577
  34        2S         -0.03556  -0.04947   0.08852  -0.00039   0.09514
  35        3S         -0.00065  -0.02240   0.03349  -0.00004   0.00577
  36 6   H  1S         -0.03151   0.07083   0.00271  -0.00043   0.08427
  37        2S         -0.03544   0.10107   0.00108  -0.00032   0.09477
  38        3S         -0.00081   0.04052  -0.00289  -0.00002   0.00605
                          26        27        28        29        30
  26        3PX         0.20011
  27        3PY        -0.00275   0.19720
  28        3PZ         0.00005   0.00005   0.16490
  29        4S          0.02642   0.04391   0.00031   0.18717
  30        4PX         0.11420  -0.01076   0.00027   0.01644   0.06627
  31        4PY        -0.01071   0.10074   0.00051   0.02583  -0.01040
  32        4PZ         0.00038   0.00068   0.15322   0.00076   0.00042
  33 5   H  1S         -0.05349   0.09949  -0.00079   0.06740  -0.03436
  34        2S         -0.07982   0.13812  -0.00064   0.07801  -0.05179
  35        3S         -0.03661   0.05158  -0.00006   0.00951  -0.02400
  36 6   H  1S          0.11207   0.00337  -0.00072   0.06778   0.06557
  37        2S          0.15974  -0.00022  -0.00055   0.07991   0.09389
  38        3S          0.06372  -0.00609  -0.00003   0.01068   0.03776
                          31        32        33        34        35
  31        4PY         0.05300
  32        4PZ         0.00080   0.14238
  33 5   H  1S          0.05547  -0.00041   0.08073
  34        2S          0.07710  -0.00018   0.10998   0.15224
  35        3S          0.02890   0.00006   0.03797   0.05510   0.02275
  36 6   H  1S         -0.00192  -0.00038  -0.01248  -0.02589  -0.01976
  37        2S         -0.00614  -0.00014  -0.02602  -0.04798  -0.03139
  38        3S         -0.00625   0.00007  -0.02002  -0.03156  -0.01555
                          36        37        38
  36 6   H  1S          0.07957
  37        2S          0.10951   0.15305
  38        3S          0.03829   0.05599   0.02327
    Full Mulliken population analysis:
                           1         2         3         4         5
   1 1   C  1S          0.65941
   2        2S          0.49328   0.49205
   3        2PX         0.00000   0.00000   0.08455
   4        2PY         0.00000   0.00000   0.00000   0.08778
   5        2PZ         0.00000   0.00000   0.00000   0.00000   0.06446
   6        3S         -0.02929  -0.06446   0.00000   0.00000   0.00000
   7        3PX         0.00000   0.00000   0.08226   0.00000   0.00000
   8        3PY         0.00000   0.00000   0.00000   0.08262   0.00000
   9        3PZ         0.00000   0.00000   0.00000   0.00000   0.06522
  10        4S         -0.01219  -0.02136   0.00000   0.00000   0.00000
  11        4PX         0.00000   0.00000   0.01552   0.00000   0.00000
  12        4PY         0.00000   0.00000   0.00000   0.01446   0.00000
  13        4PZ         0.00000   0.00000   0.00000   0.00000   0.02109
  14 2   H  1S         -0.00023  -0.00033   0.00176   0.00562   0.00000
  15        2S         -0.00165  -0.00316   0.00425   0.01326   0.00000
  16        3S          0.00004  -0.00007   0.00070   0.00192   0.00000
  17 3   H  1S         -0.00026  -0.00037   0.00799   0.00000   0.00000
  18        2S         -0.00174  -0.00332   0.01781   0.00001   0.00000
  19        3S          0.00005  -0.00006   0.00256  -0.00000   0.00000
  20 4   C  1S          0.00000   0.00000  -0.00002  -0.00006   0.00000
  21        2S          0.00000  -0.00000  -0.00002  -0.00006   0.00000
  22        2PX        -0.00002  -0.00002   0.00011   0.00087   0.00000
  23        2PY        -0.00006  -0.00005   0.00087   0.00199   0.00000
  24        2PZ        -0.00000  -0.00000  -0.00000  -0.00000   0.00042
  25        3S         -0.00060  -0.00101   0.00256   0.00768  -0.00000
  26        3PX        -0.00055  -0.00101   0.00019   0.00557   0.00000
  27        3PY        -0.00166  -0.00304   0.00557   0.01070   0.00000
  28        3PZ        -0.00000  -0.00000  -0.00000  -0.00000   0.00617
  29        4S          0.00034   0.00030   0.00093   0.00281  -0.00000
  30        4PX        -0.00018  -0.00046  -0.00071   0.00144   0.00000
  31        4PY        -0.00053  -0.00135   0.00145   0.00095   0.00000
  32        4PZ        -0.00000  -0.00000  -0.00000  -0.00000   0.00904
  33 5   H  1S          0.00000   0.00000  -0.00000  -0.00000   0.00000
  34        2S          0.00001   0.00002   0.00000  -0.00032   0.00000
  35        3S          0.00008   0.00013   0.00001  -0.00071  -0.00000
  36 6   H  1S          0.00000   0.00000  -0.00000  -0.00000   0.00000
  37        2S          0.00001   0.00002  -0.00024  -0.00007   0.00000
  38        3S          0.00007   0.00013  -0.00057  -0.00012  -0.00000
                           6         7         8         9        10
   6        3S          0.45268
   7        3PX         0.00000   0.20253
   8        3PY         0.00000   0.00000   0.19698
   9        3PZ         0.00000   0.00000   0.00000   0.16671
  10        4S          0.21136   0.00000   0.00000   0.00000   0.18129
  11        4PX         0.00000   0.07155   0.00000   0.00000   0.00000
  12        4PY         0.00000   0.00000   0.06467   0.00000   0.00000
  13        4PZ         0.00000   0.00000   0.00000   0.10065   0.00000
  14 2   H  1S          0.01593   0.01052   0.03255   0.00000   0.01821
  15        2S          0.04084   0.01929   0.05796   0.00000   0.04671
  16        3S          0.00280   0.00396   0.01030   0.00000   0.00839
  17 3   H  1S          0.01708   0.04458   0.00001   0.00000   0.01845
  18        2S          0.04242   0.07747   0.00000   0.00000   0.04619
  19        3S          0.00283   0.01389  -0.00001   0.00000   0.00748
  20 4   C  1S         -0.00061  -0.00058  -0.00173   0.00000   0.00033
  21        2S         -0.00102  -0.00106  -0.00318   0.00000   0.00030
  22        2PX         0.00245   0.00018   0.00555   0.00000   0.00082
  23        2PY         0.00741   0.00556   0.01067   0.00000   0.00247
  24        2PZ         0.00000  -0.00000  -0.00000   0.00620   0.00000
  25        3S          0.02210   0.01343   0.04032  -0.00000   0.00044
  26        3PX         0.01271  -0.00128   0.01850   0.00000   0.00415
  27        3PY         0.03836   0.01851   0.02839   0.00000   0.01250
  28        3PZ         0.00000  -0.00000  -0.00000   0.03555   0.00000
  29        4S          0.00068   0.00475   0.01444  -0.00000  -0.02039
  30        4PX         0.00640  -0.00401   0.00578   0.00000   0.00211
  31        4PY         0.01898   0.00581   0.00118   0.00000   0.00591
  32        4PZ         0.00000  -0.00000  -0.00000   0.04936   0.00000
  33 5   H  1S         -0.00006  -0.00000  -0.00019   0.00000  -0.00082
  34        2S         -0.00124   0.00006  -0.00326  -0.00000  -0.00335
  35        3S         -0.00204   0.00010  -0.00427  -0.00000  -0.00135
  36 6   H  1S         -0.00005  -0.00013  -0.00005   0.00000  -0.00081
  37        2S         -0.00118  -0.00255  -0.00052  -0.00000  -0.00340
  38        3S         -0.00198  -0.00355  -0.00055  -0.00000  -0.00152
                          11        12        13        14        15
  11        4PX         0.06026
  12        4PY         0.00000   0.05128
  13        4PZ         0.00000   0.00000   0.14232
  14 2   H  1S          0.00624   0.01767   0.00000   0.08119
  15        2S          0.01524   0.04120   0.00000   0.07739   0.14994
  16        3S          0.00524   0.01198  -0.00000   0.01379   0.04166
  17 3   H  1S          0.02371  -0.00001   0.00000  -0.00001  -0.00068
  18        2S          0.05508  -0.00004   0.00000  -0.00068  -0.00556
  19        3S          0.01652  -0.00003  -0.00000  -0.00206  -0.00817
  20 4   C  1S         -0.00018  -0.00057   0.00000   0.00000   0.00002
  21        2S         -0.00046  -0.00143   0.00000   0.00000   0.00003
  22        2PX        -0.00071   0.00138   0.00000  -0.00000   0.00000
  23        2PY         0.00139   0.00094   0.00000  -0.00000  -0.00035
  24        2PZ        -0.00000  -0.00000   0.00903   0.00000   0.00000
  25        3S          0.00645   0.01998  -0.00000  -0.00007  -0.00145
  26        3PX        -0.00417   0.00557   0.00000  -0.00000   0.00004
  27        3PY         0.00560   0.00118   0.00000  -0.00022  -0.00351
  28        3PZ        -0.00000  -0.00000   0.04908   0.00000   0.00000
  29        4S          0.00228   0.00763  -0.00000  -0.00100  -0.00422
  30        4PX        -0.00713   0.00310   0.00000   0.00002   0.00019
  31        4PY         0.00313  -0.00562   0.00000  -0.00241  -0.01016
  32        4PZ        -0.00000  -0.00000   0.08953   0.00000  -0.00000
  33 5   H  1S          0.00002  -0.00236   0.00000   0.00000   0.00000
  34        2S          0.00026  -0.00994  -0.00000   0.00000   0.00016
  35        3S          0.00028  -0.00735  -0.00000   0.00023   0.00146
  36 6   H  1S         -0.00177  -0.00048   0.00000  -0.00000  -0.00004
  37        2S         -0.00833  -0.00104  -0.00000  -0.00004  -0.00091
  38        3S         -0.00661  -0.00029  -0.00000  -0.00046  -0.00248
                          16        17        18        19        20
  16        3S          0.02125
  17 3   H  1S         -0.00208   0.08271
  18        2S         -0.00821   0.07767   0.14835
  19        3S         -0.00688   0.01354   0.04039   0.02031
  20 4   C  1S          0.00009   0.00000   0.00002   0.00009   0.65947
  21        2S          0.00016   0.00000   0.00003   0.00016   0.49329
  22        2PX         0.00001  -0.00000  -0.00028  -0.00058   0.00000
  23        2PY        -0.00073  -0.00000  -0.00008  -0.00013   0.00000
  24        2PZ        -0.00000   0.00000   0.00000  -0.00000   0.00000
  25        3S         -0.00239  -0.00007  -0.00148  -0.00239  -0.02936
  26        3PX         0.00007  -0.00016  -0.00287  -0.00363   0.00000
  27        3PY        -0.00440  -0.00007  -0.00063  -0.00063   0.00000
  28        3PZ        -0.00000   0.00000   0.00000  -0.00000   0.00000
  29        4S         -0.00209  -0.00100  -0.00410  -0.00190  -0.01232
  30        4PX         0.00020  -0.00186  -0.00868  -0.00671   0.00000
  31        4PY        -0.00747  -0.00057  -0.00133  -0.00046   0.00000
  32        4PZ        -0.00000   0.00000  -0.00000  -0.00000   0.00000
  33 5   H  1S          0.00023  -0.00000  -0.00004  -0.00043  -0.00021
  34        2S          0.00144  -0.00004  -0.00091  -0.00238  -0.00159
  35        3S          0.00247  -0.00046  -0.00245  -0.00289   0.00004
  36 6   H  1S         -0.00043   0.00000   0.00000   0.00022  -0.00020
  37        2S         -0.00241   0.00000   0.00015   0.00141  -0.00154
  38        3S         -0.00295   0.00023   0.00145   0.00243   0.00003
                          21        22        23        24        25
  21        2S          0.49204
  22        2PX         0.00000   0.08238
  23        2PY         0.00000   0.00000   0.08773
  24        2PZ         0.00000   0.00000   0.00000   0.06437
  25        3S         -0.06455   0.00000   0.00000   0.00000   0.45332
  26        3PX         0.00000   0.08070   0.00000   0.00000   0.00000
  27        3PY         0.00000   0.00000   0.08263   0.00000   0.00000
  28        3PZ         0.00000   0.00000   0.00000   0.06482   0.00000
  29        4S         -0.02166   0.00000   0.00000   0.00000   0.21550
  30        4PX         0.00000   0.01606   0.00000   0.00000   0.00000
  31        4PY         0.00000   0.00000   0.01470   0.00000   0.00000
  32        4PZ         0.00000   0.00000   0.00000   0.02108   0.00000
  33 5   H  1S         -0.00030   0.00150   0.00565   0.00000   0.01539
  34        2S         -0.00304   0.00385   0.01362   0.00000   0.03953
  35        3S         -0.00006   0.00067   0.00200   0.00000   0.00264
  36 6   H  1S         -0.00027   0.00668   0.00001   0.00000   0.01465
  37        2S         -0.00295   0.01715   0.00001   0.00000   0.03868
  38        3S         -0.00008   0.00271  -0.00001   0.00000   0.00275
                          26        27        28        29        30
  26        3PX         0.20011
  27        3PY         0.00000   0.19720
  28        3PZ         0.00000   0.00000   0.16490
  29        4S          0.00000   0.00000   0.00000   0.18717
  30        4PX         0.07463   0.00000   0.00000   0.00000   0.06627
  31        4PY         0.00000   0.06583   0.00000   0.00000   0.00000
  32        4PZ         0.00000   0.00000   0.10013   0.00000   0.00000
  33 5   H  1S          0.00905   0.03332   0.00000   0.01767   0.00579
  34        2S          0.01749   0.05990   0.00000   0.04467   0.01473
  35        3S          0.00385   0.01074   0.00000   0.00715   0.00536
  36 6   H  1S          0.04108   0.00007   0.00000   0.01756   0.02444
  37        2S          0.07691  -0.00001   0.00000   0.04533   0.05920
  38        3S          0.01488  -0.00008   0.00000   0.00798   0.01878
                          31        32        33        34        35
  31        4PY         0.05300
  32        4PZ         0.00000   0.14238
  33 5   H  1S          0.01852   0.00000   0.08073
  34        2S          0.04341   0.00000   0.07769   0.15224
  35        3S          0.01279  -0.00000   0.01419   0.04347   0.02275
  36 6   H  1S         -0.00004   0.00000  -0.00001  -0.00076  -0.00229
  37        2S         -0.00022   0.00000  -0.00076  -0.00644  -0.00945
  38        3S         -0.00018  -0.00000  -0.00232  -0.00950  -0.00825
                          36        37        38
  36 6   H  1S          0.07957
  37        2S          0.07736   0.15305
  38        3S          0.01431   0.04417   0.02327
     Gross orbital populations:
                           1
   1 1   C  1S          1.10435
   2        2S          0.88586
   3        2PX         0.22754
   4        2PY         0.23634
   5        2PZ         0.16641
   6        3S          0.79311
   7        3PX         0.56129
   8        3PY         0.55618
   9        3PZ         0.42371
  10        4S          0.50193
  11        4PX         0.25942
  12        4PY         0.21187
  13        4PZ         0.41172
  14 2   H  1S          0.27365
  15        2S          0.46729
  16        3S          0.08655
  17 3   H  1S          0.27834
  18        2S          0.46463
  19        3S          0.08254
  20 4   C  1S          1.10441
  21        2S          0.88584
  22        2PX         0.22145
  23        2PY         0.23622
  24        2PZ         0.16593
  25        3S          0.79205
  26        3PX         0.55182
  27        3PY         0.55624
  28        3PZ         0.42066
  29        4S          0.50850
  30        4PX         0.27475
  31        4PY         0.21529
  32        4PZ         0.41153
  33 5   H  1S          0.27223
  34        2S          0.46979
  35        3S          0.08884
  36 6   H  1S          0.26863
  37        2S          0.47140
  38        3S          0.09169
          Condensed to atoms (all electrons):
               1          2          3          4          5          6
     1  C    5.033046   0.387170   0.388295   0.603017  -0.036258  -0.035557
     2  H    0.387170   0.518050  -0.034331  -0.039661   0.005993  -0.009726
     3  H    0.388295  -0.034331   0.514585  -0.039346  -0.009599   0.005900
     4  C    0.603017  -0.039661  -0.039346   5.053248   0.384115   0.383327
     5  H   -0.036258   0.005993  -0.009599   0.384115   0.526404  -0.039789
     6  H   -0.035557  -0.009726   0.005900   0.383327  -0.039789   0.527565
 Mulliken charges:
               1
     1  C   -0.339714
     2  H    0.172505
     3  H    0.174496
     4  C   -0.344700
     5  H    0.169132
     6  H    0.168280
 Sum of Mulliken charges =  -0.00000
 Mulliken charges with hydrogens summed into heavy atoms:
               1
     1  C    0.007287
     4  C   -0.007287
 Electronic spatial extent (au):  <R**2>=             83.6971
 Charge=             -0.0000 electrons
 Dipole moment (field-independent basis, Debye):
    X=             -0.0059    Y=              0.0136    Z=             -0.0392  Tot=              0.0419
 Quadrupole moment (field-independent basis, Debye-Ang):
   XX=            -12.2079   YY=            -12.2068   ZZ=            -15.6684
   XY=              0.0255   XZ=              0.0001   YZ=             -0.0012
 Traceless Quadrupole moment (field-independent basis, Debye-Ang):
   XX=              1.1531   YY=              1.1542   ZZ=             -2.3073
   XY=              0.0255   XZ=              0.0001   YZ=             -0.0012
 Octapole moment (field-independent basis, Debye-Ang**2):
  XXX=             -0.3029  YYY=             -0.0701  ZZZ=             -0.0651  XYY=              0.1114
  XXY=             -0.0384  XXZ=             -0.0634  XZZ=             -0.0990  YZZ=             -0.0801
  YYZ=             -0.0801  XYZ=             -0.0146
 Hexadecapole moment (field-independent basis, Debye-Ang**3):
 XXXX=            -34.2874 YYYY=            -55.1484 ZZZZ=            -17.7849 XXXY=             -7.2135
 XXXZ=              0.0062 YYYX=            -10.6854 YYYZ=              0.0094 ZZZX=              0.0082
 ZZZY=              0.0154 XXYY=            -16.1904 XXZZ=             -9.9279 YYZZ=            -13.6430
 XXYZ=              0.0036 YYXZ=              0.0010 ZZXY=             -3.2010
 N-N= 3.308266493609D+01 E-N=-2.478776603719D+02  KE= 7.815358059616D+01
 Orbital energies and kinetic energies (alpha):
                                 1                 2
   1         O               -10.290644         15.978776
   2         O               -10.287503         15.979420
   3         O                -0.864148          1.541863
   4         O                -0.671928          1.270066
   5         O                -0.558878          0.941956
   6         O                -0.510170          1.283529
   7         O                -0.435877          1.041921
   8         O                -0.357327          1.039259
   9         V                 0.080537          1.181229
  10         V                 0.140986          0.589633
  11         V                 0.164374          0.596971
  12         V                 0.169887          0.679986
  13         V                 0.240851          0.583427
  14         V                 0.376425          0.855033
  15         V                 0.392334          0.931572
  16         V                 0.397831          0.774718
  17         V                 0.463150          1.192660
  18         V                 0.487888          1.422324
  19         V                 0.493466          1.300075
  20         V                 0.591269          1.653911
  21         V                 0.665148          1.570934
  22         V                 0.690709          2.146806
  23         V                 0.772340          2.460135
  24         V                 0.776385          2.276760
  25         V                 0.844833          1.088762
  26         V                 0.954261          3.438557
  27         V                 2.231925          3.923102
  28         V                 2.289149          4.032838
  29         V                 2.333313          4.301344
  30         V                 2.407840          4.520661
  31         V                 2.671508          6.301882
  32         V                 2.818182          6.307880
  33         V                 2.877818          6.132393
  34         V                 2.951584          6.227241
  35         V                 3.142100          6.822346
  36         V                 3.318958          6.400324
  37         V                23.351438         60.073599
  38         V                23.707797         60.205403
 Total kinetic energy from orbitals= 7.815358059616D+01
 Calling FoFJK, ICntrl=      2127 FMM=F ISym2X=0 I1Cent= 0 IOpClX= 0 NMat=1 NMatS=1 NMatT=0.
 -------------------------------------------------------------------
 Center     Atomic                   Forces (Hartrees/Bohr)
 Number     Number              X              Y              Z
 -------------------------------------------------------------------
      1        6           0.012589356    0.003584308   -0.001603230
      2        1          -0.008345973    0.007190726    0.000817674
      3        1           0.000940617   -0.003194825    0.000730709
      4        6           0.011837423    0.010898777   -0.001729845
      5        1           0.003081418   -0.013621453    0.000863399
      6        1          -0.020102842   -0.004857532    0.000921293
 -------------------------------------------------------------------
 Cartesian Forces:  Max     0.020102842 RMS     0.008143911

 GradGradGradGradGradGradGradGradGradGradGradGradGradGradGradGradGradGrad
 Berny optimization.
 Search for a local minimum.
 Step number   1 out of a maximum of    2
 All quantities printed in internal units (Hartrees-Bohrs-Radians)
 Second derivative matrix not updated -- first step.
 The second derivative matrix:
                          X1        Y1        Z1        X2        Y2
           X1           0.76153
           Y1           0.10405   0.86454
           Z1           0.00235   0.00348   0.17375
           X2          -0.16181   0.09443   0.00082   0.13934
           Y2           0.10099  -0.28443  -0.00295  -0.11384   0.27334
           Z2           0.00130  -0.00372  -0.05552  -0.00117   0.00307
           X3          -0.35546  -0.00356  -0.00329  -0.00048  -0.00027
           Y3          -0.00992  -0.11051  -0.00079   0.03267   0.01867
           Z3          -0.00421  -0.00077  -0.05697   0.00060   0.00021
           X4          -0.26923  -0.18050  -0.00028   0.02296   0.01313
           Y4          -0.18099  -0.47775  -0.00045  -0.01326  -0.00758
           Z4           0.00054   0.00098  -0.09563  -0.00024  -0.00033
           X5           0.02346  -0.01355   0.00025  -0.00000   0.00000
           Y5           0.01185  -0.00684   0.00034   0.00000  -0.00000
           Z5          -0.00022   0.00014   0.01753   0.00010  -0.00005
           X6           0.00151  -0.00087   0.00016  -0.00000   0.00000
           Y6          -0.02597   0.01499   0.00037   0.00000  -0.00000
           Z6           0.00023  -0.00012   0.01684  -0.00010   0.00005
                          Z2        X3        Y3        Z3        X4
           Z2           0.02876
           X3          -0.00013   0.35555
           Y3           0.00064   0.00406   0.07636
           Z3           0.01058   0.00360   0.00055   0.02980
           X4           0.00020   0.00039  -0.02681  -0.00019   0.71070
           Y4          -0.00011  -0.00023   0.01548   0.00012   0.12201
           Z4           0.01609  -0.00018  -0.00040   0.01668  -0.00202
           X5          -0.00010  -0.00000   0.00000   0.00010  -0.14729
           Y5           0.00006   0.00000  -0.00000  -0.00007   0.09278
           Z5           0.00938   0.00011  -0.00007  -0.00957  -0.00124
           X6          -0.00010  -0.00000   0.00000   0.00010  -0.31753
           Y6           0.00005   0.00000  -0.00000  -0.00005  -0.02061
           Z6          -0.00930  -0.00011   0.00007   0.00948   0.00354
                          Y4        Z4        X5        Y5        Z5
           Y4           0.86186
           Z4          -0.00398   0.17629
           X5           0.08490  -0.00083   0.12571
           Y5          -0.28805   0.00296  -0.10368   0.27856
           Z5           0.00367  -0.05715   0.00112  -0.00316   0.02960
           X6          -0.01243   0.00272  -0.00188  -0.00095   0.00014
           Y6          -0.10396   0.00076   0.03233   0.01633  -0.00053
           Z6           0.00075  -0.05627  -0.00054  -0.00015   0.01020
                          X6        Y6        Z6
           X6           0.31790
           Y6           0.01425   0.07264
           Z6          -0.00302  -0.00061   0.02904
 ITU=  0
     Eigenvalues ---    0.03773   0.04380   0.09475   0.09885   0.13541
     Eigenvalues ---    0.17404   0.26728   0.28869   0.52828   0.69755
     Eigenvalues ---    0.97304   1.57448
 Angle between quadratic step and forces=  31.68 degrees.
 Linear search not attempted -- first point.
 B after Tr=     0.006153    0.005712   -0.003994
         Rot=    1.000000   -0.000014    0.000007   -0.000106 Ang=  -0.01 deg.
 Variable       Old X    -DE/DX   Delta X   Delta X   Delta X     New X
                                 (Linear)    (Quad)   (Total)
    X1       -0.63357   0.01259   0.00000   0.01853   0.02491  -0.60866
    Y1       -1.09555   0.00358   0.00000   0.01756   0.02314  -1.07241
    Z1        0.00670  -0.00160   0.00000  -0.00846  -0.01249  -0.00579
    X2        0.39678  -0.00835   0.00000  -0.02635  -0.01959   0.37719
    Y2       -2.89756   0.00719   0.00000   0.02705   0.03284  -2.86473
    Z2       -0.01505   0.00082   0.00000   0.01034   0.00627  -0.00877
    X3       -2.68090   0.00094   0.00000   0.02125   0.02765  -2.65326
    Y3       -1.12539  -0.00319   0.00000  -0.00957  -0.00443  -1.12982
    Z3       -0.01594   0.00073   0.00000   0.01019   0.00612  -0.00981
    X4        0.62850   0.01184   0.00000   0.00693   0.01285   0.64135
    Y4        1.09004   0.01090   0.00000   0.00610   0.01194   1.10198
    Z4        0.00533  -0.00173   0.00000  -0.00807  -0.01202  -0.00670
    X5       -0.31329   0.00308   0.00000  -0.00254   0.00299  -0.31030
    Y5        2.95433  -0.01362   0.00000  -0.04435  -0.03871   2.91562
    Z5       -0.01768   0.00086   0.00000   0.01006   0.00614  -0.01154
    X6        2.73557  -0.02010   0.00000  -0.05471  -0.04881   2.68676
    Y6        1.21206  -0.00486   0.00000  -0.03107  -0.02479   1.18727
    Z6       -0.01687   0.00092   0.00000   0.00990   0.00598  -0.01089
         Item               Value     Threshold  Converged?
 Maximum Force            0.020103     0.000450     NO 
 RMS     Force            0.008144     0.000300     NO 
 Maximum Displacement     0.048806     0.001800     NO 
 RMS     Displacement     0.021940     0.001200     NO 
 Predicted change in Energy=-1.408974D-03
 GradGradGradGradGradGradGradGradGradGradGradGradGradGradGradGradGradGrad

 Unable to Open any file for archive entry.
 1\1\GINC-BHD0002\Force\RwB97XD\6-311G\C2H4\BWEIGHT\11-Jan-2023\0\\# WB
 97XD/6-311G SCF=XQC FORCE nosym pop=full guess=read\\MD Step 999\\0,1\
 C,-0.33526904,-0.57974008,0.00354707\H,0.20996495,-1.5333253,-0.007962
 87\H,-1.41867249,-0.59553265,-0.00843299\C,0.33258897,0.57682494,0.002
 81809\H,-0.16578798,1.56336484,-0.00935825\H,1.44760175,0.64139588,-0.
 00892628\\Version=ES64L-G16RevC.01\HF=-78.5560131\RMSD=5.117e-09\RMSF=
 8.144e-03\Dipole=-0.0023276,0.0053466,-0.0154252\Quadrupole=0.8573265,
 0.8581253,-1.7154518,0.0189343,0.0000757,-0.000886\PG=C01 [X(C2H4)]\\@
 The archive entry for this job was punched.


 THE RARE EARTHS PERPLEX US IN OUR RESEARCHES,
 BAFFLE US IN OUR SPECULATIONS, AND HAUNT US IN OUR
 VERY DREAMS.  THEY STRETCH LIKE AN UNKNOWN BEFORE US,
 MOCKING, MYSTIFYING, AND MURMURING STRANGE REVELATIONS
 AND POSSIBILITIES.  -- SIR WILLIAM CROOKE, 1832-1919
 Job cpu time:       0 days  0 hours  0 minutes 31.8 seconds.
 Elapsed time:       0 days  0 hours  0 minutes 11.3 seconds.
 File lengths (MBytes):  RWF=    272 Int=      0 D2E=      0 Chk=     32 Scr=     32
 Normal termination of Gaussian 16 at Wed Jan 11 18:45:28 2023.
