 Entering Gaussian System, Link 0=g16
 Initial command:
 /software/gaussian/g16-c01/avx2/g16/l1.exe "/gpfs/fs2/scratch/bweight/software/many_molecule_many_mode_NAMD/src/NAMD/TEST_NVT/TRAJ/traj-59/G16/GS_NEW/Gau-24949.inp" -scrdir="/gpfs/fs2/scratch/bweight/software/many_molecule_many_mode_NAMD/src/NAMD/TEST_NVT/TRAJ/traj-59/G16/GS_NEW/"
 Entering Link 1 = /software/gaussian/g16-c01/avx2/g16/l1.exe PID=     24950.
  
 Copyright (c) 1988-2019, Gaussian, Inc.  All Rights Reserved.
  
 This is part of the Gaussian(R) 16 program.  It is based on
 the Gaussian(R) 09 system (copyright 2009, Gaussian, Inc.),
 the Gaussian(R) 03 system (copyright 2003, Gaussian, Inc.),
 the Gaussian(R) 98 system (copyright 1998, Gaussian, Inc.),
 the Gaussian(R) 94 system (copyright 1995, Gaussian, Inc.),
 the Gaussian 92(TM) system (copyright 1992, Gaussian, Inc.),
 the Gaussian 90(TM) system (copyright 1990, Gaussian, Inc.),
 the Gaussian 88(TM) system (copyright 1988, Gaussian, Inc.),
 the Gaussian 86(TM) system (copyright 1986, Carnegie Mellon
 University), and the Gaussian 82(TM) system (copyright 1983,
 Carnegie Mellon University). Gaussian is a federally registered
 trademark of Gaussian, Inc.
  
 This software contains proprietary and confidential information,
 including trade secrets, belonging to Gaussian, Inc.
  
 This software is provided under written license and may be
 used, copied, transmitted, or stored only in accord with that
 written license.
  
 The following legend is applicable only to US Government
 contracts under FAR:
  
                    RESTRICTED RIGHTS LEGEND
  
 Use, reproduction and disclosure by the US Government is
 subject to restrictions as set forth in subparagraphs (a)
 and (c) of the Commercial Computer Software - Restricted
 Rights clause in FAR 52.227-19.
  
 Gaussian, Inc.
 340 Quinnipiac St., Bldg. 40, Wallingford CT 06492
  
  
 ---------------------------------------------------------------
 Warning -- This program may not be used in any manner that
 competes with the business of Gaussian, Inc. or will provide
 assistance to any competitor of Gaussian, Inc.  The licensee
 of this program is prohibited from giving any competitor of
 Gaussian, Inc. access to this program.  By using this program,
 the user acknowledges that Gaussian, Inc. is engaged in the
 business of creating and licensing software in the field of
 computational chemistry and represents and warrants to the
 licensee that it is not a competitor of Gaussian, Inc. and that
 it will not use this program in any manner prohibited above.
 ---------------------------------------------------------------
  

 Cite this work as:
 Gaussian 16, Revision C.01,
 M. J. Frisch, G. W. Trucks, H. B. Schlegel, G. E. Scuseria, 
 M. A. Robb, J. R. Cheeseman, G. Scalmani, V. Barone, 
 G. A. Petersson, H. Nakatsuji, X. Li, M. Caricato, A. V. Marenich, 
 J. Bloino, B. G. Janesko, R. Gomperts, B. Mennucci, H. P. Hratchian, 
 J. V. Ortiz, A. F. Izmaylov, J. L. Sonnenberg, D. Williams-Young, 
 F. Ding, F. Lipparini, F. Egidi, J. Goings, B. Peng, A. Petrone, 
 T. Henderson, D. Ranasinghe, V. G. Zakrzewski, J. Gao, N. Rega, 
 G. Zheng, W. Liang, M. Hada, M. Ehara, K. Toyota, R. Fukuda, 
 J. Hasegawa, M. Ishida, T. Nakajima, Y. Honda, O. Kitao, H. Nakai, 
 T. Vreven, K. Throssell, J. A. Montgomery, Jr., J. E. Peralta, 
 F. Ogliaro, M. J. Bearpark, J. J. Heyd, E. N. Brothers, K. N. Kudin, 
 V. N. Staroverov, T. A. Keith, R. Kobayashi, J. Normand, 
 K. Raghavachari, A. P. Rendell, J. C. Burant, S. S. Iyengar, 
 J. Tomasi, M. Cossi, J. M. Millam, M. Klene, C. Adamo, R. Cammi, 
 J. W. Ochterski, R. L. Martin, K. Morokuma, O. Farkas, 
 J. B. Foresman, and D. J. Fox, Gaussian, Inc., Wallingford CT, 2019.
 
 ******************************************
 Gaussian 16:  ES64L-G16RevC.01  3-Jul-2019
                11-Jan-2023 
 ******************************************
 %oldchk=../GS_OLD/geometry.chk
 %chk=geometry.chk
 %nprocshared=4
 Will use up to    4 processors via shared memory.
 %mem=5GB
 Copying data from "../GS_OLD/geometry.chk" to current chk file "geometry.chk"
 IOpt=  2 FromEx=T IUOpen= 4 IOptOp= 5 NList=   0 IFRang= 0 IUIn= 4 IUOut= 2.
 -------------------------------------------------------
 # WB97XD/6-311G SCF=XQC FORCE nosym pop=full guess=read
 -------------------------------------------------------
 1/10=7,30=1,38=1/1,3;
 2/12=2,15=1,17=6,18=5,40=1/2;
 3/5=4,6=6,11=2,25=1,30=1,71=1,74=-58,116=-2/1,2,3;
 4/5=1/1;
 5/5=2,8=3,13=1,38=6/2,8;
 6/7=3,28=1/1;
 7/29=1,30=1/1,2,3,16;
 1/10=7,30=1/3;
 99//99;
 -----------
 MD Step 999
 -----------
 Symbolic Z-matrix:
 Charge =  0 Multiplicity = 1
 C                    -0.33466  -0.57927   0.00347 
 H                     0.20363  -1.53452  -0.00755 
 H                    -1.42077  -0.6017   -0.00804 
 C                     0.3334    0.57765   0.00274 
 H                    -0.17458   1.56312  -0.00875 
 H                     1.4481    0.63387  -0.00833 
 

 GradGradGradGradGradGradGradGradGradGradGradGradGradGradGradGradGradGrad
 Berny optimization.
 Initialization pass.
 Trust Radius=3.00D-01 FncErr=1.00D-07 GrdErr=1.00D-07 EigMax=2.50D+02 EigMin=1.00D-04
 Number of steps in this run=      2 maximum allowed number of steps=      2.
 GradGradGradGradGradGradGradGradGradGradGradGradGradGradGradGradGradGrad

                          Input orientation:                          
 ---------------------------------------------------------------------
 Center     Atomic      Atomic             Coordinates (Angstroms)
 Number     Number       Type             X           Y           Z
 ---------------------------------------------------------------------
      1          6           0       -0.334656   -0.579273    0.003471
      2          1           0        0.203625   -1.534521   -0.007551
      3          1           0       -1.420769   -0.601701   -0.008044
      4          6           0        0.333398    0.577647    0.002744
      5          1           0       -0.174584    1.563116   -0.008746
      6          1           0        1.448103    0.633867   -0.008330
 ---------------------------------------------------------------------
                    Distance matrix (angstroms):
                    1          2          3          4          5
     1  C    0.000000
     2  H    1.096524   0.000000
     3  H    1.086405   1.873181   0.000000
     4  C    1.335949   2.116175   2.113782   0.000000
     5  H    2.148396   3.120641   2.497881   1.108751   0.000000
     6  H    2.156404   2.500126   3.123628   1.116177   1.869925
                    6
     6  H    0.000000
 Symmetry turned off by external request.
 Stoichiometry    C2H4
 Framework group  C1[X(C2H4)]
 Deg. of freedom    12
 Full point group                 C1      NOp   1
 Rotational constants (GHZ):         143.1413163          29.7204090          24.6115795
 Standard basis: 6-311G (5D, 7F)
    38 basis functions,    72 primitive gaussians,    38 cartesian basis functions
     8 alpha electrons        8 beta electrons
       nuclear repulsion energy        33.0668592626 Hartrees.
 NAtoms=    6 NActive=    6 NUniq=    6 SFac= 1.00D+00 NAtFMM=   60 NAOKFM=F Big=F
 Integral buffers will be    131072 words long.
 Raffenetti 2 integral format.
 Two-electron integral symmetry is turned off.
 Nuclear repulsion after empirical dispersion term =       33.0660183255 Hartrees.
 One-electron integrals computed using PRISM.
 NBasis=    38 RedAO= T EigKep=  6.39D-03  NBF=    38
 NBsUse=    38 1.00D-06 EigRej= -1.00D+00 NBFU=    38
 Initial guess from the checkpoint file:  "geometry.chk"
 B after Tr=    -0.000208   -0.000283   -0.000423
         Rot=    1.000000   -0.000003    0.000002    0.000005 Ang=  -0.00 deg.
 Keep R1 ints in memory in canonical form, NReq=4036876.
 Requested convergence on RMS density matrix=1.00D-08 within  32 cycles.
 Requested convergence on MAX density matrix=1.00D-06.
 Requested convergence on             energy=1.00D-06.
 No special actions if energy rises.
 SCF Done:  E(RwB97XD) =  -78.5561418433     A.U. after    8 cycles
            NFock=  8  Conv=0.51D-08     -V/T= 2.0052
 QCSCF skips out because SCF is already converged.

 **********************************************************************

            Population analysis using the SCF Density.

 **********************************************************************

 Alpha  occ. eigenvalues --  -10.29108 -10.28751  -0.86397  -0.67157  -0.55868
 Alpha  occ. eigenvalues --   -0.50989  -0.43603  -0.35726
 Alpha virt. eigenvalues --    0.08047   0.14085   0.16418   0.16981   0.24080
 Alpha virt. eigenvalues --    0.37743   0.39240   0.39604   0.46317   0.48732
 Alpha virt. eigenvalues --    0.49349   0.59120   0.66492   0.69021   0.77197
 Alpha virt. eigenvalues --    0.77634   0.84529   0.95395   2.23228   2.28920
 Alpha virt. eigenvalues --    2.33270   2.40741   2.67137   2.81817   2.87751
 Alpha virt. eigenvalues --    2.95205   3.14103   3.31847  23.35107  23.70729
     Molecular Orbital Coefficients:
                           1         2         3         4         5
                           O         O         O         O         O
     Eigenvalues --   -10.29108 -10.28751  -0.86397  -0.67157  -0.55868
   1 1   C  1S          0.07080   0.55892  -0.08856   0.06658  -0.00035
   2        2S          0.05847   0.45999  -0.13995   0.10667  -0.00057
   3        2PX         0.00016  -0.00001   0.02615   0.03809   0.13583
   4        2PY         0.00028  -0.00001   0.04642   0.06321  -0.07352
   5        2PZ         0.00000  -0.00000  -0.00047   0.00072   0.00008
   6        3S          0.00096   0.01461   0.37519  -0.29109   0.00159
   7        3PX        -0.00063   0.00040   0.03410   0.06090   0.21255
   8        3PY        -0.00109   0.00071   0.06023   0.10198  -0.11573
   9        3PZ        -0.00000  -0.00001  -0.00078   0.00127   0.00012
  10        4S          0.00416  -0.01449   0.19133  -0.22770   0.00115
  11        4PX         0.00159  -0.00145   0.00475   0.02454   0.11103
  12        4PY         0.00273  -0.00250   0.00848   0.04217  -0.06118
  13        4PZ        -0.00000   0.00003  -0.00027   0.00064   0.00006
  14 2   H  1S         -0.00005  -0.00006   0.05236  -0.08909   0.10057
  15        2S         -0.00031   0.00009   0.05351  -0.10685   0.12726
  16        3S          0.00073   0.00172  -0.00156  -0.01563   0.04127
  17 3   H  1S         -0.00005  -0.00007   0.05350  -0.09213  -0.10318
  18        2S         -0.00031   0.00007   0.05423  -0.10976  -0.12971
  19        3S          0.00075   0.00175  -0.00160  -0.01639  -0.04204
  20 4   C  1S          0.55894  -0.07099  -0.08683  -0.06851  -0.00013
  21        2S          0.46003  -0.05822  -0.13713  -0.10983  -0.00019
  22        2PX        -0.00002  -0.00016  -0.02797   0.03589   0.11998
  23        2PY        -0.00003  -0.00028  -0.04746   0.06379  -0.07419
  24        2PZ        -0.00000   0.00000  -0.00035  -0.00068   0.00008
  25        3S          0.01422  -0.00271   0.36751   0.30004   0.00052
  26        3PX        -0.00026   0.00071  -0.03536   0.05855   0.18832
  27        3PY        -0.00042   0.00124  -0.05989   0.10358  -0.11551
  28        3PZ        -0.00001  -0.00000  -0.00061  -0.00124   0.00012
  29        4S         -0.01275   0.00769   0.18901   0.23783  -0.00050
  30        4PX         0.00101  -0.00186  -0.00548   0.02537   0.10296
  31        4PY         0.00172  -0.00325  -0.00924   0.04379  -0.06251
  32        4PZ         0.00002  -0.00000  -0.00026  -0.00065   0.00006
  33 5   H  1S         -0.00005  -0.00004   0.04947   0.09182  -0.09142
  34        2S         -0.00000  -0.00031   0.05086   0.11050  -0.11590
  35        3S          0.00178   0.00026  -0.00128   0.01654  -0.03728
  36 6   H  1S         -0.00004  -0.00004   0.04849   0.09028   0.08766
  37        2S         -0.00001  -0.00032   0.05029   0.10910   0.11152
  38        3S          0.00175   0.00025  -0.00134   0.01607   0.03616
                           6         7         8         9        10
                           O         O         O         V         V
     Eigenvalues --    -0.50989  -0.43603  -0.35726   0.08047   0.14085
   1 1   C  1S         -0.00503   0.00013  -0.00035   0.00096  -0.03230
   2        2S         -0.00772   0.00023  -0.00058   0.00159  -0.05178
   3        2PX         0.09416  -0.11288  -0.00120   0.00054  -0.03165
   4        2PY         0.16701   0.06695  -0.00200   0.00087  -0.06342
   5        2PZ         0.00178  -0.00002   0.17947  -0.18905  -0.00079
   6        3S          0.02697  -0.00047   0.00169  -0.00481   0.11216
   7        3PX         0.13701  -0.17996  -0.00170   0.00083  -0.03759
   8        3PY         0.24429   0.10716  -0.00282   0.00131  -0.07848
   9        3PZ         0.00282  -0.00003   0.28855  -0.27813  -0.00125
  10        4S         -0.04507  -0.00268   0.00237  -0.00547   1.18967
  11        4PX         0.06945  -0.11241  -0.00139   0.00451  -0.19946
  12        4PY         0.12466   0.06748  -0.00232   0.00743  -0.38723
  13        4PZ         0.00162  -0.00000   0.26692  -0.69769  -0.00479
  14 2   H  1S         -0.07949  -0.11663   0.00004   0.00150  -0.01492
  15        2S         -0.10937  -0.18038   0.00072   0.00239  -0.04450
  16        3S         -0.04088  -0.08378   0.00041   0.00617  -0.81331
  17 3   H  1S         -0.07832   0.11443   0.00004   0.00151  -0.01165
  18        2S         -0.10715   0.17633   0.00072   0.00244  -0.03682
  19        3S         -0.03973   0.08169   0.00041   0.00614  -0.76044
  20 4   C  1S         -0.00685  -0.00041  -0.00028  -0.00094  -0.03725
  21        2S         -0.01062  -0.00067  -0.00046  -0.00156  -0.05985
  22        2PX        -0.09855   0.12247   0.00118   0.00059   0.04103
  23        2PY        -0.16347  -0.07224   0.00215   0.00108   0.06310
  24        2PZ         0.00190   0.00006   0.17944   0.18958  -0.00114
  25        3S          0.03547   0.00193   0.00134   0.00468   0.13245
  26        3PX        -0.14539   0.19684   0.00165   0.00089   0.05014
  27        3PY        -0.23967  -0.11546   0.00302   0.00164   0.07492
  28        3PZ         0.00300   0.00009   0.28718   0.27780  -0.00174
  29        4S         -0.03912   0.00239   0.00238   0.00544   1.27184
  30        4PX        -0.07537   0.12580   0.00125   0.00460   0.25972
  31        4PY        -0.12298  -0.07317   0.00236   0.00824   0.41145
  32        4PZ         0.00172   0.00005   0.26681   0.69874  -0.00652
  33 5   H  1S         -0.07590  -0.12320   0.00008  -0.00141  -0.01441
  34        2S         -0.10442  -0.19255   0.00071  -0.00233  -0.04068
  35        3S         -0.03891  -0.09046   0.00042  -0.00638  -0.83971
  36 6   H  1S         -0.08103   0.12268   0.00007  -0.00142  -0.01745
  37        2S         -0.11179   0.19255   0.00071  -0.00237  -0.04849
  38        3S         -0.04178   0.09048   0.00041  -0.00652  -0.89455
                          11        12        13        14        15
                           V         V         V         V         V
     Eigenvalues --     0.16418   0.16981   0.24080   0.37743   0.39240
   1 1   C  1S          0.00099  -0.04584   0.00005   0.01285   0.00180
   2        2S          0.00159  -0.07468   0.00007   0.01877   0.00306
   3        2PX         0.09683  -0.02095   0.10075  -0.03861  -0.02539
   4        2PY        -0.05383  -0.03907  -0.05770  -0.07029   0.00840
   5        2PZ         0.00006  -0.00239   0.00002  -0.00169  -0.00006
   6        3S         -0.00343   0.16820   0.00022   0.02250  -0.00528
   7        3PX         0.13904  -0.01287   0.10787  -0.05683  -0.11140
   8        3PY        -0.07823  -0.02681  -0.06258  -0.10888   0.04056
   9        3PZ         0.00008  -0.00333   0.00001  -0.00329   0.00002
  10        4S         -0.04413   1.45588  -0.01649  -3.04127  -0.29250
  11        4PX         0.56784  -0.12412   1.16681  -1.61949  -0.53554
  12        4PY        -0.30711  -0.22132  -0.66747  -2.83057   0.17006
  13        4PZ         0.00039  -0.01560   0.00038  -0.01459  -0.00068
  14 2   H  1S         -0.03013  -0.02513   0.01243  -0.04867   0.07911
  15        2S         -0.07993  -0.01806  -0.02341  -0.56438   0.82079
  16        3S         -1.02001  -1.02186  -1.55650  -0.38786  -0.35855
  17 3   H  1S          0.02958  -0.02475  -0.01414  -0.04113  -0.07509
  18        2S          0.07928  -0.02026   0.01865  -0.50321  -0.73558
  19        3S          1.07788  -1.02372   1.58070  -0.45479   0.26815
  20 4   C  1S          0.00105   0.04217  -0.00008  -0.01924   0.00036
  21        2S          0.00167   0.06870  -0.00015  -0.03102   0.00094
  22        2PX         0.10201  -0.02222  -0.09978  -0.04287  -0.03080
  23        2PY        -0.06135  -0.03632   0.05718  -0.07652   0.01300
  24        2PZ         0.00006   0.00228  -0.00001   0.00138   0.00017
  25        3S         -0.00330  -0.15391   0.00031   0.02877  -0.00863
  26        3PX         0.14696  -0.01693  -0.11201  -0.08968  -0.10531
  27        3PY        -0.08748  -0.02575   0.06320  -0.16386   0.06284
  28        3PZ         0.00008   0.00313  -0.00000   0.00191   0.00042
  29        4S         -0.05022  -1.30977   0.00990   3.49770   0.14981
  30        4PX         0.54891  -0.11217  -1.12700  -1.36825  -0.58710
  31        4PY        -0.33398  -0.19003   0.65220  -2.40696  -0.00339
  32        4PZ         0.00035   0.01479  -0.00034   0.01457   0.00148
  33 5   H  1S          0.03150   0.02558   0.00732   0.02037  -0.07594
  34        2S          0.07125   0.02307  -0.03269   0.19810  -0.72488
  35        3S          1.07891   0.92211  -1.50751   0.46432   0.46305
  36 6   H  1S         -0.03157   0.02611  -0.00619   0.01464   0.08915
  37        2S         -0.07170   0.02162   0.03377   0.14593   0.92154
  38        3S         -1.01263   0.92653   1.49327   0.48095  -0.44014
                          16        17        18        19        20
                           V         V         V         V         V
     Eigenvalues --     0.39604   0.46317   0.48732   0.49349   0.59120
   1 1   C  1S         -0.01497   0.01255  -0.04702   0.00005  -0.00019
   2        2S         -0.02711   0.02905  -0.07878   0.00019  -0.00034
   3        2PX         0.01714  -0.06160   0.01269   0.00042   0.00073
   4        2PY         0.03548  -0.10698   0.01737   0.00060   0.00108
   5        2PZ        -0.00022  -0.00026   0.00118  -0.15161  -0.19278
   6        3S          0.07787  -0.33702   0.09747  -0.00370  -0.00016
   7        3PX         0.08163  -0.24211  -0.02800   0.00046   0.00247
   8        3PY         0.16996  -0.41891  -0.05748   0.00032   0.00367
   9        3PZ        -0.00198  -0.00171   0.00556  -0.62794  -0.68576
  10        4S          1.98727   0.00882   3.22322   0.02271   0.02388
  11        4PX        -0.12659   0.19189   0.79493   0.00778   0.00753
  12        4PY        -0.11799   0.36167   1.37696   0.01428   0.01344
  13        4PZ        -0.00309  -0.00021  -0.02881   0.68666   1.24217
  14 2   H  1S         -0.02788  -0.03574  -0.07723  -0.00063  -0.00059
  15        2S         -0.56724  -0.33504  -0.93240  -0.00534  -0.00398
  16        3S          0.18135   0.06458   0.63787   0.00852   0.00818
  17 3   H  1S         -0.04385  -0.03774  -0.07542  -0.00061  -0.00057
  18        2S         -0.72286  -0.35863  -0.90920  -0.00533  -0.00355
  19        3S          0.22757   0.06619   0.61000   0.00838   0.00799
  20 4   C  1S         -0.00584  -0.00262   0.05089   0.00088   0.00024
  21        2S         -0.01302   0.00335   0.08835   0.00159   0.00045
  22        2PX        -0.00026   0.05489   0.02695  -0.00006   0.00070
  23        2PY         0.00567   0.09487   0.04876  -0.00016   0.00136
  24        2PZ        -0.00104  -0.00054   0.00124  -0.15287   0.19234
  25        3S          0.08528  -0.28816  -0.22751  -0.00646  -0.00081
  26        3PX        -0.06457   0.23519   0.05025  -0.00016   0.00246
  27        3PY        -0.08698   0.40971   0.08937  -0.00056   0.00471
  28        3PZ        -0.00326  -0.00233   0.00424  -0.63161   0.68236
  29        4S         -0.11175   0.83586  -3.07521  -0.02918  -0.02180
  30        4PX         0.91934  -0.40695   0.67106   0.00440   0.00754
  31        4PY         1.73794  -0.68586   1.14614   0.00739   0.01267
  32        4PZ        -0.00920  -0.00469   0.01440   0.69298  -1.23831
  33 5   H  1S         -0.05547  -0.06226   0.06367   0.00058   0.00055
  34        2S         -0.89512  -0.62319   0.77985   0.00915   0.00242
  35        3S         -0.02455   0.28525  -0.57311  -0.00209  -0.00798
  36 6   H  1S         -0.03842  -0.06124   0.06380   0.00059   0.00056
  37        2S         -0.71336  -0.60881   0.77671   0.00900   0.00257
  38        3S         -0.10186   0.29781  -0.58886  -0.00233  -0.00803
                          21        22        23        24        25
                           V         V         V         V         V
     Eigenvalues --     0.66492   0.69021   0.77197   0.77634   0.84529
   1 1   C  1S          0.00064  -0.00051   0.05772   0.06871   0.00084
   2        2S          0.00132  -0.00112   0.12192   0.14654   0.00193
   3        2PX        -0.12128   0.20490  -0.01574   0.11498  -0.00822
   4        2PY         0.07049  -0.12207  -0.02803   0.18941   0.01168
   5        2PZ        -0.00004   0.00008   0.00038   0.00168   0.00004
   6        3S         -0.01031   0.01389  -0.84694  -1.28353  -0.02031
   7        3PX        -0.57937   0.72555  -0.13737   0.45692  -0.22054
   8        3PY         0.33387  -0.43214  -0.24139   0.74549   0.15448
   9        3PZ        -0.00019   0.00029   0.00141   0.00587   0.00012
  10        4S          0.01440  -0.06000   0.90903   2.43819  -0.01708
  11        4PX         1.10458  -0.83512   0.09250  -0.74419   4.45127
  12        4PY        -0.63748   0.50462   0.12443  -1.03709  -2.54717
  13        4PZ         0.00032   0.00020   0.00158  -0.01964   0.00160
  14 2   H  1S          0.01924  -0.06008   0.01382   0.03109  -0.02672
  15        2S          0.07680  -0.63729   0.08704   0.08417  -1.53423
  16        3S         -0.98975   1.15997  -0.18709  -1.10329  -1.21131
  17 3   H  1S         -0.01862   0.05961   0.01384   0.03171   0.02959
  18        2S         -0.08591   0.66432   0.10346   0.05787   1.56896
  19        3S          0.98372  -1.12839  -0.18665  -1.22467   1.21181
  20 4   C  1S          0.00083  -0.00044   0.08631   0.02295   0.00062
  21        2S          0.00170  -0.00084   0.18360   0.04816   0.00126
  22        2PX        -0.16124  -0.17693  -0.09173   0.06029   0.01320
  23        2PY         0.09238   0.09894  -0.16396   0.10975  -0.00168
  24        2PZ        -0.00003  -0.00007   0.00171  -0.00052  -0.00005
  25        3S         -0.01260   0.00107  -1.52004  -0.23138  -0.00638
  26        3PX        -0.71207  -0.58611  -0.32754   0.30664   0.25562
  27        3PY         0.41017   0.32541  -0.58940   0.55679  -0.11735
  28        3PZ        -0.00018  -0.00023   0.00604  -0.00192  -0.00012
  29        4S          0.01239   0.03233   2.68898  -0.14654   0.00212
  30        4PX         1.26180   0.64934   0.49257  -0.28501  -4.26326
  31        4PY        -0.72345  -0.35824   0.93125  -0.71506   2.43130
  32        4PZ         0.00026  -0.00017  -0.01718   0.01035  -0.00126
  33 5   H  1S         -0.02894  -0.05412   0.03510  -0.00064  -0.02436
  34        2S         -0.19186  -0.56359   0.07183   0.06964  -1.44644
  35        3S          1.15233   0.90786  -1.11858   0.38254  -1.11708
  36 6   H  1S          0.02942   0.05395   0.03483  -0.00010   0.02424
  37        2S          0.18538   0.53911   0.07055   0.02047   1.43610
  38        3S         -1.15523  -0.92103  -1.06835   0.31466   1.12490
                          26        27        28        29        30
                           V         V         V         V         V
     Eigenvalues --     0.95395   2.23228   2.28920   2.33270   2.40741
   1 1   C  1S          0.09537  -0.01081  -0.01416  -0.00025  -0.00040
   2        2S          0.19812   0.00035  -0.01477  -0.00064  -0.00046
   3        2PX        -0.09215  -0.09196  -0.13227  -0.32903  -0.41661
   4        2PY        -0.15958  -0.16934  -0.22841   0.18793   0.23642
   5        2PZ         0.00008  -0.00501  -0.00626  -0.00003  -0.00027
   6        3S         -1.53228  -0.18156  -0.02696   0.00158  -0.00397
   7        3PX        -0.23687   0.09505   0.21102   0.39208   0.58002
   8        3PY        -0.40389   0.18630   0.37584  -0.22610  -0.33122
   9        3PZ        -0.00086   0.00508   0.00782   0.00000   0.00032
  10        4S          5.71726  -0.13952  -0.89666   0.00306  -0.01675
  11        4PX         1.19599   0.04825  -0.18880  -0.00038   0.96599
  12        4PY         1.99207   0.06319  -0.35117   0.00810  -0.53689
  13        4PZ        -0.00675   0.00144   0.00292   0.00006   0.00056
  14 2   H  1S          0.01575  -0.73710  -0.75948   0.69077   0.67621
  15        2S         -0.29271   1.05466   1.14379  -1.04225  -1.48682
  16        3S         -0.08510  -0.31655  -0.45515   0.46778   0.38772
  17 3   H  1S          0.01607  -0.72938  -0.76195  -0.67847  -0.69435
  18        2S         -0.26821   1.04489   1.15131   1.02660   1.52493
  19        3S         -0.06859  -0.29711  -0.44469  -0.45646  -0.38041
  20 4   C  1S         -0.09437  -0.00959   0.01219  -0.00039   0.00020
  21        2S         -0.19587   0.00169   0.01170  -0.00052   0.00040
  22        2PX        -0.09296   0.12187  -0.13003  -0.32120   0.41066
  23        2PY        -0.16053   0.21365  -0.21800   0.18593  -0.23576
  24        2PZ         0.00014  -0.00486   0.00626  -0.00014   0.00010
  25        3S          1.51415  -0.17496   0.02485  -0.00042  -0.00034
  26        3PX        -0.23075  -0.15304   0.22139   0.40376  -0.57618
  27        3PY        -0.40330  -0.26498   0.36635  -0.23202   0.33123
  28        3PZ         0.00130   0.00519  -0.00803   0.00015  -0.00016
  29        4S         -5.69721  -0.13263   0.87983  -0.01470   0.00199
  30        4PX         1.12058  -0.01779  -0.20545  -0.06868  -0.87916
  31        4PY         2.00355  -0.03657  -0.33275   0.03981   0.51269
  32        4PZ         0.00404   0.00122  -0.00215   0.00003  -0.00045
  33 5   H  1S         -0.01798  -0.76528   0.70816  -0.72344   0.66157
  34        2S          0.28602   1.10391  -1.07469   1.06990  -1.43299
  35        3S          0.05658  -0.34571   0.42302  -0.51610   0.40561
  36 6   H  1S         -0.01797  -0.75785   0.72877   0.70929  -0.66225
  37        2S          0.30643   1.09120  -1.10054  -1.04624   1.42803
  38        3S          0.06476  -0.34425   0.44710   0.51133  -0.41211
                          31        32        33        34        35
                           V         V         V         V         V
     Eigenvalues --     2.67137   2.81817   2.87751   2.95205   3.14103
   1 1   C  1S          0.00019   0.00089  -0.01329  -0.00001  -0.00908
   2        2S          0.00017   0.00265  -0.04526  -0.00028  -0.02805
   3        2PX         0.00210   0.02554  -0.45836  -0.74443   0.46537
   4        2PY         0.00316   0.04474  -0.82787   0.41796   0.81312
   5        2PZ        -0.92264  -0.94079  -0.05034  -0.00053   0.00283
   6        3S         -0.00080  -0.02223   0.40236   0.00422   0.23733
   7        3PX        -0.00181  -0.04484   0.82766   0.89726  -0.46451
   8        3PY        -0.00271  -0.07802   1.46823  -0.49079  -0.81030
   9        3PZ         0.93686   1.15060   0.06308   0.00071  -0.00373
  10        4S          0.00508   0.05069  -0.88808  -0.01282  -0.45733
  11        4PX        -0.00047   0.03647  -0.71884  -0.66946   0.25023
  12        4PY        -0.00055   0.06372  -1.27579   0.35638   0.43408
  13        4PZ        -0.33652  -0.62433  -0.03987  -0.00055   0.00255
  14 2   H  1S          0.00420  -0.00781   0.27293  -0.38231  -0.22606
  15        2S         -0.00488   0.00535  -0.23364   0.38938   0.17162
  16        3S         -0.00092   0.01455  -0.29892   0.26987   0.07617
  17 3   H  1S          0.00427  -0.00763   0.26341   0.38433  -0.22586
  18        2S         -0.00506   0.00489  -0.21746  -0.38744   0.17072
  19        3S         -0.00109   0.01467  -0.29906  -0.28533   0.08335
  20 4   C  1S          0.00017  -0.00089   0.01396   0.00048  -0.00746
  21        2S          0.00014  -0.00275   0.04823   0.00113  -0.02405
  22        2PX        -0.00234   0.02394  -0.42989  -0.79168  -0.48865
  23        2PY        -0.00438   0.04260  -0.76436   0.43832  -0.86712
  24        2PZ        -0.92709   0.93615   0.05080   0.00015   0.00409
  25        3S         -0.00069   0.02361  -0.43192  -0.00873   0.20959
  26        3PX         0.00227  -0.04312   0.79544   0.94076   0.50948
  27        3PY         0.00419  -0.07619   1.40431  -0.51295   0.91224
  28        3PZ         0.94274  -1.14616  -0.06411  -0.00019  -0.00504
  29        4S          0.00489  -0.05175   0.91862   0.02546  -0.40287
  30        4PX         0.00002   0.03633  -0.71900  -0.69407  -0.29613
  31        4PY        -0.00030   0.06365  -1.25798   0.37340  -0.53608
  32        4PZ        -0.33963   0.62259   0.04091   0.00012   0.00375
  33 5   H  1S          0.00410   0.00962  -0.29066   0.41259  -0.25118
  34        2S         -0.00497  -0.00763   0.25992  -0.42852   0.19639
  35        3S         -0.00053  -0.01380   0.28559  -0.24384   0.10888
  36 6   H  1S          0.00417   0.00972  -0.28797  -0.42251  -0.23977
  37        2S         -0.00518  -0.00796   0.26202   0.43756   0.18661
  38        3S         -0.00044  -0.01324   0.27238   0.24626   0.10252
                          36        37        38
                           V         V         V
     Eigenvalues --     3.31847  23.35107  23.70729
   1 1   C  1S         -0.00032  -1.41475  -1.45155
   2        2S         -0.00047   1.50871   1.56973
   3        2PX         0.77288  -0.00658   0.01205
   4        2PY        -0.43214  -0.01086   0.02111
   5        2PZ         0.00038  -0.00020  -0.00009
   6        3S         -0.00014  -0.29541  -0.39972
   7        3PX        -1.10591   0.02452  -0.05591
   8        3PY         0.61530   0.04099  -0.09724
   9        3PZ        -0.00058   0.00055   0.00027
  10        4S         -0.00829   0.27033   0.77199
  11        4PX         1.95315  -0.02720   0.13335
  12        4PY        -1.08851  -0.04641   0.22972
  13        4PZ         0.00097  -0.00093  -0.00110
  14 2   H  1S          0.54937   0.01348   0.00688
  15        2S         -0.85834   0.00768  -0.01485
  16        3S         -0.45995  -0.08413  -0.03931
  17 3   H  1S         -0.55966   0.01495   0.00782
  18        2S          0.87308   0.00744  -0.01484
  19        3S          0.48195  -0.08590  -0.03939
  20 4   C  1S          0.00008  -1.44672   1.41957
  21        2S         -0.00015   1.54298  -1.53532
  22        2PX        -0.72270   0.00575   0.01264
  23        2PY         0.41341   0.01032   0.02155
  24        2PZ        -0.00028  -0.00019   0.00004
  25        3S          0.00380  -0.30300   0.39174
  26        3PX         1.02675  -0.02160  -0.05700
  27        3PY        -0.59497  -0.03837  -0.09802
  28        3PZ         0.00043   0.00054  -0.00010
  29        4S         -0.01382   0.28226  -0.76281
  30        4PX        -1.81765   0.02199   0.13247
  31        4PY         1.06046   0.04031   0.22941
  32        4PZ        -0.00076  -0.00087   0.00074
  33 5   H  1S          0.49904   0.01245  -0.00438
  34        2S         -0.78418   0.00839   0.01321
  35        3S         -0.42950  -0.08286   0.03696
  36 6   H  1S         -0.49514   0.01135  -0.00347
  37        2S          0.77986   0.00937   0.01289
  38        3S          0.42110  -0.08134   0.03649
     Density Matrix:
                           1         2         3         4         5
   1 1   C  1S          0.65942
   2        2S          0.56155   0.49207
   3        2PX        -0.00062  -0.00084   0.08439
   4        2PY        -0.00139  -0.00194   0.00361   0.08787
   5        2PZ         0.00003   0.00005  -0.00004  -0.00009   0.06443
   6        3S         -0.08902  -0.15398   0.00306   0.00674  -0.00006
   7        3PX         0.00085   0.00130   0.13060   0.00128  -0.00003
   8        3PY         0.00120   0.00183   0.00130   0.13146  -0.00008
   9        3PZ         0.00006   0.00010  -0.00007  -0.00015   0.10358
  10        4S         -0.07936  -0.11428  -0.01492  -0.02661   0.00018
  11        4PX         0.00022   0.00151   0.07074  -0.00463  -0.00020
  12        4PY         0.00052   0.00283  -0.00472   0.06580  -0.00035
  13        4PZ        -0.00004  -0.00009  -0.00029  -0.00048   0.09581
  14 2   H  1S         -0.02051  -0.03266   0.03463  -0.06336  -0.00042
  15        2S         -0.02268  -0.03627   0.04936  -0.08794  -0.00031
  16        3S          0.00058  -0.00069   0.02116  -0.03306  -0.00001
  17 3   H  1S         -0.02094  -0.03332  -0.07283  -0.00235  -0.00047
  18        2S         -0.02297  -0.03668  -0.10075  -0.00195  -0.00036
  19        3S          0.00061  -0.00066  -0.03868   0.00163  -0.00003
  20 4   C  1S          0.00611   0.00985  -0.01081  -0.01873  -0.00014
  21        2S          0.00982   0.01535  -0.01729  -0.02997  -0.00023
  22        2PX         0.01049   0.01677  -0.01234  -0.03223   0.00016
  23        2PY         0.01826   0.02920  -0.03226  -0.04972   0.00032
  24        2PZ        -0.00017  -0.00028  -0.00014  -0.00021   0.06441
  25        3S         -0.02651  -0.04023   0.04846   0.08409   0.00069
  26        3PX         0.01620   0.02513  -0.01805  -0.04579   0.00021
  27        3PY         0.02818   0.04372  -0.04570  -0.07101   0.00042
  28        3PZ        -0.00030  -0.00048  -0.00024  -0.00037   0.10309
  29        4S          0.00538   0.00402   0.01995   0.03492   0.00088
  30        4PX         0.00313   0.00645  -0.01298  -0.02078   0.00023
  31        4PY         0.00533   0.01107  -0.02078  -0.03701   0.00047
  32        4PZ        -0.00025  -0.00040  -0.00038  -0.00060   0.09577
  33 5   H  1S          0.00421   0.00692  -0.00173  -0.01220  -0.00017
  34        2S          0.00644   0.01071   0.00340  -0.02493  -0.00001
  35        3S          0.00336   0.00493   0.00416  -0.01766   0.00003
  36 6   H  1S          0.00417   0.00685  -0.00973  -0.00762  -0.00017
  37        2S          0.00636   0.01059  -0.02329  -0.00950  -0.00002
  38        3S          0.00332   0.00488  -0.01732  -0.00525   0.00002
                           6         7         8         9        10
   6        3S          0.45290
   7        3PX        -0.00163   0.20242
   8        3PY        -0.00145  -0.00429   0.19718
   9        3PZ        -0.00020  -0.00005  -0.00011   0.16655
  10        4S          0.27331  -0.02561  -0.04630   0.00023   0.18146
  11        4PX        -0.00656   0.11000  -0.01028  -0.00033  -0.01471
  12        4PY        -0.01180  -0.01042   0.09916  -0.00056  -0.02762
  13        4PZ         0.00042  -0.00038  -0.00063   0.15405   0.00072
  14 2   H  1S          0.08729   0.05567  -0.09897  -0.00070   0.06863
  15        2S          0.09704   0.07969  -0.13690  -0.00052   0.08025
  16        3S          0.00599   0.03449  -0.05086  -0.00002   0.01071
  17 3   H  1S          0.08912  -0.11408  -0.00220  -0.00077   0.06864
  18        2S          0.09824  -0.15764  -0.00040  -0.00059   0.07915
  19        3S          0.00604  -0.06027   0.00429  -0.00004   0.00986
  20 4   C  1S         -0.02664  -0.01681  -0.02915  -0.00024   0.00530
  21        2S         -0.04035  -0.02611  -0.04529  -0.00039   0.00402
  22        2PX        -0.04694  -0.01762  -0.04573   0.00028  -0.01854
  23        2PY        -0.08174  -0.04580  -0.07090   0.00054  -0.03224
  24        2PZ         0.00084  -0.00019  -0.00027   0.10357   0.00085
  25        3S          0.10296   0.07082   0.12305   0.00116   0.00099
  26        3PX        -0.06802  -0.02592  -0.06477   0.00037  -0.02772
  27        3PY        -0.11839  -0.06470  -0.10121   0.00072  -0.04816
  28        3PZ         0.00140  -0.00033  -0.00049   0.16575   0.00142
  29        4S          0.00147   0.03008   0.05281   0.00146  -0.03278
  30        4PX        -0.02278  -0.01945  -0.02919   0.00039  -0.00723
  31        4PY        -0.03927  -0.02925  -0.05350   0.00078  -0.01202
  32        4PZ         0.00118  -0.00053  -0.00083   0.15398   0.00130
  33 5   H  1S         -0.02061  -0.00076  -0.01764  -0.00024  -0.01559
  34        2S         -0.03199   0.00835  -0.03680   0.00001  -0.02067
  35        3S         -0.01271   0.00797  -0.02656   0.00006  -0.00411
  36 6   H  1S         -0.02038  -0.01479  -0.00934  -0.00025  -0.01571
  37        2S         -0.03164  -0.03582  -0.01086  -0.00001  -0.02113
  38        3S         -0.01258  -0.02678  -0.00628   0.00005  -0.00446
                          11        12        13        14        15
  11        4PX         0.06084
  12        4PY        -0.00927   0.05141
  13        4PZ        -0.00048  -0.00079   0.14249
  14 2   H  1S          0.03364  -0.05449  -0.00036   0.08143
  15        2S          0.04888  -0.07529  -0.00012   0.10970   0.14995
  16        3S          0.02154  -0.02790   0.00007   0.03697   0.05285
  17 3   H  1S         -0.06353   0.00168  -0.00039  -0.01298  -0.02500
  18        2S         -0.08820   0.00461  -0.00015  -0.02495  -0.04393
  19        3S         -0.03404   0.00485   0.00007  -0.01844  -0.02815
  20 4   C  1S         -0.00310  -0.00559  -0.00022   0.00423   0.00660
  21        2S         -0.00643  -0.01150  -0.00035   0.00698   0.01102
  22        2PX        -0.01309  -0.02018   0.00038   0.00191  -0.00275
  23        2PY        -0.02026  -0.03686   0.00072   0.01158   0.02423
  24        2PZ        -0.00027  -0.00042   0.09580  -0.00020  -0.00005
  25        3S          0.02287   0.04066   0.00101  -0.02096  -0.03311
  26        3PX        -0.02010  -0.02840   0.00052   0.00094  -0.00757
  27        3PY        -0.02848  -0.05351   0.00099   0.01707   0.03614
  28        3PZ        -0.00045  -0.00070   0.15332  -0.00029  -0.00005
  29        4S          0.00732   0.01377   0.00134  -0.01702  -0.02301
  30        4PX        -0.01469  -0.01236   0.00047  -0.00175  -0.00870
  31        4PY        -0.01244  -0.02934   0.00091   0.01527   0.02704
  32        4PZ        -0.00054  -0.00087   0.14243  -0.00016   0.00011
  33 5   H  1S          0.00183  -0.01578  -0.00012   0.01123   0.02345
  34        2S          0.00895  -0.02766   0.00014   0.02384   0.04464
  35        3S          0.00746  -0.01597   0.00011   0.01671   0.02798
  36 6   H  1S         -0.01448  -0.00594  -0.00013  -0.00911  -0.01832
  37        2S         -0.02822  -0.00548   0.00014  -0.01888  -0.03456
  38        3S         -0.01734  -0.00129   0.00011  -0.01019  -0.01788
                          16        17        18        19        20
  16        3S          0.02129
  17 3   H  1S         -0.01858   0.08245
  18        2S         -0.02823   0.10993   0.14877
  19        3S         -0.01339   0.03644   0.05165   0.02059
  20 4   C  1S          0.00360   0.00429   0.00663   0.00360   0.65946
  21        2S          0.00529   0.00708   0.01104   0.00527   0.56153
  22        2PX        -0.00360   0.00910   0.02227   0.01667   0.00116
  23        2PY         0.01750   0.00755   0.00965   0.00549   0.00183
  24        2PZ         0.00001  -0.00020  -0.00003   0.00002   0.00003
  25        3S         -0.01369  -0.02118  -0.03307  -0.01354  -0.08914
  26        3PX        -0.00727   0.01439   0.03504   0.02608  -0.00049
  27        3PY         0.02636   0.00946   0.01138   0.00670  -0.00103
  28        3PZ         0.00002  -0.00029  -0.00002   0.00005   0.00006
  29        4S         -0.00525  -0.01682  -0.02234  -0.00485  -0.08022
  30        4PX        -0.00720   0.01409   0.02764   0.01707  -0.00022
  31        4PY         0.01581   0.00636   0.00616   0.00166  -0.00025
  32        4PZ         0.00010  -0.00016   0.00013   0.00011  -0.00001
  33 5   H  1S          0.01628  -0.00907  -0.01826  -0.00958  -0.02006
  34        2S          0.02762  -0.01872  -0.03420  -0.01720  -0.02232
  35        3S          0.01475  -0.01010  -0.01766  -0.00909   0.00053
  36 6   H  1S         -0.00967   0.01123   0.02333   0.01600  -0.01984
  37        2S         -0.01749   0.02385   0.04444   0.02723  -0.02230
  38        3S         -0.00925   0.01668   0.02781   0.01454   0.00044
                          21        22        23        24        25
  21        2S          0.49200
  22        2PX         0.00167   0.08235
  23        2PY         0.00261   0.00396   0.08754
  24        2PZ         0.00004   0.00005   0.00008   0.06441
  25        3S         -0.15406  -0.00541  -0.00855  -0.00006   0.45311
  26        3PX        -0.00073   0.12824   0.00199   0.00004  -0.00022
  27        3PY        -0.00157   0.00203   0.13109   0.00004   0.00055
  28        3PZ         0.00011   0.00008   0.00012   0.10308  -0.00021
  29        4S         -0.11588   0.01468   0.02493   0.00025   0.27848
  30        4PX        -0.00153   0.07250  -0.00505   0.00017   0.00649
  31        4PY        -0.00239  -0.00502   0.06653   0.00031   0.01049
  32        4PZ        -0.00005   0.00029   0.00051   0.09576   0.00026
  33 5   H  1S         -0.03197  -0.03333   0.06320  -0.00045   0.08550
  34        2S         -0.03567  -0.04931   0.08843  -0.00037   0.09542
  35        3S         -0.00071  -0.02217   0.03356  -0.00004   0.00588
  36 6   H  1S         -0.03164   0.07082   0.00268  -0.00041   0.08463
  37        2S         -0.03566   0.10098   0.00133  -0.00031   0.09536
  38        3S         -0.00083   0.04030  -0.00260  -0.00002   0.00613
                          26        27        28        29        30
  26        3PX         0.20006
  27        3PY        -0.00289   0.19689
  28        3PZ         0.00005   0.00006   0.16497
  29        4S          0.02664   0.04499   0.00031   0.18810
  30        4PX         0.11358  -0.01080   0.00026   0.01634   0.06557
  31        4PY        -0.01081   0.10047   0.00049   0.02659  -0.01040
  32        4PZ         0.00037   0.00066   0.15326   0.00073   0.00041
  33 5   H  1S         -0.05361   0.09905  -0.00074   0.06782  -0.03426
  34        2S         -0.07975   0.13810  -0.00062   0.07915  -0.05152
  35        3S         -0.03631   0.05174  -0.00006   0.00999  -0.02371
  36 6   H  1S          0.11202   0.00315  -0.00069   0.06811   0.06518
  37        2S          0.15953  -0.00006  -0.00053   0.08046   0.09325
  38        3S          0.06337  -0.00573  -0.00003   0.01076   0.03734
                          31        32        33        34        35
  31        4PY         0.05282
  32        4PZ         0.00077   0.14238
  33 5   H  1S          0.05526  -0.00039   0.08035
  34        2S          0.07710  -0.00018   0.10981   0.15242
  35        3S          0.02895   0.00005   0.03792   0.05513   0.02273
  36 6   H  1S         -0.00197  -0.00036  -0.01258  -0.02576  -0.01956
  37        2S         -0.00599  -0.00014  -0.02586  -0.04743  -0.03097
  38        3S         -0.00605   0.00007  -0.01975  -0.03108  -0.01527
                          36        37        38
  36 6   H  1S          0.07960
  37        2S          0.10949   0.15288
  38        3S          0.03808   0.05562   0.02301
    Full Mulliken population analysis:
                           1         2         3         4         5
   1 1   C  1S          0.65942
   2        2S          0.49329   0.49207
   3        2PX         0.00000   0.00000   0.08439
   4        2PY         0.00000   0.00000   0.00000   0.08787
   5        2PZ         0.00000   0.00000   0.00000   0.00000   0.06443
   6        3S         -0.02930  -0.06449   0.00000   0.00000   0.00000
   7        3PX         0.00000   0.00000   0.08216   0.00000   0.00000
   8        3PY         0.00000   0.00000   0.00000   0.08270   0.00000
   9        3PZ         0.00000   0.00000   0.00000   0.00000   0.06517
  10        4S         -0.01220  -0.02139   0.00000   0.00000   0.00000
  11        4PX         0.00000   0.00000   0.01558   0.00000   0.00000
  12        4PY         0.00000   0.00000   0.00000   0.01449   0.00000
  13        4PZ         0.00000   0.00000   0.00000   0.00000   0.02110
  14 2   H  1S         -0.00023  -0.00033   0.00176   0.00571   0.00000
  15        2S         -0.00166  -0.00317   0.00422   0.01335   0.00000
  16        3S          0.00005  -0.00006   0.00069   0.00192   0.00000
  17 3   H  1S         -0.00025  -0.00036   0.00788   0.00001   0.00000
  18        2S         -0.00172  -0.00329   0.01776   0.00001   0.00000
  19        3S          0.00005  -0.00006   0.00258  -0.00000   0.00000
  20 4   C  1S          0.00000   0.00000  -0.00002  -0.00006   0.00000
  21        2S          0.00000  -0.00000  -0.00002  -0.00006   0.00000
  22        2PX        -0.00002  -0.00002   0.00011   0.00087   0.00000
  23        2PY        -0.00006  -0.00005   0.00087   0.00199   0.00000
  24        2PZ        -0.00000  -0.00000  -0.00000  -0.00000   0.00042
  25        3S         -0.00060  -0.00101   0.00254   0.00764  -0.00000
  26        3PX        -0.00055  -0.00101   0.00019   0.00556   0.00000
  27        3PY        -0.00166  -0.00305   0.00555   0.01069   0.00000
  28        3PZ        -0.00000  -0.00000  -0.00000  -0.00000   0.00616
  29        4S          0.00034   0.00031   0.00091   0.00275  -0.00000
  30        4PX        -0.00018  -0.00046  -0.00071   0.00144   0.00000
  31        4PY        -0.00054  -0.00136   0.00144   0.00095   0.00000
  32        4PZ        -0.00000  -0.00000  -0.00000  -0.00000   0.00903
  33 5   H  1S          0.00000   0.00000  -0.00000  -0.00000   0.00000
  34        2S          0.00001   0.00002   0.00000  -0.00032   0.00000
  35        3S          0.00008   0.00014   0.00001  -0.00071  -0.00000
  36 6   H  1S          0.00000   0.00000  -0.00000  -0.00000   0.00000
  37        2S          0.00001   0.00002  -0.00024  -0.00007   0.00000
  38        3S          0.00008   0.00013  -0.00057  -0.00012  -0.00000
                           6         7         8         9        10
   6        3S          0.45290
   7        3PX         0.00000   0.20242
   8        3PY         0.00000   0.00000   0.19718
   9        3PZ         0.00000   0.00000   0.00000   0.16655
  10        4S          0.21173   0.00000   0.00000   0.00000   0.18146
  11        4PX         0.00000   0.07188   0.00000   0.00000   0.00000
  12        4PY         0.00000   0.00000   0.06479   0.00000   0.00000
  13        4PZ         0.00000   0.00000   0.00000   0.10067   0.00000
  14 2   H  1S          0.01605   0.01042   0.03288   0.00000   0.01816
  15        2S          0.04087   0.01911   0.05827   0.00000   0.04627
  16        3S          0.00276   0.00394   0.01031   0.00000   0.00808
  17 3   H  1S          0.01684   0.04430   0.00002   0.00000   0.01835
  18        2S          0.04201   0.07747   0.00000   0.00000   0.04600
  19        3S          0.00280   0.01399  -0.00002   0.00000   0.00748
  20 4   C  1S         -0.00060  -0.00057  -0.00172   0.00000   0.00034
  21        2S         -0.00102  -0.00105  -0.00316   0.00000   0.00031
  22        2PX         0.00246   0.00018   0.00555   0.00000   0.00084
  23        2PY         0.00743   0.00556   0.01067   0.00000   0.00254
  24        2PZ         0.00000  -0.00000  -0.00000   0.00619   0.00000
  25        3S          0.02206   0.01332   0.04007  -0.00000   0.00038
  26        3PX         0.01279  -0.00127   0.01851   0.00000   0.00428
  27        3PY         0.03856   0.01850   0.02842   0.00000   0.01287
  28        3PZ         0.00000  -0.00000  -0.00000   0.03551   0.00000
  29        4S          0.00056   0.00464   0.01411  -0.00000  -0.02061
  30        4PX         0.00641  -0.00401   0.00577   0.00000   0.00219
  31        4PY         0.01912   0.00579   0.00119   0.00000   0.00631
  32        4PZ         0.00000  -0.00000  -0.00000   0.04932   0.00000
  33 5   H  1S         -0.00006  -0.00000  -0.00019   0.00000  -0.00084
  34        2S         -0.00126   0.00006  -0.00328  -0.00000  -0.00350
  35        3S         -0.00209   0.00010  -0.00430  -0.00000  -0.00149
  36 6   H  1S         -0.00005  -0.00013  -0.00006   0.00000  -0.00084
  37        2S         -0.00121  -0.00259  -0.00053   0.00000  -0.00353
  38        3S         -0.00204  -0.00357  -0.00057  -0.00000  -0.00160
                          11        12        13        14        15
  11        4PX         0.06084
  12        4PY         0.00000   0.05141
  13        4PZ         0.00000   0.00000   0.14249
  14 2   H  1S          0.00618   0.01777   0.00000   0.08143
  15        2S          0.01512   0.04134   0.00000   0.07749   0.14995
  16        3S          0.00522   0.01200  -0.00000   0.01381   0.04169
  17 3   H  1S          0.02380  -0.00001   0.00000  -0.00001  -0.00070
  18        2S          0.05550  -0.00006   0.00000  -0.00070  -0.00570
  19        3S          0.01673  -0.00005  -0.00000  -0.00210  -0.00834
  20 4   C  1S         -0.00018  -0.00056   0.00000   0.00000   0.00002
  21        2S         -0.00046  -0.00142   0.00000   0.00000   0.00003
  22        2PX        -0.00071   0.00140   0.00000  -0.00000   0.00000
  23        2PY         0.00140   0.00094   0.00000  -0.00000  -0.00035
  24        2PZ        -0.00000  -0.00000   0.00904   0.00000   0.00000
  25        3S          0.00643   0.01979  -0.00000  -0.00007  -0.00143
  26        3PX        -0.00414   0.00562   0.00000  -0.00000   0.00004
  27        3PY         0.00563   0.00119   0.00000  -0.00022  -0.00349
  28        3PZ        -0.00000  -0.00000   0.04910   0.00000   0.00000
  29        4S          0.00222   0.00722  -0.00000  -0.00098  -0.00409
  30        4PX        -0.00709   0.00312   0.00000   0.00002   0.00020
  31        4PY         0.00314  -0.00561   0.00000  -0.00240  -0.01012
  32        4PZ        -0.00000  -0.00000   0.08956   0.00000  -0.00000
  33 5   H  1S          0.00002  -0.00236   0.00000   0.00000   0.00000
  34        2S          0.00024  -0.00999  -0.00000   0.00000   0.00015
  35        3S          0.00026  -0.00739  -0.00000   0.00023   0.00146
  36 6   H  1S         -0.00177  -0.00049   0.00000  -0.00000  -0.00004
  37        2S         -0.00838  -0.00111  -0.00000  -0.00004  -0.00091
  38        3S         -0.00663  -0.00034  -0.00000  -0.00046  -0.00247
                          16        17        18        19        20
  16        3S          0.02129
  17 3   H  1S         -0.00211   0.08245
  18        2S         -0.00837   0.07765   0.14877
  19        3S         -0.00703   0.01362   0.04075   0.02059
  20 4   C  1S          0.00009   0.00000   0.00002   0.00009   0.65946
  21        2S          0.00015   0.00000   0.00003   0.00015   0.49327
  22        2PX         0.00001  -0.00000  -0.00027  -0.00058   0.00000
  23        2PY        -0.00073  -0.00000  -0.00008  -0.00013   0.00000
  24        2PZ        -0.00000   0.00000   0.00000  -0.00000   0.00000
  25        3S         -0.00234  -0.00007  -0.00144  -0.00232  -0.02934
  26        3PX         0.00007  -0.00015  -0.00283  -0.00361   0.00000
  27        3PY        -0.00439  -0.00007  -0.00062  -0.00062   0.00000
  28        3PZ        -0.00000   0.00000   0.00000  -0.00000   0.00000
  29        4S         -0.00196  -0.00097  -0.00398  -0.00181  -0.01233
  30        4PX         0.00021  -0.00185  -0.00862  -0.00668   0.00000
  31        4PY        -0.00743  -0.00056  -0.00129  -0.00044   0.00000
  32        4PZ        -0.00000   0.00000  -0.00000  -0.00000   0.00000
  33 5   H  1S          0.00022  -0.00000  -0.00004  -0.00043  -0.00021
  34        2S          0.00144  -0.00004  -0.00091  -0.00238  -0.00158
  35        3S          0.00247  -0.00046  -0.00244  -0.00289   0.00004
  36 6   H  1S         -0.00044   0.00000   0.00000   0.00022  -0.00020
  37        2S         -0.00241   0.00000   0.00015   0.00141  -0.00155
  38        3S         -0.00294   0.00023   0.00144   0.00243   0.00003
                          21        22        23        24        25
  21        2S          0.49200
  22        2PX         0.00000   0.08235
  23        2PY         0.00000   0.00000   0.08754
  24        2PZ         0.00000   0.00000   0.00000   0.06441
  25        3S         -0.06452   0.00000   0.00000   0.00000   0.45311
  26        3PX         0.00000   0.08068   0.00000   0.00000   0.00000
  27        3PY         0.00000   0.00000   0.08247   0.00000   0.00000
  28        3PZ         0.00000   0.00000   0.00000   0.06485   0.00000
  29        4S         -0.02169   0.00000   0.00000   0.00000   0.21573
  30        4PX         0.00000   0.01597   0.00000   0.00000   0.00000
  31        4PY         0.00000   0.00000   0.01465   0.00000   0.00000
  32        4PZ         0.00000   0.00000   0.00000   0.02109   0.00000
  33 5   H  1S         -0.00030   0.00150   0.00551   0.00000   0.01520
  34        2S         -0.00303   0.00388   0.01349   0.00000   0.03944
  35        3S         -0.00007   0.00068   0.00199   0.00000   0.00269
  36 6   H  1S         -0.00028   0.00671   0.00001   0.00000   0.01474
  37        2S         -0.00297   0.01716   0.00001   0.00000   0.03897
  38        3S         -0.00008   0.00269  -0.00001   0.00000   0.00279
                          26        27        28        29        30
  26        3PX         0.20006
  27        3PY         0.00000   0.19689
  28        3PZ         0.00000   0.00000   0.16497
  29        4S          0.00000   0.00000   0.00000   0.18810
  30        4PX         0.07422   0.00000   0.00000   0.00000   0.06557
  31        4PY         0.00000   0.06565   0.00000   0.00000   0.00000
  32        4PZ         0.00000   0.00000   0.10015   0.00000   0.00000
  33 5   H  1S          0.00916   0.03282   0.00000   0.01772   0.00587
  34        2S          0.01772   0.05952   0.00000   0.04520   0.01490
  35        3S          0.00388   0.01073   0.00000   0.00750   0.00539
  36 6   H  1S          0.04113   0.00006   0.00000   0.01766   0.02431
  37        2S          0.07688  -0.00000   0.00000   0.04567   0.05881
  38        3S          0.01480  -0.00007   0.00000   0.00805   0.01857
                          31        32        33        34        35
  31        4PY         0.05282
  32        4PZ         0.00000   0.14238
  33 5   H  1S          0.01836   0.00000   0.08035
  34        2S          0.04324   0.00000   0.07757   0.15242
  35        3S          0.01277  -0.00000   0.01417   0.04350   0.02273
  36 6   H  1S         -0.00004   0.00000  -0.00001  -0.00073  -0.00224
  37        2S         -0.00019   0.00000  -0.00073  -0.00620  -0.00921
  38        3S         -0.00015  -0.00000  -0.00226  -0.00925  -0.00804
                          36        37        38
  36 6   H  1S          0.07960
  37        2S          0.07734   0.15288
  38        3S          0.01423   0.04388   0.02301
     Gross orbital populations:
                           1
   1 1   C  1S          1.10435
   2        2S          0.88585
   3        2PX         0.22708
   4        2PY         0.23661
   5        2PZ         0.16632
   6        3S          0.79324
   7        3PX         0.56063
   8        3PY         0.55665
   9        3PZ         0.42341
  10        4S          0.50157
  11        4PX         0.26084
  12        4PY         0.21171
  13        4PZ         0.41197
  14 2   H  1S          0.27439
  15        2S          0.46713
  16        3S          0.08623
  17 3   H  1S          0.27753
  18        2S          0.46523
  19        3S          0.08337
  20 4   C  1S          1.10441
  21        2S          0.88584
  22        2PX         0.22145
  23        2PY         0.23568
  24        2PZ         0.16600
  25        3S          0.79177
  26        3PX         0.55202
  27        3PY         0.55537
  28        3PZ         0.42075
  29        4S          0.51025
  30        4PX         0.27337
  31        4PY         0.21531
  32        4PZ         0.41153
  33 5   H  1S          0.27106
  34        2S          0.47036
  35        3S          0.08950
  36 6   H  1S          0.26873
  37        2S          0.47132
  38        3S          0.09120
          Condensed to atoms (all electrons):
               1          2          3          4          5          6
     1  C    5.035794   0.387033   0.387757   0.602664  -0.036829  -0.036200
     2  H    0.387033   0.518660  -0.035065  -0.039150   0.005987  -0.009709
     3  H    0.387757  -0.035065   0.515853  -0.038715  -0.009598   0.005889
     4  C    0.602664  -0.039150  -0.038715   5.051377   0.384037   0.383531
     5  H   -0.036829   0.005987  -0.009598   0.384037   0.525975  -0.038661
     6  H   -0.036200  -0.009709   0.005889   0.383531  -0.038661   0.526403
 Mulliken charges:
               1
     1  C   -0.340218
     2  H    0.172245
     3  H    0.173879
     4  C   -0.343743
     5  H    0.169090
     6  H    0.168747
 Sum of Mulliken charges =   0.00000
 Mulliken charges with hydrogens summed into heavy atoms:
               1
     1  C    0.005906
     4  C   -0.005906
 Electronic spatial extent (au):  <R**2>=             83.7446
 Charge=              0.0000 electrons
 Dipole moment (field-independent basis, Debye):
    X=             -0.0061    Y=              0.0046    Z=             -0.0373  Tot=              0.0381
 Quadrupole moment (field-independent basis, Debye-Ang):
   XX=            -12.2045   YY=            -12.2128   ZZ=            -15.6740
   XY=              0.0195   XZ=              0.0004   YZ=             -0.0008
 Traceless Quadrupole moment (field-independent basis, Debye-Ang):
   XX=              1.1593   YY=              1.1510   ZZ=             -2.3103
   XY=              0.0195   XZ=              0.0004   YZ=             -0.0008
 Octapole moment (field-independent basis, Debye-Ang**2):
  XXX=             -0.2363  YYY=             -0.1011  ZZZ=             -0.0657  XYY=              0.0517
  XXY=             -0.0477  XXZ=             -0.0615  XZZ=             -0.0864  YZZ=             -0.0830
  YYZ=             -0.0771  XYZ=             -0.0138
 Hexadecapole moment (field-independent basis, Debye-Ang**3):
 XXXX=            -34.3057 YYYY=            -55.1879 ZZZZ=            -17.7948 XXXY=             -7.2074
 XXXZ=              0.0056 YYYX=            -10.7061 YYYZ=              0.0090 ZZZX=              0.0069
 ZZZY=              0.0140 XXYY=            -16.2107 XXZZ=             -9.9396 YYZZ=            -13.6530
 XXYZ=              0.0036 YYXZ=              0.0014 ZZXY=             -3.2009
 N-N= 3.306601832551D+01 E-N=-2.478405286871D+02  KE= 7.814776960800D+01
 Orbital energies and kinetic energies (alpha):
                                 1                 2
   1         O               -10.291084         15.979051
   2         O               -10.287511         15.979332
   3         O                -0.863972          1.541457
   4         O                -0.671569          1.269928
   5         O                -0.558676          0.940729
   6         O                -0.509893          1.282882
   7         O                -0.436033          1.041347
   8         O                -0.357260          1.039159
   9         V                 0.080465          1.181364
  10         V                 0.140845          0.590520
  11         V                 0.164177          0.597761
  12         V                 0.169810          0.680776
  13         V                 0.240796          0.583617
  14         V                 0.377427          0.860898
  15         V                 0.392398          0.931450
  16         V                 0.396044          0.768207
  17         V                 0.463167          1.191713
  18         V                 0.487320          1.424544
  19         V                 0.493486          1.300305
  20         V                 0.591196          1.653698
  21         V                 0.664923          1.572575
  22         V                 0.690207          2.145084
  23         V                 0.771969          2.457317
  24         V                 0.776339          2.280000
  25         V                 0.845292          1.088266
  26         V                 0.953947          3.435951
  27         V                 2.232281          3.920769
  28         V                 2.289198          4.032517
  29         V                 2.332702          4.300171
  30         V                 2.407413          4.519793
  31         V                 2.671366          6.301683
  32         V                 2.818171          6.307913
  33         V                 2.877512          6.131852
  34         V                 2.952048          6.227243
  35         V                 3.141035          6.822630
  36         V                 3.318474          6.400983
  37         V                23.351069         60.073613
  38         V                23.707293         60.205118
 Total kinetic energy from orbitals= 7.814776960800D+01
 Calling FoFJK, ICntrl=      2127 FMM=F ISym2X=0 I1Cent= 0 IOpClX= 0 NMat=1 NMatS=1 NMatT=0.
 -------------------------------------------------------------------
 Center     Atomic                   Forces (Hartrees/Bohr)
 Number     Number              X              Y              Z
 -------------------------------------------------------------------
      1        6           0.009542523    0.003597205   -0.001555750
      2        1          -0.006828288    0.006498312    0.000776360
      3        1           0.002721527   -0.002161609    0.000723327
      4        6           0.009225407    0.010498177   -0.001629254
      5        1           0.005317171   -0.014970992    0.000825674
      6        1          -0.019978340   -0.003461094    0.000859643
 -------------------------------------------------------------------
 Cartesian Forces:  Max     0.019978340 RMS     0.007715029

 GradGradGradGradGradGradGradGradGradGradGradGradGradGradGradGradGradGrad
 Berny optimization.
 Search for a local minimum.
 Step number   1 out of a maximum of    2
 All quantities printed in internal units (Hartrees-Bohrs-Radians)
 Second derivative matrix not updated -- first step.
 The second derivative matrix:
                          X1        Y1        Z1        X2        Y2
           X1           0.75735
           Y1           0.10509   0.86628
           Z1           0.00220   0.00335   0.17420
           X2          -0.16105   0.09440   0.00079   0.13866
           Y2           0.10121  -0.28746  -0.00284  -0.11383   0.27652
           Z2           0.00126  -0.00358  -0.05587  -0.00113   0.00296
           X3          -0.35203  -0.00500  -0.00312  -0.00068  -0.00038
           Y3          -0.01173  -0.10991  -0.00076   0.03275   0.01845
           Z3          -0.00399  -0.00073  -0.05698   0.00057   0.00020
           X4          -0.26886  -0.18029  -0.00026   0.02308   0.01300
           Y4          -0.18059  -0.47699  -0.00041  -0.01333  -0.00751
           Z4           0.00052   0.00095  -0.09527  -0.00023  -0.00032
           X5           0.02328  -0.01345   0.00023  -0.00000   0.00000
           Y5           0.01200  -0.00693   0.00032   0.00000  -0.00000
           Z5          -0.00021   0.00013   0.01722   0.00010  -0.00005
           X6           0.00131  -0.00076   0.00015  -0.00000   0.00000
           Y6          -0.02599   0.01501   0.00035   0.00000  -0.00000
           Z6           0.00022  -0.00012   0.01670  -0.00010   0.00005
                          Z2        X3        Y3        Z3        X4
           Z2           0.02897
           X3          -0.00012   0.35216
           Y3           0.00060   0.00570   0.07603
           Z3           0.01057   0.00341   0.00054   0.02975
           X4           0.00018   0.00055  -0.02673  -0.00018   0.71176
           Y4          -0.00010  -0.00032   0.01543   0.00011   0.12017
           Z4           0.01628  -0.00017  -0.00038   0.01671  -0.00194
           X5          -0.00009  -0.00000   0.00000   0.00010  -0.14795
           Y5           0.00006   0.00000  -0.00000  -0.00006   0.09245
           Z5           0.00934   0.00010  -0.00006  -0.00948  -0.00117
           X6          -0.00009  -0.00000   0.00000   0.00010  -0.31858
           Y6           0.00005   0.00000  -0.00000  -0.00005  -0.01860
           Z6          -0.00929  -0.00010   0.00006   0.00944   0.00335
                          Y4        Z4        X5        Y5        Z5
           Y4           0.85669
           Z4          -0.00373   0.17459
           X5           0.08492  -0.00077   0.12630
           Y5          -0.28351   0.00276  -0.10361   0.27388
           Z5           0.00342  -0.05643   0.00105  -0.00293   0.02918
           X6          -0.01086   0.00258  -0.00163  -0.00084   0.00013
           Y6          -0.10411   0.00072   0.03213   0.01656  -0.00050
           Z6           0.00071  -0.05588  -0.00051  -0.00015   0.01018
                          X6        Y6        Z6
           X6           0.31889
           Y6           0.01245   0.07254
           Z6          -0.00286  -0.00056   0.02886
 ITU=  0
     Eigenvalues ---    0.03755   0.04372   0.09461   0.09852   0.13510
     Eigenvalues ---    0.17395   0.26628   0.28784   0.52678   0.69625
     Eigenvalues ---    0.97043   1.57119
 Angle between quadratic step and forces=  28.66 degrees.
 Linear search not attempted -- first point.
 B after Tr=     0.004641    0.004609   -0.003804
         Rot=    1.000000   -0.000013    0.000007   -0.000106 Ang=  -0.01 deg.
 Variable       Old X    -DE/DX   Delta X   Delta X   Delta X     New X
                                 (Linear)    (Quad)   (Total)
    X1       -0.63241   0.00954   0.00000   0.01559   0.02046  -0.61195
    Y1       -1.09467   0.00360   0.00000   0.01561   0.02009  -1.07458
    Z1        0.00656  -0.00156   0.00000  -0.00807  -0.01191  -0.00535
    X2        0.38480  -0.00683   0.00000  -0.02028  -0.01503   0.36976
    Y2       -2.89982   0.00650   0.00000   0.02559   0.03027  -2.86955
    Z2       -0.01427   0.00078   0.00000   0.00983   0.00595  -0.00832
    X3       -2.68486   0.00272   0.00000   0.02339   0.02827  -2.65659
    Y3       -1.13705  -0.00216   0.00000  -0.00238   0.00167  -1.13538
    Z3       -0.01520   0.00072   0.00000   0.00972   0.00585  -0.00935
    X4        0.63003   0.00923   0.00000   0.00361   0.00802   0.63805
    Y4        1.09159   0.01050   0.00000   0.00348   0.00822   1.09981
    Z4        0.00519  -0.00163   0.00000  -0.00768  -0.01144  -0.00626
    X5       -0.32992   0.00532   0.00000   0.00791   0.01193  -0.31798
    Y5        2.95386  -0.01497   0.00000  -0.04825  -0.04371   2.91015
    Z5       -0.01653   0.00083   0.00000   0.00956   0.00583  -0.01069
    X6        2.73652  -0.01998   0.00000  -0.05804  -0.05365   2.68287
    Y6        1.19783  -0.00346   0.00000  -0.02172  -0.01654   1.18129
    Z6       -0.01574   0.00086   0.00000   0.00945   0.00571  -0.01003
         Item               Value     Threshold  Converged?
 Maximum Force            0.019978     0.000450     NO 
 RMS     Force            0.007715     0.000300     NO 
 Maximum Displacement     0.053649     0.001800     NO 
 RMS     Displacement     0.021746     0.001200     NO 
 Predicted change in Energy=-1.351564D-03
 GradGradGradGradGradGradGradGradGradGradGradGradGradGradGradGradGradGrad

 Unable to Open any file for archive entry.
 1\1\GINC-BHD0012\Force\RwB97XD\6-311G\C2H4\BWEIGHT\11-Jan-2023\0\\# WB
 97XD/6-311G SCF=XQC FORCE nosym pop=full guess=read\\MD Step 999\\0,1\
 C,-0.33465603,-0.57927315,0.00347118\H,0.203625,-1.5345205,-0.00755133
 \H,-1.42076874,-0.60170055,-0.00804437\C,0.33339767,0.57764672,0.00274
 425\H,-0.17458407,1.56311632,-0.00874563\H,1.44810289,0.63386689,-0.00
 833012\\Version=ES64L-G16RevC.01\HF=-78.5561418\RMSD=5.080e-09\RMSF=7.
 715e-03\Dipole=-0.0023906,0.0018178,-0.014671\Quadrupole=0.8618921,0.8
 557236,-1.7176157,0.0144809,0.0002725,-0.0006062\PG=C01 [X(C2H4)]\\@
 The archive entry for this job was punched.


 Some scientists claim that hydrogen, because it is so
 plentiful, is the basic building block of the universe. 
 I dispute that. I say that stupidity is far more
 abundant than hydrogen, and THAT is the basic building 
 block of the universe.
                   --Frank Zappa
 Job cpu time:       0 days  0 hours  0 minutes 56.6 seconds.
 Elapsed time:       0 days  0 hours  0 minutes 19.9 seconds.
 File lengths (MBytes):  RWF=    272 Int=      0 D2E=      0 Chk=     32 Scr=     32
 Normal termination of Gaussian 16 at Wed Jan 11 18:34:35 2023.
