 Entering Gaussian System, Link 0=g16
 Initial command:
 /software/gaussian/g16-c01/avx2/g16/l1.exe "/gpfs/fs2/scratch/bweight/software/many_molecule_many_mode_NAMD/src/NAMD/TEST_NVT/TRAJ/traj-70/G16/GS_NEW/Gau-9186.inp" -scrdir="/gpfs/fs2/scratch/bweight/software/many_molecule_many_mode_NAMD/src/NAMD/TEST_NVT/TRAJ/traj-70/G16/GS_NEW/"
 Entering Link 1 = /software/gaussian/g16-c01/avx2/g16/l1.exe PID=      9187.
  
 Copyright (c) 1988-2019, Gaussian, Inc.  All Rights Reserved.
  
 This is part of the Gaussian(R) 16 program.  It is based on
 the Gaussian(R) 09 system (copyright 2009, Gaussian, Inc.),
 the Gaussian(R) 03 system (copyright 2003, Gaussian, Inc.),
 the Gaussian(R) 98 system (copyright 1998, Gaussian, Inc.),
 the Gaussian(R) 94 system (copyright 1995, Gaussian, Inc.),
 the Gaussian 92(TM) system (copyright 1992, Gaussian, Inc.),
 the Gaussian 90(TM) system (copyright 1990, Gaussian, Inc.),
 the Gaussian 88(TM) system (copyright 1988, Gaussian, Inc.),
 the Gaussian 86(TM) system (copyright 1986, Carnegie Mellon
 University), and the Gaussian 82(TM) system (copyright 1983,
 Carnegie Mellon University). Gaussian is a federally registered
 trademark of Gaussian, Inc.
  
 This software contains proprietary and confidential information,
 including trade secrets, belonging to Gaussian, Inc.
  
 This software is provided under written license and may be
 used, copied, transmitted, or stored only in accord with that
 written license.
  
 The following legend is applicable only to US Government
 contracts under FAR:
  
                    RESTRICTED RIGHTS LEGEND
  
 Use, reproduction and disclosure by the US Government is
 subject to restrictions as set forth in subparagraphs (a)
 and (c) of the Commercial Computer Software - Restricted
 Rights clause in FAR 52.227-19.
  
 Gaussian, Inc.
 340 Quinnipiac St., Bldg. 40, Wallingford CT 06492
  
  
 ---------------------------------------------------------------
 Warning -- This program may not be used in any manner that
 competes with the business of Gaussian, Inc. or will provide
 assistance to any competitor of Gaussian, Inc.  The licensee
 of this program is prohibited from giving any competitor of
 Gaussian, Inc. access to this program.  By using this program,
 the user acknowledges that Gaussian, Inc. is engaged in the
 business of creating and licensing software in the field of
 computational chemistry and represents and warrants to the
 licensee that it is not a competitor of Gaussian, Inc. and that
 it will not use this program in any manner prohibited above.
 ---------------------------------------------------------------
  

 Cite this work as:
 Gaussian 16, Revision C.01,
 M. J. Frisch, G. W. Trucks, H. B. Schlegel, G. E. Scuseria, 
 M. A. Robb, J. R. Cheeseman, G. Scalmani, V. Barone, 
 G. A. Petersson, H. Nakatsuji, X. Li, M. Caricato, A. V. Marenich, 
 J. Bloino, B. G. Janesko, R. Gomperts, B. Mennucci, H. P. Hratchian, 
 J. V. Ortiz, A. F. Izmaylov, J. L. Sonnenberg, D. Williams-Young, 
 F. Ding, F. Lipparini, F. Egidi, J. Goings, B. Peng, A. Petrone, 
 T. Henderson, D. Ranasinghe, V. G. Zakrzewski, J. Gao, N. Rega, 
 G. Zheng, W. Liang, M. Hada, M. Ehara, K. Toyota, R. Fukuda, 
 J. Hasegawa, M. Ishida, T. Nakajima, Y. Honda, O. Kitao, H. Nakai, 
 T. Vreven, K. Throssell, J. A. Montgomery, Jr., J. E. Peralta, 
 F. Ogliaro, M. J. Bearpark, J. J. Heyd, E. N. Brothers, K. N. Kudin, 
 V. N. Staroverov, T. A. Keith, R. Kobayashi, J. Normand, 
 K. Raghavachari, A. P. Rendell, J. C. Burant, S. S. Iyengar, 
 J. Tomasi, M. Cossi, J. M. Millam, M. Klene, C. Adamo, R. Cammi, 
 J. W. Ochterski, R. L. Martin, K. Morokuma, O. Farkas, 
 J. B. Foresman, and D. J. Fox, Gaussian, Inc., Wallingford CT, 2019.
 
 ******************************************
 Gaussian 16:  ES64L-G16RevC.01  3-Jul-2019
                11-Jan-2023 
 ******************************************
 %oldchk=../GS_OLD/geometry.chk
 %chk=geometry.chk
 %nprocshared=4
 Will use up to    4 processors via shared memory.
 %mem=5GB
 Copying data from "../GS_OLD/geometry.chk" to current chk file "geometry.chk"
 IOpt=  2 FromEx=T IUOpen= 4 IOptOp= 5 NList=   0 IFRang= 0 IUIn= 4 IUOut= 2.
 -------------------------------------------------------
 # WB97XD/6-311G SCF=XQC FORCE nosym pop=full guess=read
 -------------------------------------------------------
 1/10=7,30=1,38=1/1,3;
 2/12=2,15=1,17=6,18=5,40=1/2;
 3/5=4,6=6,11=2,25=1,30=1,71=1,74=-58,116=-2/1,2,3;
 4/5=1/1;
 5/5=2,8=3,13=1,38=6/2,8;
 6/7=3,28=1/1;
 7/29=1,30=1/1,2,3,16;
 1/10=7,30=1/3;
 99//99;
 -----------
 MD Step 999
 -----------
 Symbolic Z-matrix:
 Charge =  0 Multiplicity = 1
 C                    -0.33564  -0.58042   0.0048 
 H                     0.21525  -1.52893  -0.01352 
 H                    -1.42005  -0.59369  -0.01417 
 C                     0.33268   0.57698   0.00384 
 H                    -0.16078   1.5657   -0.01584 
 H                     1.44489   0.64206  -0.01525 
 

 GradGradGradGradGradGradGradGradGradGradGradGradGradGradGradGradGradGrad
 Berny optimization.
 Initialization pass.
 Trust Radius=3.00D-01 FncErr=1.00D-07 GrdErr=1.00D-07 EigMax=2.50D+02 EigMin=1.00D-04
 Number of steps in this run=      2 maximum allowed number of steps=      2.
 GradGradGradGradGradGradGradGradGradGradGradGradGradGradGradGradGradGrad

                          Input orientation:                          
 ---------------------------------------------------------------------
 Center     Atomic      Atomic             Coordinates (Angstroms)
 Number     Number       Type             X           Y           Z
 ---------------------------------------------------------------------
      1          6           0       -0.335636   -0.580423    0.004798
      2          1           0        0.215246   -1.528929   -0.013517
      3          1           0       -1.420050   -0.593690   -0.014173
      4          6           0        0.332682    0.576978    0.003836
      5          1           0       -0.160780    1.565702   -0.015837
      6          1           0        1.444888    0.642057   -0.015254
 ---------------------------------------------------------------------
                    Distance matrix (angstroms):
                    1          2          3          4          5
     1  C    0.000000
     2  H    1.097028   0.000000
     3  H    1.084661   1.883843   0.000000
     4  C    1.336498   2.109250   2.107809   0.000000
     5  H    2.153335   3.117393   2.499748   1.105200   0.000000
     6  H    2.159890   2.495035   3.120086   1.114272   1.852374
                    6
     6  H    0.000000
 Symmetry turned off by external request.
 Stoichiometry    C2H4
 Framework group  C1[X(C2H4)]
 Deg. of freedom    12
 Full point group                 C1      NOp   1
 Rotational constants (GHZ):         143.6230413          29.7153067          24.6242131
 Standard basis: 6-311G (5D, 7F)
    38 basis functions,    72 primitive gaussians,    38 cartesian basis functions
     8 alpha electrons        8 beta electrons
       nuclear repulsion energy        33.0835802050 Hartrees.
 NAtoms=    6 NActive=    6 NUniq=    6 SFac= 1.00D+00 NAtFMM=   60 NAOKFM=F Big=F
 Integral buffers will be    131072 words long.
 Raffenetti 2 integral format.
 Two-electron integral symmetry is turned off.
 Nuclear repulsion after empirical dispersion term =       33.0827402690 Hartrees.
 One-electron integrals computed using PRISM.
 NBasis=    38 RedAO= T EigKep=  6.40D-03  NBF=    38
 NBsUse=    38 1.00D-06 EigRej= -1.00D+00 NBFU=    38
 Initial guess from the checkpoint file:  "geometry.chk"
 B after Tr=    -0.000219   -0.000326   -0.000462
         Rot=    1.000000   -0.000000    0.000002    0.000005 Ang=  -0.00 deg.
 Keep R1 ints in memory in canonical form, NReq=4036876.
 Requested convergence on RMS density matrix=1.00D-08 within  32 cycles.
 Requested convergence on MAX density matrix=1.00D-06.
 Requested convergence on             energy=1.00D-06.
 No special actions if energy rises.
 SCF Done:  E(RwB97XD) =  -78.5559566615     A.U. after    8 cycles
            NFock=  8  Conv=0.58D-08     -V/T= 2.0051
 QCSCF skips out because SCF is already converged.

 **********************************************************************

            Population analysis using the SCF Density.

 **********************************************************************

 Alpha  occ. eigenvalues --  -10.29041 -10.28763  -0.86405  -0.67216  -0.55915
 Alpha  occ. eigenvalues --   -0.50992  -0.43616  -0.35714
 Alpha virt. eigenvalues --    0.08029   0.14104   0.16459   0.17005   0.24086
 Alpha virt. eigenvalues --    0.37531   0.39278   0.39848   0.46354   0.48825
 Alpha virt. eigenvalues --    0.49360   0.59121   0.66542   0.69110   0.77259
 Alpha virt. eigenvalues --    0.77617   0.84415   0.95345   2.23165   2.28957
 Alpha virt. eigenvalues --    2.33324   2.40771   2.67141   2.81808   2.87799
 Alpha virt. eigenvalues --    2.95164   3.14175   3.31955  23.35195  23.70719
     Molecular Orbital Coefficients:
                           1         2         3         4         5
                           O         O         O         O         O
     Eigenvalues --   -10.29041 -10.28763  -0.86405  -0.67216  -0.55915
   1 1   C  1S          0.09118   0.55596  -0.08851   0.06666  -0.00034
   2        2S          0.07525   0.45755  -0.13989   0.10677  -0.00055
   3        2PX         0.00016  -0.00001   0.02607   0.03710   0.13803
   4        2PY         0.00028  -0.00001   0.04641   0.06084  -0.07307
   5        2PZ         0.00000  -0.00000  -0.00077   0.00116   0.00014
   6        3S          0.00150   0.01457   0.37512  -0.29133   0.00151
   7        3PX        -0.00062   0.00042   0.03436   0.05941   0.21605
   8        3PY        -0.00106   0.00075   0.06071   0.09855  -0.11537
   9        3PZ        -0.00001  -0.00002  -0.00129   0.00206   0.00021
  10        4S          0.00358  -0.01464   0.19156  -0.22621   0.00073
  11        4PX         0.00153  -0.00153   0.00483   0.02390   0.11209
  12        4PY         0.00262  -0.00261   0.00851   0.04070  -0.06064
  13        4PZ         0.00000   0.00005  -0.00045   0.00103   0.00010
  14 2   H  1S         -0.00004  -0.00006   0.05252  -0.08767   0.10179
  15        2S         -0.00030   0.00010   0.05371  -0.10552   0.12888
  16        3S          0.00079   0.00170  -0.00168  -0.01525   0.04173
  17 3   H  1S         -0.00005  -0.00007   0.05382  -0.09148  -0.10541
  18        2S         -0.00030   0.00008   0.05455  -0.10911  -0.13235
  19        3S          0.00082   0.00173  -0.00172  -0.01615  -0.04276
  20 4   C  1S          0.55596  -0.09138  -0.08684  -0.06844  -0.00010
  21        2S          0.45760  -0.07500  -0.13713  -0.10974  -0.00015
  22        2PX        -0.00002  -0.00016  -0.02775   0.03706   0.11772
  23        2PY        -0.00003  -0.00028  -0.04705   0.06607  -0.07463
  24        2PZ        -0.00000   0.00000  -0.00063  -0.00122   0.00014
  25        3S          0.01412  -0.00322   0.36739   0.29983   0.00037
  26        3PX        -0.00023   0.00072  -0.03477   0.06028   0.18450
  27        3PY        -0.00037   0.00125  -0.05899   0.10685  -0.11584
  28        3PZ        -0.00002  -0.00000  -0.00108  -0.00220   0.00021
  29        4S         -0.01244   0.00817   0.18870   0.23768  -0.00095
  30        4PX         0.00092  -0.00189  -0.00539   0.02622   0.10130
  31        4PY         0.00157  -0.00332  -0.00915   0.04540  -0.06293
  32        4PZ         0.00004  -0.00001  -0.00044  -0.00113   0.00011
  33 5   H  1S         -0.00006  -0.00004   0.04963   0.09336  -0.09033
  34        2S         -0.00002  -0.00031   0.05085   0.11156  -0.11400
  35        3S          0.00180   0.00019  -0.00116   0.01675  -0.03658
  36 6   H  1S         -0.00005  -0.00004   0.04860   0.09126   0.08543
  37        2S         -0.00002  -0.00032   0.05022   0.10969   0.10837
  38        3S          0.00176   0.00017  -0.00119   0.01620   0.03515
                           6         7         8         9        10
                           O         O         O         V         V
     Eigenvalues --    -0.50992  -0.43616  -0.35714   0.08029   0.14104
   1 1   C  1S         -0.00397   0.00023  -0.00058   0.00161  -0.03278
   2        2S         -0.00598   0.00041  -0.00095   0.00267  -0.05257
   3        2PX         0.09360  -0.11117  -0.00202   0.00087  -0.03061
   4        2PY         0.16839   0.06596  -0.00341   0.00143  -0.06450
   5        2PZ         0.00301  -0.00002   0.17947  -0.18903  -0.00138
   6        3S          0.02213  -0.00100   0.00277  -0.00808   0.11403
   7        3PX         0.13577  -0.17735  -0.00285   0.00132  -0.03587
   8        3PY         0.24607   0.10561  -0.00480   0.00214  -0.07992
   9        3PZ         0.00478  -0.00001   0.28864  -0.27810  -0.00220
  10        4S         -0.05107  -0.00347   0.00408  -0.00893   1.20848
  11        4PX         0.06834  -0.11043  -0.00231   0.00755  -0.18996
  12        4PY         0.12516   0.06671  -0.00391   0.01249  -0.38597
  13        4PZ         0.00271   0.00002   0.26686  -0.69691  -0.00808
  14 2   H  1S         -0.08084  -0.11543   0.00009   0.00249  -0.01641
  15        2S         -0.11163  -0.17832   0.00118   0.00391  -0.04696
  16        3S         -0.04169  -0.08261   0.00071   0.01040  -0.82974
  17 3   H  1S         -0.07859   0.11284   0.00007   0.00251  -0.01219
  18        2S         -0.10782   0.17354   0.00118   0.00403  -0.03664
  19        3S         -0.03989   0.08025   0.00071   0.01034  -0.75833
  20 4   C  1S         -0.00803  -0.00050  -0.00049  -0.00159  -0.03672
  21        2S         -0.01254  -0.00083  -0.00080  -0.00262  -0.05899
  22        2PX        -0.09905   0.12435   0.00199   0.00102   0.04183
  23        2PY        -0.16210  -0.07344   0.00360   0.00184   0.06154
  24        2PZ         0.00319   0.00010   0.17929   0.18950  -0.00187
  25        3S          0.04077   0.00239   0.00236   0.00786   0.13035
  26        3PX        -0.14652   0.19932   0.00279   0.00155   0.05148
  27        3PY        -0.23799  -0.11709   0.00506   0.00282   0.07280
  28        3PZ         0.00504   0.00015   0.28698   0.27785  -0.00284
  29        4S         -0.03194   0.00307   0.00392   0.00921   1.25696
  30        4PX        -0.07640   0.12782   0.00215   0.00776   0.26866
  31        4PY        -0.12266  -0.07403   0.00398   0.01392   0.41265
  32        4PZ         0.00291   0.00008   0.26703   0.69807  -0.01103
  33 5   H  1S         -0.07459  -0.12440   0.00013  -0.00240  -0.01249
  34        2S         -0.10190  -0.19411   0.00125  -0.00403  -0.03777
  35        3S         -0.03791  -0.09133   0.00070  -0.01062  -0.82597
  36 6   H  1S         -0.08062   0.12425   0.00010  -0.00241  -0.01653
  37        2S         -0.11064   0.19474   0.00123  -0.00403  -0.04800
  38        3S         -0.04140   0.09160   0.00068  -0.01077  -0.89824
                          11        12        13        14        15
                           V         V         V         V         V
     Eigenvalues --     0.16459   0.17005   0.24086   0.37531   0.39278
   1 1   C  1S          0.00098  -0.04572  -0.00000   0.01047   0.00156
   2        2S          0.00157  -0.07451  -0.00001   0.01460   0.00260
   3        2PX         0.09704  -0.02095   0.10015  -0.03615  -0.02484
   4        2PY        -0.05325  -0.03761  -0.05745  -0.06660   0.00781
   5        2PZ         0.00007  -0.00396   0.00002  -0.00277  -0.00013
   6        3S         -0.00324   0.16827   0.00022   0.03133  -0.00443
   7        3PX         0.13912  -0.01267   0.10619  -0.04685  -0.10995
   8        3PY        -0.07730  -0.02477  -0.06187  -0.09152   0.04226
   9        3PZ         0.00009  -0.00549  -0.00001  -0.00558  -0.00013
  10        4S         -0.05012   1.44723  -0.01129  -2.72220  -0.25322
  11        4PX         0.57899  -0.12641   1.17156  -1.58529  -0.54918
  12        4PY        -0.30865  -0.21065  -0.66508  -2.77162   0.13442
  13        4PZ         0.00049  -0.02594   0.00052  -0.02532  -0.00154
  14 2   H  1S         -0.02974  -0.02516   0.01324  -0.05601   0.07652
  15        2S         -0.08085  -0.01686  -0.02368  -0.64570   0.78561
  16        3S         -1.02659  -1.00532  -1.55186  -0.33002  -0.33995
  17 3   H  1S          0.02886  -0.02501  -0.01546  -0.04818  -0.07591
  18        2S          0.07991  -0.02136   0.01798  -0.58494  -0.75281
  19        3S          1.09041  -1.02820   1.57553  -0.40714   0.24877
  20 4   C  1S          0.00172   0.04216  -0.00003  -0.01996  -0.00002
  21        2S          0.00276   0.06866  -0.00008  -0.03267   0.00025
  22        2PX         0.10106  -0.02355  -0.10012  -0.04163  -0.03125
  23        2PY        -0.06227  -0.03672   0.05737  -0.07370   0.01338
  24        2PZ         0.00014   0.00386  -0.00001   0.00209   0.00026
  25        3S         -0.00565  -0.15289   0.00030   0.04064  -0.00721
  26        3PX         0.14563  -0.01892  -0.11334  -0.09321  -0.10711
  27        3PY        -0.08824  -0.02614   0.06383  -0.16815   0.06097
  28        3PZ         0.00020   0.00532   0.00001   0.00267   0.00055
  29        4S         -0.07529  -1.32413   0.00468   3.38363   0.18807
  30        4PX         0.53710  -0.11785  -1.12301  -1.22287  -0.58368
  31        4PY        -0.33760  -0.19463   0.65550  -2.14587   0.03575
  32        4PZ         0.00090   0.02510  -0.00049   0.02142   0.00212
  33 5   H  1S          0.03167   0.02471   0.00652   0.01155  -0.07921
  34        2S          0.06934   0.02240  -0.03391   0.08556  -0.76630
  35        3S          1.09312   0.92541  -1.51782   0.45944   0.47929
  36 6   H  1S         -0.03134   0.02581  -0.00508   0.00668   0.08848
  37        2S         -0.06928   0.02067   0.03518   0.03945   0.90640
  38        3S         -0.99217   0.94149   1.50482   0.47236  -0.44913
                          16        17        18        19        20
                           V         V         V         V         V
     Eigenvalues --     0.39848   0.46354   0.48825   0.49360   0.59121
   1 1   C  1S         -0.01759   0.01259  -0.04657  -0.00007  -0.00033
   2        2S         -0.03108   0.02913  -0.07789   0.00004  -0.00059
   3        2PX         0.02425  -0.06100   0.01202   0.00070   0.00122
   4        2PY         0.04656  -0.10685   0.01590   0.00099   0.00185
   5        2PZ         0.00006  -0.00034   0.00257  -0.15169  -0.19266
   6        3S          0.07573  -0.33721   0.09244  -0.00576  -0.00030
   7        3PX         0.09550  -0.23936  -0.03299   0.00046   0.00411
   8        3PY         0.18904  -0.41705  -0.06646   0.00004   0.00623
   9        3PZ        -0.00253  -0.00275   0.01182  -0.62806  -0.68543
  10        4S          2.53996   0.08275   3.15741   0.04537   0.04106
  11        4PX         0.15382   0.21749   0.81160   0.01489   0.01244
  12        4PY         0.33947   0.40302   1.39957   0.02684   0.02260
  13        4PZ        -0.00138   0.00073  -0.05045   0.68651   1.24173
  14 2   H  1S         -0.02489  -0.03463  -0.07645  -0.00134  -0.00098
  15        2S         -0.52510  -0.33037  -0.91989  -0.01236  -0.00703
  16        3S          0.27424   0.06682   0.63943   0.01607   0.01378
  17 3   H  1S         -0.03685  -0.03614  -0.07480  -0.00131  -0.00096
  18        2S         -0.63889  -0.34676  -0.89313  -0.01212  -0.00657
  19        3S          0.30229   0.06496   0.61076   0.01570   0.01343
  20 4   C  1S         -0.00199  -0.00285   0.05097   0.00166   0.00041
  21        2S         -0.00683   0.00288   0.08868   0.00302   0.00076
  22        2PX         0.00632   0.05512   0.02742  -0.00004   0.00120
  23        2PY         0.01488   0.09428   0.04934  -0.00015   0.00228
  24        2PZ        -0.00215  -0.00104   0.00265  -0.15277   0.19233
  25        3S          0.08137  -0.28609  -0.23220  -0.01196  -0.00139
  26        3PX        -0.05026   0.23565   0.05518  -0.00014   0.00423
  27        3PY        -0.06872   0.40753   0.09654  -0.00067   0.00796
  28        3PZ        -0.00621  -0.00427   0.00955  -0.63153   0.68252
  29        4S         -0.71118   0.80130  -3.09485  -0.05759  -0.03659
  30        4PX         1.17540  -0.36244   0.62843   0.00754   0.01308
  31        4PY         2.15328  -0.61102   1.07946   0.01274   0.02164
  32        4PZ        -0.01892  -0.00948   0.02286   0.69311  -1.23822
  33 5   H  1S         -0.05099  -0.06363   0.06395   0.00124   0.00094
  34        2S         -0.87474  -0.64613   0.79670   0.01887   0.00386
  35        3S         -0.15105   0.27542  -0.55504  -0.00456  -0.01353
  36 6   H  1S         -0.03870  -0.06302   0.06378   0.00125   0.00095
  37        2S         -0.73776  -0.63857   0.79494   0.01864   0.00389
  38        3S         -0.19638   0.29210  -0.57024  -0.00504  -0.01361
                          21        22        23        24        25
                           V         V         V         V         V
     Eigenvalues --     0.66542   0.69110   0.77259   0.77617   0.84415
   1 1   C  1S          0.00086  -0.00070   0.05535   0.07022   0.00103
   2        2S          0.00179  -0.00151   0.11692   0.14973   0.00240
   3        2PX        -0.12757   0.20092  -0.01912   0.11549  -0.00716
   4        2PY         0.07420  -0.12081  -0.03312   0.18728   0.01427
   5        2PZ        -0.00005   0.00009   0.00055   0.00283   0.00008
   6        3S         -0.01462   0.01734  -0.80464  -1.30580  -0.02751
   7        3PX        -0.59989   0.70816  -0.15061   0.45763  -0.21713
   8        3PY         0.34509  -0.42615  -0.25981   0.73107   0.16624
   9        3PZ        -0.00028   0.00036   0.00205   0.00988   0.00027
  10        4S          0.02247  -0.06092   0.84274   2.44145   0.02585
  11        4PX         1.09247  -0.80214   0.13198  -0.78303   4.50687
  12        4PY        -0.62768   0.50186   0.13749  -1.00200  -2.55433
  13        4PZ         0.00035   0.00075   0.00368  -0.03262   0.00248
  14 2   H  1S          0.02185  -0.05952   0.01238   0.03175  -0.02677
  15        2S          0.10975  -0.63615   0.07731   0.09437  -1.55888
  16        3S         -1.01968   1.13707  -0.16335  -1.08574  -1.22701
  17 3   H  1S         -0.02101   0.05879   0.01254   0.03239   0.03066
  18        2S         -0.12331   0.66598   0.10876   0.05104   1.60049
  19        3S          1.01204  -1.09074  -0.14931  -1.24879   1.22240
  20 4   C  1S          0.00108  -0.00036   0.08587   0.02576   0.00063
  21        2S          0.00221  -0.00070   0.18271   0.05414   0.00121
  22        2PX        -0.15575  -0.18182  -0.09296   0.05720   0.01227
  23        2PY         0.08937   0.10074  -0.16795   0.10574   0.00179
  24        2PZ        -0.00004  -0.00009   0.00295  -0.00079  -0.00010
  25        3S         -0.01657  -0.00048  -1.51581  -0.28119  -0.00253
  26        3PX        -0.69621  -0.61028  -0.33346   0.29500   0.24741
  27        3PY         0.40249   0.33482  -0.60937   0.54439  -0.09993
  28        3PZ        -0.00024  -0.00030   0.01042  -0.00298  -0.00025
  29        4S          0.01380   0.03081   2.69833  -0.05827  -0.03949
  30        4PX         1.27761   0.71614   0.48444  -0.24501  -4.19169
  31        4PY        -0.73468  -0.37878   0.97469  -0.72830   2.41563
  32        4PZ         0.00036  -0.00065  -0.02993   0.01679  -0.00201
  33 5   H  1S         -0.02670  -0.05455   0.03484   0.00077  -0.02418
  34        2S         -0.16490  -0.55948   0.07302   0.08004  -1.42634
  35        3S          1.13374   0.94515  -1.14719   0.36916  -1.10179
  36 6   H  1S          0.02749   0.05455   0.03445   0.00127   0.02338
  37        2S          0.15751   0.53250   0.07850   0.01189   1.40955
  38        3S         -1.13821  -0.97187  -1.07001   0.27732   1.11449
                          26        27        28        29        30
                           V         V         V         V         V
     Eigenvalues --     0.95345   2.23165   2.28957   2.33324   2.40771
   1 1   C  1S          0.09568  -0.01043  -0.01446   0.00040  -0.00049
   2        2S          0.19882   0.00102  -0.01475   0.00083  -0.00063
   3        2PX        -0.09190  -0.08189  -0.13145   0.34021  -0.41307
   4        2PY        -0.15915  -0.15401  -0.23199  -0.19263   0.23157
   5        2PZ         0.00009  -0.00798  -0.01064   0.00008  -0.00044
   6        3S         -1.53864  -0.18430  -0.03280  -0.00084  -0.00432
   7        3PX        -0.23680   0.07935   0.20769  -0.40630   0.57592
   8        3PY        -0.40229   0.16333   0.37953   0.23239  -0.32405
   9        3PZ        -0.00151   0.00799   0.01328  -0.00002   0.00050
  10        4S          5.71510  -0.11963  -0.89175   0.00132  -0.00961
  11        4PX         1.21102   0.05225  -0.18394  -0.03399   0.98380
  12        4PY         1.98805   0.06898  -0.35698   0.01024  -0.53698
  13        4PZ        -0.01082   0.00195   0.00487  -0.00016   0.00099
  14 2   H  1S          0.01539  -0.71840  -0.78542  -0.69777   0.66095
  15        2S         -0.29302   1.02371   1.17760   1.06866  -1.47067
  16        3S         -0.09325  -0.30672  -0.47118  -0.46628   0.37402
  17 3   H  1S          0.01584  -0.70816  -0.78112   0.69282  -0.68222
  18        2S         -0.25959   1.00973   1.17787  -1.06452   1.51594
  19        3S         -0.06892  -0.28410  -0.45035   0.45703  -0.36414
  20 4   C  1S         -0.09407  -0.01017   0.01222   0.00044   0.00028
  21        2S         -0.19517   0.00055   0.01215   0.00059   0.00056
  22        2PX        -0.09286   0.13170  -0.12644   0.30985   0.41355
  23        2PY        -0.16042   0.22827  -0.21124  -0.17996  -0.24020
  24        2PZ         0.00018  -0.00864   0.01051   0.00020   0.00019
  25        3S          1.50765  -0.17020   0.01959   0.00072  -0.00020
  26        3PX        -0.22954  -0.16762   0.21686  -0.38813  -0.57924
  27        3PY        -0.40259  -0.28594   0.35579   0.22294   0.33756
  28        3PZ         0.00213   0.00929  -0.01342  -0.00020  -0.00026
  29        4S         -5.69237  -0.15977   0.88660   0.01390  -0.00594
  30        4PX         1.10251  -0.01565  -0.20447   0.09639  -0.86287
  31        4PY         1.99957  -0.03460  -0.31978  -0.05366   0.51378
  32        4PZ         0.00746   0.00262  -0.00382  -0.00005  -0.00083
  33 5   H  1S         -0.01803  -0.78138   0.68567   0.71265   0.67695
  34        2S          0.28592   1.13305  -1.04694  -1.04097  -1.45024
  35        3S          0.05296  -0.35206   0.40597   0.51316   0.41711
  36 6   H  1S         -0.01789  -0.77637   0.70505  -0.70002  -0.67562
  37        2S          0.31331   1.12365  -1.06843   1.01971   1.43997
  38        3S          0.06888  -0.35351   0.43363  -0.51028  -0.42619
                          31        32        33        34        35
                           V         V         V         V         V
     Eigenvalues --     2.67141   2.81808   2.87799   2.95164   3.14175
   1 1   C  1S          0.00030   0.00150  -0.01332   0.00002  -0.00945
   2        2S          0.00023   0.00440  -0.04462  -0.00025  -0.02915
   3        2PX         0.00310   0.04318  -0.46630  -0.73187   0.45622
   4        2PY         0.00473   0.07630  -0.84816   0.41390   0.79128
   5        2PZ        -0.92368  -0.93732  -0.08364  -0.00076   0.00414
   6        3S         -0.00094  -0.03670   0.39416   0.00435   0.24613
   7        3PX        -0.00231  -0.07534   0.83317   0.88236  -0.44568
   8        3PY        -0.00348  -0.13189   1.48521  -0.48490  -0.76891
   9        3PZ         0.93827   1.14632   0.10501   0.00104  -0.00534
  10        4S          0.00770   0.08473  -0.88412  -0.01175  -0.47918
  11        4PX        -0.00122   0.06078  -0.71646  -0.66819   0.23127
  12        4PY        -0.00162   0.10695  -1.27751   0.35530   0.39304
  13        4PZ        -0.33734  -0.62172  -0.06653  -0.00083   0.00333
  14 2   H  1S          0.00708  -0.01242   0.26647  -0.37767  -0.21637
  15        2S         -0.00810   0.00810  -0.22391   0.38783   0.16366
  16        3S         -0.00170   0.02463  -0.30102   0.27253   0.06210
  17 3   H  1S          0.00721  -0.01217   0.25739   0.37739  -0.21993
  18        2S         -0.00840   0.00727  -0.20752  -0.38348   0.16612
  19        3S         -0.00201   0.02475  -0.30103  -0.28953   0.07386
  20 4   C  1S          0.00030  -0.00149   0.01373   0.00049  -0.00731
  21        2S          0.00029  -0.00462   0.04823   0.00113  -0.02317
  22        2PX        -0.00433   0.03955  -0.41904  -0.80382  -0.49699
  23        2PY        -0.00793   0.06978  -0.73806   0.44246  -0.88654
  24        2PZ        -0.92598   0.93469   0.08552   0.00030   0.00759
  25        3S         -0.00163   0.03972  -0.43436  -0.00825   0.20081
  26        3PX         0.00450  -0.07168   0.78445   0.95673   0.52803
  27        3PY         0.00809  -0.12591   1.37631  -0.52012   0.95166
  28        3PZ         0.94142  -1.14376  -0.10775  -0.00037  -0.00956
  29        4S          0.00922  -0.08654   0.91414   0.02541  -0.38353
  30        4PX        -0.00040   0.06095  -0.71825  -0.69763  -0.31629
  31        4PY        -0.00114   0.10605  -1.24983   0.37610  -0.57811
  32        4PZ        -0.33900   0.62056   0.06875   0.00023   0.00741
  33 5   H  1S          0.00686   0.01642  -0.29473   0.41583  -0.26269
  34        2S         -0.00843  -0.01322   0.26720  -0.42830   0.20667
  35        3S         -0.00082  -0.02291   0.28346  -0.24469   0.12323
  36 6   H  1S          0.00694   0.01646  -0.29120  -0.42815  -0.24741
  37        2S         -0.00874  -0.01371   0.26856   0.43986   0.19328
  38        3S         -0.00063  -0.02210   0.27147   0.24609   0.11243
                          36        37        38
                           V         V         V
     Eigenvalues --     3.31955  23.35195  23.70719
   1 1   C  1S         -0.00031  -1.41413  -1.45217
   2        2S         -0.00038   1.50811   1.57041
   3        2PX         0.78387  -0.00656   0.01206
   4        2PY        -0.43510  -0.01071   0.02114
   5        2PZ         0.00063  -0.00033  -0.00014
   6        3S         -0.00191  -0.29580  -0.39987
   7        3PX        -1.12224   0.02432  -0.05586
   8        3PY         0.61732   0.04032  -0.09714
   9        3PZ        -0.00098   0.00092   0.00043
  10        4S          0.00340   0.27296   0.77092
  11        4PX         1.97950  -0.02648   0.13413
  12        4PY        -1.08545  -0.04485   0.22956
  13        4PZ         0.00165  -0.00153  -0.00179
  14 2   H  1S          0.55839   0.01326   0.00713
  15        2S         -0.87131   0.00757  -0.01507
  16        3S         -0.46200  -0.08404  -0.03966
  17 3   H  1S         -0.57025   0.01506   0.00819
  18        2S          0.88848   0.00731  -0.01470
  19        3S          0.49048  -0.08640  -0.03931
  20 4   C  1S          0.00002  -1.44735   1.41891
  21        2S         -0.00030   1.54366  -1.53456
  22        2PX        -0.71112   0.00591   0.01261
  23        2PY         0.41041   0.01064   0.02152
  24        2PZ        -0.00049  -0.00032   0.00008
  25        3S          0.00586  -0.30299   0.39109
  26        3PX         1.01136  -0.02201  -0.05676
  27        3PY        -0.59373  -0.03922  -0.09773
  28        3PZ         0.00076   0.00093  -0.00021
  29        4S         -0.02692   0.28057  -0.76191
  30        4PX        -1.78646   0.02300   0.13103
  31        4PY         1.06082   0.04194   0.22850
  32        4PZ        -0.00134  -0.00152   0.00132
  33 5   H  1S          0.48986   0.01307  -0.00451
  34        2S         -0.76725   0.00827   0.01329
  35        3S         -0.43208  -0.08312   0.03681
  36 6   H  1S         -0.48432   0.01174  -0.00358
  37        2S          0.76043   0.00917   0.01334
  38        3S          0.41830  -0.08121   0.03685
     Density Matrix:
                           1         2         3         4         5
   1 1   C  1S          0.65941
   2        2S          0.56153   0.49203
   3        2PX        -0.00054  -0.00072   0.08447
   4        2PY        -0.00132  -0.00183   0.00364   0.08782
   5        2PZ         0.00005   0.00008  -0.00007  -0.00016   0.06444
   6        3S         -0.08895  -0.15388   0.00271   0.00645  -0.00012
   7        3PX         0.00089   0.00136   0.13070   0.00119  -0.00005
   8        3PY         0.00121   0.00187   0.00123   0.13132  -0.00014
   9        3PZ         0.00010   0.00018  -0.00012  -0.00026   0.10364
  10        4S         -0.07930  -0.11416  -0.01540  -0.02753   0.00034
  11        4PX         0.00024   0.00155   0.07033  -0.00456  -0.00033
  12        4PY         0.00058   0.00295  -0.00466   0.06558  -0.00059
  13        4PZ        -0.00006  -0.00015  -0.00049  -0.00083   0.09581
  14 2   H  1S         -0.02054  -0.03272   0.03486  -0.06312  -0.00071
  15        2S         -0.02280  -0.03647   0.04930  -0.08781  -0.00053
  16        3S          0.00056  -0.00073   0.02086  -0.03305  -0.00001
  17 3   H  1S         -0.02107  -0.03352  -0.07288  -0.00231  -0.00078
  18        2S         -0.02315  -0.03696  -0.10056  -0.00230  -0.00061
  19        3S          0.00060  -0.00067  -0.03840   0.00127  -0.00004
  20 4   C  1S          0.00610   0.00983  -0.01084  -0.01883  -0.00025
  21        2S          0.00980   0.01531  -0.01734  -0.03013  -0.00040
  22        2PX         0.01043   0.01668  -0.01240  -0.03224   0.00028
  23        2PY         0.01812   0.02897  -0.03219  -0.04973   0.00052
  24        2PZ        -0.00028  -0.00046  -0.00023  -0.00036   0.06437
  25        3S         -0.02639  -0.04007   0.04860   0.08457   0.00122
  26        3PX         0.01608   0.02494  -0.01816  -0.04593   0.00035
  27        3PY         0.02792   0.04328  -0.04567  -0.07117   0.00069
  28        3PZ        -0.00048  -0.00078  -0.00041  -0.00063   0.10304
  29        4S          0.00535   0.00395   0.02053   0.03619   0.00147
  30        4PX         0.00311   0.00642  -0.01310  -0.02100   0.00040
  31        4PY         0.00525   0.01093  -0.02100  -0.03723   0.00079
  32        4PZ        -0.00041  -0.00066  -0.00063  -0.00102   0.09586
  33 5   H  1S          0.00420   0.00689  -0.00173  -0.01236  -0.00029
  34        2S          0.00632   0.01049   0.00353  -0.02498  -0.00001
  35        3S          0.00326   0.00477   0.00429  -0.01754   0.00005
  36 6   H  1S          0.00415   0.00682  -0.00983  -0.00763  -0.00029
  37        2S          0.00626   0.01043  -0.02334  -0.00941  -0.00003
  38        3S          0.00323   0.00474  -0.01728  -0.00514   0.00004
                           6         7         8         9        10
   6        3S          0.45261
   7        3PX        -0.00183   0.20257
   8        3PY        -0.00155  -0.00458   0.19687
   9        3PZ        -0.00036  -0.00009  -0.00022   0.16668
  10        4S          0.27288  -0.02608  -0.04743   0.00044   0.18146
  11        4PX        -0.00677   0.10935  -0.01024  -0.00054  -0.01497
  12        4PY        -0.01220  -0.01044   0.09876  -0.00095  -0.02843
  13        4PZ         0.00066  -0.00065  -0.00110   0.15409   0.00126
  14 2   H  1S          0.08744   0.05617  -0.09855  -0.00117   0.06899
  15        2S          0.09759   0.07978  -0.13663  -0.00090   0.08115
  16        3S          0.00612   0.03408  -0.05081  -0.00003   0.01111
  17 3   H  1S          0.08966  -0.11408  -0.00202  -0.00127   0.06910
  18        2S          0.09899  -0.15725  -0.00076  -0.00100   0.07988
  19        3S          0.00612  -0.05981   0.00379  -0.00006   0.01006
  20 4   C  1S         -0.02663  -0.01691  -0.02937  -0.00042   0.00516
  21        2S         -0.04031  -0.02626  -0.04567  -0.00068   0.00386
  22        2PX        -0.04668  -0.01766  -0.04573   0.00047  -0.01795
  23        2PY        -0.08104  -0.04562  -0.07079   0.00090  -0.03092
  24        2PZ         0.00138  -0.00032  -0.00048   0.10353   0.00145
  25        3S          0.10269   0.07122   0.12413   0.00204   0.00114
  26        3PX        -0.06750  -0.02601  -0.06494   0.00062  -0.02674
  27        3PY        -0.11710  -0.06453  -0.10127   0.00119  -0.04598
  28        3PZ         0.00228  -0.00056  -0.00085   0.16571   0.00240
  29        4S          0.00189   0.03103   0.05491   0.00245  -0.03229
  30        4PX        -0.02269  -0.01958  -0.02949   0.00067  -0.00678
  31        4PY        -0.03886  -0.02950  -0.05369   0.00131  -0.01096
  32        4PZ         0.00193  -0.00088  -0.00141   0.15417   0.00222
  33 5   H  1S         -0.02048  -0.00066  -0.01771  -0.00042  -0.01487
  34        2S         -0.03132   0.00866  -0.03670   0.00003  -0.01938
  35        3S         -0.01222   0.00820  -0.02636   0.00010  -0.00356
  36 6   H  1S         -0.02027  -0.01487  -0.00926  -0.00043  -0.01517
  37        2S         -0.03119  -0.03582  -0.01062   0.00001  -0.02026
  38        3S         -0.01223  -0.02671  -0.00610   0.00008  -0.00413
                          11        12        13        14        15
  11        4PX         0.06007
  12        4PY        -0.00916   0.05110
  13        4PZ        -0.00080  -0.00134   0.14245
  14 2   H  1S          0.03358  -0.05422  -0.00061   0.08133
  15        2S          0.04849  -0.07505  -0.00022   0.10960   0.14978
  16        3S          0.02115  -0.02780   0.00013   0.03680   0.05257
  17 3   H  1S         -0.06315   0.00163  -0.00065  -0.01311  -0.02478
  18        2S         -0.08743   0.00425  -0.00025  -0.02471  -0.04305
  19        3S         -0.03356   0.00455   0.00012  -0.01813  -0.02751
  20 4   C  1S         -0.00313  -0.00572  -0.00037   0.00423   0.00670
  21        2S         -0.00650  -0.01170  -0.00060   0.00699   0.01119
  22        2PX        -0.01312  -0.01995   0.00066   0.00186  -0.00269
  23        2PY        -0.01998  -0.03677   0.00120   0.01144   0.02416
  24        2PZ        -0.00045  -0.00072   0.09571  -0.00033  -0.00010
  25        3S          0.02305   0.04121   0.00177  -0.02105  -0.03368
  26        3PX        -0.02016  -0.02817   0.00089   0.00101  -0.00727
  27        3PY        -0.02813  -0.05350   0.00165   0.01700   0.03616
  28        3PZ        -0.00074  -0.00119   0.15319  -0.00049  -0.00010
  29        4S          0.00784   0.01495   0.00224  -0.01759  -0.02408
  30        4PX        -0.01476  -0.01232   0.00082  -0.00170  -0.00853
  31        4PY        -0.01244  -0.02942   0.00155   0.01519   0.02701
  32        4PZ        -0.00089  -0.00146   0.14253  -0.00027   0.00017
  33 5   H  1S          0.00197  -0.01587  -0.00021   0.01123   0.02336
  34        2S          0.00920  -0.02764   0.00027   0.02386   0.04452
  35        3S          0.00758  -0.01589   0.00019   0.01671   0.02795
  36 6   H  1S         -0.01448  -0.00571  -0.00021  -0.00915  -0.01833
  37        2S         -0.02812  -0.00508   0.00026  -0.01896  -0.03457
  38        3S         -0.01725  -0.00110   0.00018  -0.01026  -0.01791
                          16        17        18        19        20
  16        3S          0.02109
  17 3   H  1S         -0.01828   0.08257
  18        2S         -0.02758   0.10985   0.14828
  19        3S         -0.01299   0.03616   0.05111   0.02025
  20 4   C  1S          0.00369   0.00430   0.00669   0.00368   0.65947
  21        2S          0.00545   0.00709   0.01115   0.00539   0.56156
  22        2PX        -0.00350   0.00905   0.02225   0.01669   0.00120
  23        2PY         0.01757   0.00749   0.00968   0.00556   0.00184
  24        2PZ         0.00002  -0.00033  -0.00007   0.00004   0.00005
  25        3S         -0.01413  -0.02126  -0.03340  -0.01383  -0.08922
  26        3PX        -0.00703   0.01435   0.03500   0.02608  -0.00048
  27        3PY         0.02647   0.00951   0.01161   0.00686  -0.00106
  28        3PZ         0.00005  -0.00048  -0.00005   0.00008   0.00011
  29        4S         -0.00579  -0.01726  -0.02305  -0.00519  -0.08013
  30        4PX        -0.00708   0.01412   0.02772   0.01712  -0.00021
  31        4PY         0.01585   0.00655   0.00651   0.00185  -0.00022
  32        4PZ         0.00017  -0.00027   0.00020   0.00019  -0.00003
  33 5   H  1S          0.01622  -0.00904  -0.01814  -0.00948  -0.02012
  34        2S          0.02748  -0.01869  -0.03401  -0.01705  -0.02221
  35        3S          0.01470  -0.01013  -0.01762  -0.00904   0.00058
  36 6   H  1S         -0.00962   0.01124   0.02328   0.01595  -0.01983
  37        2S         -0.01742   0.02383   0.04431   0.02710  -0.02214
  38        3S         -0.00924   0.01668   0.02775   0.01448   0.00048
                          21        22        23        24        25
  21        2S          0.49205
  22        2PX         0.00173   0.08256
  23        2PY         0.00262   0.00380   0.08767
  24        2PZ         0.00007   0.00009   0.00012   0.06432
  25        3S         -0.15419  -0.00555  -0.00856  -0.00008   0.45351
  26        3PX        -0.00072   0.12844   0.00194   0.00005  -0.00026
  27        3PY        -0.00161   0.00197   0.13135   0.00005   0.00069
  28        3PZ         0.00018   0.00013   0.00019   0.10294  -0.00035
  29        4S         -0.11574   0.01403   0.02372   0.00039   0.27820
  30        4PX        -0.00148   0.07302  -0.00514   0.00028   0.00627
  31        4PY        -0.00231  -0.00504   0.06693   0.00051   0.01019
  32        4PZ        -0.00009   0.00047   0.00084   0.09577   0.00050
  33 5   H  1S         -0.03205  -0.03326   0.06360  -0.00077   0.08571
  34        2S         -0.03549  -0.04948   0.08853  -0.00061   0.09495
  35        3S         -0.00063  -0.02251   0.03350  -0.00006   0.00569
  36 6   H  1S         -0.03161   0.07105   0.00262  -0.00071   0.08452
  37        2S         -0.03540   0.10121   0.00087  -0.00053   0.09468
  38        3S         -0.00077   0.04053  -0.00302  -0.00003   0.00598
                          26        27        28        29        30
  26        3PX         0.20018
  27        3PY        -0.00267   0.19738
  28        3PZ         0.00007   0.00008   0.16478
  29        4S          0.02580   0.04330   0.00048   0.18673
  30        4PX         0.11427  -0.01078   0.00044   0.01587   0.06632
  31        4PY        -0.01067   0.10111   0.00082   0.02557  -0.01042
  32        4PZ         0.00060   0.00108   0.15330   0.00120   0.00069
  33 5   H  1S         -0.05326   0.09966  -0.00127   0.06728  -0.03434
  34        2S         -0.07967   0.13822  -0.00102   0.07776  -0.05184
  35        3S         -0.03669   0.05163  -0.00010   0.00942  -0.02407
  36 6   H  1S          0.11231   0.00326  -0.00118   0.06748   0.06565
  37        2S          0.15978  -0.00052  -0.00090   0.07916   0.09386
  38        3S          0.06366  -0.00628  -0.00005   0.01036   0.03773
                          31        32        33        34        35
  31        4PY         0.05332
  32        4PZ         0.00129   0.14263
  33 5   H  1S          0.05566  -0.00066   0.08075
  34        2S          0.07730  -0.00028   0.10997   0.15218
  35        3S          0.02898   0.00009   0.03800   0.05515   0.02281
  36 6   H  1S         -0.00197  -0.00062  -0.01246  -0.02598  -0.01989
  37        2S         -0.00628  -0.00023  -0.02606  -0.04818  -0.03155
  38        3S         -0.00633   0.00011  -0.02006  -0.03164  -0.01561
                          36        37        38
  36 6   H  1S          0.07985
  37        2S          0.10965   0.15294
  38        3S          0.03829   0.05589   0.02322
    Full Mulliken population analysis:
                           1         2         3         4         5
   1 1   C  1S          0.65941
   2        2S          0.49327   0.49203
   3        2PX         0.00000   0.00000   0.08447
   4        2PY         0.00000   0.00000   0.00000   0.08782
   5        2PZ         0.00000   0.00000   0.00000   0.00000   0.06444
   6        3S         -0.02928  -0.06444   0.00000   0.00000   0.00000
   7        3PX         0.00000   0.00000   0.08223   0.00000   0.00000
   8        3PY         0.00000   0.00000   0.00000   0.08262   0.00000
   9        3PZ         0.00000   0.00000   0.00000   0.00000   0.06520
  10        4S         -0.01219  -0.02136   0.00000   0.00000   0.00000
  11        4PX         0.00000   0.00000   0.01549   0.00000   0.00000
  12        4PY         0.00000   0.00000   0.00000   0.01444   0.00000
  13        4PZ         0.00000   0.00000   0.00000   0.00000   0.02110
  14 2   H  1S         -0.00023  -0.00033   0.00181   0.00564   0.00000
  15        2S         -0.00166  -0.00318   0.00431   0.01322   0.00000
  16        3S          0.00004  -0.00007   0.00070   0.00191   0.00000
  17 3   H  1S         -0.00026  -0.00037   0.00794   0.00000   0.00000
  18        2S         -0.00174  -0.00332   0.01777   0.00000   0.00000
  19        3S          0.00005  -0.00006   0.00256  -0.00000   0.00000
  20 4   C  1S          0.00000   0.00000  -0.00002  -0.00006   0.00000
  21        2S          0.00000  -0.00000  -0.00002  -0.00006   0.00000
  22        2PX        -0.00002  -0.00002   0.00011   0.00086   0.00000
  23        2PY        -0.00006  -0.00005   0.00086   0.00198   0.00000
  24        2PZ        -0.00000  -0.00000  -0.00000  -0.00000   0.00042
  25        3S         -0.00060  -0.00101   0.00255   0.00768  -0.00000
  26        3PX        -0.00055  -0.00100   0.00019   0.00557   0.00000
  27        3PY        -0.00164  -0.00302   0.00554   0.01071   0.00000
  28        3PZ        -0.00000  -0.00000  -0.00000  -0.00000   0.00615
  29        4S          0.00034   0.00030   0.00093   0.00285  -0.00000
  30        4PX        -0.00018  -0.00046  -0.00071   0.00145   0.00000
  31        4PY        -0.00053  -0.00135   0.00145   0.00096   0.00000
  32        4PZ        -0.00000  -0.00000  -0.00000  -0.00000   0.00904
  33 5   H  1S          0.00000   0.00000  -0.00000  -0.00000   0.00000
  34        2S          0.00001   0.00002   0.00000  -0.00032   0.00000
  35        3S          0.00008   0.00013   0.00001  -0.00070  -0.00000
  36 6   H  1S          0.00000   0.00000  -0.00000  -0.00000   0.00000
  37        2S          0.00001   0.00002  -0.00024  -0.00007   0.00000
  38        3S          0.00007   0.00013  -0.00057  -0.00012  -0.00000
                           6         7         8         9        10
   6        3S          0.45261
   7        3PX         0.00000   0.20257
   8        3PY         0.00000   0.00000   0.19687
   9        3PZ         0.00000   0.00000   0.00000   0.16668
  10        4S          0.21140   0.00000   0.00000   0.00000   0.18146
  11        4PX         0.00000   0.07145   0.00000   0.00000   0.00000
  12        4PY         0.00000   0.00000   0.06454   0.00000   0.00000
  13        4PZ         0.00000   0.00000   0.00000   0.10069   0.00000
  14 2   H  1S          0.01606   0.01075   0.03247   0.00001   0.01825
  15        2S          0.04107   0.01957   0.05770   0.00001   0.04677
  16        3S          0.00282   0.00398   0.01023   0.00000   0.00838
  17 3   H  1S          0.01702   0.04444   0.00001   0.00001   0.01850
  18        2S          0.04245   0.07736   0.00000   0.00001   0.04649
  19        3S          0.00284   0.01388  -0.00001   0.00000   0.00764
  20 4   C  1S         -0.00060  -0.00057  -0.00173   0.00000   0.00033
  21        2S         -0.00101  -0.00106  -0.00318   0.00000   0.00029
  22        2PX         0.00245   0.00018   0.00555   0.00000   0.00082
  23        2PY         0.00735   0.00553   0.01065   0.00000   0.00243
  24        2PZ         0.00000  -0.00000  -0.00000   0.00618   0.00000
  25        3S          0.02197   0.01338   0.04039  -0.00000   0.00043
  26        3PX         0.01268  -0.00127   0.01856   0.00000   0.00412
  27        3PY         0.03810   0.01844   0.02845   0.00000   0.01228
  28        3PZ         0.00000  -0.00000  -0.00000   0.03546   0.00000
  29        4S          0.00072   0.00479   0.01467  -0.00000  -0.02029
  30        4PX         0.00638  -0.00403   0.00583   0.00000   0.00205
  31        4PY         0.01892   0.00584   0.00121   0.00000   0.00575
  32        4PZ         0.00000  -0.00000  -0.00000   0.04935   0.00000
  33 5   H  1S         -0.00005  -0.00000  -0.00019   0.00000  -0.00080
  34        2S         -0.00121   0.00006  -0.00322  -0.00000  -0.00325
  35        3S         -0.00199   0.00011  -0.00425  -0.00000  -0.00128
  36 6   H  1S         -0.00005  -0.00013  -0.00005   0.00000  -0.00080
  37        2S         -0.00118  -0.00256  -0.00052  -0.00000  -0.00337
  38        3S         -0.00198  -0.00354  -0.00055  -0.00000  -0.00148
                          11        12        13        14        15
  11        4PX         0.06007
  12        4PY         0.00000   0.05110
  13        4PZ         0.00000   0.00000   0.14245
  14 2   H  1S          0.00631   0.01755   0.00000   0.08133
  15        2S          0.01535   0.04090   0.00000   0.07742   0.14978
  16        3S          0.00525   0.01187  -0.00000   0.01375   0.04147
  17 3   H  1S          0.02366  -0.00001   0.00000  -0.00001  -0.00067
  18        2S          0.05500  -0.00003   0.00000  -0.00066  -0.00546
  19        3S          0.01648  -0.00003  -0.00000  -0.00204  -0.00807
  20 4   C  1S         -0.00018  -0.00058   0.00000   0.00000   0.00002
  21        2S         -0.00046  -0.00144   0.00000   0.00000   0.00003
  22        2PX        -0.00071   0.00138   0.00000  -0.00000   0.00000
  23        2PY         0.00138   0.00094   0.00000  -0.00000  -0.00036
  24        2PZ        -0.00000  -0.00000   0.00902   0.00000   0.00000
  25        3S          0.00648   0.02006  -0.00000  -0.00007  -0.00148
  26        3PX        -0.00415   0.00557   0.00000  -0.00000   0.00004
  27        3PY         0.00557   0.00121   0.00000  -0.00022  -0.00355
  28        3PZ        -0.00000  -0.00000   0.04903   0.00000   0.00000
  29        4S          0.00238   0.00784  -0.00000  -0.00103  -0.00432
  30        4PX        -0.00713   0.00311   0.00000   0.00002   0.00018
  31        4PY         0.00315  -0.00561   0.00000  -0.00241  -0.01018
  32        4PZ        -0.00000  -0.00000   0.08959   0.00000  -0.00000
  33 5   H  1S          0.00002  -0.00235   0.00000   0.00000   0.00000
  34        2S          0.00027  -0.00992  -0.00000   0.00000   0.00016
  35        3S          0.00029  -0.00734  -0.00000   0.00023   0.00147
  36 6   H  1S         -0.00176  -0.00048   0.00000  -0.00000  -0.00004
  37        2S         -0.00829  -0.00103  -0.00000  -0.00004  -0.00092
  38        3S         -0.00657  -0.00029  -0.00000  -0.00047  -0.00249
                          16        17        18        19        20
  16        3S          0.02109
  17 3   H  1S         -0.00205   0.08257
  18        2S         -0.00809   0.07759   0.14828
  19        3S         -0.00678   0.01351   0.04032   0.02025
  20 4   C  1S          0.00009   0.00000   0.00002   0.00009   0.65947
  21        2S          0.00016   0.00000   0.00003   0.00016   0.49330
  22        2PX         0.00001  -0.00000  -0.00028  -0.00058   0.00000
  23        2PY        -0.00074  -0.00000  -0.00008  -0.00013   0.00000
  24        2PZ        -0.00000   0.00000   0.00000  -0.00000   0.00000
  25        3S         -0.00244  -0.00007  -0.00148  -0.00239  -0.02937
  26        3PX         0.00007  -0.00016  -0.00287  -0.00364   0.00000
  27        3PY        -0.00443  -0.00007  -0.00064  -0.00064   0.00000
  28        3PZ        -0.00000   0.00000   0.00000  -0.00000   0.00000
  29        4S         -0.00217  -0.00101  -0.00415  -0.00195  -0.01232
  30        4PX         0.00019  -0.00187  -0.00871  -0.00673   0.00000
  31        4PY        -0.00748  -0.00058  -0.00137  -0.00048   0.00000
  32        4PZ        -0.00000   0.00000  -0.00000  -0.00000   0.00000
  33 5   H  1S          0.00023  -0.00000  -0.00004  -0.00043  -0.00022
  34        2S          0.00144  -0.00004  -0.00090  -0.00235  -0.00159
  35        3S          0.00247  -0.00046  -0.00243  -0.00287   0.00005
  36 6   H  1S         -0.00044   0.00000   0.00000   0.00022  -0.00020
  37        2S         -0.00242   0.00000   0.00015   0.00141  -0.00155
  38        3S         -0.00295   0.00023   0.00145   0.00243   0.00004
                          21        22        23        24        25
  21        2S          0.49205
  22        2PX         0.00000   0.08256
  23        2PY         0.00000   0.00000   0.08767
  24        2PZ         0.00000   0.00000   0.00000   0.06432
  25        3S         -0.06458   0.00000   0.00000   0.00000   0.45351
  26        3PX         0.00000   0.08081   0.00000   0.00000   0.00000
  27        3PY         0.00000   0.00000   0.08264   0.00000   0.00000
  28        3PZ         0.00000   0.00000   0.00000   0.06476   0.00000
  29        4S         -0.02166   0.00000   0.00000   0.00000   0.21552
  30        4PX         0.00000   0.01608   0.00000   0.00000   0.00000
  31        4PY         0.00000   0.00000   0.01474   0.00000   0.00000
  32        4PZ         0.00000   0.00000   0.00000   0.02109   0.00000
  33 5   H  1S         -0.00030   0.00148   0.00567   0.00000   0.01539
  34        2S         -0.00304   0.00381   0.01366   0.00000   0.03946
  35        3S         -0.00006   0.00067   0.00200   0.00000   0.00261
  36 6   H  1S         -0.00028   0.00679   0.00001   0.00000   0.01480
  37        2S         -0.00296   0.01723   0.00001   0.00000   0.03880
  38        3S         -0.00007   0.00271  -0.00001   0.00000   0.00272
                          26        27        28        29        30
  26        3PX         0.20018
  27        3PY         0.00000   0.19738
  28        3PZ         0.00000   0.00000   0.16478
  29        4S          0.00000   0.00000   0.00000   0.18673
  30        4PX         0.07467   0.00000   0.00000   0.00000   0.06632
  31        4PY         0.00000   0.06607   0.00000   0.00000   0.00000
  32        4PZ         0.00000   0.00000   0.10017   0.00000   0.00000
  33 5   H  1S          0.00893   0.03346   0.00001   0.01765   0.00573
  34        2S          0.01729   0.06009   0.00001   0.04453   0.01460
  35        3S          0.00382   0.01077   0.00000   0.00708   0.00533
  36 6   H  1S          0.04136   0.00007   0.00001   0.01753   0.02448
  37        2S          0.07706  -0.00001   0.00001   0.04500   0.05916
  38        3S          0.01485  -0.00009   0.00000   0.00775   0.01874
                          31        32        33        34        35
  31        4PY         0.05332
  32        4PZ         0.00000   0.14263
  33 5   H  1S          0.01862   0.00000   0.08075
  34        2S          0.04362   0.00000   0.07768   0.15218
  35        3S          0.01285  -0.00000   0.01420   0.04351   0.02281
  36 6   H  1S         -0.00004   0.00000  -0.00001  -0.00078  -0.00232
  37        2S         -0.00023   0.00000  -0.00078  -0.00654  -0.00956
  38        3S         -0.00018  -0.00000  -0.00234  -0.00959  -0.00832
                          36        37        38
  36 6   H  1S          0.07985
  37        2S          0.07746   0.15294
  38        3S          0.01431   0.04410   0.02322
     Gross orbital populations:
                           1
   1 1   C  1S          1.10435
   2        2S          0.88586
   3        2PX         0.22736
   4        2PY         0.23639
   5        2PZ         0.16636
   6        3S          0.79302
   7        3PX         0.56139
   8        3PY         0.55602
   9        3PZ         0.42359
  10        4S          0.50257
  11        4PX         0.25935
  12        4PY         0.21142
  13        4PZ         0.41190
  14 2   H  1S          0.27406
  15        2S          0.46707
  16        3S          0.08609
  17 3   H  1S          0.27789
  18        2S          0.46468
  19        3S          0.08265
  20 4   C  1S          1.10441
  21        2S          0.88584
  22        2PX         0.22187
  23        2PY         0.23611
  24        2PZ         0.16580
  25        3S          0.79227
  26        3PX         0.55212
  27        3PY         0.55647
  28        3PZ         0.42038
  29        4S          0.50768
  30        4PX         0.27451
  31        4PY         0.21605
  32        4PZ         0.41188
  33 5   H  1S          0.27231
  34        2S          0.46965
  35        3S          0.08888
  36 6   H  1S          0.26952
  37        2S          0.47108
  38        3S          0.09115
          Condensed to atoms (all electrons):
               1          2          3          4          5          6
     1  C    5.032283   0.387441   0.388296   0.602821  -0.035882  -0.035379
     2  H    0.387441   0.517477  -0.033817  -0.040100   0.005998  -0.009771
     3  H    0.388296  -0.033817   0.513966  -0.039597  -0.009523   0.005902
     4  C    0.602821  -0.040100  -0.039597   5.054769   0.383986   0.383501
     5  H   -0.035882   0.005998  -0.009523   0.383986   0.526510  -0.040244
     6  H   -0.035379  -0.009771   0.005902   0.383501  -0.040244   0.527732
 Mulliken charges:
               1
     1  C   -0.339581
     2  H    0.172772
     3  H    0.174774
     4  C   -0.345379
     5  H    0.169155
     6  H    0.168259
 Sum of Mulliken charges =   0.00000
 Mulliken charges with hydrogens summed into heavy atoms:
               1
     1  C    0.007966
     4  C   -0.007966
 Electronic spatial extent (au):  <R**2>=             83.6881
 Charge=              0.0000 electrons
 Dipole moment (field-independent basis, Debye):
    X=             -0.0004    Y=              0.0158    Z=             -0.0630  Tot=              0.0649
 Quadrupole moment (field-independent basis, Debye-Ang):
   XX=            -12.2055   YY=            -12.2100   ZZ=            -15.6675
   XY=              0.0227   XZ=             -0.0004   YZ=             -0.0024
 Traceless Quadrupole moment (field-independent basis, Debye-Ang):
   XX=              1.1555   YY=              1.1510   ZZ=             -2.3065
   XY=              0.0227   XZ=             -0.0004   YZ=             -0.0024
 Octapole moment (field-independent basis, Debye-Ang**2):
  XXX=             -0.3303  YYY=             -0.0445  ZZZ=             -0.0676  XYY=              0.1456
  XXY=             -0.0500  XXZ=             -0.0922  XZZ=             -0.0955  YZZ=             -0.0841
  YYZ=             -0.1189  XYZ=             -0.0235
 Hexadecapole moment (field-independent basis, Debye-Ang**3):
 XXXX=            -34.2747 YYYY=            -55.1565 ZZZZ=            -17.7910 XXXY=             -7.2267
 XXXZ=              0.0092 YYYX=            -10.6871 YYYZ=              0.0121 ZZZX=              0.0130
 ZZZY=              0.0239 XXYY=            -16.1854 XXZZ=             -9.9234 YYZZ=            -13.6392
 XXYZ=              0.0052 YYXZ=              0.0008 ZZXY=             -3.2019
 N-N= 3.308274026896D+01 E-N=-2.478787363643D+02  KE= 7.815517617722D+01
 Orbital energies and kinetic energies (alpha):
                                 1                 2
   1         O               -10.290406         15.978605
   2         O               -10.287627         15.979594
   3         O                -0.864047          1.540576
   4         O                -0.672165          1.270692
   5         O                -0.559148          0.942215
   6         O                -0.509922          1.284109
   7         O                -0.436158          1.042846
   8         O                -0.357145          1.038950
   9         V                 0.080285          1.181472
  10         V                 0.141039          0.588998
  11         V                 0.164586          0.595841
  12         V                 0.170049          0.679423
  13         V                 0.240857          0.583092
  14         V                 0.375310          0.853129
  15         V                 0.392782          0.932634
  16         V                 0.398475          0.778135
  17         V                 0.463544          1.192964
  18         V                 0.488248          1.421650
  19         V                 0.493599          1.300640
  20         V                 0.591207          1.653393
  21         V                 0.665421          1.571213
  22         V                 0.691097          2.147541
  23         V                 0.772592          2.449324
  24         V                 0.776168          2.289777
  25         V                 0.844155          1.088002
  26         V                 0.953448          3.433602
  27         V                 2.231653          3.924516
  28         V                 2.289567          4.031633
  29         V                 2.333241          4.302666
  30         V                 2.407708          4.520734
  31         V                 2.671413          6.301575
  32         V                 2.818078          6.307329
  33         V                 2.877991          6.134324
  34         V                 2.951644          6.226782
  35         V                 3.141754          6.821927
  36         V                 3.319554          6.400864
  37         V                23.351946         60.073978
  38         V                23.707195         60.204831
 Total kinetic energy from orbitals= 7.815517617722D+01
 Calling FoFJK, ICntrl=      2127 FMM=F ISym2X=0 I1Cent= 0 IOpClX= 0 NMat=1 NMatS=1 NMatT=0.
 -------------------------------------------------------------------
 Center     Atomic                   Forces (Hartrees/Bohr)
 Number     Number              X              Y              Z
 -------------------------------------------------------------------
      1        6           0.012555806    0.006124085   -0.002509640
      2        1          -0.008655437    0.005955419    0.001276428
      3        1           0.001765013   -0.003715057    0.001164837
      4        6           0.010400070    0.010548548   -0.002814005
      5        1           0.002396618   -0.013772827    0.001404251
      6        1          -0.018462071   -0.005140168    0.001478129
 -------------------------------------------------------------------
 Cartesian Forces:  Max     0.018462071 RMS     0.007909032

 GradGradGradGradGradGradGradGradGradGradGradGradGradGradGradGradGradGrad
 Berny optimization.
 Search for a local minimum.
 Step number   1 out of a maximum of    2
 All quantities printed in internal units (Hartrees-Bohrs-Radians)
 Second derivative matrix not updated -- first step.
 The second derivative matrix:
                          X1        Y1        Z1        X2        Y2
           X1           0.76150
           Y1           0.10117   0.86255
           Z1           0.00370   0.00566   0.17272
           X2          -0.16390   0.09604   0.00133   0.14143
           Y2           0.10231  -0.28424  -0.00473  -0.11536   0.27303
           Z2           0.00210  -0.00594  -0.05519  -0.00191   0.00491
           X3          -0.35414  -0.00296  -0.00519  -0.00041  -0.00024
           Y3          -0.00917  -0.11050  -0.00127   0.03254   0.01888
           Z3          -0.00664  -0.00123  -0.05674   0.00096   0.00035
           X4          -0.26849  -0.17979  -0.00050   0.02289   0.01329
           Y4          -0.18003  -0.47605  -0.00082  -0.01322  -0.00767
           Z4           0.00083   0.00149  -0.09521  -0.00038  -0.00053
           X5           0.02351  -0.01357   0.00040  -0.00000   0.00000
           Y5           0.01172  -0.00677   0.00055   0.00000  -0.00000
           Z5          -0.00034   0.00021   0.01763   0.00016  -0.00009
           X6           0.00153  -0.00088   0.00025  -0.00000   0.00000
           Y6          -0.02601   0.01502   0.00061   0.00000  -0.00000
           Z6           0.00035  -0.00019   0.01679  -0.00016   0.00009
                          Z2        X3        Y3        Z3        X4
           Z2           0.02867
           X3          -0.00020   0.35423
           Y3           0.00102   0.00339   0.07617
           Z3           0.01058   0.00567   0.00087   0.02966
           X4           0.00033   0.00033  -0.02676  -0.00033   0.71178
           Y4          -0.00018  -0.00019   0.01545   0.00020   0.12207
           Z4           0.01586  -0.00028  -0.00062   0.01659  -0.00332
           X5          -0.00017  -0.00000   0.00000   0.00017  -0.14632
           Y5           0.00010   0.00000  -0.00000  -0.00011   0.09220
           Z5           0.00934   0.00017  -0.00010  -0.00953  -0.00200
           X6          -0.00016  -0.00000   0.00000   0.00017  -0.32019
           Y6           0.00009   0.00000  -0.00000  -0.00009  -0.02100
           Z6          -0.00926  -0.00017   0.00010   0.00944   0.00581
                          Y4        Z4        X5        Y5        Z5
           Y4           0.86154
           Z4          -0.00636   0.17649
           X5           0.08406  -0.00132   0.12474
           Y5          -0.28906   0.00479  -0.10298   0.27964
           Z5           0.00594  -0.05736   0.00178  -0.00511   0.02970
           X6          -0.01269   0.00448  -0.00192  -0.00095   0.00023
           Y6          -0.10421   0.00123   0.03248   0.01619  -0.00085
           Z6           0.00121  -0.05636  -0.00087  -0.00023   0.01022
                          X6        Y6        Z6
           X6           0.32058
           Y6           0.01452   0.07299
           Z6          -0.00496  -0.00099   0.02916
 ITU=  0
     Eigenvalues ---    0.03759   0.04384   0.09392   0.09954   0.13540
     Eigenvalues ---    0.17436   0.26629   0.28957   0.52918   0.69944
     Eigenvalues ---    0.97463   1.57069
 Angle between quadratic step and forces=  32.63 degrees.
 Linear search not attempted -- first point.
 B after Tr=     0.006522    0.006442   -0.006424
         Rot=    1.000000   -0.000017    0.000010   -0.000107 Ang=  -0.01 deg.
 Variable       Old X    -DE/DX   Delta X   Delta X   Delta X     New X
                                 (Linear)    (Quad)   (Total)
    X1       -0.63426   0.01256   0.00000   0.01971   0.02647  -0.60779
    Y1       -1.09684   0.00612   0.00000   0.01978   0.02609  -1.07075
    Z1        0.00907  -0.00251   0.00000  -0.01352  -0.01999  -0.01092
    X2        0.40676  -0.00866   0.00000  -0.03244  -0.02530   0.38146
    Y2       -2.88926   0.00596   0.00000   0.02127   0.02779  -2.86146
    Z2       -0.02554   0.00128   0.00000   0.01657   0.01005  -0.01549
    X3       -2.68351   0.00177   0.00000   0.02446   0.03123  -2.65228
    Y3       -1.12191  -0.00372   0.00000  -0.00979  -0.00392  -1.12583
    Z3       -0.02678   0.00116   0.00000   0.01636   0.00984  -0.01694
    X4        0.62868   0.01040   0.00000   0.00727   0.01356   0.64223
    Y4        1.09033   0.01055   0.00000   0.00690   0.01348   1.10381
    Z4        0.00725  -0.00281   0.00000  -0.01307  -0.01945  -0.01220
    X5       -0.30383   0.00240   0.00000  -0.00965  -0.00375  -0.30758
    Y5        2.95875  -0.01377   0.00000  -0.04625  -0.03987   2.91888
    Z5       -0.02993   0.00140   0.00000   0.01622   0.00989  -0.02004
    X6        2.73044  -0.01846   0.00000  -0.04847  -0.04220   2.68824
    Y6        1.21331  -0.00514   0.00000  -0.03059  -0.02357   1.18974
    Z6       -0.02883   0.00148   0.00000   0.01598   0.00965  -0.01918
         Item               Value     Threshold  Converged?
 Maximum Force            0.018462     0.000450     NO 
 RMS     Force            0.007909     0.000300     NO 
 Maximum Displacement     0.042204     0.001800     NO 
 RMS     Displacement     0.022678     0.001200     NO 
 Predicted change in Energy=-1.413668D-03
 GradGradGradGradGradGradGradGradGradGradGradGradGradGradGradGradGradGrad

 Unable to Open any file for archive entry.
 1\1\GINC-BHD0014\Force\RwB97XD\6-311G\C2H4\BWEIGHT\11-Jan-2023\0\\# WB
 97XD/6-311G SCF=XQC FORCE nosym pop=full guess=read\\MD Step 999\\0,1\
 C,-0.33563624,-0.58042254,0.00479817\H,0.21524616,-1.52892864,-0.01351
 709\H,-1.42005,-0.5936901,-0.01417349\C,0.33268173,0.57697833,0.003835
 52\H,-0.16077977,1.56570218,-0.01583663\H,1.44488766,0.64205662,-0.015
 25426\\Version=ES64L-G16RevC.01\HF=-78.5559567\RMSD=5.829e-09\RMSF=7.9
 09e-03\Dipole=-0.0001496,0.0062332,-0.024769\Quadrupole=0.8590616,0.85
 57451,-1.7148067,0.0168749,-0.0003171,-0.001796\PG=C01 [X(C2H4)]\\@
 The archive entry for this job was punched.


 Boundary, n.  In political geography, an imaginary
 line between two nations, separating the imaginary
 rights of one from the imaginary rights of another.
                               -- Ambrose Bierce
 Job cpu time:       0 days  0 hours  0 minutes 46.1 seconds.
 Elapsed time:       0 days  0 hours  0 minutes 16.6 seconds.
 File lengths (MBytes):  RWF=    272 Int=      0 D2E=      0 Chk=     32 Scr=     32
 Normal termination of Gaussian 16 at Wed Jan 11 16:35:31 2023.
