 Entering Gaussian System, Link 0=g16
 Initial command:
 /software/gaussian/g16-c01/avx2/g16/l1.exe "/gpfs/fs2/scratch/bweight/software/many_molecule_many_mode_NAMD/src/NAMD/TEST_NVT/TRAJ/traj-12/G16/GS_NEW/Gau-11781.inp" -scrdir="/gpfs/fs2/scratch/bweight/software/many_molecule_many_mode_NAMD/src/NAMD/TEST_NVT/TRAJ/traj-12/G16/GS_NEW/"
 Entering Link 1 = /software/gaussian/g16-c01/avx2/g16/l1.exe PID=     11782.
  
 Copyright (c) 1988-2019, Gaussian, Inc.  All Rights Reserved.
  
 This is part of the Gaussian(R) 16 program.  It is based on
 the Gaussian(R) 09 system (copyright 2009, Gaussian, Inc.),
 the Gaussian(R) 03 system (copyright 2003, Gaussian, Inc.),
 the Gaussian(R) 98 system (copyright 1998, Gaussian, Inc.),
 the Gaussian(R) 94 system (copyright 1995, Gaussian, Inc.),
 the Gaussian 92(TM) system (copyright 1992, Gaussian, Inc.),
 the Gaussian 90(TM) system (copyright 1990, Gaussian, Inc.),
 the Gaussian 88(TM) system (copyright 1988, Gaussian, Inc.),
 the Gaussian 86(TM) system (copyright 1986, Carnegie Mellon
 University), and the Gaussian 82(TM) system (copyright 1983,
 Carnegie Mellon University). Gaussian is a federally registered
 trademark of Gaussian, Inc.
  
 This software contains proprietary and confidential information,
 including trade secrets, belonging to Gaussian, Inc.
  
 This software is provided under written license and may be
 used, copied, transmitted, or stored only in accord with that
 written license.
  
 The following legend is applicable only to US Government
 contracts under FAR:
  
                    RESTRICTED RIGHTS LEGEND
  
 Use, reproduction and disclosure by the US Government is
 subject to restrictions as set forth in subparagraphs (a)
 and (c) of the Commercial Computer Software - Restricted
 Rights clause in FAR 52.227-19.
  
 Gaussian, Inc.
 340 Quinnipiac St., Bldg. 40, Wallingford CT 06492
  
  
 ---------------------------------------------------------------
 Warning -- This program may not be used in any manner that
 competes with the business of Gaussian, Inc. or will provide
 assistance to any competitor of Gaussian, Inc.  The licensee
 of this program is prohibited from giving any competitor of
 Gaussian, Inc. access to this program.  By using this program,
 the user acknowledges that Gaussian, Inc. is engaged in the
 business of creating and licensing software in the field of
 computational chemistry and represents and warrants to the
 licensee that it is not a competitor of Gaussian, Inc. and that
 it will not use this program in any manner prohibited above.
 ---------------------------------------------------------------
  

 Cite this work as:
 Gaussian 16, Revision C.01,
 M. J. Frisch, G. W. Trucks, H. B. Schlegel, G. E. Scuseria, 
 M. A. Robb, J. R. Cheeseman, G. Scalmani, V. Barone, 
 G. A. Petersson, H. Nakatsuji, X. Li, M. Caricato, A. V. Marenich, 
 J. Bloino, B. G. Janesko, R. Gomperts, B. Mennucci, H. P. Hratchian, 
 J. V. Ortiz, A. F. Izmaylov, J. L. Sonnenberg, D. Williams-Young, 
 F. Ding, F. Lipparini, F. Egidi, J. Goings, B. Peng, A. Petrone, 
 T. Henderson, D. Ranasinghe, V. G. Zakrzewski, J. Gao, N. Rega, 
 G. Zheng, W. Liang, M. Hada, M. Ehara, K. Toyota, R. Fukuda, 
 J. Hasegawa, M. Ishida, T. Nakajima, Y. Honda, O. Kitao, H. Nakai, 
 T. Vreven, K. Throssell, J. A. Montgomery, Jr., J. E. Peralta, 
 F. Ogliaro, M. J. Bearpark, J. J. Heyd, E. N. Brothers, K. N. Kudin, 
 V. N. Staroverov, T. A. Keith, R. Kobayashi, J. Normand, 
 K. Raghavachari, A. P. Rendell, J. C. Burant, S. S. Iyengar, 
 J. Tomasi, M. Cossi, J. M. Millam, M. Klene, C. Adamo, R. Cammi, 
 J. W. Ochterski, R. L. Martin, K. Morokuma, O. Farkas, 
 J. B. Foresman, and D. J. Fox, Gaussian, Inc., Wallingford CT, 2019.
 
 ******************************************
 Gaussian 16:  ES64L-G16RevC.01  3-Jul-2019
                11-Jan-2023 
 ******************************************
 %oldchk=../GS_OLD/geometry.chk
 %chk=geometry.chk
 %nprocshared=4
 Will use up to    4 processors via shared memory.
 %mem=5GB
 Copying data from "../GS_OLD/geometry.chk" to current chk file "geometry.chk"
 IOpt=  2 FromEx=T IUOpen= 4 IOptOp= 5 NList=   0 IFRang= 0 IUIn= 4 IUOut= 2.
 -------------------------------------------------------
 # WB97XD/6-311G SCF=XQC FORCE nosym pop=full guess=read
 -------------------------------------------------------
 1/10=7,30=1,38=1/1,3;
 2/12=2,15=1,17=6,18=5,40=1/2;
 3/5=4,6=6,11=2,25=1,30=1,71=1,74=-58,116=-2/1,2,3;
 4/5=1/1;
 5/5=2,8=3,13=1,38=6/2,8;
 6/7=3,28=1/1;
 7/29=1,30=1/1,2,3,16;
 1/10=7,30=1/3;
 99//99;
 ------------
 MD Step 1000
 ------------
 Symbolic Z-matrix:
 Charge =  0 Multiplicity = 1
 C                    -0.33606  -0.5814    0.00953 
 H                     0.22213  -1.52916  -0.03512 
 H                    -1.42489  -0.58801  -0.03725 
 C                     0.33332   0.57783   0.00695 
 H                    -0.15801   1.563    -0.04019 
 H                     1.43934   0.64259  -0.03782 
 

 GradGradGradGradGradGradGradGradGradGradGradGradGradGradGradGradGradGrad
 Berny optimization.
 Initialization pass.
 Trust Radius=3.00D-01 FncErr=1.00D-07 GrdErr=1.00D-07 EigMax=2.50D+02 EigMin=1.00D-04
 Number of steps in this run=      2 maximum allowed number of steps=      2.
 GradGradGradGradGradGradGradGradGradGradGradGradGradGradGradGradGradGrad

                          Input orientation:                          
 ---------------------------------------------------------------------
 Center     Atomic      Atomic             Coordinates (Angstroms)
 Number     Number       Type             X           Y           Z
 ---------------------------------------------------------------------
      1          6           0       -0.336060   -0.581399    0.009528
      2          1           0        0.222128   -1.529164   -0.035119
      3          1           0       -1.424886   -0.588006   -0.037252
      4          6           0        0.333318    0.577830    0.006946
      5          1           0       -0.158014    1.563005   -0.040192
      6          1           0        1.439344    0.642589   -0.037825
 ---------------------------------------------------------------------
                    Distance matrix (angstroms):
                    1          2          3          4          5
     1  C    0.000000
     2  H    1.100829   0.000000
     3  H    1.089850   1.896955   0.000000
     4  C    1.338614   2.110345   2.110074   0.000000
     5  H    2.152357   3.115452   2.496362   1.101907   0.000000
     6  H    2.156953   2.489605   3.117399   1.108824   1.843563
                    6
     6  H    0.000000
 Symmetry turned off by external request.
 Stoichiometry    C2H4
 Framework group  C1[X(C2H4)]
 Deg. of freedom    12
 Full point group                 C1      NOp   1
 Rotational constants (GHZ):         143.0324788          29.6848318          24.6002373
 Standard basis: 6-311G (5D, 7F)
    38 basis functions,    72 primitive gaussians,    38 cartesian basis functions
     8 alpha electrons        8 beta electrons
       nuclear repulsion energy        33.0604002931 Hartrees.
 NAtoms=    6 NActive=    6 NUniq=    6 SFac= 1.00D+00 NAtFMM=   60 NAOKFM=F Big=F
 Integral buffers will be    131072 words long.
 Raffenetti 2 integral format.
 Two-electron integral symmetry is turned off.
 Nuclear repulsion after empirical dispersion term =       33.0595575386 Hartrees.
 One-electron integrals computed using PRISM.
 NBasis=    38 RedAO= T EigKep=  6.43D-03  NBF=    38
 NBsUse=    38 1.00D-06 EigRej= -1.00D+00 NBFU=    38
 Initial guess from the checkpoint file:  "geometry.chk"
 B after Tr=    -0.000161   -0.000314   -0.000459
         Rot=    1.000000   -0.000001    0.000002    0.000005 Ang=  -0.00 deg.
 Keep R1 ints in memory in canonical form, NReq=4036876.
 Requested convergence on RMS density matrix=1.00D-08 within  32 cycles.
 Requested convergence on MAX density matrix=1.00D-06.
 Requested convergence on             energy=1.00D-06.
 No special actions if energy rises.
 SCF Done:  E(RwB97XD) =  -78.5555414938     A.U. after    8 cycles
            NFock=  8  Conv=0.77D-08     -V/T= 2.0052
 QCSCF skips out because SCF is already converged.

 **********************************************************************

            Population analysis using the SCF Density.

 **********************************************************************

 Alpha  occ. eigenvalues --  -10.28990 -10.28872  -0.86375  -0.67213  -0.55924
 Alpha  occ. eigenvalues --   -0.50909  -0.43660  -0.35679
 Alpha virt. eigenvalues --    0.07938   0.14081   0.16460   0.17021   0.24088
 Alpha virt. eigenvalues --    0.37333   0.39347   0.39874   0.46462   0.48841
 Alpha virt. eigenvalues --    0.49384   0.59101   0.66540   0.69062   0.77323
 Alpha virt. eigenvalues --    0.77485   0.83826   0.95171   2.23168   2.29075
 Alpha virt. eigenvalues --    2.33205   2.40447   2.67123   2.81661   2.87914
 Alpha virt. eigenvalues --    2.95160   3.13999   3.31694  23.35217  23.70546
     Molecular Orbital Coefficients:
                           1         2         3         4         5
                           O         O         O         O         O
     Eigenvalues --   -10.28990 -10.28872  -0.86375  -0.67213  -0.55924
   1 1   C  1S          0.22965   0.51448  -0.08811   0.06709  -0.00029
   2        2S          0.18919   0.42334  -0.13926   0.10745  -0.00047
   3        2PX         0.00015  -0.00005   0.02629   0.03578   0.13679
   4        2PY         0.00027  -0.00008   0.04656   0.05889  -0.07327
   5        2PZ        -0.00000  -0.00001  -0.00187   0.00279   0.00037
   6        3S          0.00514   0.01367   0.37356  -0.29327   0.00126
   7        3PX        -0.00048   0.00056   0.03477   0.05750   0.21449
   8        3PY        -0.00082   0.00099   0.06116   0.09564  -0.11575
   9        3PZ        -0.00003  -0.00004  -0.00314   0.00498   0.00054
  10        4S         -0.00028  -0.01501   0.19171  -0.22793   0.00057
  11        4PX         0.00108  -0.00187   0.00504   0.02327   0.11150
  12        4PY         0.00185  -0.00320   0.00875   0.03956  -0.06084
  13        4PZ         0.00003   0.00011  -0.00111   0.00250   0.00027
  14 2   H  1S         -0.00006  -0.00005   0.05211  -0.08696   0.10145
  15        2S         -0.00026   0.00018   0.05345  -0.10519   0.12882
  16        3S          0.00119   0.00143  -0.00175  -0.01510   0.04166
  17 3   H  1S         -0.00007  -0.00005   0.05320  -0.09041  -0.10446
  18        2S         -0.00027   0.00015   0.05419  -0.10845  -0.13165
  19        3S          0.00122   0.00145  -0.00178  -0.01589  -0.04249
  20 4   C  1S          0.51441  -0.22983  -0.08709  -0.06808  -0.00003
  21        2S          0.42345  -0.18897  -0.13753  -0.10919  -0.00004
  22        2PX        -0.00006  -0.00016  -0.02727   0.03832   0.11879
  23        2PY        -0.00009  -0.00027  -0.04648   0.06770  -0.07436
  24        2PZ        -0.00000   0.00000  -0.00151  -0.00295   0.00037
  25        3S          0.01285  -0.00671   0.36843   0.29837   0.00006
  26        3PX        -0.00002   0.00075  -0.03418   0.06188   0.18596
  27        3PY        -0.00002   0.00130  -0.05832   0.10886  -0.11544
  28        3PZ        -0.00005   0.00000  -0.00260  -0.00529   0.00057
  29        4S         -0.00995   0.01106   0.18917   0.23702  -0.00107
  30        4PX         0.00039  -0.00205  -0.00527   0.02668   0.10190
  31        4PY         0.00065  -0.00359  -0.00900   0.04614  -0.06280
  32        4PZ         0.00009  -0.00005  -0.00106  -0.00271   0.00030
  33 5   H  1S         -0.00007  -0.00002   0.05024   0.09394  -0.09080
  34        2S         -0.00009  -0.00030   0.05131   0.11180  -0.11435
  35        3S          0.00180  -0.00028  -0.00110   0.01679  -0.03672
  36 6   H  1S         -0.00006  -0.00002   0.04947   0.09236   0.08650
  37        2S         -0.00009  -0.00031   0.05085   0.11042   0.10938
  38        3S          0.00176  -0.00029  -0.00111   0.01638   0.03547
                           6         7         8         9        10
                           O         O         O         V         V
     Eigenvalues --    -0.50909  -0.43660  -0.35679   0.07938   0.14081
   1 1   C  1S         -0.00339   0.00020  -0.00146   0.00395  -0.03414
   2        2S         -0.00504   0.00035  -0.00238   0.00654  -0.05478
   3        2PX         0.09435  -0.11138  -0.00490   0.00224  -0.03167
   4        2PY         0.16838   0.06617  -0.00823   0.00359  -0.06521
   5        2PZ         0.00731  -0.00004   0.17929  -0.18890  -0.00397
   6        3S          0.01967  -0.00084   0.00697  -0.01976   0.11959
   7        3PX         0.13708  -0.17811  -0.00693   0.00338  -0.03715
   8        3PY         0.24616   0.10605  -0.01159   0.00536  -0.08034
   9        3PZ         0.01160  -0.00003   0.28810  -0.27760  -0.00625
  10        4S         -0.05472  -0.00320   0.01005  -0.02330   1.23641
  11        4PX         0.06897  -0.11090  -0.00572   0.01859  -0.19391
  12        4PY         0.12508   0.06691  -0.00958   0.03044  -0.38656
  13        4PZ         0.00662   0.00005   0.26701  -0.69327  -0.02289
  14 2   H  1S         -0.08084  -0.11554   0.00020   0.00615  -0.01778
  15        2S         -0.11231  -0.17882   0.00287   0.00979  -0.04842
  16        3S         -0.04207  -0.08279   0.00170   0.02589  -0.84351
  17 3   H  1S         -0.07948   0.11297   0.00010   0.00616  -0.01412
  18        2S         -0.10980   0.17420   0.00276   0.00998  -0.03971
  19        3S         -0.04080   0.08050   0.00163   0.02562  -0.78166
  20 4   C  1S         -0.00868  -0.00046  -0.00113  -0.00370  -0.03557
  21        2S         -0.01362  -0.00076  -0.00185  -0.00614  -0.05711
  22        2PX        -0.09837   0.12429   0.00470   0.00223   0.04030
  23        2PY        -0.16152  -0.07357   0.00873   0.00430   0.06069
  24        2PZ         0.00767   0.00035   0.17897   0.18919  -0.00388
  25        3S          0.04378   0.00223   0.00546   0.01848   0.12582
  26        3PX        -0.14563   0.19862   0.00657   0.00344   0.04960
  27        3PY        -0.23756  -0.11707   0.01228   0.00663   0.07225
  28        3PZ         0.01212   0.00054   0.28663   0.27761  -0.00594
  29        4S         -0.02676   0.00256   0.00929   0.01974   1.22926
  30        4PX        -0.07603   0.12690   0.00500   0.01775   0.26231
  31        4PY        -0.12286  -0.07385   0.00960   0.03278   0.40932
  32        4PZ         0.00700   0.00032   0.26742   0.69421  -0.02327
  33 5   H  1S         -0.07398  -0.12442   0.00036  -0.00565  -0.01157
  34        2S         -0.10084  -0.19370   0.00308  -0.00936  -0.03692
  35        3S         -0.03769  -0.09098   0.00174  -0.02422  -0.81199
  36 6   H  1S         -0.07971   0.12405   0.00025  -0.00564  -0.01496
  37        2S         -0.10907   0.19380   0.00291  -0.00926  -0.04587
  38        3S         -0.04096   0.09093   0.00164  -0.02426  -0.87394
                          11        12        13        14        15
                           V         V         V         V         V
     Eigenvalues --     0.16460   0.17021   0.24088   0.37333   0.39347
   1 1   C  1S          0.00066  -0.04501  -0.00002   0.00967   0.00122
   2        2S          0.00106  -0.07335  -0.00004   0.01326   0.00203
   3        2PX         0.09807  -0.02086   0.09966  -0.03614  -0.02507
   4        2PY        -0.05434  -0.03594  -0.05721  -0.06619   0.00882
   5        2PZ         0.00013  -0.00950   0.00008  -0.00680  -0.00027
   6        3S         -0.00215   0.16586   0.00019   0.03216  -0.00389
   7        3PX         0.14047  -0.01291   0.10600  -0.04563  -0.10877
   8        3PY        -0.07851  -0.02297  -0.06163  -0.08777   0.04500
   9        3PZ         0.00018  -0.01318   0.00002  -0.01392  -0.00041
  10        4S         -0.03762   1.41610  -0.00788  -2.59863  -0.19749
  11        4PX         0.58420  -0.12197   1.16332  -1.55135  -0.52886
  12        4PY        -0.31565  -0.19518  -0.66050  -2.70944   0.14718
  13        4PZ         0.00093  -0.06200   0.00167  -0.06072  -0.00336
  14 2   H  1S         -0.02960  -0.02539   0.01286  -0.05846   0.07602
  15        2S         -0.08021  -0.01743  -0.02427  -0.66390   0.77752
  16        3S         -1.03968  -0.97782  -1.53536  -0.29971  -0.34026
  17 3   H  1S          0.02863  -0.02552  -0.01488  -0.05170  -0.07644
  18        2S          0.07918  -0.02218   0.01889  -0.61222  -0.76290
  19        3S          1.08663  -1.01088   1.55483  -0.36881   0.26495
  20 4   C  1S          0.00168   0.04281  -0.00000  -0.01985  -0.00007
  21        2S          0.00269   0.06968  -0.00002  -0.03257   0.00013
  22        2PX         0.09985  -0.02423  -0.10068  -0.04109  -0.03031
  23        2PY        -0.06138  -0.03750   0.05769  -0.07242   0.01398
  24        2PZ         0.00042   0.00922  -0.00010   0.00480   0.00044
  25        3S         -0.00555  -0.15448   0.00025   0.04190  -0.00612
  26        3PX         0.14368  -0.01958  -0.11409  -0.09327  -0.10636
  27        3PY        -0.08692  -0.02679   0.06447  -0.16697   0.06099
  28        3PZ         0.00060   0.01269  -0.00007   0.00569   0.00086
  29        4S         -0.07095  -1.36274   0.00030   3.28953   0.15908
  30        4PX         0.53343  -0.12342  -1.12394  -1.16916  -0.57651
  31        4PY        -0.33322  -0.20087   0.65573  -2.04496   0.09185
  32        4PZ         0.00258   0.06025  -0.00173   0.05049   0.00365
  33 5   H  1S          0.03147   0.02407   0.00648   0.00896  -0.08036
  34        2S          0.06935   0.02087  -0.03221   0.05088  -0.78840
  35        3S          1.08624   0.94594  -1.53233   0.45346   0.46476
  36 6   H  1S         -0.03088   0.02532  -0.00536   0.00498   0.08715
  37        2S         -0.06892   0.01985   0.03276   0.01398   0.89225
  38        3S         -0.99055   0.96974   1.52495   0.46434  -0.43620
                          16        17        18        19        20
                           V         V         V         V         V
     Eigenvalues --     0.39874   0.46462   0.48841   0.49384   0.59101
   1 1   C  1S         -0.01857   0.01065   0.04725  -0.00076  -0.00081
   2        2S         -0.03261   0.02591   0.07937  -0.00090  -0.00146
   3        2PX         0.02668  -0.06022  -0.01375   0.00198   0.00297
   4        2PY         0.04999  -0.10583  -0.01973   0.00280   0.00449
   5        2PZ         0.00042  -0.00080  -0.00807  -0.15185  -0.19242
   6        3S          0.07636  -0.33303  -0.10899  -0.01222  -0.00047
   7        3PX         0.10124  -0.23995   0.02541   0.00130   0.01003
   8        3PY         0.19441  -0.41938   0.05175   0.00009   0.01508
   9        3PZ        -0.00526  -0.00633  -0.03640  -0.62800  -0.68431
  10        4S          2.66433   0.23054  -3.09797   0.14694   0.09746
  11        4PX         0.24127   0.27077  -0.81475   0.04641   0.02928
  12        4PY         0.46946   0.48911  -1.40248   0.08281   0.05463
  13        4PZ        -0.00275  -0.00137   0.12939   0.68294   1.23953
  14 2   H  1S         -0.02526  -0.03732   0.07436  -0.00408  -0.00238
  15        2S         -0.52155  -0.36208   0.89095  -0.03980  -0.01665
  16        3S          0.31183   0.10077  -0.64135   0.04709   0.03344
  17 3   H  1S         -0.03443  -0.03826   0.07303  -0.00399  -0.00234
  18        2S         -0.60664  -0.37108   0.86683  -0.03893  -0.01607
  19        3S          0.33251   0.09777  -0.61835   0.04601   0.03284
  20 4   C  1S         -0.00062  -0.00091  -0.05068   0.00460   0.00099
  21        2S         -0.00462   0.00619  -0.08784   0.00829   0.00185
  22        2PX         0.00854   0.05619  -0.02617   0.00031   0.00288
  23        2PY         0.01747   0.09617  -0.04645   0.00017   0.00558
  24        2PZ        -0.00518  -0.00237  -0.00821  -0.15235   0.19227
  25        3S          0.07898  -0.29375   0.21662  -0.03079  -0.00329
  26        3PX        -0.04437   0.23890  -0.04840   0.00049   0.00999
  27        3PY        -0.06342   0.41233  -0.08348  -0.00090   0.01937
  28        3PZ        -0.01471  -0.00996  -0.03076  -0.63041   0.68273
  29        4S         -0.86544   0.66147   3.14719  -0.17988  -0.08821
  30        4PX         1.24785  -0.31328  -0.62431   0.02609   0.03180
  31        4PY         2.25421  -0.53350  -1.07634   0.04560   0.05093
  32        4PZ        -0.04690  -0.02106  -0.04801   0.69571  -1.23782
  33 5   H  1S         -0.04855  -0.06107  -0.06619   0.00382   0.00226
  34        2S         -0.85197  -0.62247  -0.83341   0.05604   0.01000
  35        3S         -0.19492   0.24295   0.55792  -0.01815  -0.03240
  36 6   H  1S         -0.03930  -0.06089  -0.06580   0.00381   0.00227
  37        2S         -0.74678  -0.62077  -0.83048   0.05549   0.00979
  38        3S         -0.22780   0.25731   0.56827  -0.01921  -0.03267
                          21        22        23        24        25
                           V         V         V         V         V
     Eigenvalues --     0.66540   0.69062   0.77323   0.77485   0.83826
   1 1   C  1S          0.00073  -0.00067   0.06019   0.06547   0.00109
   2        2S          0.00154  -0.00143   0.12727   0.13973   0.00251
   3        2PX        -0.13939   0.19319  -0.01107   0.11632  -0.00951
   4        2PY         0.08117  -0.11568  -0.02027   0.19000   0.01492
   5        2PZ        -0.00018   0.00026   0.00179   0.00675   0.00017
   6        3S         -0.01330   0.01558  -0.89767  -1.23640  -0.02803
   7        3PX        -0.63849   0.66897  -0.11804   0.46377  -0.22992
   8        3PY         0.36816  -0.40118  -0.20810   0.74706   0.17024
   9        3PZ        -0.00092   0.00095   0.00653   0.02355   0.00044
  10        4S          0.02397  -0.04863   1.04900   2.34428   0.03806
  11        4PX         1.10576  -0.71847   0.07880  -0.78048   4.49528
  12        4PY        -0.63639   0.45256   0.08243  -1.01535  -2.54497
  13        4PZ         0.00094   0.00141   0.00264  -0.07991   0.00753
  14 2   H  1S          0.02562  -0.05816   0.01438   0.03120  -0.02512
  15        2S          0.15616  -0.63251   0.07914   0.08128  -1.55372
  16        3S         -1.06830   1.06492  -0.23543  -1.06961  -1.22000
  17 3   H  1S         -0.02489   0.05746   0.01464   0.03175   0.02886
  18        2S         -0.17122   0.65656   0.10391   0.03616   1.59048
  19        3S          1.05981  -1.02188  -0.23548  -1.21910   1.21283
  20 4   C  1S          0.00096  -0.00031   0.08758   0.02020   0.00063
  21        2S          0.00196  -0.00062   0.18634   0.04216   0.00121
  22        2PX        -0.14483  -0.19027  -0.08948   0.06468   0.01200
  23        2PY         0.08352   0.10626  -0.15993   0.11845   0.00112
  24        2PZ        -0.00018  -0.00031   0.00694  -0.00239  -0.00017
  25        3S         -0.01430   0.00013  -1.53215  -0.17978  -0.00264
  26        3PX        -0.66172  -0.65006  -0.31404   0.32089   0.23912
  27        3PY         0.38399   0.36033  -0.56701   0.58820  -0.09902
  28        3PZ        -0.00094  -0.00104   0.02450  -0.00890  -0.00026
  29        4S          0.00845   0.01998   2.66243  -0.23596  -0.05090
  30        4PX         1.26303   0.76952   0.48221  -0.29415  -4.15562
  31        4PY        -0.72945  -0.41133   0.92798  -0.80243   2.39911
  32        4PZ         0.00193  -0.00080  -0.06808   0.04548  -0.00688
  33 5   H  1S         -0.02347  -0.05608   0.03443  -0.00146  -0.02294
  34        2S         -0.12362  -0.57804   0.08605   0.07238  -1.41322
  35        3S          1.08947   1.01375  -1.11893   0.44871  -1.10169
  36 6   H  1S          0.02420   0.05608   0.03419  -0.00105   0.02229
  37        2S          0.12013   0.55670   0.08780   0.00720   1.40083
  38        3S         -1.09191  -1.03808  -1.06254   0.35895   1.11665
                          26        27        28        29        30
                           V         V         V         V         V
     Eigenvalues --     0.95171   2.23168   2.29075   2.33205   2.40447
   1 1   C  1S          0.09577  -0.00979  -0.01421   0.00034  -0.00042
   2        2S          0.19903   0.00202  -0.01382   0.00071  -0.00055
   3        2PX        -0.09123  -0.07933  -0.13158   0.34920  -0.40434
   4        2PY        -0.15795  -0.14819  -0.23025  -0.19838   0.22670
   5        2PZ         0.00028  -0.01922  -0.02642   0.00030  -0.00112
   6        3S         -1.54359  -0.18579  -0.03866  -0.00055  -0.00374
   7        3PX        -0.23203   0.07768   0.20884  -0.42235   0.56627
   8        3PY        -0.39500   0.15746   0.37751   0.24222  -0.31820
   9        3PZ        -0.00351   0.01945   0.03299  -0.00019   0.00132
  10        4S          5.71940  -0.09839  -0.88314  -0.00108  -0.00611
  11        4PX         1.20175   0.04988  -0.18735  -0.05241   0.95769
  12        4PY         1.98844   0.06665  -0.36093   0.01999  -0.52432
  13        4PZ        -0.02709   0.00412   0.01146  -0.00037   0.00256
  14 2   H  1S          0.01568  -0.70749  -0.79450  -0.71522   0.64500
  15        2S         -0.29135   1.00506   1.18817   1.10545  -1.43707
  16        3S         -0.09664  -0.30428  -0.47750  -0.47746   0.37085
  17 3   H  1S          0.01602  -0.69737  -0.79457   0.70803  -0.66331
  18        2S         -0.26311   0.99155   1.19512  -1.09778   1.47631
  19        3S         -0.07562  -0.28390  -0.46119   0.46715  -0.36216
  20 4   C  1S         -0.09400  -0.01072   0.01244   0.00038   0.00023
  21        2S         -0.19499  -0.00039   0.01269   0.00047   0.00049
  22        2PX        -0.09207   0.13418  -0.12374   0.30039   0.41673
  23        2PY        -0.15911   0.23205  -0.20558  -0.17498  -0.24237
  24        2PZ         0.00046  -0.02086   0.02475   0.00072   0.00068
  25        3S          1.50798  -0.16770   0.01719   0.00102  -0.00057
  26        3PX        -0.22632  -0.16929   0.21126  -0.37167  -0.58302
  27        3PY        -0.39570  -0.28943   0.34686   0.21472   0.34038
  28        3PZ         0.00518   0.02224  -0.03160  -0.00081  -0.00093
  29        4S         -5.70107  -0.17992   0.89383   0.01441  -0.00855
  30        4PX         1.10455  -0.01800  -0.20127   0.11004  -0.84456
  31        4PY         1.98796  -0.03451  -0.31669  -0.06330   0.50166
  32        4PZ         0.01779   0.00684  -0.00924  -0.00000  -0.00222
  33 5   H  1S         -0.01772  -0.78994   0.67460   0.69688   0.69577
  34        2S          0.28980   1.14771  -1.03257  -1.00905  -1.46947
  35        3S          0.06130  -0.35355   0.39896   0.50188   0.43295
  36 6   H  1S         -0.01760  -0.78641   0.69460  -0.68136  -0.69501
  37        2S          0.31237   1.14164  -1.05542   0.98428   1.46190
  38        3S          0.07525  -0.35415   0.42558  -0.49646  -0.44037
                          31        32        33        34        35
                           V         V         V         V         V
     Eigenvalues --     2.67123   2.81661   2.87914   2.95160   3.13999
   1 1   C  1S          0.00073   0.00357  -0.01324  -0.00003  -0.00954
   2        2S          0.00060   0.01029  -0.04378  -0.00038  -0.02936
   3        2PX         0.00810   0.10153  -0.46115  -0.73094   0.45077
   4        2PY         0.01182   0.17923  -0.84095   0.41165   0.78346
   5        2PZ        -0.92481  -0.91889  -0.19538  -0.00212   0.00952
   6        3S         -0.00263  -0.08503   0.38392   0.00536   0.24741
   7        3PX        -0.00653  -0.17602   0.81881   0.87902  -0.43472
   8        3PY        -0.00935  -0.30806   1.46339  -0.48058  -0.75276
   9        3PZ         0.94033   1.12277   0.24512   0.00283  -0.01224
  10        4S          0.01950   0.19739  -0.86317  -0.01383  -0.48402
  11        4PX        -0.00209   0.14109  -0.70199  -0.67166   0.21914
  12        4PY        -0.00307   0.24825  -1.25286   0.35531   0.37666
  13        4PZ        -0.33892  -0.60600  -0.15551  -0.00222   0.00744
  14 2   H  1S          0.01738  -0.02729   0.26269  -0.37865  -0.21302
  15        2S         -0.01995   0.01697  -0.22000   0.39316   0.16204
  16        3S         -0.00392   0.05740  -0.29558   0.26833   0.05660
  17 3   H  1S          0.01764  -0.02675   0.25363   0.37980  -0.21527
  18        2S         -0.02056   0.01527  -0.20508  -0.39059   0.16284
  19        3S         -0.00445   0.05720  -0.29344  -0.28497   0.06668
  20 4   C  1S          0.00071  -0.00345   0.01325   0.00044  -0.00750
  21        2S          0.00066  -0.01071   0.04690   0.00105  -0.02313
  22        2PX        -0.00969   0.09107  -0.40557  -0.80567  -0.50053
  23        2PY        -0.01877   0.16193  -0.71656   0.44274  -0.89303
  24        2PZ        -0.92428   0.91847   0.19899   0.00027   0.01874
  25        3S         -0.00357   0.09183  -0.42221  -0.00805   0.19756
  26        3PX         0.00973  -0.16579   0.76413   0.96274   0.53590
  27        3PY         0.01863  -0.29247   1.34204  -0.52135   0.96525
  28        3PZ         0.93977  -1.12187  -0.25091  -0.00037  -0.02367
  29        4S          0.02119  -0.19943   0.88223   0.02455  -0.37469
  30        4PX        -0.00041   0.14118  -0.70236  -0.69810  -0.32361
  31        4PY        -0.00196   0.24636  -1.22434   0.37394  -0.59262
  32        4PZ        -0.33859   0.60491   0.16051   0.00021   0.01842
  33 5   H  1S          0.01640   0.03789  -0.29198   0.41445  -0.26599
  34        2S         -0.02013  -0.03055   0.26613  -0.42324   0.20939
  35        3S         -0.00219  -0.05353   0.28045  -0.24770   0.12784
  36 6   H  1S          0.01653   0.03767  -0.28652  -0.42723  -0.25082
  37        2S         -0.02071  -0.03118   0.26417   0.43492   0.19535
  38        3S         -0.00177  -0.05198   0.27008   0.25147   0.11711
                          36        37        38
                           V         V         V
     Eigenvalues --     3.31694  23.35217  23.70546
   1 1   C  1S         -0.00027  -1.41920  -1.44718
   2        2S         -0.00034   1.51360   1.56498
   3        2PX         0.78543  -0.00643   0.01221
   4        2PY        -0.43588  -0.01057   0.02132
   5        2PZ         0.00175  -0.00078  -0.00035
   6        3S         -0.00157  -0.29744  -0.39826
   7        3PX        -1.12067   0.02355  -0.05577
   8        3PY         0.61751   0.03921  -0.09684
   9        3PZ        -0.00265   0.00221   0.00105
  10        4S          0.00429   0.27699   0.76725
  11        4PX         1.94947  -0.02479   0.13395
  12        4PY        -1.07152  -0.04224   0.22923
  13        4PZ         0.00449  -0.00374  -0.00439
  14 2   H  1S          0.55437   0.01276   0.00677
  15        2S         -0.85800   0.00765  -0.01478
  16        3S         -0.45290  -0.08371  -0.03956
  17 3   H  1S         -0.56541   0.01433   0.00765
  18        2S          0.87372   0.00753  -0.01436
  19        3S          0.47836  -0.08578  -0.03911
  20 4   C  1S         -0.00004  -1.44239   1.42394
  21        2S         -0.00038   1.53834  -1.53986
  22        2PX        -0.71240   0.00621   0.01254
  23        2PY         0.40989   0.01105   0.02148
  24        2PZ        -0.00148  -0.00079   0.00020
  25        3S          0.00576  -0.30168   0.39159
  26        3PX         1.01366  -0.02278  -0.05621
  27        3PY        -0.59271  -0.04027  -0.09691
  28        3PZ         0.00223   0.00226  -0.00048
  29        4S         -0.02804   0.27680  -0.76159
  30        4PX        -1.76535   0.02452   0.13017
  31        4PY         1.04512   0.04418   0.22709
  32        4PZ        -0.00389  -0.00364   0.00314
  33 5   H  1S          0.48770   0.01356  -0.00497
  34        2S         -0.75470   0.00804   0.01374
  35        3S         -0.43203  -0.08338   0.03747
  36 6   H  1S         -0.48431   0.01253  -0.00427
  37        2S          0.75046   0.00877   0.01389
  38        3S          0.42102  -0.08181   0.03768
     Density Matrix:
                           1         2         3         4         5
   1 1   C  1S          0.65940
   2        2S          0.56149   0.49196
   3        2PX        -0.00056  -0.00075   0.08403
   4        2PY        -0.00131  -0.00182   0.00373   0.08761
   5        2PZ         0.00012   0.00018  -0.00017  -0.00039   0.06442
   6        3S         -0.08891  -0.15378   0.00283   0.00646  -0.00024
   7        3PX         0.00084   0.00129   0.13023   0.00128  -0.00012
   8        3PY         0.00118   0.00181   0.00133   0.13104  -0.00035
   9        3PZ         0.00024   0.00041  -0.00029  -0.00062   0.10351
  10        4S         -0.07959  -0.11469  -0.01578  -0.02809   0.00082
  11        4PX         0.00024   0.00157   0.07021  -0.00449  -0.00084
  12        4PY         0.00057   0.00295  -0.00456   0.06553  -0.00147
  13        4PZ        -0.00016  -0.00038  -0.00119  -0.00201   0.09586
  14 2   H  1S         -0.02048  -0.03262   0.03475  -0.06277  -0.00171
  15        2S         -0.02286  -0.03657   0.04914  -0.08782  -0.00129
  16        3S          0.00053  -0.00078   0.02071  -0.03320  -0.00005
  17 3   H  1S         -0.02094  -0.03334  -0.07242  -0.00220  -0.00191
  18        2S         -0.02319  -0.03703  -0.10048  -0.00240  -0.00153
  19        3S          0.00056  -0.00073  -0.03850   0.00108  -0.00013
  20 4   C  1S          0.00606   0.00977  -0.01080  -0.01878  -0.00058
  21        2S          0.00974   0.01522  -0.01729  -0.03006  -0.00095
  22        2PX         0.01040   0.01662  -0.01249  -0.03219   0.00064
  23        2PY         0.01804   0.02883  -0.03212  -0.04973   0.00127
  24        2PZ        -0.00070  -0.00114  -0.00058  -0.00086   0.06428
  25        3S         -0.02620  -0.03977   0.04845   0.08440   0.00288
  26        3PX         0.01603   0.02485  -0.01828  -0.04601   0.00082
  27        3PY         0.02780   0.04309  -0.04573  -0.07139   0.00168
  28        3PZ        -0.00119  -0.00192  -0.00101  -0.00151   0.10294
  29        4S          0.00543   0.00408   0.02090   0.03686   0.00355
  30        4PX         0.00307   0.00635  -0.01315  -0.02117   0.00092
  31        4PY         0.00519   0.01083  -0.02118  -0.03751   0.00190
  32        4PZ        -0.00101  -0.00164  -0.00154  -0.00246   0.09598
  33 5   H  1S          0.00420   0.00689  -0.00173  -0.01234  -0.00067
  34        2S          0.00627   0.01042   0.00350  -0.02494  -0.00001
  35        3S          0.00322   0.00470   0.00424  -0.01750   0.00015
  36 6   H  1S          0.00416   0.00684  -0.00980  -0.00762  -0.00069
  37        2S          0.00623   0.01039  -0.02328  -0.00942  -0.00006
  38        3S          0.00319   0.00469  -0.01718  -0.00516   0.00010
                           6         7         8         9        10
   6        3S          0.45241
   7        3PX        -0.00160   0.20216
   8        3PY        -0.00134  -0.00453   0.19652
   9        3PZ        -0.00080  -0.00022  -0.00053   0.16634
  10        4S          0.27450  -0.02665  -0.04816   0.00105   0.18407
  11        4PX        -0.00682   0.10935  -0.01018  -0.00137  -0.01544
  12        4PY        -0.01222  -0.01036   0.09871  -0.00235  -0.02897
  13        4PZ         0.00169  -0.00158  -0.00264   0.15404   0.00307
  14 2   H  1S          0.08721   0.05613  -0.09805  -0.00284   0.06933
  15        2S          0.09788   0.07975  -0.13669  -0.00218   0.08208
  16        3S          0.00621   0.03394  -0.05105  -0.00009   0.01138
  17 3   H  1S          0.08919  -0.11354  -0.00177  -0.00314   0.06947
  18        2S          0.09919  -0.15737  -0.00081  -0.00253   0.08102
  19        3S          0.00621  -0.06006   0.00353  -0.00020   0.01045
  20 4   C  1S         -0.02648  -0.01686  -0.02931  -0.00100   0.00519
  21        2S         -0.04008  -0.02619  -0.04559  -0.00162   0.00394
  22        2PX        -0.04657  -0.01784  -0.04568   0.00110  -0.01772
  23        2PY        -0.08074  -0.04554  -0.07085   0.00217  -0.03044
  24        2PZ         0.00340  -0.00079  -0.00113   0.10328   0.00352
  25        3S          0.10200   0.07107   0.12399   0.00482   0.00075
  26        3PX        -0.06731  -0.02626  -0.06511   0.00143  -0.02632
  27        3PY        -0.11665  -0.06466  -0.10165   0.00290  -0.04516
  28        3PZ         0.00563  -0.00139  -0.00203   0.16540   0.00585
  29        4S          0.00158   0.03160   0.05592   0.00591  -0.03274
  30        4PX        -0.02251  -0.01971  -0.02976   0.00152  -0.00639
  31        4PY        -0.03861  -0.02977  -0.05412   0.00313  -0.01033
  32        4PZ         0.00480  -0.00216  -0.00341   0.15423   0.00544
  33 5   H  1S         -0.02049  -0.00063  -0.01768  -0.00098  -0.01476
  34        2S         -0.03113   0.00868  -0.03667   0.00011  -0.01908
  35        3S         -0.01206   0.00815  -0.02632   0.00026  -0.00337
  36 6   H  1S         -0.02034  -0.01488  -0.00924  -0.00101  -0.01510
  37        2S         -0.03109  -0.03582  -0.01064   0.00004  -0.01995
  38        3S         -0.01208  -0.02662  -0.00613   0.00020  -0.00391
                          11        12        13        14        15
  11        4PX         0.06019
  12        4PY        -0.00910   0.05114
  13        4PZ        -0.00198  -0.00331   0.14270
  14 2   H  1S          0.03358  -0.05400  -0.00147   0.08091
  15        2S          0.04851  -0.07515  -0.00055   0.10948   0.15023
  16        3S          0.02111  -0.02794   0.00029   0.03683   0.05279
  17 3   H  1S         -0.06299   0.00172  -0.00161  -0.01318  -0.02476
  18        2S         -0.08768   0.00418  -0.00070  -0.02470  -0.04293
  19        3S         -0.03374   0.00441   0.00024  -0.01805  -0.02741
  20 4   C  1S         -0.00317  -0.00575  -0.00089   0.00423   0.00676
  21        2S         -0.00655  -0.01174  -0.00142   0.00699   0.01129
  22        2PX        -0.01319  -0.01996   0.00154   0.00178  -0.00270
  23        2PY        -0.01996  -0.03682   0.00292   0.01141   0.02427
  24        2PZ        -0.00114  -0.00177   0.09566  -0.00082  -0.00027
  25        3S          0.02315   0.04128   0.00417  -0.02107  -0.03398
  26        3PX        -0.02022  -0.02831   0.00208   0.00106  -0.00704
  27        3PY        -0.02821  -0.05370   0.00401   0.01703   0.03642
  28        3PZ        -0.00187  -0.00292   0.15321  -0.00121  -0.00029
  29        4S          0.00827   0.01556   0.00538  -0.01798  -0.02476
  30        4PX        -0.01477  -0.01250   0.00188  -0.00154  -0.00820
  31        4PY        -0.01261  -0.02964   0.00371   0.01523   0.02721
  32        4PZ        -0.00223  -0.00360   0.14289  -0.00068   0.00038
  33 5   H  1S          0.00202  -0.01580  -0.00049   0.01119   0.02333
  34        2S          0.00924  -0.02755   0.00067   0.02377   0.04444
  35        3S          0.00755  -0.01585   0.00048   0.01663   0.02790
  36 6   H  1S         -0.01442  -0.00570  -0.00051  -0.00913  -0.01832
  37        2S         -0.02802  -0.00509   0.00063  -0.01886  -0.03441
  38        3S         -0.01717  -0.00114   0.00044  -0.01016  -0.01774
                          16        17        18        19        20
  16        3S          0.02119
  17 3   H  1S         -0.01818   0.08199
  18        2S         -0.02748   0.10969   0.14888
  19        3S         -0.01294   0.03623   0.05145   0.02042
  20 4   C  1S          0.00372   0.00429   0.00673   0.00370   0.65947
  21        2S          0.00550   0.00708   0.01122   0.00543   0.56158
  22        2PX        -0.00345   0.00907   0.02239   0.01684   0.00112
  23        2PY         0.01772   0.00740   0.00974   0.00570   0.00176
  24        2PZ         0.00003  -0.00081  -0.00019   0.00008   0.00012
  25        3S         -0.01432  -0.02122  -0.03362  -0.01398  -0.08927
  26        3PX        -0.00686   0.01435   0.03513   0.02624  -0.00052
  27        3PY         0.02672   0.00954   0.01191   0.00714  -0.00108
  28        3PZ         0.00008  -0.00118  -0.00017   0.00016   0.00026
  29        4S         -0.00604  -0.01768  -0.02380  -0.00548  -0.08011
  30        4PX        -0.00690   0.01409   0.02775   0.01716  -0.00019
  31        4PY         0.01600   0.00667   0.00685   0.00206  -0.00021
  32        4PZ         0.00038  -0.00067   0.00045   0.00042  -0.00006
  33 5   H  1S          0.01625  -0.00902  -0.01812  -0.00944  -0.02020
  34        2S          0.02748  -0.01860  -0.03391  -0.01697  -0.02219
  35        3S          0.01468  -0.01005  -0.01751  -0.00897   0.00062
  36 6   H  1S         -0.00959   0.01119   0.02328   0.01601  -0.01998
  37        2S         -0.01730   0.02372   0.04425   0.02712  -0.02214
  38        3S         -0.00914   0.01657   0.02767   0.01446   0.00053
                          21        22        23        24        25
  21        2S          0.49209
  22        2PX         0.00161   0.08294
  23        2PY         0.00251   0.00363   0.08770
  24        2PZ         0.00018   0.00021   0.00028   0.06420
  25        3S         -0.15429  -0.00522  -0.00823  -0.00024   0.45385
  26        3PX        -0.00079   0.12887   0.00184   0.00013  -0.00004
  27        3PY        -0.00163   0.00185   0.13151   0.00012   0.00076
  28        3PZ         0.00044   0.00032   0.00045   0.10282  -0.00088
  29        4S         -0.11571   0.01358   0.02309   0.00095   0.27820
  30        4PX        -0.00142   0.07309  -0.00507   0.00065   0.00605
  31        4PY        -0.00226  -0.00499   0.06715   0.00121   0.00998
  32        4PZ        -0.00020   0.00114   0.00205   0.09585   0.00113
  33 5   H  1S         -0.03218  -0.03348   0.06376  -0.00187   0.08604
  34        2S         -0.03546  -0.04968   0.08850  -0.00148   0.09486
  35        3S         -0.00058  -0.02256   0.03343  -0.00014   0.00557
  36 6   H  1S         -0.03185   0.07145   0.00254  -0.00168   0.08515
  37        2S         -0.03541   0.10134   0.00073  -0.00122   0.09473
  38        3S         -0.00070   0.04042  -0.00307  -0.00004   0.00585
                          26        27        28        29        30
  26        3PX         0.20056
  27        3PY        -0.00263   0.19774
  28        3PZ         0.00018   0.00018   0.16468
  29        4S          0.02495   0.04216   0.00119   0.18600
  30        4PX         0.11417  -0.01058   0.00102   0.01519   0.06607
  31        4PY        -0.01046   0.10148   0.00194   0.02488  -0.01019
  32        4PZ         0.00145   0.00264   0.15350   0.00290   0.00162
  33 5   H  1S         -0.05345   0.09985  -0.00308   0.06707  -0.03435
  34        2S         -0.07973   0.13809  -0.00247   0.07712  -0.05167
  35        3S         -0.03664   0.05151  -0.00023   0.00916  -0.02391
  36 6   H  1S          0.11271   0.00320  -0.00279   0.06722   0.06564
  37        2S          0.15966  -0.00063  -0.00207   0.07823   0.09345
  38        3S          0.06336  -0.00628  -0.00008   0.00991   0.03744
                          31        32        33        34        35
  31        4PY         0.05361
  32        4PZ         0.00310   0.14314
  33 5   H  1S          0.05573  -0.00159   0.08109
  34        2S          0.07720  -0.00067   0.11005   0.15181
  35        3S          0.02892   0.00023   0.03793   0.05489   0.02267
  36 6   H  1S         -0.00196  -0.00146  -0.01246  -0.02603  -0.01992
  37        2S         -0.00623  -0.00049  -0.02609  -0.04817  -0.03147
  38        3S         -0.00625   0.00030  -0.02004  -0.03152  -0.01550
                          36        37        38
  36 6   H  1S          0.08040
  37        2S          0.10982   0.15241
  38        3S          0.03814   0.05545   0.02296
    Full Mulliken population analysis:
                           1         2         3         4         5
   1 1   C  1S          0.65940
   2        2S          0.49324   0.49196
   3        2PX         0.00000   0.00000   0.08403
   4        2PY         0.00000   0.00000   0.00000   0.08761
   5        2PZ         0.00000   0.00000   0.00000   0.00000   0.06442
   6        3S         -0.02927  -0.06440   0.00000   0.00000   0.00000
   7        3PX         0.00000   0.00000   0.08193   0.00000   0.00000
   8        3PY         0.00000   0.00000   0.00000   0.08244   0.00000
   9        3PZ         0.00000   0.00000   0.00000   0.00000   0.06512
  10        4S         -0.01224  -0.02146   0.00000   0.00000   0.00000
  11        4PX         0.00000   0.00000   0.01546   0.00000   0.00000
  12        4PY         0.00000   0.00000   0.00000   0.01443   0.00000
  13        4PZ         0.00000   0.00000   0.00000   0.00000   0.02111
  14 2   H  1S         -0.00022  -0.00032   0.00179   0.00549   0.00001
  15        2S         -0.00165  -0.00316   0.00432   0.01311   0.00001
  16        3S          0.00004  -0.00007   0.00070   0.00191   0.00000
  17 3   H  1S         -0.00025  -0.00035   0.00771   0.00000   0.00001
  18        2S         -0.00172  -0.00329   0.01763   0.00000   0.00001
  19        3S          0.00004  -0.00007   0.00256  -0.00000   0.00000
  20 4   C  1S          0.00000   0.00000  -0.00002  -0.00006   0.00000
  21        2S          0.00000  -0.00000  -0.00002  -0.00005   0.00000
  22        2PX        -0.00002  -0.00002   0.00011   0.00085   0.00000
  23        2PY        -0.00006  -0.00005   0.00085   0.00196   0.00000
  24        2PZ        -0.00000  -0.00000  -0.00000  -0.00000   0.00041
  25        3S         -0.00059  -0.00099   0.00252   0.00761  -0.00000
  26        3PX        -0.00054  -0.00099   0.00019   0.00556   0.00000
  27        3PY        -0.00163  -0.00298   0.00552   0.01071   0.00000
  28        3PZ        -0.00000  -0.00000  -0.00000  -0.00000   0.00610
  29        4S          0.00034   0.00031   0.00095   0.00290  -0.00000
  30        4PX        -0.00018  -0.00045  -0.00071   0.00147   0.00000
  31        4PY        -0.00052  -0.00133   0.00147   0.00098   0.00000
  32        4PZ        -0.00000  -0.00000  -0.00000  -0.00000   0.00902
  33 5   H  1S          0.00000   0.00000  -0.00000  -0.00000   0.00000
  34        2S          0.00001   0.00002   0.00000  -0.00032   0.00000
  35        3S          0.00008   0.00013   0.00001  -0.00070  -0.00000
  36 6   H  1S          0.00000   0.00000  -0.00000  -0.00000   0.00000
  37        2S          0.00001   0.00002  -0.00024  -0.00007   0.00000
  38        3S          0.00007   0.00013  -0.00057  -0.00012  -0.00000
                           6         7         8         9        10
   6        3S          0.45241
   7        3PX         0.00000   0.20216
   8        3PY         0.00000   0.00000   0.19652
   9        3PZ         0.00000   0.00000   0.00000   0.16634
  10        4S          0.21265   0.00000   0.00000   0.00000   0.18407
  11        4PX         0.00000   0.07146   0.00000   0.00000   0.00000
  12        4PY         0.00000   0.00000   0.06450   0.00000   0.00000
  13        4PZ         0.00000   0.00000   0.00000   0.10066   0.00000
  14 2   H  1S          0.01585   0.01077   0.03194   0.00004   0.01826
  15        2S          0.04095   0.01971   0.05735   0.00004   0.04717
  16        3S          0.00285   0.00401   0.01024   0.00000   0.00857
  17 3   H  1S          0.01670   0.04379   0.00000   0.00005   0.01851
  18        2S          0.04220   0.07713   0.00000   0.00005   0.04696
  19        3S          0.00288   0.01394  -0.00000   0.00000   0.00791
  20 4   C  1S         -0.00059  -0.00057  -0.00171   0.00000   0.00033
  21        2S         -0.00100  -0.00105  -0.00315   0.00000   0.00030
  22        2PX         0.00243   0.00019   0.00552   0.00000   0.00080
  23        2PY         0.00728   0.00550   0.01062   0.00000   0.00239
  24        2PZ         0.00000  -0.00000  -0.00000   0.00612   0.00000
  25        3S          0.02172   0.01331   0.04021  -0.00000   0.00028
  26        3PX         0.01261  -0.00127   0.01857   0.00000   0.00406
  27        3PY         0.03783   0.01844   0.02857   0.00000   0.01205
  28        3PZ         0.00000  -0.00000  -0.00000   0.03522   0.00000
  29        4S          0.00060   0.00487   0.01493  -0.00000  -0.02055
  30        4PX         0.00632  -0.00404   0.00589   0.00000   0.00194
  31        4PY         0.01878   0.00590   0.00128   0.00000   0.00542
  32        4PZ         0.00001  -0.00000  -0.00000   0.04925   0.00001
  33 5   H  1S         -0.00005  -0.00000  -0.00019   0.00000  -0.00079
  34        2S         -0.00121   0.00006  -0.00323  -0.00000  -0.00321
  35        3S         -0.00197   0.00011  -0.00424  -0.00000  -0.00122
  36 6   H  1S         -0.00005  -0.00013  -0.00006   0.00000  -0.00080
  37        2S         -0.00119  -0.00258  -0.00053  -0.00000  -0.00333
  38        3S         -0.00196  -0.00353  -0.00056  -0.00000  -0.00140
                          11        12        13        14        15
  11        4PX         0.06019
  12        4PY         0.00000   0.05114
  13        4PZ         0.00000   0.00000   0.14270
  14 2   H  1S          0.00637   0.01740   0.00002   0.08091
  15        2S          0.01551   0.04079   0.00001   0.07734   0.15023
  16        3S          0.00529   0.01190  -0.00001   0.01376   0.04165
  17 3   H  1S          0.02358  -0.00000   0.00003  -0.00001  -0.00064
  18        2S          0.05515  -0.00002   0.00002  -0.00063  -0.00529
  19        3S          0.01660  -0.00001  -0.00001  -0.00199  -0.00793
  20 4   C  1S         -0.00018  -0.00058   0.00000   0.00000   0.00002
  21        2S         -0.00046  -0.00144   0.00000   0.00000   0.00003
  22        2PX        -0.00071   0.00138   0.00000  -0.00000   0.00000
  23        2PY         0.00138   0.00096   0.00000  -0.00000  -0.00036
  24        2PZ        -0.00000  -0.00000   0.00899   0.00000   0.00000
  25        3S          0.00650   0.02008  -0.00000  -0.00007  -0.00149
  26        3PX        -0.00414   0.00561   0.00000  -0.00000   0.00004
  27        3PY         0.00559   0.00127   0.00000  -0.00022  -0.00357
  28        3PZ        -0.00000  -0.00000   0.04893   0.00000   0.00000
  29        4S          0.00251   0.00816  -0.00001  -0.00105  -0.00444
  30        4PX        -0.00711   0.00316   0.00000   0.00001   0.00016
  31        4PY         0.00319  -0.00561   0.00000  -0.00241  -0.01025
  32        4PZ        -0.00000  -0.00000   0.08968   0.00000  -0.00000
  33 5   H  1S          0.00002  -0.00235   0.00000   0.00000   0.00000
  34        2S          0.00028  -0.00990  -0.00001   0.00000   0.00016
  35        3S          0.00029  -0.00732  -0.00001   0.00023   0.00147
  36 6   H  1S         -0.00176  -0.00048   0.00000  -0.00000  -0.00004
  37        2S         -0.00828  -0.00104  -0.00000  -0.00004  -0.00093
  38        3S         -0.00654  -0.00030  -0.00000  -0.00047  -0.00248
                          16        17        18        19        20
  16        3S          0.02119
  17 3   H  1S         -0.00201   0.08199
  18        2S         -0.00795   0.07749   0.14888
  19        3S         -0.00669   0.01354   0.04060   0.02042
  20 4   C  1S          0.00009   0.00000   0.00002   0.00009   0.65947
  21        2S          0.00016   0.00000   0.00003   0.00016   0.49332
  22        2PX         0.00001  -0.00000  -0.00028  -0.00059   0.00000
  23        2PY        -0.00074  -0.00000  -0.00008  -0.00013   0.00000
  24        2PZ        -0.00000   0.00000   0.00000  -0.00000   0.00000
  25        3S         -0.00247  -0.00007  -0.00148  -0.00241  -0.02939
  26        3PX         0.00006  -0.00016  -0.00287  -0.00366   0.00000
  27        3PY        -0.00447  -0.00007  -0.00065  -0.00066   0.00000
  28        3PZ        -0.00000   0.00000   0.00000  -0.00000   0.00000
  29        4S         -0.00227  -0.00103  -0.00427  -0.00206  -0.01232
  30        4PX         0.00017  -0.00186  -0.00872  -0.00675   0.00000
  31        4PY        -0.00754  -0.00058  -0.00143  -0.00054   0.00000
  32        4PZ        -0.00000   0.00000  -0.00000  -0.00000   0.00000
  33 5   H  1S          0.00023  -0.00000  -0.00004  -0.00043  -0.00022
  34        2S          0.00145  -0.00004  -0.00090  -0.00235  -0.00160
  35        3S          0.00247  -0.00045  -0.00243  -0.00286   0.00005
  36 6   H  1S         -0.00044   0.00000   0.00000   0.00022  -0.00021
  37        2S         -0.00242   0.00000   0.00016   0.00142  -0.00157
  38        3S         -0.00293   0.00023   0.00145   0.00243   0.00004
                          21        22        23        24        25
  21        2S          0.49209
  22        2PX         0.00000   0.08294
  23        2PY         0.00000   0.00000   0.08770
  24        2PZ         0.00000   0.00000   0.00000   0.06420
  25        3S         -0.06462   0.00000   0.00000   0.00000   0.45385
  26        3PX         0.00000   0.08108   0.00000   0.00000   0.00000
  27        3PY         0.00000   0.00000   0.08273   0.00000   0.00000
  28        3PZ         0.00000   0.00000   0.00000   0.06469   0.00000
  29        4S         -0.02165   0.00000   0.00000   0.00000   0.21552
  30        4PX         0.00000   0.01610   0.00000   0.00000   0.00000
  31        4PY         0.00000   0.00000   0.01479   0.00000   0.00000
  32        4PZ         0.00000   0.00000   0.00000   0.02111   0.00000
  33 5   H  1S         -0.00031   0.00151   0.00576   0.00001   0.01559
  34        2S         -0.00306   0.00384   0.01370   0.00001   0.03962
  35        3S         -0.00005   0.00067   0.00200   0.00000   0.00256
  36 6   H  1S         -0.00029   0.00699   0.00001   0.00001   0.01514
  37        2S         -0.00300   0.01735   0.00001   0.00001   0.03915
  38        3S         -0.00007   0.00270  -0.00001   0.00000   0.00267
                          26        27        28        29        30
  26        3PX         0.20056
  27        3PY         0.00000   0.19774
  28        3PZ         0.00000   0.00000   0.16468
  29        4S          0.00000   0.00000   0.00000   0.18600
  30        4PX         0.07461   0.00000   0.00000   0.00000   0.06607
  31        4PY         0.00000   0.06632   0.00000   0.00000   0.00000
  32        4PZ         0.00000   0.00000   0.10031   0.00000   0.00000
  33 5   H  1S          0.00900   0.03371   0.00005   0.01765   0.00573
  34        2S          0.01731   0.06012   0.00005   0.04428   0.01453
  35        3S          0.00381   0.01073   0.00000   0.00690   0.00528
  36 6   H  1S          0.04191   0.00007   0.00004   0.01756   0.02448
  37        2S          0.07722  -0.00002   0.00004   0.04467   0.05882
  38        3S          0.01475  -0.00009   0.00000   0.00744   0.01854
                          31        32        33        34        35
  31        4PY         0.05361
  32        4PZ         0.00000   0.14314
  33 5   H  1S          0.01864   0.00003   0.08109
  34        2S          0.04353   0.00002   0.07774   0.15181
  35        3S          0.01280  -0.00000   0.01417   0.04331   0.02267
  36 6   H  1S         -0.00004   0.00002  -0.00001  -0.00080  -0.00235
  37        2S         -0.00023   0.00001  -0.00081  -0.00667  -0.00962
  38        3S         -0.00018  -0.00001  -0.00237  -0.00964  -0.00831
                          36        37        38
  36 6   H  1S          0.08040
  37        2S          0.07758   0.15241
  38        3S          0.01425   0.04375   0.02296
     Gross orbital populations:
                           1
   1 1   C  1S          1.10436
   2        2S          0.88585
   3        2PX         0.22622
   4        2PY         0.23570
   5        2PZ         0.16623
   6        3S          0.79238
   7        3PX         0.56012
   8        3PY         0.55492
   9        3PZ         0.42290
  10        4S          0.50668
  11        4PX         0.26018
  12        4PY         0.21175
  13        4PZ         0.41212
  14 2   H  1S          0.27275
  15        2S          0.46782
  16        3S          0.08677
  17 3   H  1S          0.27610
  18        2S          0.46573
  19        3S          0.08368
  20 4   C  1S          1.10440
  21        2S          0.88584
  22        2PX         0.22285
  23        2PY         0.23622
  24        2PZ         0.16555
  25        3S          0.79276
  26        3PX         0.55330
  27        3PY         0.55708
  28        3PZ         0.42010
  29        4S          0.50593
  30        4PX         0.27346
  31        4PY         0.21603
  32        4PZ         0.41258
  33 5   H  1S          0.27337
  34        2S          0.46892
  35        3S          0.08820
  36 6   H  1S          0.27122
  37        2S          0.47007
  38        3S          0.08989
          Condensed to atoms (all electrons):
               1          2          3          4          5          6
     1  C    5.034220   0.386998   0.387751   0.601384  -0.035679  -0.035267
     2  H    0.386998   0.517816  -0.033126  -0.040599   0.006010  -0.009763
     3  H    0.387751  -0.033126   0.514534  -0.040064  -0.009512   0.005918
     4  C    0.601384  -0.040599  -0.040064   5.057218   0.384221   0.383935
     5  H   -0.035679   0.006010  -0.009512   0.384221   0.526011  -0.040570
     6  H   -0.035267  -0.009763   0.005918   0.383935  -0.040570   0.526925
 Mulliken charges:
               1
     1  C   -0.339407
     2  H    0.172664
     3  H    0.174497
     4  C   -0.346096
     5  H    0.169520
     6  H    0.168822
 Sum of Mulliken charges =  -0.00000
 Mulliken charges with hydrogens summed into heavy atoms:
               1
     1  C    0.007754
     4  C   -0.007754
 Electronic spatial extent (au):  <R**2>=             83.7350
 Charge=             -0.0000 electrons
 Dipole moment (field-independent basis, Debye):
    X=              0.0066    Y=              0.0240    Z=             -0.1521  Tot=              0.1541
 Quadrupole moment (field-independent basis, Debye-Ang):
   XX=            -12.2056   YY=            -12.2307   ZZ=            -15.6688
   XY=              0.0057   XZ=              0.0016   YZ=             -0.0041
 Traceless Quadrupole moment (field-independent basis, Debye-Ang):
   XX=              1.1628   YY=              1.1377   ZZ=             -2.3005
   XY=              0.0057   XZ=              0.0016   YZ=             -0.0041
 Octapole moment (field-independent basis, Debye-Ang**2):
  XXX=             -0.3364  YYY=              0.0073  ZZZ=             -0.0619  XYY=              0.2010
  XXY=             -0.0342  XXZ=             -0.1955  XZZ=             -0.0796  YZZ=             -0.0647
  YYZ=             -0.2602  XYZ=             -0.0557
 Hexadecapole moment (field-independent basis, Debye-Ang**3):
 XXXX=            -34.3014 YYYY=            -55.2572 ZZZZ=            -17.8315 XXXY=             -7.2509
 XXXZ=              0.0274 YYYX=            -10.7114 YYYZ=              0.0308 ZZZX=              0.0270
 ZZZY=              0.0557 XXYY=            -16.2069 XXZZ=             -9.9262 YYZZ=            -13.6446
 XXYZ=              0.0147 YYXZ=             -0.0011 ZZXY=             -3.1998
 N-N= 3.305955753863D+01 E-N=-2.478270836927D+02  KE= 7.814914301135D+01
 Orbital energies and kinetic energies (alpha):
                                 1                 2
   1         O               -10.289897         15.976860
   2         O               -10.288722         15.981620
   3         O                -0.863748          1.537761
   4         O                -0.672127          1.271358
   5         O                -0.559240          0.940978
   6         O                -0.509085          1.283556
   7         O                -0.436599          1.043732
   8         O                -0.356786          1.038706
   9         V                 0.079384          1.182359
  10         V                 0.140810          0.589465
  11         V                 0.164596          0.594657
  12         V                 0.170207          0.679890
  13         V                 0.240882          0.583513
  14         V                 0.373327          0.852200
  15         V                 0.393471          0.933544
  16         V                 0.398740          0.783326
  17         V                 0.464618          1.190221
  18         V                 0.488406          1.423711
  19         V                 0.493839          1.302443
  20         V                 0.591011          1.653007
  21         V                 0.665396          1.571715
  22         V                 0.690620          2.147585
  23         V                 0.773227          2.480521
  24         V                 0.774846          2.261531
  25         V                 0.838262          1.080303
  26         V                 0.951711          3.421305
  27         V                 2.231682          3.926439
  28         V                 2.290752          4.028250
  29         V                 2.332049          4.302960
  30         V                 2.404470          4.511095
  31         V                 2.671234          6.300555
  32         V                 2.816614          6.301940
  33         V                 2.879143          6.141951
  34         V                 2.951602          6.226421
  35         V                 3.139988          6.820800
  36         V                 3.316945          6.404424
  37         V                23.352170         60.074586
  38         V                23.705459         60.203512
 Total kinetic energy from orbitals= 7.814914301135D+01
 Calling FoFJK, ICntrl=      2127 FMM=F ISym2X=0 I1Cent= 0 IOpClX= 0 NMat=1 NMatS=1 NMatT=0.
 -------------------------------------------------------------------
 Center     Atomic                   Forces (Hartrees/Bohr)
 Number     Number              X              Y              Z
 -------------------------------------------------------------------
      1        6           0.012086396    0.007178803   -0.006335053
      2        1          -0.010643631    0.007449638    0.003170832
      3        1           0.005148208   -0.004598408    0.002935310
      4        6           0.007358580    0.007084513   -0.006462971
      5        1           0.001207500   -0.011956677    0.003289211
      6        1          -0.015157053   -0.005157868    0.003402670
 -------------------------------------------------------------------
 Cartesian Forces:  Max     0.015157053 RMS     0.007608909

 GradGradGradGradGradGradGradGradGradGradGradGradGradGradGradGradGradGrad
 Berny optimization.
 Search for a local minimum.
 Step number   1 out of a maximum of    2
 All quantities printed in internal units (Hartrees-Bohrs-Radians)
 Second derivative matrix not updated -- first step.
 The second derivative matrix:
                          X1        Y1        Z1        X2        Y2
           X1           0.75266
           Y1           0.09846   0.85229
           Z1           0.00893   0.01350   0.16994
           X2          -0.16357   0.09548   0.00320   0.14120
           Y2           0.10126  -0.27900  -0.01137  -0.11446   0.26794
           Z2           0.00508  -0.01432  -0.05453  -0.00461   0.01176
           X3          -0.34757  -0.00132  -0.01254  -0.00029  -0.00015
           Y3          -0.00706  -0.10935  -0.00304   0.03206   0.01877
           Z3          -0.01606  -0.00294  -0.05600   0.00233   0.00088
           X4          -0.26664  -0.17812  -0.00115   0.02270   0.01333
           Y4          -0.17827  -0.47225  -0.00184  -0.01311  -0.00770
           Z4           0.00202   0.00370  -0.09349  -0.00092  -0.00127
           X5           0.02355  -0.01360   0.00097  -0.00002   0.00001
           Y5           0.01171  -0.00676   0.00132   0.00001  -0.00001
           Z5          -0.00080   0.00050   0.01742   0.00039  -0.00020
           X6           0.00156  -0.00090   0.00059  -0.00002   0.00001
           Y6          -0.02609   0.01507   0.00143   0.00001  -0.00000
           Z6           0.00083  -0.00044   0.01666  -0.00039   0.00020
                          Z2        X3        Y3        Z3        X4
           Z2           0.02857
           X3          -0.00046   0.34770
           Y3           0.00252   0.00157   0.07525
           Z3           0.01045   0.01368   0.00205   0.02953
           X4           0.00076   0.00019  -0.02659  -0.00074   0.71630
           Y4          -0.00041  -0.00011   0.01535   0.00046   0.11940
           Z4           0.01544  -0.00068  -0.00152   0.01610  -0.00794
           X5          -0.00039  -0.00002   0.00001   0.00040  -0.14712
           Y5           0.00025   0.00001  -0.00001  -0.00025   0.09333
           Z5           0.00920   0.00040  -0.00025  -0.00937  -0.00489
           X6          -0.00038  -0.00002   0.00001   0.00039  -0.32543
           Y6           0.00020   0.00001  -0.00001  -0.00020  -0.02135
           Z6          -0.00913  -0.00040   0.00025   0.00930   0.01396
                          Y4        Z4        X5        Y5        Z5
           Y4           0.86109
           Z4          -0.01551   0.17628
           X5           0.08500  -0.00325   0.12560
           Y5          -0.29164   0.01164  -0.10409   0.28222
           Z5           0.01437  -0.05762   0.00437  -0.01239   0.03012
           X6          -0.01290   0.01078  -0.00200  -0.00097   0.00053
           Y6          -0.10484   0.00297   0.03267   0.01620  -0.00202
           Z6           0.00292  -0.05671  -0.00210  -0.00056   0.01025
                          X6        Y6        Z6
           X6           0.32590
           Y6           0.01476   0.07359
           Z6          -0.01191  -0.00237   0.02963
 ITU=  0
     Eigenvalues ---    0.03709   0.04373   0.08986   0.10223   0.13491
     Eigenvalues ---    0.17449   0.26182   0.29009   0.52809   0.70132
     Eigenvalues ---    0.97131   1.55924
 Angle between quadratic step and forces=  35.40 degrees.
 Linear search not attempted -- first point.
 B after Tr=     0.006319    0.006593   -0.015694
         Rot=    1.000000   -0.000083    0.000047   -0.000106 Ang=  -0.02 deg.
 Variable       Old X    -DE/DX   Delta X   Delta X   Delta X     New X
                                 (Linear)    (Quad)   (Total)
    X1       -0.63506   0.01209   0.00000   0.02014   0.02669  -0.60837
    Y1       -1.09869   0.00718   0.00000   0.02161   0.02807  -1.07061
    Z1        0.01800  -0.00634   0.00000  -0.03362  -0.04955  -0.03155
    X2        0.41976  -0.01064   0.00000  -0.04417  -0.03724   0.38252
    Y2       -2.88970   0.00745   0.00000   0.02150   0.02817  -2.86153
    Z2       -0.06637   0.00317   0.00000   0.04112   0.02499  -0.04137
    X3       -2.69264   0.00515   0.00000   0.03227   0.03883  -2.65381
    Y3       -1.11117  -0.00460   0.00000  -0.01852  -0.01249  -1.12366
    Z3       -0.07040   0.00294   0.00000   0.04020   0.02407  -0.04633
    X4        0.62988   0.00736   0.00000   0.00601   0.01210   0.64198
    Y4        1.09194   0.00708   0.00000   0.00572   0.01245   1.10439
    Z4        0.01313  -0.00646   0.00000  -0.03132  -0.04677  -0.03365
    X5       -0.29860   0.00121   0.00000  -0.01544  -0.00973  -0.30834
    Y5        2.95365  -0.01196   0.00000  -0.03959  -0.03306   2.92059
    Z5       -0.07595   0.00329   0.00000   0.03941   0.02417  -0.05178
    X6        2.71997  -0.01516   0.00000  -0.03672  -0.03065   2.68932
    Y6        1.21432  -0.00516   0.00000  -0.03031  -0.02315   1.19117
    Z6       -0.07148   0.00340   0.00000   0.03834   0.02310  -0.04838
         Item               Value     Threshold  Converged?
 Maximum Force            0.015157     0.000450     NO 
 RMS     Force            0.007609     0.000300     NO 
 Maximum Displacement     0.049552     0.001800     NO 
 RMS     Displacement     0.029129     0.001200     NO 
 Predicted change in Energy=-1.728141D-03
 GradGradGradGradGradGradGradGradGradGradGradGradGradGradGradGradGradGrad

 Unable to Open any file for archive entry.
 1\1\GINC-BHD0002\Force\RwB97XD\6-311G\C2H4\BWEIGHT\11-Jan-2023\0\\# WB
 97XD/6-311G SCF=XQC FORCE nosym pop=full guess=read\\MD Step 1000\\0,1
 \C,-0.33606018,-0.5813991,0.00952774\H,0.22212831,-1.52916374,-0.03511
 902\H,-1.42488613,-0.58800645,-0.03725192\C,0.33331836,0.57783013,0.00
 694556\H,-0.15801432,1.5630048,-0.04019188\H,1.43934378,0.642589,-0.03
 78246\\Version=ES64L-G16RevC.01\HF=-78.5555415\RMSD=7.652e-09\RMSF=7.6
 09e-03\Dipole=0.0025771,0.0094557,-0.0598222\Quadrupole=0.864497,0.845
 838,-1.7103351,0.0042579,0.0011789,-0.0030627\PG=C01 [X(C2H4)]\\@
 The archive entry for this job was punched.


 SATCHEL PAIGE'S GUIDE TO LONGEVITY

    1.  AVOID FRIED MEATS, WHICH ANGRY UP THE BLOOD.

    2.  IF YOUR STOMACH DISPUTES YOU, LIE DOWN AND PACIFY IT WITH COOL
        THOUGHTS.

    3.  KEEP THE JUICES FLOWING BY JANGLING AROUND GENTLY AS YOU MOVE.

    4.  GO VERY LIGHT ON THE VICES, SUCH AS CARRYING ON IN SOCIETY.
        THE SOCIAL RUMBLE AIN'T RESTFUL.

    5.  AVOID RUNNING AT ALL TIMES.

    6.  DON'T LOOK BACK.  SOMETHING MAY BE GAINING ON YOU.
 Job cpu time:       0 days  0 hours  0 minutes 33.3 seconds.
 Elapsed time:       0 days  0 hours  0 minutes 10.8 seconds.
 File lengths (MBytes):  RWF=    272 Int=      0 D2E=      0 Chk=     32 Scr=     32
 Normal termination of Gaussian 16 at Wed Jan 11 18:43:57 2023.
