6
MD Step 0
C  -0.33763715 -0.58748864 0.00000000
H  0.19552659 -1.51519357 0.00000000
H  -1.40763715 -0.58748864 0.00000000
C  0.33763715 0.58748865 0.00000000
H  -0.19552659 1.51519357 0.00000000
H  1.40763715 0.58748865 0.00000000
6
MD Step 1
C  -0.33800593 -0.58783553 -0.00039404
H  0.19789035 -1.51298343 0.00234710
H  -1.40542120 -0.58521231 0.00234983
C  0.33721687 0.58704678 -0.00039461
H  -0.19318381 1.51768721 0.00234900
H  1.41011715 0.58990737 0.00235172
6
MD Step 2
C  -0.33831515 -0.58808241 -0.00078471
H  0.20025723 -1.51110210 0.00467407
H  -1.40354544 -0.58310506 0.00467961
C  0.33675248 0.58651648 -0.00078582
H  -0.19087744 1.52042841 0.00467774
H  1.41278651 0.59243843 0.00468308
6
MD Step 3
C  -0.33856675 -0.58823388 -0.00117737
H  0.20265800 -1.50952773 0.00701281
H  -1.40202181 -0.58114177 0.00702149
C  0.33624362 0.58589637 -0.00117891
H  -0.18856820 1.52341926 0.00701778
H  1.41561455 0.59510405 0.00702538
6
MD Step 4
C  -0.33875091 -0.58828314 -0.00156491
H  0.20504576 -1.50830591 0.00932083
H  -1.40092768 -0.57937083 0.00933341
C  0.33570276 0.58519855 -0.00156662
H  -0.18628909 1.52658185 0.00932606
H  1.41849293 0.59785095 0.00933512
6
MD Step 5
C  -0.33887117 -0.58823698 -0.00195267
H  0.20744452 -1.50740065 0.01162978
H  -1.40025505 -0.57776541 0.01164759
C  0.33513006 0.58442352 -0.00195413
H  -0.18399724 1.52990808 0.01163347
H  1.42138695 0.60069927 0.01164271
6
MD Step 6
C  -0.33892150 -0.58809279 -0.00233551
H  0.20981286 -1.50683152 0.01390892
H  -1.40004701 -0.57636017 0.01393397
C  0.33453625 0.58358307 -0.00233610
H  -0.18171102 1.53332376 0.01390835
H  1.42419988 0.60360590 0.01391588
6
MD Step 7
C  -0.33890437 -0.58785645 -0.00271577
H  0.21215098 -1.50656698 0.01617185
H  -1.40028973 -0.57514427 0.01620691
C  0.33392457 0.58268216 -0.00271462
H  -0.17940371 1.53679672 0.01616329
H  1.42688192 0.60657156 0.01616663
6
MD Step 8
C  -0.33881931 -0.58753082 -0.00309174
H  0.21443283 -1.50659329 0.01840836
H  -1.40098095 -0.57412969 0.01845694
C  0.33330215 0.58173031 -0.00308778
H  -0.17707221 1.54026952 0.01838698
H  1.42936299 0.60957256 0.01838302
6
MD Step 9
C  -0.33867157 -0.58712437 -0.00346644
H  0.21665847 -1.50686333 0.02063624
H  -1.40207826 -0.57329931 0.02070249
C  0.33267122 0.58073276 -0.00345835
H  -0.17468578 1.54371243 0.02059603
H  1.43160591 0.61261292 0.02058117
6
MD Step 10
C  -0.33846014 -0.58663910 -0.00383559
H  0.21878327 -1.50736886 0.02282994
H  -1.40357164 -0.57267820 0.02291871
C  0.33204108 0.57970232 -0.00382186
H  -0.17225768 1.54705299 0.02276382
H  1.43353574 0.61565303 0.02273389
6
MD Step 11
C  -0.33819077 -0.58608351 -0.00420071
H  0.22079625 -1.50806346 0.02499846
H  -1.40540613 -0.57225582 0.02511498
C  0.33141493 0.57864619 -0.00417963
H  -0.16976791 1.55025499 0.02489820
H  1.43511885 0.61868769 0.02484870
6
MD Step 12
C  -0.33785982 -0.58545644 -0.00455298
H  0.22262500 -1.50895917 0.02708954
H  -1.40757916 -0.57208153 0.02723971
C  0.33080593 0.57758188 -0.00452280
H  -0.16725914 1.55322361 0.02694612
H  1.43626771 0.62165059 0.02687191
6
MD Step 13
C  -0.33748740 -0.58478019 -0.00490663
H  0.22433398 -1.50992943 0.02918775
H  -1.40994334 -0.57206697 0.02937677
C  0.33020385 0.57650392 -0.00486532
H  -0.16463961 1.55600435 0.02899087
H  1.43703996 0.62461235 0.02888745
6
MD Step 14
C  -0.33706506 -0.58404824 -0.00524653
H  0.22581479 -1.51102083 0.03120366
H  -1.41252042 -0.57229614 0.03143744
C  0.32962732 0.57543582 -0.00519222
H  -0.16199314 1.55847284 0.03094271
H  1.43732709 0.62746997 0.03080471
6
MD Step 15
C  -0.33660144 -0.58327087 -0.00557416
H  0.22705874 -1.51218141 0.03314642
H  -1.41522921 -0.57275349 0.03343040
C  0.32907797 0.57438430 -0.00550499
H  -0.15930779 1.56060811 0.03281015
H  1.43712812 0.63021943 0.03263249
6
MD Step 16
C  -0.33610225 -0.58245520 -0.00588760
H  0.22803893 -1.51338000 0.03500516
H  -1.41800605 -0.57344214 0.03534431
C  0.32856032 0.57335905 -0.00580180
H  -0.15659421 1.56237474 0.03458201
H  1.43643120 0.63283731 0.03435976
6
MD Step 17
C  -0.33557530 -0.58161021 -0.00618675
H  0.22874151 -1.51457612 0.03677991
H  -1.42077574 -0.57435313 0.03717836
C  0.32807654 0.57236748 -0.00608271
H  -0.15385497 1.56375406 0.03625815
H  1.43524462 0.63531183 0.03598689
6
MD Step 18
C  -0.33502894 -0.58074525 -0.00647193
H  0.22915751 -1.51572924 0.03847308
H  -1.42346176 -0.57547395 0.03893387
C  0.32762792 0.57141604 -0.00634819
H  -0.15109315 1.56473606 0.03784100
H  1.43358816 0.63763437 0.03751699
6
MD Step 19
C  -0.33447182 -0.57986983 -0.00674377
H  0.22928273 -1.51679990 0.04008908
H  -1.42598850 -0.57678908 0.04061387
C  0.32721489 0.57051024 -0.00659907
H  -0.14831274 1.56531900 0.03933511
H  1.43149238 0.63979914 0.03895561
6
MD Step 20
C  -0.33390601 -0.57898665 -0.00699625
H  0.22907717 -1.51779110 0.04159325
H  -1.42832359 -0.57832075 0.04218328
C  0.32684394 0.56966145 -0.00682985
H  -0.14555927 1.56546884 0.04070668
H  1.42895758 0.64176233 0.04026900
6
MD Step 21
C  -0.33334730 -0.57811217 -0.00723771
H  0.22858783 -1.51862605 0.04303517
H  -1.43035599 -0.58000671 0.04368882
C  0.32650690 0.56886628 -0.00704880
H  -0.14279771 1.56524197 0.04200532
H  1.42607628 0.64356511 0.04150921
6
MD Step 22
C  -0.33279763 -0.57724879 -0.00746263
H  0.22778415 -1.51931347 0.04438311
H  -1.43206262 -0.58186468 0.04509814
C  0.32620878 0.56813412 -0.00725099
H  -0.14007619 1.56462024 0.04320050
H  1.42286756 0.64516855 0.04264608
6
MD Step 23
C  -0.33226080 -0.57640070 -0.00766779
H  0.22665276 -1.51985311 0.04561919
H  -1.43341410 -0.58389793 0.04639252
C  0.32595178 0.56747127 -0.00743379
H  -0.13743169 1.56360569 0.04427557
H  1.41937146 0.64654860 0.04366360
6
MD Step 24
C  -0.33175175 -0.57558329 -0.00786214
H  0.22525368 -1.52017976 0.04679592
H  -1.43431908 -0.58603952 0.04762110
C  0.32572583 0.56687152 -0.00760596
H  -0.13483399 1.56227649 0.04528348
H  1.41570445 0.64775241 0.04461787
6
MD Step 25
C  -0.33127399 -0.57480036 -0.00804340
H  0.22358544 -1.52029854 0.04790056
H  -1.43476047 -0.58828691 0.04877002
C  0.32553144 0.56633872 -0.00776574
H  -0.13231953 1.56065152 0.04621289
H  1.41192306 0.64876309 0.04549864
6
MD Step 26
C  -0.33082490 -0.57404949 -0.00820356
H  0.22161707 -1.52025283 0.04888729
H  -1.43476366 -0.59067006 0.04979397
C  0.32537432 0.56588142 -0.00790609
H  -0.12995918 1.55872200 0.04702004
H  1.40805493 0.64953182 0.04626179
6
MD Step 27
C  -0.33041203 -0.57333851 -0.00834601
H  0.21938617 -1.52002594 0.04977611
H  -1.43429791 -0.59315369 0.05071086
C  0.32524888 0.56549645 -0.00803057
H  -0.12776034 1.55654946 0.04772609
H  1.40419632 0.65007638 0.04693066
6
MD Step 28
C  -0.33003540 -0.57266758 -0.00846695
H  0.21689227 -1.51964753 0.05054558
H  -1.43338333 -0.59574355 0.05149913
C  0.32515621 0.56518675 -0.00813608
H  -0.12577246 1.55415850 0.04831148
H  1.40040411 0.65037436 0.04748608
6
MD Step 29
C  -0.32969674 -0.57203862 -0.00856522
H  0.21415269 -1.51913732 0.05118930
H  -1.43203451 -0.59843058 0.05215176
C  0.32509472 0.56495206 -0.00822197
H  -0.12403083 1.55159223 0.04877148
H  1.39675053 0.65041933 0.04792421
6
MD Step 30
C  -0.32939625 -0.57145198 -0.00863878
H  0.21118249 -1.51852459 0.05169590
H  -1.43028023 -0.60121080 0.05265730
C  0.32506357 0.56479227 -0.00828680
H  -0.12257580 1.54889165 0.04909657
H  1.39330186 0.65020101 0.04823596
6
MD Step 31
C  -0.32913775 -0.57091173 -0.00869027
H  0.20802547 -1.51781646 0.05208064
H  -1.42813179 -0.60405412 0.05302978
C  0.32505748 0.56470228 -0.00833330
H  -0.12142112 1.54612604 0.04930340
H  1.39014804 0.64973653 0.04843948
6
MD Step 32
C  -0.32891719 -0.57041402 -0.00871477
H  0.20468472 -1.51706674 0.05231571
H  -1.42565209 -0.60697350 0.05324259
C  0.32507850 0.56468364 -0.00835740
H  -0.12062213 1.54332257 0.04936609
H  1.38733150 0.64900105 0.04850807
6
MD Step 33
C  -0.32874027 -0.56996496 -0.00871853
H  0.20122783 -1.51626958 0.05243653
H  -1.42284919 -0.60991960 0.05332941
C  0.32511827 0.56472703 -0.00836495
H  -0.12017009 1.54057094 0.04932116
H  1.38495124 0.64803358 0.04848015
6
MD Step 34
C  -0.32859992 -0.56955791 -0.00869505
H  0.19765169 -1.51549386 0.05240614
H  -1.41981103 -0.61291541 0.05325543
C  0.32518093 0.56483490 -0.00835036
H  -0.12012559 1.53788702 0.04913335
H  1.38302569 0.64680173 0.04831869
6
MD Step 35
C  -0.32849853 -0.56919589 -0.00864855
H  0.19401453 -1.51474977 0.05224843
H  -1.41657161 -0.61592402 0.05304406
C  0.32526079 0.56499944 -0.00831760
H  -0.12048609 1.53534439 0.04882752
H  1.38162418 0.64533451 0.04804911
6
MD Step 36
C  -0.32844045 -0.56888413 -0.00858616
H  0.19039064 -1.51403292 0.05200305
H  -1.41315528 -0.61889341 0.05273391
C  0.32535001 0.56521016 -0.00827297
H  -0.12122973 1.53302807 0.04844406
H  1.38082016 0.64367734 0.04771289
6
MD Step 37
C  -0.32841728 -0.56861523 -0.00850207
H  0.18678171 -1.51341203 0.05163690
H  -1.40966449 -0.62184477 0.05229453
C  0.32545358 0.56546893 -0.00821134
H  -0.12240262 1.53094462 0.04795070
H  1.38060103 0.64180350 0.04727531
6
MD Step 38
C  -0.32842506 -0.56838652 -0.00839581
H  0.18321855 -1.51292545 0.05114681
H  -1.40617564 -0.62477018 0.05172424
C  0.32557202 0.56577283 -0.00813216
H  -0.12401636 1.52912371 0.04734465
H  1.38097035 0.63971677 0.04673216
6
MD Step 39
C  -0.32845902 -0.56819482 -0.00826656
H  0.17972863 -1.51261203 0.05052754
H  -1.40276939 -0.62766449 0.05101960
C  0.32570678 0.56611960 -0.00803455
H  -0.12607935 1.52758535 0.04662075
H  1.38191589 0.63741953 0.04607659
6
MD Step 40
C  -0.32851603 -0.56803873 -0.00811552
H  0.17634902 -1.51249674 0.04978522
H  -1.39951532 -0.63051174 0.05018822
C  0.32585792 0.56650546 -0.00791932
H  -0.12858299 1.52635274 0.04578497
H  1.38342338 0.63492633 0.04531314
6
MD Step 41
C  -0.32859333 -0.56791753 -0.00794456
H  0.17311818 -1.51259739 0.04892968
H  -1.39647801 -0.63329285 0.04924145
C  0.32602533 0.56692643 -0.00778784
H  -0.13150912 1.52544404 0.04484677
H  1.38546937 0.63225628 0.04444989
6
MD Step 42
C  -0.32869101 -0.56783346 -0.00775871
H  0.17008899 -1.51291033 0.04798796
H  -1.39370169 -0.63597194 0.04820722
C  0.32620640 0.56737610 -0.00764413
H  -0.13481625 1.52488569 0.04383279
H  1.38803562 0.62944659 0.04351273
6
MD Step 43
C  -0.32880117 -0.56778102 -0.00755449
H  0.16726414 -1.51347428 0.04694014
H  -1.39127335 -0.63856098 0.04706823
C  0.32640674 0.56785649 -0.00748482
H  -0.13850410 1.52464770 0.04272213
H  1.39104535 0.62648825 0.04247838
6
MD Step 44
C  -0.32892389 -0.56776270 -0.00733675
H  0.16468884 -1.51427619 0.04581236
H  -1.38922707 -0.64102598 0.04585169
C  0.32662443 0.56836231 -0.00731377
H  -0.14252036 1.52473781 0.04154034
H  1.39445899 0.62341940 0.04137163
6
MD Step 45
C  -0.32905729 -0.56777906 -0.00710800
H  0.16239139 -1.51531027 0.04461778
H  -1.38760213 -0.64334647 0.04457206
C  0.32685983 0.56889086 -0.00713279
H  -0.14682043 1.52514247 0.04029987
H  1.39821607 0.62026604 0.04020391
6
MD Step 46
C  -0.32919262 -0.56782390 -0.00686314
H  0.16035380 -1.51660713 0.04332759
H  -1.38647097 -0.64554498 0.04320279
C  0.32712036 0.56944702 -0.00693706
H  -0.15139735 1.52579828 0.03897032
H  1.40220763 0.61701279 0.03894294
6
MD Step 47
C  -0.32932929 -0.56789889 -0.00660514
H  0.15859871 -1.51814598 0.04195768
H  -1.38584988 -0.64759905 0.04176065
C  0.32740579 0.57002829 -0.00672889
H  -0.15619486 1.52668088 0.03756695
H  1.40636658 0.61369010 0.03760343
6
MD Step 48
C  -0.32946273 -0.56800159 -0.00633218
H  0.15711807 -1.51992646 0.04049777
H  -1.38576978 -0.64951315 0.04023652
C  0.32772004 0.57063689 -0.00650646
H  -0.16117998 1.52773444 0.03607829
H  1.41059766 0.61030285 0.03617304
6
MD Step 49
C  -0.32959622 -0.56813701 -0.00605008
H  0.15594196 -1.52189970 0.03897964
H  -1.38620641 -0.65124919 0.03866225
C  0.32805964 0.57126789 -0.00627466
H  -0.16627439 1.52894215 0.03453621
H  1.41484883 0.60689905 0.03468379
6
MD Step 50
C  -0.32972255 -0.56829949 -0.00575291
H  0.15503117 -1.52407713 0.03737042
H  -1.38718875 -0.65283532 0.03700578
C  0.32843164 0.57192750 -0.00602812
H  -0.17146395 1.53021907 0.03290634
H  1.41900403 0.60346194 0.03310065
6
MD Step 51
C  -0.32983653 -0.56848499 -0.00543619
H  0.15435089 -1.52645701 0.03564555
H  -1.38872476 -0.65429167 0.03524279
C  0.32884122 0.57262039 -0.00576290
H  -0.17672545 1.53148762 0.03116282
H  1.42295939 0.59998351 0.03139752
6
MD Step 52
C  -0.32994326 -0.56869908 -0.00510549
H  0.15391873 -1.52897686 0.03383602
H  -1.39075337 -0.65558193 0.03340359
C  0.32928368 0.57334151 -0.00548390
H  -0.18197912 1.53272721 0.02933728
H  1.42667335 0.59651222 0.02960666
6
MD Step 53
C  -0.33004371 -0.56894278 -0.00476141
H  0.15372144 -1.53159868 0.03194549
H  -1.39323031 -0.65669824 0.03149122
C  0.32975840 0.57409023 -0.00519175
H  -0.18717404 1.53389081 0.02743331
H  1.43008275 0.59306896 0.02773206
6
MD Step 54
C  -0.33014119 -0.56921898 -0.00440646
H  0.15375393 -1.53427112 0.02998849
H  -1.39609078 -0.65762228 0.02951935
C  0.33026238 0.57486374 -0.00488883
H  -0.19224983 1.53494479 0.02546584
H  1.43314253 0.58968546 0.02578928
6
MD Step 55
C  -0.33024295 -0.56953394 -0.00404692
H  0.15402955 -1.53692058 0.02800013
H  -1.39924149 -0.65831554 0.02752199
C  0.33078870 0.57565533 -0.00458086
H  -0.19712739 1.53587963 0.02347126
H  1.43583620 0.58641388 0.02381545
6
MD Step 56
C  -0.33034975 -0.56988714 -0.00368204
H  0.15452057 -1.53951278 0.02597671
H  -1.40262341 -0.65878027 0.02549455
C  0.33133647 0.57646455 -0.00426731
H  -0.20177016 1.53665003 0.02144597
H  1.43811524 0.58326646 0.02180755
6
MD Step 57
C  -0.33045322 -0.57026876 -0.00330139
H  0.15514401 -1.54206842 0.02386131
H  -1.40622816 -0.65907461 0.02337940
C  0.33191336 0.57729975 -0.00393919
H  -0.20619971 1.53716073 0.01933116
H  1.43988480 0.58020073 0.01970712
6
MD Step 58
C  -0.33056414 -0.57068728 -0.00291445
H  0.15592703 -1.54449746 0.02170691
H  -1.40993268 -0.65914526 0.02122839
C  0.33250799 0.57814984 -0.00360510
H  -0.21032902 1.53743393 0.01718189
H  1.44117170 0.57728469 0.01756999
6
MD Step 59
C  -0.33067776 -0.57113565 -0.00251455
H  0.15680594 -1.54680301 0.01947717
H  -1.41370441 -0.65903179 0.01900441
C  0.33312362 0.57901862 -0.00325931
H  -0.21416687 1.53740627 0.01496071
H  1.44192044 0.57449487 0.01535920
6
MD Step 60
C  -0.33079612 -0.57161316 -0.00210221
H  0.15775730 -1.54895025 0.01717568
H  -1.41747083 -0.65873432 0.01671026
C  0.33375630 0.57990253 -0.00290251
H  -0.21768592 1.53706112 0.01267139
H  1.44212584 0.57184714 0.01307902
6
MD Step 61
C  -0.33092767 -0.57212510 -0.00168482
H  0.15879646 -1.55086891 0.01484413
H  -1.42112282 -0.65821537 0.01438687
C  0.33439526 0.58079096 -0.00254151
H  -0.22082479 1.53642700 0.01035702
H  1.44183121 0.56939473 0.01077307
6
MD Step 62
C  -0.33107504 -0.57267082 -0.00126405
H  0.15990726 -1.55252521 0.01249229
H  -1.42458779 -0.65747167 0.01204348
C  0.33503475 0.58167830 -0.00217797
H  -0.22355979 1.53550616 0.00802763
H  1.44105628 0.56715722 0.00845174
6
MD Step 63
C  -0.33123834 -0.57324700 -0.00083932
H  0.16106206 -1.55390248 0.01011760
H  -1.42781106 -0.65651420 0.00967717
C  0.33567080 0.58256066 -0.00181152
H  -0.22588511 1.53429452 0.00568034
H  1.43981679 0.56514025 0.00611242
6
MD Step 64
C  -0.33142082 -0.57385329 -0.00041381
H  0.16225539 -1.55496800 0.00773805
H  -1.43072326 -0.65533445 0.00730570
C  0.33629569 0.58343017 -0.00144509
H  -0.22777916 1.53281531 0.00333343
H  1.43815794 0.56336873 0.00377353
6
MD Step 65
C  -0.33161699 -0.57448063 0.00001795
H  0.16343479 -1.55574304 0.00532350
H  -1.43331093 -0.65397454 0.00489888
C  0.33690961 0.58428685 -0.00107379
H  -0.22927477 1.53104901 0.00095543
H  1.43608386 0.56181737 0.00140360
6
MD Step 66
C  -0.33182819 -0.57512659 0.00045387
H  0.16459216 -1.55621115 0.00288597
H  -1.43552501 -0.65243493 0.00246878
C  0.33750545 0.58512312 -0.00069951
H  -0.23036709 1.52902522 -0.00144190
H  1.43364954 0.56050193 -0.00098569
6
MD Step 67
C  -0.33205703 -0.57578994 0.00089009
H  0.16573141 -1.55635099 0.00044738
H  -1.43731404 -0.65070718 0.00003749
C  0.33807427 0.58592938 -0.00032576
H  -0.23104629 1.52678966 -0.00383677
H  1.43092734 0.55944665 -0.00337275
6
MD Step 68
C  -0.33230179 -0.57646516 0.00132679
H  0.16683581 -1.55616941 -0.00199295
H  -1.43865774 -0.64880709 -0.00239540
C  0.33861092 0.58669964 0.00004772
H  -0.23133058 1.52437076 -0.00623080
H  1.42797275 0.55865135 -0.00575952
6
MD Step 69
C  -0.33256057 -0.57714663 0.00176380
H  0.16789262 -1.55567668 -0.00443402
H  -1.43954250 -0.64674973 -0.00482851
C  0.33910997 0.58742743 0.00042090
H  -0.23124119 1.52180396 -0.00862399
H  1.42484827 0.55811606 -0.00814642
6
MD Step 70
C  -0.33283242 -0.57782969 0.00219958
H  0.16889947 -1.55488001 -0.00686687
H  -1.43995510 -0.64454302 -0.00725246
C  0.33956477 0.58810477 0.00079251
H  -0.23079575 1.51913757 -0.01100841
H  1.42162858 0.55784728 -0.01052605
6
MD Step 71
C  -0.33312201 -0.57851536 0.00262642
H  0.16989185 -1.55375574 -0.00924734
H  -1.43985526 -0.64215983 -0.00962248
C  0.33996294 0.58871760 0.00115550
H  -0.22998013 1.51645973 -0.01334029
H  1.41842674 0.55788560 -0.01285533
6
MD Step 72
C  -0.33342117 -0.57919217 0.00304922
H  0.17083498 -1.55235796 -0.01160347
H  -1.43928474 -0.63964709 -0.01196620
C  0.34030465 0.58926423 0.00151474
H  -0.22885700 1.51378870 -0.01564972
H  1.41528306 0.55819744 -0.01516488
6
MD Step 73
C  -0.33373114 -0.57985812 0.00346296
H  0.17175381 -1.55068733 -0.01390628
H  -1.43823613 -0.63699436 -0.01425401
C  0.34058087 0.58973334 0.00186570
H  -0.22743415 1.51120292 -0.01790873
H  1.41229486 0.55880536 -0.01742748
6
MD Step 74
C  -0.33404821 -0.58050660 0.00386723
H  0.17264892 -1.54877513 -0.01615329
H  -1.43673736 -0.63421850 -0.01648298
C  0.34078763 0.59011838 0.00220825
H  -0.22574845 1.50875541 -0.02011646
H  1.40952968 0.55970402 -0.01964285
6
MD Step 75
C  -0.33436744 -0.58113008 0.00426251
H  0.17351771 -1.54666136 -0.01834732
H  -1.43482981 -0.63134190 -0.01865552
C  0.34092253 0.59041399 0.00254312
H  -0.22384358 1.50649416 -0.02227735
H  1.40704497 0.56088171 -0.02181592
6
MD Step 76
C  -0.33467781 -0.58171537 0.00465504
H  0.17432551 -1.54442286 -0.02052497
H  -1.43259656 -0.62842130 -0.02080844
C  0.34098961 0.59062105 0.00287676
H  -0.22179809 1.50443207 -0.02443031
H  1.40485756 0.56229171 -0.02398543
6
MD Step 77
C  -0.33498277 -0.58226398 0.00503641
H  0.17512578 -1.54205149 -0.02263680
H  -1.43004022 -0.62542614 -0.02289155
C  0.34097921 0.59072633 0.00320110
H  -0.21960332 1.50266697 -0.02652667
H  1.40306395 0.56397307 -0.02610346
6
MD Step 78
C  -0.33527593 -0.58276813 0.00540780
H  0.17591668 -1.53959741 -0.02468973
H  -1.42722653 -0.62238271 -0.02491189
C  0.34089210 0.59072688 0.00351756
H  -0.21730649 1.50123614 -0.02857494
H  1.40169394 0.56590732 -0.02817835
6
MD Step 79
C  -0.33554916 -0.58321876 0.00577199
H  0.17668781 -1.53712105 -0.02670026
H  -1.42423611 -0.61932658 -0.02688648
C  0.34073158 0.59062220 0.00382914
H  -0.21496243 1.50016236 -0.03059312
H  1.40075687 0.56806567 -0.03022744
6
MD Step 80
C  -0.33579779 -0.58361078 0.00612823
H  0.17745044 -1.53466150 -0.02866390
H  -1.42113237 -0.61627168 -0.02881122
C  0.34049836 0.59040920 0.00413522
H  -0.21260198 1.49948337 -0.03257775
H  1.40027183 0.57043969 -0.03224665
6
MD Step 81
C  -0.33601907 -0.58394144 0.00647397
H  0.17822697 -1.53224584 -0.03056526
H  -1.41797036 -0.61322033 -0.03067104
C  0.34019226 0.59008396 0.00443326
H  -0.21024138 1.49924054 -0.03451402
H  1.40025696 0.57303124 -0.03422061
6
MD Step 82
C  -0.33621183 -0.58421010 0.00680527
H  0.17904846 -1.52989052 -0.03238006
H  -1.41479778 -0.61016529 -0.03244186
C  0.33981253 0.58964227 0.00471907
H  -0.20788364 1.49947563 -0.03637778
H  1.40072686 0.57585036 -0.03612472
6
MD Step 83
C  -0.33636855 -0.58441033 0.00712446
H  0.17990715 -1.52764814 -0.03412216
H  -1.41170119 -0.60713717 -0.03413894
C  0.33936572 0.58908764 0.00499497
H  -0.20556536 1.50018249 -0.03818304
H  1.40164506 0.57886793 -0.03797127
6
MD Step 84
C  -0.33648126 -0.58453569 0.00743457
H  0.18078963 -1.52557272 -0.03580995
H  -1.40877029 -0.60417042 -0.03578255
C  0.33885993 0.58842568 0.00526401
H  -0.20332257 1.50134037 -0.03994793
H  1.40295892 0.58204945 -0.03977626
6
MD Step 85
C  -0.33654628 -0.58458438 0.00773492
H  0.18170394 -1.52369138 -0.03743891
H  -1.40606822 -0.60127569 -0.03736952
C  0.33830011 0.58765950 0.00552521
H  -0.20116310 1.50294138 -0.04166698
H  1.40462868 0.58538247 -0.04153266
6
MD Step 86
C  -0.33656229 -0.58455736 0.00802308
H  0.18266722 -1.52201571 -0.03899355
H  -1.40364192 -0.59845180 -0.03888528
C  0.33768990 0.58679169 0.00577552
H  -0.19907861 1.50497849 -0.04332318
H  1.40661674 0.58886464 -0.04322245
6
MD Step 87
C  -0.33652054 -0.58444839 0.00830425
H  0.18364645 -1.52060062 -0.04050628
H  -1.40157979 -0.59574504 -0.04036524
C  0.33704148 0.58583429 0.00602035
H  -0.19710408 1.50738668 -0.04494738
H  1.40882985 0.59244450 -0.04487343
6
MD Step 88
C  -0.33642219 -0.58426131 0.00857500
H  0.18466045 -1.51944110 -0.04195524
H  -1.39990697 -0.59314639 -0.04178832
C  0.33635826 0.58479144 0.00625542
H  -0.19521572 1.51014643 -0.04651539
H  1.41122407 0.59612402 -0.04646079
6
MD Step 89
C  -0.33626673 -0.58399838 0.00883425
H  0.18571046 -1.51854162 -0.04333350
H  -1.39865378 -0.59066116 -0.04314884
C  0.33564636 0.58367097 0.00647907
H  -0.19340100 1.51321503 -0.04801773
H  1.41373670 0.59988921 -0.04797395
6
MD Step 90
C  -0.33605460 -0.58366281 0.00908090
H  0.18679528 -1.51790096 -0.04463390
H  -1.39783967 -0.58829382 -0.04444080
C  0.33491206 0.58248175 0.00668956
H  -0.19164418 1.51654301 -0.04944447
H  1.41630311 0.60372532 -0.04940212
6
MD Step 91
C  -0.33578753 -0.58325907 0.00931348
H  0.18791331 -1.51751026 -0.04584708
H  -1.39747056 -0.58604604 -0.04565561
C  0.33416131 0.58123322 0.00688474
H  -0.18992504 1.52007739 -0.05078325
H  1.41886041 0.60761889 -0.05073250
6
MD Step 92
C  -0.33546795 -0.58279215 0.00953082
H  0.18905866 -1.51735738 -0.04696545
H  -1.39754277 -0.58392076 -0.04678629
C  0.33340039 0.57993593 0.00706275
H  -0.18822373 1.52375909 -0.05202346
H  1.42134489 0.61155386 -0.05195421
6
MD Step 93
C  -0.33509676 -0.58226541 0.00973390
H  0.19020877 -1.51743982 -0.04799589
H  -1.39805568 -0.58193482 -0.04784074
C  0.33263791 0.57860344 0.00722442
H  -0.18653416 1.52751187 -0.05316888
H  1.42368086 0.61549901 -0.05307033
6
MD Step 94
C  -0.33467710 -0.58168416 0.00992255
H  0.19134643 -1.51774335 -0.04893793
H  -1.39899022 -0.58009714 -0.04881893
C  0.33188110 0.57724852 0.00736929
H  -0.18484296 1.53126565 -0.05421605
H  1.42580394 0.61943000 -0.05407721
6
MD Step 95
C  -0.33421800 -0.58105944 0.01009201
H  0.19248323 -1.51821940 -0.04976054
H  -1.40028643 -0.57838569 -0.04968820
C  0.33113184 0.57587913 0.00749131
H  -0.18310726 1.53498113 -0.05513140
H  1.42768531 0.62335268 -0.05494314
6
MD Step 96
C  -0.33371880 -0.58039225 0.01024694
H  0.19356663 -1.51887926 -0.05049598
H  -1.40193858 -0.57684071 -0.05048220
C  0.33040236 0.57451384 0.00759612
H  -0.18134828 1.53855762 -0.05594423
H  1.42923906 0.62720969 -0.05569608
6
MD Step 97
C  -0.33318833 -0.57969295 0.01038408
H  0.19459612 -1.51967867 -0.05112338
H  -1.40387986 -0.57544901 -0.05117841
C  0.32969564 0.57316230 0.00767968
H  -0.17953651 1.54195038 -0.05663168
H  1.43043919 0.63099676 -0.05631485
6
MD Step 98
C  -0.33263245 -0.57896864 0.01050335
H  0.19554963 -1.52059274 -0.05164333
H  -1.40605840 -0.57421794 -0.05177649
C  0.32901787 0.57183745 0.00774191
H  -0.17766593 1.54509750 -0.05719240
H  1.43124605 0.63468870 -0.05679889
6
MD Step 99
C  -0.33205459 -0.57822375 0.01060721
H  0.19638783 -1.52161263 -0.05207399
H  -1.40843482 -0.57317130 -0.05229436
C  0.32837773 0.57055471 0.00778612
H  -0.17575039 1.54792497 -0.05764261
H  1.43161097 0.63824349 -0.05716446
6
MD Step 100
C  -0.33146320 -0.57746758 0.01069390
H  0.19710002 -1.52270076 -0.05240534
H  -1.41093812 -0.57230410 -0.05272026
C  0.32777865 0.56932425 0.00781049
H  -0.17377878 1.55039296 -0.05797126
H  1.43152215 0.64164810 -0.05740198
6
MD Step 101
C  -0.33087372 -0.57671641 0.01075568
H  0.19771775 -1.52377840 -0.05258570
H  -1.41345434 -0.57156951 -0.05299859
C  0.32721653 0.56814867 0.00780552
H  -0.17170219 1.55250956 -0.05812736
H  1.43101791 0.64493188 -0.05746409
6
MD Step 102
C  -0.33029204 -0.57597671 0.01079332
H  0.19821650 -1.52482526 -0.05262165
H  -1.41592779 -0.57097705 -0.05313466
C  0.32669649 0.56703934 0.00777254
H  -0.16953190 1.55423267 -0.05811711
H  1.43008786 0.64806763 -0.05735791
6
MD Step 103
C  -0.32972291 -0.57525365 0.01080857
H  0.19856723 -1.52582894 -0.05252633
H  -1.41831118 -0.57054165 -0.05314057
C  0.32622413 0.56600778 0.00771417
H  -0.16728859 1.55552154 -0.05795344
H  1.42872408 0.65102310 -0.05709714
6
MD Step 104
C  -0.32916931 -0.57455052 0.01080453
H  0.19873361 -1.52678829 -0.05232265
H  -1.42056963 -0.57028653 -0.05303864
C  0.32580602 0.56506602 0.00763491
H  -0.16500536 1.55633425 -0.05765893
H  1.42691837 0.65375814 -0.05670465
6
MD Step 105
C  -0.32864324 -0.57387978 0.01077609
H  0.19873836 -1.52764794 -0.05197621
H  -1.42261545 -0.57017785 -0.05279151
C  0.32543844 0.56421556 0.00752868
H  -0.16266246 1.55669381 -0.05720142
H  1.42472804 0.65629111 -0.05615098
6
MD Step 106
C  -0.32814649 -0.57324334 0.01072690
H  0.19854718 -1.52841472 -0.05151325
H  -1.42442571 -0.57023979 -0.05242497
C  0.32512708 0.56346656 0.00740067
H  -0.16030201 1.55657244 -0.05660744
H  1.42215992 0.65858246 -0.05546300
6
MD Step 107
C  -0.32768521 -0.57264751 0.01065633
H  0.19815793 -1.52906923 -0.05093045
H  -1.42595388 -0.57046646 -0.05193428
C  0.32487197 0.56282304 0.00725069
H  -0.15794000 1.55598037 -0.05587540
H  1.41925866 0.66062404 -0.05464043
6
MD Step 108
C  -0.32726829 -0.57210141 0.01056093
H  0.19759161 -1.52957522 -0.05020409
H  -1.42713968 -0.57083113 -0.05129367
C  0.32466895 0.56228437 0.00707473
H  -0.15557530 1.55495654 -0.05498467
H  1.41609717 0.66242999 -0.05366468
6
MD Step 109
C  -0.32689261 -0.57160173 0.01044741
H  0.19680273 -1.52996923 -0.04938128
H  -1.42799942 -0.57137463 -0.05055074
C  0.32452500 0.56186002 0.00688194
H  -0.15327762 1.55347941 -0.05398247
H  1.41268685 0.66394697 -0.05258253
6
MD Step 110
C  -0.32656805 -0.57115850 0.01031037
H  0.19583209 -1.53020846 -0.04842472
H  -1.42847349 -0.57205481 -0.04966619
C  0.32443225 0.56154436 0.00666590
H  -0.15103709 1.55161846 -0.05283577
H  1.40912875 0.66520719 -0.05136307
6
MD Step 111
C  -0.32629158 -0.57076842 0.01015541
H  0.19464896 -1.53032806 -0.04737312
H  -1.42858448 -0.57290215 -0.04867914
C  0.32439487 0.56134270 0.00643419
H  -0.14891913 1.54937705 -0.05158420
H  1.40545586 0.66617033 -0.05004568
6
MD Step 112
C  -0.32607005 -0.57043834 0.00997862
H  0.19329031 -1.53030239 -0.04619959
H  -1.42829803 -0.57388246 -0.04756155
C  0.32440544 0.56124832 0.00618239
H  -0.14692716 1.54683034 -0.05020497
H  1.40177041 0.66686308 -0.04860889
6
MD Step 113
C  -0.32590581 -0.57017047 0.00977955
H  0.19177317 -1.53013223 -0.04490063
H  -1.42761065 -0.57498338 -0.04630958
C  0.32445990 0.56125701 0.00591032
H  -0.14508830 1.54403745 -0.04869777
H  1.39815533 0.66729126 -0.04705293
6
MD Step 114
C  -0.32579683 -0.56996252 0.00956114
H  0.19009515 -1.52984409 -0.04349549
H  -1.42654925 -0.57621378 -0.04494279
C  0.32455759 0.56136705 0.00562190
H  -0.14345230 1.54104125 -0.04708411
H  1.39467323 0.66744038 -0.04539914
6
MD Step 115
C  -0.32573755 -0.56980855 0.00932886
H  0.18823940 -1.52948469 -0.04202089
H  -1.42516545 -0.57759861 -0.04349879
C  0.32470043 0.56157846 0.00532422
H  -0.14208583 1.53787260 -0.04540202
H  1.39137014 0.66728077 -0.04368484
6
MD Step 116
C  -0.32573334 -0.56971399 0.00907758
H  0.18626271 -1.52903267 -0.04044128
H  -1.42344696 -0.57909196 -0.04194168
C  0.32487800 0.56187848 0.00501125
H  -0.14098504 1.53463692 -0.04362053
H  1.38836163 0.66685586 -0.04187946
6
MD Step 117
C  -0.32578215 -0.56967663 0.00880839
H  0.18418279 -1.52851039 -0.03876309
H  -1.42142988 -0.58068804 -0.04027848
C  0.32508678 0.56226042 0.00468449
H  -0.14018557 1.53140092 -0.04174861
H  1.38571871 0.66616937 -0.03999143
6
MD Step 118
C  -0.32587893 -0.56969135 0.00852454
H  0.18200529 -1.52795633 -0.03700689
H  -1.41917105 -0.58239432 -0.03853075
C  0.32532570 0.56271923 0.00434791
H  -0.13973483 1.52821816 -0.03980866
H  1.38349290 0.66521246 -0.03804214
6
MD Step 119
C  -0.32601925 -0.56975372 0.00822811
H  0.17974478 -1.52740327 -0.03518582
H  -1.41672589 -0.58421051 -0.03671263
C  0.32559258 0.56324822 0.00400410
H  -0.13967021 1.52514865 -0.03781556
H  1.38173561 0.66398492 -0.03604541
6
MD Step 120
C  -0.32620658 -0.56986760 0.00791336
H  0.17746850 -1.52683386 -0.03326082
H  -1.41410355 -0.58608511 -0.03478547
C  0.32587675 0.56383194 0.00364630
H  -0.13997480 1.52230087 -0.03573374
H  1.38054012 0.66253916 -0.03396515
6
MD Step 121
C  -0.32643894 -0.57003142 0.00757907
H  0.17521479 -1.52626117 -0.03122294
H  -1.41134782 -0.58799578 -0.03274122
C  0.32617301 0.56445988 0.00327300
H  -0.14065651 1.51974896 -0.03355619
H  1.37995839 0.66089863 -0.03179332
6
MD Step 122
C  -0.32670702 -0.57023631 0.00723049
H  0.17298059 -1.52574018 -0.02910547
H  -1.40854841 -0.58996135 -0.03061465
C  0.32648376 0.56512866 0.00289016
H  -0.14175915 1.51751878 -0.03131623
H  1.37998730 0.65904559 -0.02956161
6
MD Step 123
C  -0.32700754 -0.57047974 0.00686679
H  0.17080192 -1.52528647 -0.02690209
H  -1.40575857 -0.59196198 -0.02840049
C  0.32680530 0.56582884 0.00249662
H  -0.14328188 1.51566683 -0.02900851
H  1.38064847 0.65700196 -0.02726356
6
MD Step 124
C  -0.32733364 -0.57075572 0.00649032
H  0.16869406 -1.52493463 -0.02462683
H  -1.40305309 -0.59399782 -0.02611393
C  0.32713789 0.56655488 0.00209473
H  -0.14523716 1.51421978 -0.02664706
H  1.38192871 0.65476997 -0.02491197
6
MD Step 125
C  -0.32767151 -0.57105133 0.00610984
H  0.16663036 -1.52475816 -0.02233494
H  -1.40054731 -0.59610964 -0.02381181
C  0.32748925 0.56730878 0.00169407
H  -0.14767081 1.51315269 -0.02428572
H  1.38375957 0.65231141 -0.02255912
6