6
MD Step 0
C  -0.33763715 -0.58748864 0.00000000
H  0.19552659 -1.51519357 0.00000000
H  -1.40763715 -0.58748864 0.00000000
C  0.33763715 0.58748865 0.00000000
H  -0.19552659 1.51519357 0.00000000
H  1.40763715 0.58748865 0.00000000
6
MD Step 1
C  -0.33800554 -0.58783629 -0.00039463
H  0.19788445 -1.51298556 0.00235217
H  -1.40541489 -0.58520737 0.00234947
C  0.33721586 0.58704670 -0.00039433
H  -0.19318442 1.51769129 0.00235116
H  1.41012465 0.58991043 0.00234846
6
MD Step 2
C  -0.33831786 -0.58808743 -0.00078940
H  0.20026641 -1.51108543 0.00470514
H  -1.40351202 -0.58307426 0.00469982
C  0.33674696 0.58651281 -0.00078876
H  -0.19085770 1.52045744 0.00470299
H  1.41282227 0.59246549 0.00469750
6
MD Step 3
C  -0.33856452 -0.58823514 -0.00117816
H  0.20263471 -1.50954014 0.00702222
H  -1.40200970 -0.58113284 0.00701465
C  0.33624165 0.58589714 -0.00117708
H  -0.18857567 1.52342527 0.00701847
H  1.41563009 0.59510736 0.00700984
6
MD Step 4
C  -0.33874557 -0.58828246 -0.00156363
H  0.20500098 -1.50833652 0.00931944
H  -1.40092626 -0.57937288 0.00931041
C  0.33570255 0.58520194 -0.00156186
H  -0.18631280 1.52657557 0.00931306
H  1.41849876 0.59784141 0.00930054
6
MD Step 5
C  -0.33886620 -0.58823784 -0.00195279
H  0.20739907 -1.50742866 0.01163826
H  -1.40024359 -0.57775770 0.01162915
C  0.33512815 0.58442605 -0.00194992
H  -0.18401643 1.52991016 0.01162747
H  1.42140362 0.60069764 0.01160985
6
MD Step 6
C  -0.33891909 -0.58809737 -0.00233921
H  0.20977988 -1.50684390 0.01394021
H  -1.40001272 -0.57632969 0.01393309
C  0.33453050 0.58358256 -0.00233462
H  -0.18171259 1.53334702 0.01392234
H  1.42424000 0.60362520 0.01389779
6
MD Step 7
C  -0.33890193 -0.58786217 -0.00272048
H  0.21211544 -1.50657906 0.01621069
H  -1.40024859 -0.57510628 0.01620841
C  0.33391760 0.58268119 -0.00271332
H  -0.17940272 1.53682557 0.01618202
H  1.42692937 0.60659652 0.01614813
6
MD Step 8
C  -0.33881971 -0.58754058 -0.00310038
H  0.21441235 -1.50658785 0.01847208
H  -1.40091650 -0.57406688 0.01847822
C  0.33329112 0.58172600 -0.00308958
H  -0.17705116 1.54032089 0.01842779
H  1.42943411 0.60962049 0.01838157
6
MD Step 9
C  -0.33867218 -0.58713557 -0.00347646
H  0.21663819 -1.50685582 0.02070961
H  -1.40200709 -0.57322694 0.02072850
C  0.33265881 0.58072771 -0.00346071
H  -0.17465961 1.54377053 0.02064374
H  1.43168408 0.61266851 0.02058164
6
MD Step 10
C  -0.33846036 -0.58665117 -0.00384646
H  0.21876037 -1.50736275 0.02290977
H  -1.40349846 -0.57259954 0.02294641
C  0.33202795 0.57969712 -0.00382427
H  -0.17222930 1.54711397 0.02281525
H  1.43361623 0.61571296 0.02273319
6
MD Step 11
C  -0.33818808 -0.58609396 -0.00420997
H  0.22075654 -1.50807357 0.02507016
H  -1.40534702 -0.57218552 0.02513002
C  0.33140365 0.57864334 -0.00417968
H  -0.16975163 1.55030361 0.02493883
H  1.43518553 0.61873726 0.02483234
6
MD Step 12
C  -0.33785710 -0.58546816 -0.00456360
H  0.22258635 -1.50896818 0.02717059
H  -1.40751783 -0.57200221 0.02725961
C  0.33079368 0.57757849 -0.00452342
H  -0.16723727 1.55327679 0.02699338
H  1.43633678 0.62170718 0.02685760
6
MD Step 13
C  -0.33747532 -0.58478384 -0.00490924
H  0.22424129 -1.50999295 0.02922254
H  -1.40993641 -0.57203410 0.02934661
C  0.33020005 0.57650932 -0.00485728
H  -0.16466732 1.55600607 0.02898946
H  1.43705470 0.62462036 0.02881952
6
MD Step 14
C  -0.33705271 -0.58405288 -0.00525025
H  0.22572242 -1.51108463 0.03124625
H  -1.41251387 -0.57225578 0.03141085
C  0.32962294 0.57544095 -0.00518454
H  -0.16201639 1.55847694 0.03094648
H  1.43734116 0.62748351 0.03073778
6
MD Step 15
C  -0.33658933 -0.58327698 -0.00557946
H  0.22696978 -1.51224253 0.03319950
H  -1.41522020 -0.57270286 0.03341019
C  0.32907258 0.57438869 -0.00549814
H  -0.15932372 1.56061723 0.03282185
H  1.43714400 0.63024131 0.03256955
6
MD Step 16
C  -0.33608753 -0.58245983 -0.00589151
H  0.22793629 -1.51345562 0.03505115
H  -1.41801198 -0.57339865 0.03531340
C  0.32855688 0.57336560 -0.00579294
H  -0.15662009 1.56237131 0.03458431
H  1.43643120 0.63285014 0.03428341
6
MD Step 17
C  -0.33556322 -0.58161859 -0.00619455
H  0.22865651 -1.51463496 0.03684980
H  -1.42076528 -0.57428585 0.03716737
C  0.32806987 0.57237097 -0.00607697
H  -0.15385987 1.56376903 0.03628190
H  1.43525968 0.63534670 0.03592873
6
MD Step 18
C  -0.33502007 -0.58075788 -0.00648412
H  0.22909358 -1.51576799 0.03856987
H  -1.42343180 -0.57537988 0.03894592
C  0.32761753 0.57141594 -0.00634611
H  -0.15107392 1.56477233 0.03788925
H  1.43362107 0.63769436 0.03748039
6
MD Step 19
C  -0.33446115 -0.57988159 -0.00675519
H  0.22920998 -1.51684869 0.04018226
H  -1.42596963 -0.57669853 0.04061940
C  0.32720594 0.57051163 -0.00659569
H  -0.14829946 1.56534604 0.03937778
H  1.43151235 0.63985386 0.03891002
6
MD Step 20
C  -0.33389369 -0.57899763 -0.00700699
H  0.22899662 -1.51784906 0.04168340
H  -1.42831523 -0.57823316 0.04218308
C  0.32683638 0.56966421 -0.00682532
H  -0.14555123 1.56548710 0.04074444
H  1.42896492 0.64181241 0.04021536
6
MD Step 21
C  -0.33333103 -0.57811997 -0.00724534
H  0.22848560 -1.51870712 0.04310788
H  -1.43037223 -0.57993637 0.04366911
C  0.32650316 0.56887277 -0.00704082
H  -0.14280906 1.56523713 0.04202405
H  1.42605669 0.64359627 0.04143327
6
MD Step 22
C  -0.33277639 -0.57725228 -0.00746596
H  0.22765388 -1.51942390 0.04443151
H  -1.43210958 -0.58181828 0.04505257
C  0.32620998 0.56814541 -0.00723850
H  -0.14011362 1.56458575 0.04319358
H  1.42281480 0.64517416 0.04254123
6
MD Step 23
C  -0.33224020 -0.57640543 -0.00767252
H  0.22652763 -1.51995943 0.04567620
H  -1.43345780 -0.58384273 0.04635304
C  0.32595232 0.56748179 -0.00742217
H  -0.13746262 1.56357478 0.04427565
H  1.41931936 0.64656175 0.04356392
6
MD Step 24
C  -0.33172255 -0.57557980 -0.00785850
H  0.22507757 -1.52033770 0.04680465
H  -1.43441478 -0.58603170 0.04753296
C  0.32573515 0.56689060 -0.00758608
H  -0.13491466 1.56219326 0.04523459
H  1.41559788 0.64771681 0.04446588
6
MD Step 25
C  -0.33122207 -0.57477421 -0.00801639
H  0.22327242 -1.52059320 0.04777410
H  -1.43499221 -0.58841207 0.04854994
C  0.32556390 0.56638060 -0.00772373
H  -0.13253581 1.56043090 0.04602966
H  1.41167847 0.64859287 0.04520607
6
MD Step 26
C  -0.33075530 -0.57400554 -0.00815804
H  0.22119529 -1.52065439 0.04865358
H  -1.43509908 -0.59089970 0.04946887
C  0.32542483 0.56594109 -0.00784653
H  -0.13028367 1.55839422 0.04673038
H  1.40770548 0.64925605 0.04585807
6
MD Step 27
C  -0.33031951 -0.57327112 -0.00827583
H  0.21882081 -1.52056674 0.04939969
H  -1.43476569 -0.59352156 0.05024697
C  0.32532273 0.56557927 -0.00794791
H  -0.12822837 1.55608300 0.04729559
H  1.40371497 0.64966162 0.04638035
6
MD Step 28
C  -0.32992310 -0.57257957 -0.00837462
H  0.21619793 -1.52030952 0.05004078
H  -1.43396036 -0.59623358 0.05091030
C  0.32525011 0.56528964 -0.00803278
H  -0.12637035 1.55357271 0.04775496
H  1.39981632 0.64983742 0.04680501
6
MD Step 29
C  -0.32956886 -0.57193379 -0.00845415
H  0.21334920 -1.51989641 0.05057570
H  -1.43269052 -0.59902099 0.05145678
C  0.32520427 0.56507089 -0.00810131
H  -0.12473985 1.55091294 0.04810907
H  1.39608978 0.64978290 0.04713383
6
MD Step 30
C  -0.32925510 -0.57133220 -0.00851032
H  0.21027776 -1.51936795 0.05098111
H  -1.43099537 -0.60189123 0.05186345
C  0.32518620 0.56492478 -0.00815016
H  -0.12338916 1.54813379 0.04833665
H  1.39259191 0.64947634 0.04734556
6
MD Step 31
C  -0.32898045 -0.57077357 -0.00854010
H  0.20699550 -1.51876267 0.05124006
H  -1.42891698 -0.60484570 0.05211377
C  0.32519588 0.56485144 -0.00817702
H  -0.12236387 1.54527339 0.04842268
H  1.38938242 0.64890329 0.04742513
6
MD Step 32
C  -0.32875135 -0.57026464 -0.00854958
H  0.20356785 -1.51807145 0.05138743
H  -1.42645465 -0.60783475 0.05224079
C  0.32522470 0.56484188 -0.00818772
H  -0.12165734 1.54242210 0.04840330
H  1.38656772 0.64810184 0.04741069
6
MD Step 33
C  -0.32857094 -0.56980894 -0.00854228
H  0.20004695 -1.51730369 0.05144300
H  -1.42363151 -0.61082422 0.05226335
C  0.32526690 0.56488933 -0.00818564
H  -0.12127618 1.53965444 0.04829962
H  1.38423175 0.64709572 0.04732450
6
MD Step 34
C  -0.32843437 -0.56940208 -0.00851405
H  0.19644303 -1.51651506 0.05138306
H  -1.42052257 -0.61382379 0.05215915
C  0.32532443 0.56499404 -0.00816726
H  -0.12126765 1.53699933 0.04808951
H  1.38240538 0.64586582 0.04714328
6
MD Step 35
C  -0.32833703 -0.56904011 -0.00846178
H  0.19277310 -1.51575752 0.05118989
H  -1.41720445 -0.61683786 0.05191197
C  0.32539872 0.56515522 -0.00812995
H  -0.12167010 1.53448825 0.04775648
H  1.38111440 0.64439958 0.04684927
6
MD Step 36
C  -0.32827932 -0.56872433 -0.00838844
H  0.18908860 -1.51505020 0.05087994
H  -1.41372601 -0.61983753 0.05153843
C  0.32548603 0.56536636 -0.00807641
H  -0.12248427 1.53218223 0.04731777
H  1.38040660 0.64271912 0.04645958
6
MD Step 37
C  -0.32826221 -0.56845684 -0.00829833
H  0.18544800 -1.51440554 0.05047686
H  -1.41013434 -0.62278738 0.05106228
C  0.32558198 0.56561990 -0.00801038
H  -0.12369938 1.53014365 0.04679756
H  1.38032350 0.64085431 0.04599829
6
MD Step 38
C  -0.32827999 -0.56823331 -0.00818925
H  0.18187269 -1.51387222 0.04996772
H  -1.40651760 -0.62568933 0.05047251
C  0.32568899 0.56591470 -0.00792975
H  -0.12533615 1.52839123 0.04618326
H  1.38085549 0.63879895 0.04545095
6
MD Step 39
C  -0.32832437 -0.56804711 -0.00805682
H  0.17837058 -1.51350994 0.04932732
H  -1.40297903 -0.62855837 0.04974663
C  0.32581217 0.56625203 -0.00783046
H  -0.12742222 1.52692343 0.04544961
H  1.38196617 0.63653512 0.04478970
6
MD Step 40
C  -0.32839168 -0.56789647 -0.00790191
H  0.17497729 -1.51334641 0.04855997
H  -1.39959300 -0.63138065 0.04889052
C  0.32595217 0.56662859 -0.00771303
H  -0.12995013 1.52575994 0.04460061
H  1.38363512 0.63407520 0.04401701
6
MD Step 41
C  -0.32847841 -0.56778002 -0.00772585
H  0.17172838 -1.51340369 0.04767226
H  -1.39643036 -0.63414062 0.04791242
C  0.32610973 0.56704115 -0.00757827
H  -0.13290426 1.52491395 0.04364231
H  1.38583141 0.63143467 0.04313739
6
MD Step 42
C  -0.32858249 -0.56769800 -0.00753158
H  0.16866580 -1.51369041 0.04667992
H  -1.39354969 -0.63681408 0.04682940
C  0.32628443 0.56748538 -0.00742842
H  -0.13625383 1.52439892 0.04258981
H  1.38852156 0.62863911 0.04216473
6
MD Step 43
C  -0.32869812 -0.56764708 -0.00731807
H  0.16580594 -1.51423275 0.04557640
H  -1.39102724 -0.63939979 0.04563703
C  0.32647983 0.56796119 -0.00726217
H  -0.13998457 1.52419692 0.04143555
H  1.39163907 0.62569264 0.04108962
6
MD Step 44
C  -0.32882182 -0.56762635 -0.00708658
H  0.16317448 -1.51503830 0.04436808
H  -1.38891938 -0.64188395 0.04434331
C  0.32669751 0.56846676 -0.00708026
H  -0.14406360 1.52429455 0.04018496
H  1.39512182 0.62261336 0.03991613
6
MD Step 45
C  -0.32895346 -0.56763820 -0.00684158
H  0.16081109 -1.51609067 0.04307918
H  -1.38725599 -0.64423506 0.04297349
C  0.32693608 0.56899761 -0.00688626
H  -0.14843478 1.52468859 0.03886160
H  1.39891887 0.61943830 0.03866711
6
MD Step 46
C  -0.32909032 -0.56768239 -0.00658446
H  0.15873385 -1.51738479 0.04171662
H  -1.38607469 -0.64643951 0.04153578
C  0.32719699 0.56955258 -0.00668099
H  -0.15305472 1.52535116 0.03747149
H  1.40295649 0.61618799 0.03734768
6
MD Step 47
C  -0.32922474 -0.56775372 -0.00631084
H  0.15692486 -1.51894128 0.04025581
H  -1.38543404 -0.64851608 0.04000728
C  0.32748688 0.57013615 -0.00646035
H  -0.15790800 1.52621634 0.03598847
H  1.40712563 0.61285200 0.03593028
6
MD Step 48
C  -0.32935647 -0.56785402 -0.00602350
H  0.15540166 -1.52073440 0.03871180
H  -1.38534005 -0.65044358 0.03840364
C  0.32780542 0.57074623 -0.00622652
H  -0.16293577 1.52725365 0.03442702
H  1.41135660 0.60946068 0.03442912
6
MD Step 49
C  -0.32948443 -0.56798400 -0.00572368
H  0.15416902 -1.52274099 0.03709127
H  -1.38579436 -0.65220959 0.03673197
C  0.32815334 0.57138223 -0.00598043
H  -0.16808532 1.52842058 0.03279319
H  1.41557191 0.60603659 0.03285001
6
MD Step 50
C  -0.32960604 -0.56814258 -0.00541034
H  0.15321495 -1.52494513 0.03538842
H  -1.38679833 -0.65381476 0.03498676
C  0.32853309 0.57204572 -0.00572104
H  -0.17331510 1.52965971 0.03108040
H  1.41968380 0.60259021 0.03118618
6
MD Step 51
C  -0.32971864 -0.56832814 -0.00508162
H  0.15251908 -1.52733046 0.03359310
H  -1.38834487 -0.65526451 0.03315786
C  0.32894734 0.57273890 -0.00544667
H  -0.17858734 1.53090825 0.02927769
H  1.42360400 0.59912798 0.02942672
6
MD Step 52
C  -0.32982171 -0.56854071 -0.00473717
H  0.15206593 -1.52986782 0.03170368
H  -1.39040586 -0.65655605 0.03124324
C  0.32939685 0.57346234 -0.00515704
H  -0.18385590 1.53211244 0.02738301
H  1.42725843 0.59566515 0.02756985
6
MD Step 53
C  -0.32992010 -0.56878509 -0.00438165
H  0.15186471 -1.53249640 0.02974630
H  -1.39291354 -0.65765865 0.02926821
C  0.32987714 0.57421153 -0.00485638
H  -0.18904721 1.53324832 0.02542315
H  1.43060793 0.59224509 0.02564298
6
MD Step 54
C  -0.33001598 -0.56906299 -0.00401636
H  0.15190321 -1.53517181 0.02772870
H  -1.39580937 -0.65856110 0.02723968
C  0.33038630 0.57498485 -0.00454597
H  -0.19410825 1.53427553 0.02340605
H  1.43360163 0.58889238 0.02365463
6
MD Step 55
C  -0.33011157 -0.56937569 -0.00364225
H  0.15216480 -1.53785033 0.02565668
H  -1.39902908 -0.65925508 0.02516251
C  0.33092228 0.57578062 -0.00422684
H  -0.19899041 1.53515492 0.02133770
H  1.43619427 0.58562916 0.02161138
6
MD Step 56
C  -0.33021041 -0.56972532 -0.00326136
H  0.15263714 -1.54048165 0.02354219
H  -1.40249635 -0.65972704 0.02304765
C  0.33148147 0.57659573 -0.00390099
H  -0.20364178 1.53585752 0.01923059
H  1.43835496 0.58248319 0.01952634
6
MD Step 57
C  -0.33031241 -0.57011006 -0.00287187
H  0.15328461 -1.54303806 0.02137558
H  -1.40615298 -0.65998674 0.02088452
C  0.33206344 0.57743031 -0.00356696
H  -0.20803611 1.53633689 0.01707485
H  1.44003913 0.57945958 0.01739023
6
MD Step 58
C  -0.33041696 -0.57052720 -0.00247127
H  0.15406712 -1.54549671 0.01914382
H  -1.40994201 -0.66004879 0.01865921
C  0.33266787 0.57828467 -0.00322276
H  -0.21215466 1.53654826 0.01485706
H  1.44120758 0.57655909 0.01519015
6
MD Step 59
C  -0.33053242 -0.57098245 -0.00206648
H  0.15499660 -1.54778389 0.01688586
H  -1.41375282 -0.65987589 0.01640976
C  0.33328523 0.57914962 -0.00287478
H  -0.21592988 1.53650551 0.01261759
H  1.44188354 0.57383407 0.01296706
6
MD Step 60
C  -0.33065782 -0.57147208 -0.00165491
H  0.15603146 -1.54988267 0.01458781
H  -1.41753002 -0.65948639 0.01412156
C  0.33391447 0.58002462 -0.00252086
H  -0.21935296 1.53617450 0.01034208
H  1.44204515 0.57128221 0.01070704
6
MD Step 61
C  -0.33079465 -0.57199453 -0.00123673
H  0.15714618 -1.55176376 0.01225134
H  -1.42120506 -0.65888427 0.01179570
C  0.33455156 0.58090599 -0.00216133
H  -0.22240413 1.53554308 0.00803218
H  1.44169561 0.56891568 0.00841212
6
MD Step 62
C  -0.33094700 -0.57255051 -0.00081515
H  0.15833277 -1.55338490 0.00989482
H  -1.42469638 -0.65805798 0.00945007
C  0.33518927 0.58178667 -0.00179922
H  -0.22505165 1.53462240 0.00570666
H  1.44086422 0.56676218 0.00610136
6
MD Step 63
C  -0.33111605 -0.57313776 -0.00039076
H  0.15956955 -1.55472315 0.00752207
H  -1.42794250 -0.65701247 0.00708820
C  0.33582254 0.58266168 -0.00143518
H  -0.22728391 1.53341510 0.00336914
H  1.43957413 0.56483325 0.00377855
6
MD Step 64
C  -0.33130653 -0.57375731 0.00003175
H  0.16085931 -1.55573717 0.00515974
H  -1.43086500 -0.65573089 0.00473657
C  0.33644219 0.58352169 -0.00107352
H  -0.22907122 1.53195343 0.00104668
H  1.43788024 0.56316203 0.00147081
6
MD Step 65
C  -0.33151365 -0.57440076 0.00045703
H  0.16215346 -1.55644410 0.00278200
H  -1.43344597 -0.65425148 0.00236934
C  0.33704766 0.58436600 -0.00071002
H  -0.23044269 1.53022245 -0.00128781
H  1.43579170 0.56172706 -0.00084899
6
MD Step 66
C  -0.33173461 -0.57506159 0.00088721
H  0.16341959 -1.55685184 0.00037721
H  -1.43566051 -0.65259943 -0.00002504
C  0.33763586 0.58519112 -0.00034269
H  -0.23141827 1.52822782 -0.00364701
H  1.43333974 0.56051964 -0.00319369
6
MD Step 67
C  -0.33197637 -0.57574281 0.00131394
H  0.16468689 -1.55691345 -0.00200714
H  -1.43743139 -0.65074087 -0.00239883
C  0.33819356 0.58598310 0.00002080
H  -0.23196284 1.52604133 -0.00598303
H  1.43062302 0.55958928 -0.00551572
6
MD Step 68
C  -0.33223944 -0.57644110 0.00173497
H  0.16595187 -1.55662245 -0.00435822
H  -1.43872500 -0.64867842 -0.00473886
C  0.33871340 0.58673369 0.00037849
H  -0.23208145 1.52370517 -0.00828369
H  1.42771076 0.55894895 -0.00780330
6
MD Step 69
C  -0.33251819 -0.57714714 0.00215390
H  0.16718005 -1.55601118 -0.00669622
H  -1.43955005 -0.64644945 -0.00706497
C  0.33919360 0.58744006 0.00073386
H  -0.23181750 1.52123317 -0.01057078
H  1.42464317 0.55857670 -0.01007868
6
MD Step 70
C  -0.33281573 -0.57786029 0.00256490
H  0.16839339 -1.55506271 -0.00898770
H  -1.43986961 -0.64403772 -0.00934319
C  0.33962352 0.58809012 0.00108160
H  -0.23116425 1.51869823 -0.01281138
H  1.42151869 0.55850323 -0.01230957
6
MD Step 71
C  -0.33313194 -0.57857686 0.00296498
H  0.16959994 -1.55378151 -0.01121544
H  -1.43967224 -0.64144430 -0.01155576
C  0.33999551 0.58867449 0.00141910
H  -0.23013541 1.51616079 -0.01498926
H  1.41842122 0.55874138 -0.01448043
6
MD Step 72
C  -0.33345823 -0.57928496 0.00335931
H  0.17076306 -1.55222416 -0.01340912
H  -1.43900298 -0.63871854 -0.01373201
C  0.34031020 0.58919180 0.00175151
H  -0.22879562 1.51363706 -0.01713608
H  1.41538730 0.55925543 -0.01662336
6
MD Step 73
C  -0.33378637 -0.57997326 0.00375225
H  0.17185276 -1.55044707 -0.01559414
H  -1.43791097 -0.63590590 -0.01589713
C  0.34056793 0.58964009 0.00208331
H  -0.22720809 1.51115003 -0.01927924
H  1.41245697 0.56001271 -0.01876613
6
MD Step 74
C  -0.33411949 -0.58064191 0.00413639
H  0.17291010 -1.54844102 -0.01772751
H  -1.43638396 -0.63298271 -0.01800739
C  0.34075805 0.59000592 0.00240762
H  -0.22536895 1.50879355 -0.02137647
H  1.40973749 0.56104837 -0.02086731
6
MD Step 75
C  -0.33444515 -0.58127596 0.00451966
H  0.17388838 -1.54629019 -0.01985558
H  -1.43450768 -0.63001591 -0.02010936
C  0.34088557 0.59029139 0.00273250
H  -0.22336624 1.50657150 -0.02347649
H  1.40724131 0.56230658 -0.02297552
6
MD Step 76
C  -0.33476532 -0.58187507 0.00489532
H  0.17482895 -1.54399450 -0.02193895
H  -1.43228797 -0.62698558 -0.02216302
C  0.34094176 0.59048442 0.00305161
H  -0.22120194 1.50457377 -0.02554086
H  1.40506230 0.56381695 -0.02505295
6
MD Step 77
C  -0.33507753 -0.58243485 0.00526086
H  0.17574998 -1.54158071 -0.02396291
H  -1.42976206 -0.62389656 -0.02415339
C  0.34092285 0.59057772 0.00336273
H  -0.21890275 1.50286315 -0.02755614
H  1.40326177 0.56558342 -0.02708646
6
MD Step 78
C  -0.33537486 -0.58294699 0.00561802
H  0.17664595 -1.53910197 -0.02593765
H  -1.42699831 -0.62077864 -0.02609096
C  0.34083014 0.59056889 0.00366781
H  -0.21651940 1.50147374 -0.02953409
H  1.40186644 0.56758409 -0.02908745
6
MD Step 79
C  -0.33565808 -0.58341125 0.00596084
H  0.17755834 -1.53656582 -0.02782758
H  -1.42402387 -0.61761496 -0.02793970
C  0.34065815 0.59044862 0.00396096
H  -0.21405433 1.50048093 -0.03143982
H  1.40093882 0.56984238 -0.03102135
6
MD Step 80
C  -0.33591613 -0.58381616 0.00629490
H  0.17846011 -1.53404917 -0.02966602
H  -1.42093973 -0.61445776 -0.02973410
C  0.34041396 0.59022022 0.00424801
H  -0.21157655 1.49988422 -0.03330804
H  1.40045986 0.57231173 -0.03292148
6
MD Step 81
C  -0.33614644 -0.58415915 0.00661752
H  0.17937429 -1.53157786 -0.03143660
H  -1.41779945 -0.61130856 -0.03145807
C  0.34009723 0.58987967 0.00452619
H  -0.20910128 1.49972576 -0.03512278
H  1.40044870 0.57499482 -0.03477139
6
MD Step 82
C  -0.33633760 -0.58442943 0.00693466
H  0.18027103 -1.52922885 -0.03317549
H  -1.41471088 -0.60822117 -0.03314973
C  0.33971733 0.58943302 0.00480178
H  -0.20669236 1.49998620 -0.03692089
H  1.40085928 0.57784081 -0.03660565
6
MD Step 83
C  -0.33649474 -0.58463304 0.00723659
H  0.18121591 -1.52697991 -0.03482290
H  -1.41168471 -0.60515194 -0.03474864
C  0.33926834 0.58887135 0.00506429
H  -0.20431226 1.50073351 -0.03864187
H  1.40173074 0.58089445 -0.03836422
6
MD Step 84
C  -0.33660867 -0.58476230 0.00752759
H  0.18218739 -1.52489212 -0.03640494
H  -1.40881666 -0.60214305 -0.03628308
C  0.33875955 0.58820159 0.00531813
H  -0.20200475 1.50193909 -0.04031154
H  1.40300399 0.58411341 -0.04007050
6
MD Step 85
C  -0.33668426 -0.58482393 0.00779898
H  0.18324321 -1.52294179 -0.03786711
H  -1.40611821 -0.59915484 -0.03769802
C  0.33818742 0.58741844 0.00555345
H  -0.19972733 1.50364507 -0.04187393
H  1.40469061 0.58753530 -0.04166891
6
MD Step 86
C  -0.33671543 -0.58481408 0.00805292
H  0.18437189 -1.52116892 -0.03922225
H  -1.40366452 -0.59621478 -0.03900819
C  0.33756036 0.58652936 0.00577215
H  -0.19749995 1.50581530 -0.04334051
H  1.40672438 0.59112905 -0.04316897
6
MD Step 87
C  -0.33669351 -0.58472665 0.00829449
H  0.18554119 -1.51962773 -0.04050194
H  -1.40154369 -0.59336848 -0.04024808
C  0.33689045 0.58554636 0.00597945
H  -0.19535641 1.50838479 -0.04474105
H  1.40901221 0.59484381 -0.04459754
6
MD Step 88
C  -0.33662245 -0.58456831 0.00851763
H  0.18678709 -1.51829656 -0.04166714
H  -1.39976507 -0.59059001 -0.04137851
C  0.33617830 0.58447081 0.00616789
H  -0.19325543 1.51135009 -0.04603401
H  1.41152597 0.59869831 -0.04591342
6
MD Step 89
C  -0.33649154 -0.58433121 0.00873063
H  0.18805153 -1.51724044 -0.04277045
H  -1.39842105 -0.58794467 -0.04245595
C  0.33544017 0.58332073 0.00634643
H  -0.19124363 1.51460755 -0.04726941
H  1.41414125 0.60261848 -0.04716295
6
MD Step 90
C  -0.33630257 -0.58402001 0.00893098
H  0.18934258 -1.51644989 -0.04379562
H  -1.39752421 -0.58542814 -0.04346489
C  0.33468094 0.58210362 0.00651167
H  -0.18929583 1.51811558 -0.04842804
H  1.41680084 0.60659819 -0.04832654
6
MD Step 91
C  -0.33605785 -0.58363979 0.00911657
H  0.19066296 -1.51591273 -0.04472916
H  -1.39707837 -0.58303822 -0.04439249
C  0.33390598 0.58082837 0.00666069
H  -0.18738743 1.52182425 -0.04949332
H  1.41944460 0.61062768 -0.04938733
6
MD Step 92
C  -0.33576384 -0.58319967 0.00928242
H  0.19203196 -1.51559259 -0.04553850
H  -1.39705673 -0.58075314 -0.04520546
C  0.33311745 0.57950144 0.00678706
H  -0.18547345 1.52569852 -0.05042964
H  1.42203265 0.61471543 -0.05031085
6
MD Step 93
C  -0.33541887 -0.58270047 0.00943178
H  0.19341277 -1.51550247 -0.04624507
H  -1.39747541 -0.57860453 -0.04592700
C  0.33232651 0.57813898 0.00689423
H  -0.18356212 1.52964663 -0.05125527
H  1.42447343 0.61881523 -0.05111395
6
MD Step 94
C  -0.33502764 -0.58214915 0.00956300
H  0.19479892 -1.51561867 -0.04683796
H  -1.39830706 -0.57659123 -0.04654580
C  0.33153873 0.57675215 0.00697973
H  -0.18162960 1.53360802 -0.05195640
H  1.42671171 0.62291274 -0.05178352
6
MD Step 95
C  -0.33458253 -0.58154000 0.00968627
H  0.19610317 -1.51599277 -0.04738580
H  -1.39959303 -0.57479045 -0.04713398
C  0.33077280 0.57536560 0.00705581
H  -0.17973172 1.53744344 -0.05259811
H  1.42861846 0.62691406 -0.05238130
6
MD Step 96
C  -0.33409135 -0.58088251 0.00979861
H  0.19732377 -1.51658565 -0.04787000
H  -1.40127682 -0.57319192 -0.04767181
C  0.33003242 0.57398948 0.00711883
H  -0.17783928 1.54110275 -0.05315939
H  1.43015870 0.63081240 -0.05288756
6
MD Step 97
C  -0.33356858 -0.58019266 0.00989179
H  0.19849360 -1.51731961 -0.04823619
H  -1.40325715 -0.57174926 -0.04810149
C  0.32931486 0.57262782 0.00715855
H  -0.17588981 1.54457470 -0.05358457
H  1.43134077 0.63463696 -0.05325005
6
MD Step 98
C  -0.33301699 -0.57947433 0.00996863
H  0.19957123 -1.51818887 -0.04850450
H  -1.40550002 -0.57048902 -0.04844318
C  0.32862951 0.57129679 0.00717852
H  -0.17389672 1.54777845 -0.05389167
H  1.43210695 0.63834324 -0.05348665
6
MD Step 99
C  -0.33244208 -0.57873390 0.01002990
H  0.20052859 -1.51917294 -0.04868183
H  -1.40795277 -0.56942369 -0.04870300
C  0.32798303 0.57000986 0.00718002
H  -0.17186290 1.55065181 -0.05408598
H  1.43242133 0.64190072 -0.05360315
6
MD Step 100
C  -0.33185985 -0.57798826 0.01006735
H  0.20139961 -1.52018914 -0.04871305
H  -1.41049749 -0.56850381 -0.04882189
C  0.32737118 0.56876969 0.00715285
H  -0.16973320 1.55320018 -0.05411284
H  1.43231821 0.64534145 -0.05354861
6
MD Step 101
C  -0.33127419 -0.57724182 0.01008373
H  0.20214527 -1.52122889 -0.04861786
H  -1.41308917 -0.56775263 -0.04881885
C  0.32680174 0.56759056 0.00710068
H  -0.16752894 1.55536186 -0.05399103
H  1.43176675 0.64862427 -0.05334212
6
MD Step 102
C  -0.33068543 -0.57649521 0.01008495
H  0.20270588 -1.52230630 -0.04843851
H  -1.41570483 -0.56721420 -0.04873643
C  0.32628563 0.56648957 0.00703149
H  -0.16529623 1.55706066 -0.05376133
H  1.43072332 0.65168725 -0.05302381
6
MD Step 103
C  -0.33010769 -0.57576305 0.01006467
H  0.20310756 -1.52335262 -0.04813226
H  -1.41823843 -0.56684826 -0.04852849
C  0.32581890 0.56546889 0.00693759
H  -0.16300133 1.55831222 -0.05338280
H  1.42923755 0.65455417 -0.05255582
6
MD Step 104
C  -0.32954378 -0.57504831 0.01002646
H  0.20331095 -1.52436826 -0.04772501
H  -1.42065421 -0.56668040 -0.04822032
C  0.32540838 0.56454084 0.00682400
H  -0.16068037 1.55907321 -0.05288113
H  1.42730119 0.65718280 -0.05196412
6
MD Step 105
C  -0.32900151 -0.57435898 0.00996926
H  0.20331124 -1.52532359 -0.04721017
H  -1.42288799 -0.56670326 -0.04780350
C  0.32505474 0.56371121 0.00668981
H  -0.15834078 1.55934100 -0.05225112
H  1.42494739 0.65956500 -0.05124510
6
MD Step 106
C  -0.32848305 -0.57369722 0.00989672
H  0.20307407 -1.52622353 -0.04661395
H  -1.42491244 -0.56694011 -0.04730368
C  0.32476338 0.56298991 0.00654019
H  -0.15602464 1.55908986 -0.05151939
H  1.42218668 0.66166245 -0.05042575
6
MD Step 107
C  -0.32799700 -0.57307175 0.00980639
H  0.20260995 -1.52703378 -0.04592007
H  -1.42666354 -0.56737148 -0.04670266
C  0.32453178 0.56237852 0.00637256
H  -0.15373539 1.55834489 -0.05067208
H  1.41908059 0.66348114 -0.04949402
6
MD Step 108
C  -0.32755013 -0.57248934 0.00969697
H  0.20192437 -1.52773105 -0.04512048
H  -1.42809152 -0.56798465 -0.04599099
C  0.32435803 0.56187861 0.00618589
H  -0.15148701 1.55713218 -0.04970355
H  1.41569135 0.66502130 -0.04844563
6
MD Step 109
C  -0.32715239 -0.57196007 0.00956386
H  0.20104919 -1.52827231 -0.04418360
H  -1.42913056 -0.56874293 -0.04513520
C  0.32423551 0.56148652 0.00597485
H  -0.14927300 1.55550959 -0.04858608
H  1.41211201 0.66630875 -0.04725479
6
MD Step 110
C  -0.32680341 -0.57148331 0.00941111
H  0.19996057 -1.52867685 -0.04313788
H  -1.42978159 -0.56966665 -0.04416368
C  0.32416697 0.56120692 0.00574513
H  -0.14714693 1.55348481 -0.04734934
H  1.40838383 0.66731251 -0.04595129
6
MD Step 111
C  -0.32651400 -0.57107004 0.00923209
H  0.19871089 -1.52889509 -0.04193763
H  -1.42998087 -0.57070331 -0.04302909
C  0.32414210 0.56103109 0.00548888
H  -0.14509243 1.55114587 -0.04595263
H  1.40462608 0.66807692 -0.04449623
6
MD Step 112
C  -0.32627921 -0.57071494 0.00903385
H  0.19726386 -1.52897283 -0.04063063
H  -1.42976518 -0.57189005 -0.04177980
C  0.32416569 0.56096417 0.00521524
H  -0.14318492 1.54849686 -0.04444443
H  1.40087098 0.66855645 -0.04293765
6
MD Step 113
C  -0.32609801 -0.57041678 0.00881913
H  0.19561510 -1.52893087 -0.03923554
H  -1.42915096 -0.57323470 -0.04043465
C  0.32423715 0.56100525 0.00492804
H  -0.14147246 1.54557717 -0.04284538
H  1.39718238 0.66873650 -0.04129617
6
MD Step 114
C  -0.32597917 -0.57018445 0.00858113
H  0.19382774 -1.52872937 -0.03770548
H  -1.42809848 -0.57468080 -0.03894596
C  0.32434451 0.56114159 0.00461926
H  -0.13994031 1.54249609 -0.04111381
H  1.39368974 0.66866910 -0.03953104
6
MD Step 115
C  -0.32591393 -0.57000883 0.00832843
H  0.19186533 -1.52843382 -0.03609762
H  -1.42667885 -0.57627198 -0.03737196
C  0.32449294 0.56137628 0.00429956
H  -0.13867434 1.53926592 -0.03930718
H  1.39042031 0.66830564 -0.03769877
6
MD Step 116
C  -0.32590248 -0.56989010 0.00806067
H  0.18975335 -1.52805376 -0.03440893
H  -1.42491179 -0.57799274 -0.03570996
C  0.32467738 0.56170167 0.00396877
H  -0.13770142 1.53596146 -0.03742536
H  1.38745813 0.66765863 -0.03579892
6
MD Step 117
C  -0.32594516 -0.56982868 0.00777676
H  0.18752486 -1.52759622 -0.03263110
H  -1.42281938 -0.57982178 -0.03395206
C  0.32489181 0.56210848 0.00362569
H  -0.13704199 1.53266482 -0.03546300
H  1.38488835 0.66674740 -0.03382572
6
MD Step 118
C  -0.32603811 -0.56982078 0.00747883
H  0.18519351 -1.52709193 -0.03077750
H  -1.42045232 -0.58175839 -0.03211246
C  0.32513393 0.56259033 0.00327296
H  -0.13673543 1.52943735 -0.03343529
H  1.38276847 0.66557121 -0.03179347
6
MD Step 119
C  -0.32617757 -0.56986288 0.00716835
H  0.18277943 -1.52656880 -0.02885669
H  -1.41786317 -0.58379675 -0.03020062
C  0.32540088 0.56313970 0.00291230
H  -0.13681357 1.52634388 -0.03135253
H  1.38115240 0.66413525 -0.02971146
6
MD Step 120
C  -0.32636191 -0.56995378 0.00684418
H  0.18032057 -1.52603963 -0.02686046
H  -1.41509378 -0.58591430 -0.02820915
C  0.32568728 0.56374610 0.00254239
H  -0.13728818 1.52346261 -0.02920853
H  1.38010029 0.66246227 -0.02757255
6
MD Step 121
C  -0.32658667 -0.57008958 0.00650738
H  0.17784192 -1.52553198 -0.02479464
H  -1.41220501 -0.58810202 -0.02614486
C  0.32599057 0.56440137 0.00216433
H  -0.13818019 1.52085296 -0.02701028
H  1.37964638 0.66056191 -0.02538258
6
MD Step 122
C  -0.32684620 -0.57026537 0.00615965
H  0.17536466 -1.52507790 -0.02266931
H  -1.40926601 -0.59035492 -0.02401891
C  0.32630940 0.56509832 0.00177990
H  -0.13950932 1.51856333 -0.02476853
H  1.37980727 0.65844022 -0.02315110
6
MD Step 123
C  -0.32713536 -0.57047689 0.00580186
H  0.17291525 -1.52470382 -0.02048920
H  -1.40634343 -0.59266274 -0.02183701
C  0.32664205 0.56582925 0.00138988
H  -0.14128401 1.51663891 -0.02248849
H  1.38059052 0.65610912 -0.02088226
6
MD Step 124
C  -0.32744594 -0.57071700 0.00543753
H  0.17050284 -1.52445181 -0.01827597
H  -1.40352199 -0.59503185 -0.01962185
C  0.32699020 0.56658987 0.00099797
H  -0.14352262 1.51509831 -0.02019147
H  1.38197239 0.65356428 -0.01859629
6
MD Step 125
C  -0.32777555 -0.57098455 0.00506449
H  0.16817167 -1.52432621 -0.01601492
H  -1.40084994 -0.59743298 -0.01735943
C  0.32734992 0.56737060 0.00060147
H  -0.14620071 1.51398512 -0.01786316
H  1.38395074 0.65083795 -0.01627823
6