 Entering Gaussian System, Link 0=g16
 Initial command:
 /software/gaussian/g16-c01/avx2/g16/l1.exe "/gpfs/fs2/scratch/bweight/software/many_molecule_many_mode_NAMD/src/NAMD/TEST_NVT/TRAJ/traj-27/G16/GS_NEW/Gau-17290.inp" -scrdir="/gpfs/fs2/scratch/bweight/software/many_molecule_many_mode_NAMD/src/NAMD/TEST_NVT/TRAJ/traj-27/G16/GS_NEW/"
 Entering Link 1 = /software/gaussian/g16-c01/avx2/g16/l1.exe PID=     17291.
  
 Copyright (c) 1988-2019, Gaussian, Inc.  All Rights Reserved.
  
 This is part of the Gaussian(R) 16 program.  It is based on
 the Gaussian(R) 09 system (copyright 2009, Gaussian, Inc.),
 the Gaussian(R) 03 system (copyright 2003, Gaussian, Inc.),
 the Gaussian(R) 98 system (copyright 1998, Gaussian, Inc.),
 the Gaussian(R) 94 system (copyright 1995, Gaussian, Inc.),
 the Gaussian 92(TM) system (copyright 1992, Gaussian, Inc.),
 the Gaussian 90(TM) system (copyright 1990, Gaussian, Inc.),
 the Gaussian 88(TM) system (copyright 1988, Gaussian, Inc.),
 the Gaussian 86(TM) system (copyright 1986, Carnegie Mellon
 University), and the Gaussian 82(TM) system (copyright 1983,
 Carnegie Mellon University). Gaussian is a federally registered
 trademark of Gaussian, Inc.
  
 This software contains proprietary and confidential information,
 including trade secrets, belonging to Gaussian, Inc.
  
 This software is provided under written license and may be
 used, copied, transmitted, or stored only in accord with that
 written license.
  
 The following legend is applicable only to US Government
 contracts under FAR:
  
                    RESTRICTED RIGHTS LEGEND
  
 Use, reproduction and disclosure by the US Government is
 subject to restrictions as set forth in subparagraphs (a)
 and (c) of the Commercial Computer Software - Restricted
 Rights clause in FAR 52.227-19.
  
 Gaussian, Inc.
 340 Quinnipiac St., Bldg. 40, Wallingford CT 06492
  
  
 ---------------------------------------------------------------
 Warning -- This program may not be used in any manner that
 competes with the business of Gaussian, Inc. or will provide
 assistance to any competitor of Gaussian, Inc.  The licensee
 of this program is prohibited from giving any competitor of
 Gaussian, Inc. access to this program.  By using this program,
 the user acknowledges that Gaussian, Inc. is engaged in the
 business of creating and licensing software in the field of
 computational chemistry and represents and warrants to the
 licensee that it is not a competitor of Gaussian, Inc. and that
 it will not use this program in any manner prohibited above.
 ---------------------------------------------------------------
  

 Cite this work as:
 Gaussian 16, Revision C.01,
 M. J. Frisch, G. W. Trucks, H. B. Schlegel, G. E. Scuseria, 
 M. A. Robb, J. R. Cheeseman, G. Scalmani, V. Barone, 
 G. A. Petersson, H. Nakatsuji, X. Li, M. Caricato, A. V. Marenich, 
 J. Bloino, B. G. Janesko, R. Gomperts, B. Mennucci, H. P. Hratchian, 
 J. V. Ortiz, A. F. Izmaylov, J. L. Sonnenberg, D. Williams-Young, 
 F. Ding, F. Lipparini, F. Egidi, J. Goings, B. Peng, A. Petrone, 
 T. Henderson, D. Ranasinghe, V. G. Zakrzewski, J. Gao, N. Rega, 
 G. Zheng, W. Liang, M. Hada, M. Ehara, K. Toyota, R. Fukuda, 
 J. Hasegawa, M. Ishida, T. Nakajima, Y. Honda, O. Kitao, H. Nakai, 
 T. Vreven, K. Throssell, J. A. Montgomery, Jr., J. E. Peralta, 
 F. Ogliaro, M. J. Bearpark, J. J. Heyd, E. N. Brothers, K. N. Kudin, 
 V. N. Staroverov, T. A. Keith, R. Kobayashi, J. Normand, 
 K. Raghavachari, A. P. Rendell, J. C. Burant, S. S. Iyengar, 
 J. Tomasi, M. Cossi, J. M. Millam, M. Klene, C. Adamo, R. Cammi, 
 J. W. Ochterski, R. L. Martin, K. Morokuma, O. Farkas, 
 J. B. Foresman, and D. J. Fox, Gaussian, Inc., Wallingford CT, 2019.
 
 ******************************************
 Gaussian 16:  ES64L-G16RevC.01  3-Jul-2019
                11-Jan-2023 
 ******************************************
 %oldchk=../GS_OLD/geometry.chk
 %chk=geometry.chk
 %nprocshared=4
 Will use up to    4 processors via shared memory.
 %mem=5GB
 Copying data from "../GS_OLD/geometry.chk" to current chk file "geometry.chk"
 IOpt=  2 FromEx=T IUOpen= 4 IOptOp= 5 NList=   0 IFRang= 0 IUIn= 4 IUOut= 2.
 -------------------------------------------------------
 # WB97XD/6-311G SCF=XQC FORCE nosym pop=full guess=read
 -------------------------------------------------------
 1/10=7,30=1,38=1/1,3;
 2/12=2,15=1,17=6,18=5,40=1/2;
 3/5=4,6=6,11=2,25=1,30=1,71=1,74=-58,116=-2/1,2,3;
 4/5=1/1;
 5/5=2,8=3,13=1,38=6/2,8;
 6/7=3,28=1/1;
 7/29=1,30=1/1,2,3,16;
 1/10=7,30=1/3;
 99//99;
 ------------
 MD Step 1000
 ------------
 Symbolic Z-matrix:
 Charge =  0 Multiplicity = 1
 C                    -0.33697  -0.58293   0.00922 
 H                     0.22091  -1.52424  -0.03298 
 H                    -1.41553  -0.57564  -0.03369 
 C                     0.33255   0.57596   0.00608 
 H                    -0.15929   1.56778  -0.03758 
 H                     1.44789   0.65656  -0.03674 
 

 GradGradGradGradGradGradGradGradGradGradGradGradGradGradGradGradGradGrad
 Berny optimization.
 Initialization pass.
 Trust Radius=3.00D-01 FncErr=1.00D-07 GrdErr=1.00D-07 EigMax=2.50D+02 EigMin=1.00D-04
 Number of steps in this run=      2 maximum allowed number of steps=      2.
 GradGradGradGradGradGradGradGradGradGradGradGradGradGradGradGradGradGrad

                          Input orientation:                          
 ---------------------------------------------------------------------
 Center     Atomic      Atomic             Coordinates (Angstroms)
 Number     Number       Type             X           Y           Z
 ---------------------------------------------------------------------
      1          6           0       -0.336967   -0.582933    0.009221
      2          1           0        0.220915   -1.524241   -0.032977
      3          1           0       -1.415533   -0.575639   -0.033694
      4          6           0        0.332550    0.575957    0.006081
      5          1           0       -0.159288    1.567782   -0.037578
      6          1           0        1.447886    0.656564   -0.036742
 ---------------------------------------------------------------------
                    Distance matrix (angstroms):
                    1          2          3          4          5
     1  C    0.000000
     2  H    1.095022   0.000000
     3  H    1.079444   1.891510   0.000000
     4  C    1.338391   2.103526   2.093693   0.000000
     5  H    2.158549   3.115314   2.484435   1.107938   0.000000
     6  H    2.173515   2.502276   3.117291   1.119065   1.847519
                    6
     6  H    0.000000
 Symmetry turned off by external request.
 Stoichiometry    C2H4
 Framework group  C1[X(C2H4)]
 Deg. of freedom    12
 Full point group                 C1      NOp   1
 Rotational constants (GHZ):         143.1970505          29.6836856          24.6021308
 Standard basis: 6-311G (5D, 7F)
    38 basis functions,    72 primitive gaussians,    38 cartesian basis functions
     8 alpha electrons        8 beta electrons
       nuclear repulsion energy        33.0656062853 Hartrees.
 NAtoms=    6 NActive=    6 NUniq=    6 SFac= 1.00D+00 NAtFMM=   60 NAOKFM=F Big=F
 Integral buffers will be    131072 words long.
 Raffenetti 2 integral format.
 Two-electron integral symmetry is turned off.
 Nuclear repulsion after empirical dispersion term =       33.0647637415 Hartrees.
 One-electron integrals computed using PRISM.
 NBasis=    38 RedAO= T EigKep=  6.43D-03  NBF=    38
 NBsUse=    38 1.00D-06 EigRej= -1.00D+00 NBFU=    38
 Initial guess from the checkpoint file:  "geometry.chk"
 B after Tr=    -0.000277   -0.000370   -0.000697
         Rot=    1.000000    0.000002    0.000001    0.000007 Ang=   0.00 deg.
 Keep R1 ints in memory in canonical form, NReq=4036876.
 Requested convergence on RMS density matrix=1.00D-08 within  32 cycles.
 Requested convergence on MAX density matrix=1.00D-06.
 Requested convergence on             energy=1.00D-06.
 No special actions if energy rises.
 SCF Done:  E(RwB97XD) =  -78.5549105032     A.U. after    8 cycles
            NFock=  8  Conv=0.78D-08     -V/T= 2.0052
 QCSCF skips out because SCF is already converged.

 **********************************************************************

            Population analysis using the SCF Density.

 **********************************************************************

 Alpha  occ. eigenvalues --  -10.29120 -10.28743  -0.86398  -0.67203  -0.55982
 Alpha  occ. eigenvalues --   -0.50908  -0.43613  -0.35688
 Alpha virt. eigenvalues --    0.07948   0.14075   0.16457   0.17015   0.24067
 Alpha virt. eigenvalues --    0.37203   0.39334   0.40030   0.46350   0.48925
 Alpha virt. eigenvalues --    0.49379   0.59100   0.66524   0.69149   0.77171
 Alpha virt. eigenvalues --    0.77634   0.83877   0.95173   2.23108   2.29092
 Alpha virt. eigenvalues --    2.33313   2.40547   2.67119   2.81680   2.87822
 Alpha virt. eigenvalues --    2.95103   3.14029   3.31774  23.35212  23.70582
     Molecular Orbital Coefficients:
                           1         2         3         4         5
                           O         O         O         O         O
     Eigenvalues --   -10.29120 -10.28743  -0.86398  -0.67203  -0.55982
   1 1   C  1S          0.06583   0.55953  -0.08876   0.06634  -0.00066
   2        2S          0.05438   0.46049  -0.14030   0.10624  -0.00109
   3        2PX         0.00016  -0.00000   0.02543   0.03701   0.14038
   4        2PY         0.00028   0.00001   0.04627   0.05958  -0.07506
   5        2PZ         0.00000  -0.00001  -0.00184   0.00266   0.00028
   6        3S          0.00084   0.01464   0.37634  -0.28986   0.00304
   7        3PX        -0.00063   0.00038   0.03385   0.05900   0.21982
   8        3PY        -0.00108   0.00070   0.06128   0.09640  -0.11857
   9        3PZ        -0.00002  -0.00005  -0.00307   0.00471   0.00040
  10        4S          0.00418  -0.01448   0.19227  -0.22424   0.00296
  11        4PX         0.00158  -0.00143   0.00460   0.02313   0.11271
  12        4PY         0.00273  -0.00251   0.00852   0.03989  -0.06188
  13        4PZ        -0.00000   0.00011  -0.00104   0.00234   0.00019
  14 2   H  1S         -0.00004  -0.00007   0.05302  -0.08682   0.10493
  15        2S         -0.00030   0.00008   0.05429  -0.10454   0.13266
  16        3S          0.00073   0.00173  -0.00185  -0.01488   0.04285
  17 3   H  1S         -0.00005  -0.00008   0.05515  -0.09111  -0.10820
  18        2S         -0.00031   0.00008   0.05560  -0.10870  -0.13557
  19        3S          0.00075   0.00180  -0.00180  -0.01611  -0.04378
  20 4   C  1S          0.55955  -0.06602  -0.08644  -0.06882  -0.00035
  21        2S          0.46053  -0.05413  -0.13646  -0.11038  -0.00056
  22        2PX        -0.00001  -0.00017  -0.02812   0.03723   0.11487
  23        2PY        -0.00000  -0.00029  -0.04693   0.06689  -0.07256
  24        2PZ        -0.00000   0.00000  -0.00133  -0.00270   0.00029
  25        3S          0.01421  -0.00257   0.36556   0.30172   0.00159
  26        3PX        -0.00026   0.00071  -0.03517   0.06054   0.17989
  27        3PY        -0.00042   0.00123  -0.05839   0.10802  -0.11259
  28        3PZ        -0.00004  -0.00001  -0.00231  -0.00489   0.00043
  29        4S         -0.01272   0.00759   0.18831   0.24025   0.00023
  30        4PX         0.00102  -0.00185  -0.00578   0.02703   0.10014
  31        4PY         0.00169  -0.00321  -0.00921   0.04613  -0.06128
  32        4PZ         0.00009  -0.00001  -0.00099  -0.00254   0.00021
  33 5   H  1S         -0.00006  -0.00005   0.04924   0.09389  -0.08718
  34        2S          0.00000  -0.00032   0.05036   0.11231  -0.10996
  35        3S          0.00178   0.00025  -0.00104   0.01697  -0.03521
  36 6   H  1S         -0.00004  -0.00005   0.04761   0.09179   0.08236
  37        2S         -0.00001  -0.00032   0.04948   0.11030   0.10429
  38        3S          0.00172   0.00025  -0.00111   0.01623   0.03367
                           6         7         8         9        10
                           O         O         O         V         V
     Eigenvalues --    -0.50908  -0.43613  -0.35688   0.07948   0.14075
   1 1   C  1S         -0.00315   0.00019  -0.00142   0.00366  -0.03209
   2        2S         -0.00467   0.00032  -0.00231   0.00608  -0.05144
   3        2PX         0.09454  -0.10830  -0.00452   0.00185  -0.03091
   4        2PY         0.16824   0.06483  -0.00769   0.00323  -0.06372
   5        2PZ         0.00679   0.00002   0.17931  -0.18876  -0.00306
   6        3S          0.01850  -0.00062   0.00674  -0.01841   0.11120
   7        3PX         0.13698  -0.17233  -0.00639   0.00281  -0.03660
   8        3PY         0.24575   0.10407  -0.01086   0.00481  -0.07937
   9        3PZ         0.01077   0.00009   0.28862  -0.27785  -0.00493
  10        4S         -0.05443  -0.00381   0.00930  -0.02061   1.19779
  11        4PX         0.06883  -0.10764  -0.00530   0.01624  -0.18655
  12        4PY         0.12472   0.06512  -0.00908   0.02822  -0.37248
  13        4PZ         0.00613   0.00011   0.26706  -0.69336  -0.01811
  14 2   H  1S         -0.08105  -0.11310   0.00017   0.00576  -0.01661
  15        2S         -0.11229  -0.17434   0.00271   0.00915  -0.04703
  16        3S         -0.04207  -0.08057   0.00160   0.02366  -0.81240
  17 3   H  1S         -0.07895   0.11068   0.00008   0.00578  -0.01254
  18        2S         -0.10858   0.16927   0.00260   0.00908  -0.03752
  19        3S         -0.04033   0.07777   0.00156   0.02279  -0.74676
  20 4   C  1S         -0.00887  -0.00052  -0.00101  -0.00350  -0.03749
  21        2S         -0.01391  -0.00084  -0.00166  -0.00579  -0.06023
  22        2PX        -0.09812   0.12685   0.00448   0.00235   0.04157
  23        2PY        -0.16175  -0.07476   0.00818   0.00416   0.06229
  24        2PZ         0.00724   0.00026   0.17902   0.18944  -0.00428
  25        3S          0.04476   0.00234   0.00490   0.01735   0.13359
  26        3PX        -0.14553   0.20350   0.00626   0.00360   0.05088
  27        3PY        -0.23813  -0.11877   0.01147   0.00641   0.07355
  28        3PZ         0.01144   0.00037   0.28626   0.27756  -0.00647
  29        4S         -0.02733   0.00358   0.00878   0.01951   1.26346
  30        4PX        -0.07632   0.13119   0.00475   0.01790   0.27028
  31        4PY        -0.12338  -0.07619   0.00886   0.03108   0.42332
  32        4PZ         0.00663   0.00021   0.26729   0.69496  -0.02504
  33 5   H  1S         -0.07390  -0.12638   0.00035  -0.00526  -0.01279
  34        2S         -0.10104  -0.19741   0.00286  -0.00876  -0.03874
  35        3S         -0.03780  -0.09298   0.00161  -0.02325  -0.83916
  36 6   H  1S         -0.08017   0.12572   0.00025  -0.00527  -0.01673
  37        2S         -0.11009   0.19769   0.00273  -0.00896  -0.04833
  38        3S         -0.04135   0.09334   0.00151  -0.02395  -0.90626
                          11        12        13        14        15
                           V         V         V         V         V
     Eigenvalues --     0.16457   0.17015   0.24067   0.37203   0.39334
   1 1   C  1S          0.00065  -0.04629   0.00023   0.00883   0.00076
   2        2S          0.00105  -0.07544   0.00035   0.01175   0.00101
   3        2PX         0.09500  -0.02018   0.10032  -0.03529  -0.02133
   4        2PY        -0.05358  -0.03748  -0.05735  -0.06380   0.01076
   5        2PZ         0.00003  -0.00899  -0.00000  -0.00625  -0.00027
   6        3S         -0.00213   0.17054   0.00020   0.03638   0.00472
   7        3PX         0.13614  -0.01152   0.10526  -0.04189  -0.10013
   8        3PY        -0.07756  -0.02395  -0.06148  -0.08143   0.05596
   9        3PZ         0.00003  -0.01250  -0.00008  -0.01307  -0.00036
  10        4S         -0.04059   1.47358  -0.04172  -2.46037  -0.17787
  11        4PX         0.58060  -0.11900   1.17056  -1.53652  -0.56325
  12        4PY        -0.31761  -0.21175  -0.67765  -2.66492   0.12372
  13        4PZ         0.00048  -0.05885   0.00085  -0.05610  -0.00374
  14 2   H  1S         -0.02949  -0.02498   0.01453  -0.06095   0.07396
  15        2S         -0.08365  -0.01695  -0.02227  -0.68605   0.75076
  16        3S         -1.03720  -1.02363  -1.54878  -0.28176  -0.29713
  17 3   H  1S          0.02783  -0.02509  -0.01709  -0.05340  -0.07530
  18        2S          0.08131  -0.02027   0.01482  -0.62306  -0.76283
  19        3S          1.08694  -1.03944   1.59592  -0.36944   0.21933
  20 4   C  1S          0.00175   0.04140  -0.00025  -0.02021  -0.00032
  21        2S          0.00281   0.06739  -0.00041  -0.03339  -0.00052
  22        2PX         0.10280  -0.02466  -0.10013  -0.03989  -0.03394
  23        2PY        -0.06232  -0.03595   0.05745  -0.07244   0.01205
  24        2PZ         0.00033   0.00850   0.00000   0.00429   0.00048
  25        3S         -0.00578  -0.14931   0.00039   0.04922   0.00163
  26        3PX         0.14784  -0.02062  -0.11505  -0.09207  -0.11452
  27        3PY        -0.08819  -0.02590   0.06438  -0.16984   0.04986
  28        3PZ         0.00045   0.01169   0.00005   0.00486   0.00099
  29        4S         -0.07460  -1.30464   0.03197   3.22381   0.17635
  30        4PX         0.53714  -0.12339  -1.11691  -1.10375  -0.54235
  31        4PY        -0.33326  -0.18153   0.63958  -1.95516   0.11075
  32        4PZ         0.00215   0.05529  -0.00080   0.04683   0.00350
  33 5   H  1S          0.03176   0.02460   0.00467   0.00781  -0.08137
  34        2S          0.06683   0.02159  -0.03646   0.03230  -0.80551
  35        3S          1.09098   0.89791  -1.51579   0.44136   0.50364
  36 6   H  1S         -0.03168   0.02594  -0.00317   0.00107   0.08904
  37        2S         -0.06753   0.02222   0.03863  -0.02482   0.89774
  38        3S         -0.98902   0.93675   1.48315   0.46076  -0.48665
                          16        17        18        19        20
                           V         V         V         V         V
     Eigenvalues --     0.40030   0.46350   0.48925   0.49379   0.59100
   1 1   C  1S         -0.01881   0.01492  -0.04517  -0.00177  -0.00070
   2        2S         -0.03284   0.03293  -0.07497  -0.00256  -0.00124
   3        2PX         0.02927  -0.06270   0.00963   0.00184   0.00279
   4        2PY         0.05236  -0.10709   0.00878   0.00239   0.00401
   5        2PZ         0.00075  -0.00065   0.01134  -0.15113  -0.19261
   6        3S          0.07106  -0.33899   0.06711  -0.01136  -0.00153
   7        3PX         0.10678  -0.24142  -0.04742  -0.00134   0.00914
   8        3PY         0.19734  -0.40997  -0.09737  -0.00428   0.01345
   9        3PZ        -0.00434  -0.00608   0.04924  -0.62569  -0.68570
  10        4S          2.86153  -0.03257   3.11774   0.21504   0.09480
  11        4PX         0.33620   0.17801   0.81736   0.06384   0.03087
  12        4PY         0.60608   0.35945   1.44523   0.11471   0.04993
  13        4PZ        -0.00219   0.00563  -0.13994   0.67787   1.24116
  14 2   H  1S         -0.02497  -0.02786  -0.07757  -0.00592  -0.00232
  15        2S         -0.51980  -0.25730  -0.92648  -0.06224  -0.01880
  16        3S          0.33326   0.02297   0.64833   0.06091   0.03153
  17 3   H  1S         -0.03046  -0.03215  -0.07457  -0.00574  -0.00211
  18        2S         -0.56764  -0.31039  -0.90319  -0.06119  -0.01481
  19        3S          0.33891   0.02704   0.59653   0.05738   0.03047
  20 4   C  1S          0.00030  -0.00590   0.05087   0.00561   0.00099
  21        2S         -0.00311  -0.00246   0.08909   0.01009   0.00185
  22        2PX         0.01035   0.05216   0.02880   0.00093   0.00269
  23        2PY         0.02011   0.09156   0.05507   0.00188   0.00538
  24        2PZ        -0.00515  -0.00264   0.01134  -0.15265   0.19209
  25        3S          0.07876  -0.26990  -0.25365  -0.03698  -0.00414
  26        3PX        -0.03956   0.22718   0.06768   0.00227   0.00963
  27        3PY        -0.05990   0.40215   0.12678   0.00410   0.01867
  28        3PZ        -0.01414  -0.01039   0.04363  -0.63101   0.68139
  29        4S         -1.08866   0.91967  -3.03285  -0.23795  -0.08100
  30        4PX         1.32125  -0.38698   0.59496   0.03830   0.02727
  31        4PY         2.38187  -0.61832   0.99609   0.06327   0.05001
  32        4PZ        -0.04557  -0.02399   0.02416   0.69821  -1.23658
  33 5   H  1S         -0.04615  -0.06947   0.05947   0.00482   0.00202
  34        2S         -0.83676  -0.71876   0.76159   0.06888   0.00641
  35        3S         -0.22445   0.31335  -0.52181  -0.02872  -0.03021
  36 6   H  1S         -0.03972  -0.06624   0.06124   0.00504   0.00218
  37        2S         -0.76351  -0.67284   0.76690   0.06941   0.00901
  38        3S         -0.23589   0.32525  -0.55711  -0.03231  -0.03085
                          21        22        23        24        25
                           V         V         V         V         V
     Eigenvalues --     0.66524   0.69149   0.77171   0.77634   0.83877
   1 1   C  1S          0.00094  -0.00064   0.04689   0.07588   0.00117
   2        2S          0.00191  -0.00147   0.09879   0.16173   0.00258
   3        2PX        -0.12180   0.20425  -0.03231   0.11316  -0.00876
   4        2PY         0.07152  -0.12356  -0.05572   0.18170   0.01283
   5        2PZ        -0.00002   0.00027   0.00058   0.00652   0.00031
   6        3S         -0.01405   0.02080  -0.64557  -1.38648  -0.02315
   7        3PX        -0.57842   0.72781  -0.19901   0.43669  -0.21973
   8        3PY         0.33593  -0.43873  -0.34478   0.69186   0.15846
   9        3PZ        -0.00026   0.00116   0.00237   0.02272   0.00139
  10        4S          0.02207  -0.11458   0.55119   2.48189  -0.10816
  11        4PX         1.04974  -0.83485   0.18568  -0.75162   4.50499
  12        4PY        -0.61411   0.49046   0.26262  -0.98811  -2.63682
  13        4PZ         0.00014   0.00161   0.01637  -0.07246   0.00286
  14 2   H  1S          0.02079  -0.06003   0.00839   0.03289  -0.02699
  15        2S          0.10041  -0.64668   0.07735   0.09926  -1.58390
  16        3S         -0.99472   1.15725  -0.03233  -1.10075  -1.24090
  17 3   H  1S         -0.02017   0.05954   0.00804   0.03398   0.03010
  18        2S         -0.11246   0.69555   0.09643   0.07392   1.63072
  19        3S          0.98470  -1.12646  -0.01867  -1.26166   1.24278
  20 4   C  1S          0.00113  -0.00093   0.08193   0.03622   0.00095
  21        2S          0.00228  -0.00177   0.17447   0.07639   0.00202
  22        2PX        -0.16101  -0.17683  -0.09956   0.04660   0.01054
  23        2PY         0.09164   0.09764  -0.17997   0.08657   0.00010
  24        2PZ        -0.00006  -0.00031   0.00678  -0.00108  -0.00028
  25        3S         -0.01620   0.00401  -1.46824  -0.46815  -0.01465
  26        3PX        -0.71439  -0.58779  -0.36820   0.25760   0.23886
  27        3PY         0.40954   0.32107  -0.66891   0.47271  -0.10542
  28        3PZ        -0.00037  -0.00109   0.02404  -0.00432  -0.00106
  29        4S          0.01683   0.07140   2.68789   0.29962   0.09462
  30        4PX         1.31613   0.67888   0.53897  -0.22097  -4.14477
  31        4PY        -0.74658  -0.38902   1.04453  -0.62645   2.30541
  32        4PZ         0.00056  -0.00089  -0.07078   0.02991  -0.00190
  33 5   H  1S         -0.02792  -0.05374   0.03457   0.00473  -0.02161
  34        2S         -0.17152  -0.54558   0.06521   0.07780  -1.38961
  35        3S          1.15261   0.92603  -1.16808   0.23546  -1.07736
  36 6   H  1S          0.02849   0.05305   0.03408   0.00584   0.02205
  37        2S          0.16273   0.50371   0.06317   0.02309   1.37381
  38        3S         -1.15725  -0.93022  -1.09766   0.16072   1.08254
                          26        27        28        29        30
                           V         V         V         V         V
     Eigenvalues --     0.95173   2.23108   2.29092   2.33313   2.40547
   1 1   C  1S          0.09605  -0.01040  -0.01494   0.00052  -0.00058
   2        2S          0.19964   0.00116  -0.01520   0.00115  -0.00061
   3        2PX        -0.09091  -0.07316  -0.13015   0.34624  -0.40646
   4        2PY        -0.15783  -0.13781  -0.22967  -0.19688   0.23494
   5        2PZ         0.00038  -0.01820  -0.02443  -0.00011  -0.00083
   6        3S         -1.54749  -0.18643  -0.03646  -0.00276  -0.00563
   7        3PX        -0.23332   0.06371   0.20327  -0.41073   0.56563
   8        3PY        -0.39634   0.13806   0.37451   0.23587  -0.33119
   9        3PZ        -0.00309   0.01809   0.03029   0.00029   0.00094
  10        4S          5.71958  -0.11328  -0.89172   0.00826  -0.04526
  11        4PX         1.20234   0.06176  -0.19211  -0.06080   0.97897
  12        4PY         1.99236   0.07226  -0.35540   0.02882  -0.55374
  13        4PZ        -0.02665   0.00435   0.01147  -0.00055   0.00185
  14 2   H  1S          0.01497  -0.70391  -0.80414  -0.69661   0.65764
  15        2S         -0.28764   0.99856   1.20599   1.07836  -1.46853
  16        3S         -0.09749  -0.29825  -0.47875  -0.45640   0.36556
  17 3   H  1S          0.01497  -0.69793  -0.79401   0.69156  -0.68369
  18        2S         -0.25546   0.99316   1.19167  -1.07669   1.52256
  19        3S         -0.08592  -0.27166  -0.45632   0.44620  -0.35790
  20 4   C  1S         -0.09376  -0.00999   0.01189   0.00043   0.00035
  21        2S         -0.19445   0.00057   0.01159   0.00070   0.00047
  22        2PX        -0.09260   0.13810  -0.11947   0.30504   0.41613
  23        2PY        -0.15940   0.24212  -0.20474  -0.17477  -0.23466
  24        2PZ         0.00054  -0.01923   0.02350   0.00013   0.00039
  25        3S          1.50336  -0.16686   0.01916  -0.00069   0.00071
  26        3PX        -0.22567  -0.17965   0.20881  -0.38607  -0.58517
  27        3PY        -0.39521  -0.30963   0.34760   0.21766   0.32818
  28        3PZ         0.00499   0.02091  -0.03009  -0.00010  -0.00052
  29        4S         -5.68659  -0.16506   0.88562   0.01053   0.02672
  30        4PX         1.10405  -0.00918  -0.19285   0.11956  -0.83585
  31        4PY         1.97733  -0.02759  -0.31862  -0.06557   0.47855
  32        4PZ         0.01527   0.00587  -0.00805  -0.00017  -0.00135
  33 5   H  1S         -0.01821  -0.79369   0.67129   0.70943   0.68132
  34        2S          0.29243   1.15473  -1.02441  -1.02797  -1.43956
  35        3S          0.06181  -0.36242   0.40085   0.51870   0.43311
  36 6   H  1S         -0.01820  -0.78343   0.69038  -0.70491  -0.67688
  37        2S          0.31578   1.13640  -1.05075   1.01738   1.42454
  38        3S          0.06451  -0.36266   0.42339  -0.52028  -0.43901
                          31        32        33        34        35
                           V         V         V         V         V
     Eigenvalues --     2.67119   2.81680   2.87822   2.95103   3.14029
   1 1   C  1S          0.00069   0.00336  -0.01302   0.00019  -0.00996
   2        2S          0.00056   0.00959  -0.04297   0.00023  -0.03031
   3        2PX         0.00619   0.09773  -0.47786  -0.72077   0.44000
   4        2PY         0.01024   0.17054  -0.85003   0.40237   0.77453
   5        2PZ        -0.92274  -0.92349  -0.18397  -0.00098   0.00823
   6        3S         -0.00236  -0.07875   0.37615   0.00009   0.25317
   7        3PX        -0.00419  -0.16843   0.84032   0.86983  -0.41824
   8        3PY        -0.00731  -0.29165   1.47167  -0.47447  -0.73562
   9        3PZ         0.93756   1.12802   0.23066   0.00148  -0.01082
  10        4S          0.01775   0.18505  -0.85692  -0.00618  -0.49518
  11        4PX        -0.00314   0.13455  -0.71104  -0.66182   0.20586
  12        4PY        -0.00401   0.23379  -1.25438   0.35395   0.35969
  13        4PZ        -0.33739  -0.60899  -0.14597  -0.00130   0.00623
  14 2   H  1S          0.01621  -0.02442   0.25728  -0.36780  -0.21240
  15        2S         -0.01840   0.01421  -0.21371   0.37815   0.16043
  16        3S         -0.00416   0.05420  -0.29628   0.27873   0.05439
  17 3   H  1S          0.01626  -0.02278   0.24458   0.36834  -0.20945
  18        2S         -0.01852   0.01092  -0.18855  -0.37295   0.15738
  19        3S         -0.00521   0.05640  -0.30628  -0.29801   0.05899
  20 4   C  1S          0.00066  -0.00328   0.01361   0.00062  -0.00696
  21        2S          0.00062  -0.01023   0.04796   0.00139  -0.02197
  22        2PX        -0.01028   0.08397  -0.39494  -0.81166  -0.51103
  23        2PY        -0.01824   0.15086  -0.70710   0.45642  -0.89988
  24        2PZ        -0.92643   0.91857   0.18809   0.00037   0.01825
  25        3S         -0.00356   0.08805  -0.43140  -0.01055   0.19033
  26        3PX         0.01076  -0.15393   0.75031   0.96483   0.55242
  27        3PY         0.01876  -0.27411   1.33338  -0.53590   0.98013
  28        3PZ         0.94250  -1.12277  -0.23724  -0.00040  -0.02288
  29        4S          0.02039  -0.19019   0.89817   0.02946  -0.36243
  30        4PX        -0.00153   0.13176  -0.69865  -0.70192  -0.34240
  31        4PY        -0.00295   0.23263  -1.22384   0.38202  -0.60783
  32        4PZ        -0.33995   0.60621   0.15167   0.00019   0.01810
  33 5   H  1S          0.01522   0.03664  -0.29194   0.42651  -0.26605
  34        2S         -0.01892  -0.03013   0.26675  -0.43941   0.20992
  35        3S         -0.00155  -0.05043   0.27872  -0.23903   0.12831
  36 6   H  1S          0.01543   0.03779  -0.29500  -0.43315  -0.25844
  37        2S         -0.01960  -0.03251   0.27870   0.44632   0.20520
  38        3S         -0.00089  -0.04660   0.25923   0.23734   0.12494
                          36        37        38
                           V         V         V
     Eigenvalues --     3.31774  23.35212  23.70582
   1 1   C  1S         -0.00067  -1.40734  -1.45877
   2        2S         -0.00104   1.50087   1.57745
   3        2PX         0.79408  -0.00676   0.01189
   4        2PY        -0.44708  -0.01081   0.02120
   5        2PZ         0.00101  -0.00075  -0.00036
   6        3S          0.00285  -0.29450  -0.40108
   7        3PX        -1.13560   0.02477  -0.05512
   8        3PY         0.63604   0.04041  -0.09673
   9        3PZ        -0.00162   0.00210   0.00109
  10        4S         -0.03415   0.27162   0.77058
  11        4PX         1.97334  -0.02730   0.13198
  12        4PY        -1.11357  -0.04496   0.23022
  13        4PZ         0.00267  -0.00354  -0.00432
  14 2   H  1S          0.56943   0.01331   0.00755
  15        2S         -0.88035   0.00760  -0.01477
  16        3S         -0.47069  -0.08442  -0.03953
  17 3   H  1S         -0.58284   0.01559   0.00951
  18        2S          0.89899   0.00671  -0.01589
  19        3S          0.49735  -0.08717  -0.04100
  20 4   C  1S          0.00030  -1.45397   1.41207
  21        2S          0.00018   1.55077  -1.52713
  22        2PX        -0.70157   0.00587   0.01285
  23        2PY         0.39870   0.01071   0.02163
  24        2PZ        -0.00081  -0.00072   0.00015
  25        3S          0.00190  -0.30458   0.38876
  26        3PX         0.99841  -0.02164  -0.05693
  27        3PY        -0.57473  -0.03891  -0.09721
  28        3PZ         0.00124   0.00207  -0.00035
  29        4S          0.00628   0.28217  -0.75794
  30        4PX        -1.74901   0.02209   0.13217
  31        4PY         1.00693   0.04127   0.22609
  32        4PZ        -0.00197  -0.00335   0.00272
  33 5   H  1S          0.47258   0.01287  -0.00424
  34        2S         -0.73333   0.00816   0.01371
  35        3S         -0.41852  -0.08248   0.03740
  36 6   H  1S         -0.46591   0.01120  -0.00272
  37        2S          0.72629   0.00972   0.01255
  38        3S          0.40938  -0.08065   0.03571
     Density Matrix:
                           1         2         3         4         5
   1 1   C  1S          0.65939
   2        2S          0.56151   0.49202
   3        2PX        -0.00039  -0.00049   0.08482
   4        2PY        -0.00117  -0.00161   0.00353   0.08779
   5        2PZ         0.00012   0.00018  -0.00016  -0.00036   0.06442
   6        3S         -0.08891  -0.15383   0.00211   0.00587  -0.00026
   7        3PX         0.00096   0.00148   0.13109   0.00101  -0.00012
   8        3PY         0.00123   0.00189   0.00099   0.13131  -0.00033
   9        3PZ         0.00023   0.00039  -0.00028  -0.00058   0.10369
  10        4S         -0.07923  -0.11403  -0.01554  -0.02832   0.00070
  11        4PX         0.00025   0.00154   0.06997  -0.00445  -0.00080
  12        4PY         0.00068   0.00312  -0.00443   0.06538  -0.00141
  13        4PZ        -0.00017  -0.00039  -0.00111  -0.00187   0.09587
  14 2   H  1S         -0.02068  -0.03294   0.03490  -0.06313  -0.00164
  15        2S         -0.02299  -0.03677   0.04877  -0.08778  -0.00124
  16        3S          0.00056  -0.00073   0.02032  -0.03300  -0.00005
  17 3   H  1S         -0.02130  -0.03387  -0.07322  -0.00173  -0.00179
  18        2S         -0.02333  -0.03726  -0.10050  -0.00209  -0.00139
  19        3S          0.00063  -0.00067  -0.03806   0.00098  -0.00009
  20 4   C  1S          0.00606   0.00977  -0.01096  -0.01887  -0.00053
  21        2S          0.00973   0.01521  -0.01755  -0.03021  -0.00087
  22        2PX         0.01025   0.01637  -0.01249  -0.03205   0.00065
  23        2PY         0.01795   0.02870  -0.03227  -0.04973   0.00122
  24        2PZ        -0.00067  -0.00109  -0.00049  -0.00077   0.06429
  25        3S         -0.02616  -0.03973   0.04929   0.08484   0.00263
  26        3PX         0.01578   0.02443  -0.01845  -0.04573   0.00083
  27        3PY         0.02759   0.04277  -0.04599  -0.07133   0.00160
  28        3PZ        -0.00114  -0.00183  -0.00086  -0.00136   0.10280
  29        4S          0.00542   0.00403   0.02140   0.03715   0.00337
  30        4PX         0.00306   0.00633  -0.01307  -0.02109   0.00089
  31        4PY         0.00519   0.01081  -0.02116  -0.03769   0.00174
  32        4PZ        -0.00097  -0.00156  -0.00139  -0.00228   0.09593
  33 5   H  1S          0.00419   0.00688  -0.00162  -0.01242  -0.00062
  34        2S          0.00631   0.01049   0.00363  -0.02509  -0.00000
  35        3S          0.00320   0.00468   0.00430  -0.01759   0.00014
  36 6   H  1S          0.00411   0.00675  -0.01005  -0.00770  -0.00063
  37        2S          0.00611   0.01017  -0.02370  -0.00939  -0.00004
  38        3S          0.00311   0.00455  -0.01745  -0.00506   0.00009
                           6         7         8         9        10
   6        3S          0.45253
   7        3PX        -0.00219   0.20290
   8        3PY        -0.00164  -0.00501   0.19690
   9        3PZ        -0.00076  -0.00024  -0.00052   0.16690
  10        4S          0.27243  -0.02588  -0.04814   0.00091   0.18110
  11        4PX        -0.00669   0.10862  -0.01017  -0.00132  -0.01465
  12        4PY        -0.01275  -0.01009   0.09845  -0.00227  -0.02913
  13        4PZ         0.00168  -0.00148  -0.00248   0.15432   0.00285
  14 2   H  1S          0.08802   0.05625  -0.09851  -0.00273   0.06964
  15        2S          0.09837   0.07895  -0.13649  -0.00210   0.08214
  16        3S          0.00611   0.03318  -0.05074  -0.00009   0.01139
  17 3   H  1S          0.09062  -0.11437  -0.00092  -0.00292   0.06919
  18        2S          0.09985  -0.15679  -0.00019  -0.00228   0.07990
  19        3S          0.00621  -0.05914   0.00339  -0.00013   0.01005
  20 4   C  1S         -0.02650  -0.01712  -0.02953  -0.00091   0.00517
  21        2S         -0.04007  -0.02663  -0.04593  -0.00147   0.00394
  22        2PX        -0.04578  -0.01767  -0.04543   0.00111  -0.01703
  23        2PY        -0.08033  -0.04584  -0.07089   0.00208  -0.03014
  24        2PZ         0.00325  -0.00067  -0.00103   0.10348   0.00324
  25        3S          0.10191   0.07243   0.12494   0.00440   0.00066
  26        3PX        -0.06601  -0.02623  -0.06461   0.00145  -0.02523
  27        3PY        -0.11573  -0.06516  -0.10163   0.00275  -0.04456
  28        3PZ         0.00538  -0.00119  -0.00185   0.16546   0.00539
  29        4S          0.00176   0.03239   0.05650   0.00559  -0.03255
  30        4PX        -0.02239  -0.01936  -0.02956   0.00149  -0.00630
  31        4PY        -0.03849  -0.02978  -0.05440   0.00289  -0.01031
  32        4PZ         0.00458  -0.00195  -0.00317   0.15441   0.00501
  33 5   H  1S         -0.02048  -0.00061  -0.01782  -0.00090  -0.01467
  34        2S         -0.03134   0.00864  -0.03691   0.00010  -0.01909
  35        3S         -0.01209   0.00812  -0.02647   0.00024  -0.00336
  36 6   H  1S         -0.02000  -0.01503  -0.00924  -0.00092  -0.01460
  37        2S         -0.03036  -0.03611  -0.01042   0.00006  -0.01929
  38        3S         -0.01165  -0.02688  -0.00593   0.00019  -0.00368
                          11        12        13        14        15
  11        4PX         0.05923
  12        4PY        -0.00876   0.05077
  13        4PZ        -0.00187  -0.00316   0.14273
  14 2   H  1S          0.03332  -0.05396  -0.00141   0.08144
  15        2S          0.04761  -0.07460  -0.00053   0.10939   0.14897
  16        3S          0.02049  -0.02754   0.00027   0.03643   0.05183
  17 3   H  1S         -0.06279   0.00178  -0.00148  -0.01328  -0.02453
  18        2S         -0.08650   0.00397  -0.00058  -0.02437  -0.04183
  19        3S         -0.03294   0.00414   0.00027  -0.01764  -0.02650
  20 4   C  1S         -0.00320  -0.00579  -0.00081   0.00423   0.00673
  21        2S         -0.00659  -0.01182  -0.00130   0.00700   0.01123
  22        2PX        -0.01351  -0.01976   0.00150   0.00187  -0.00253
  23        2PY        -0.01995  -0.03672   0.00275   0.01132   0.02411
  24        2PZ        -0.00103  -0.00169   0.09570  -0.00078  -0.00025
  25        3S          0.02334   0.04157   0.00382  -0.02108  -0.03382
  26        3PX        -0.02089  -0.02795   0.00203   0.00107  -0.00698
  27        3PY        -0.02826  -0.05353   0.00376   0.01689   0.03616
  28        3PZ        -0.00169  -0.00278   0.15302  -0.00115  -0.00026
  29        4S          0.00821   0.01573   0.00509  -0.01808  -0.02478
  30        4PX        -0.01502  -0.01236   0.00181  -0.00159  -0.00829
  31        4PY        -0.01243  -0.02973   0.00341   0.01539   0.02742
  32        4PZ        -0.00205  -0.00342   0.14283  -0.00065   0.00036
  33 5   H  1S          0.00218  -0.01578  -0.00045   0.01119   0.02325
  34        2S          0.00943  -0.02754   0.00062   0.02380   0.04435
  35        3S          0.00764  -0.01587   0.00045   0.01671   0.02791
  36 6   H  1S         -0.01485  -0.00568  -0.00046  -0.00905  -0.01800
  37        2S         -0.02868  -0.00502   0.00061  -0.01889  -0.03421
  38        3S         -0.01747  -0.00107   0.00041  -0.01028  -0.01783
                          16        17        18        19        20
  16        3S          0.02066
  17 3   H  1S         -0.01796   0.08307
  18        2S         -0.02672   0.10989   0.14747
  19        3S         -0.01239   0.03579   0.05027   0.01972
  20 4   C  1S          0.00375   0.00433   0.00684   0.00379   0.65949
  21        2S          0.00553   0.00716   0.01141   0.00557   0.56157
  22        2PX        -0.00333   0.00883   0.02191   0.01650   0.00127
  23        2PY         0.01765   0.00733   0.00977   0.00581   0.00193
  24        2PZ         0.00003  -0.00077  -0.00019   0.00008   0.00011
  25        3S         -0.01431  -0.02155  -0.03429  -0.01439  -0.08929
  26        3PX        -0.00678   0.01419   0.03468   0.02584  -0.00040
  27        3PY         0.02657   0.00955   0.01211   0.00736  -0.00100
  28        3PZ         0.00009  -0.00114  -0.00018   0.00016   0.00024
  29        4S         -0.00607  -0.01795  -0.02415  -0.00564  -0.08039
  30        4PX        -0.00691   0.01386   0.02734   0.01695  -0.00020
  31        4PY         0.01609   0.00646   0.00661   0.00203  -0.00015
  32        4PZ         0.00036  -0.00065   0.00041   0.00040  -0.00004
  33 5   H  1S          0.01614  -0.00912  -0.01803  -0.00926  -0.01999
  34        2S          0.02737  -0.01886  -0.03388  -0.01672  -0.02205
  35        3S          0.01465  -0.01020  -0.01752  -0.00886   0.00059
  36 6   H  1S         -0.00936   0.01119   0.02298   0.01568  -0.01967
  37        2S         -0.01712   0.02393   0.04409   0.02677  -0.02203
  38        3S         -0.00915   0.01682   0.02781   0.01439   0.00046
                          21        22        23        24        25
  21        2S          0.49205
  22        2PX         0.00184   0.08222
  23        2PY         0.00275   0.00380   0.08752
  24        2PZ         0.00016   0.00019   0.00027   0.06422
  25        3S         -0.15428  -0.00587  -0.00893  -0.00019   0.45382
  26        3PX        -0.00060   0.12806   0.00205   0.00011  -0.00064
  27        3PY        -0.00152   0.00216   0.13125   0.00011   0.00036
  28        3PZ         0.00040   0.00028   0.00043   0.10270  -0.00080
  29        4S         -0.11625   0.01370   0.02288   0.00095   0.27991
  30        4PX        -0.00148   0.07365  -0.00522   0.00059   0.00627
  31        4PY        -0.00217  -0.00516   0.06738   0.00109   0.00966
  32        4PZ        -0.00016   0.00107   0.00192   0.09581   0.00096
  33 5   H  1S         -0.03185  -0.03336   0.06340  -0.00170   0.08517
  34        2S         -0.03524  -0.04996   0.08850  -0.00134   0.09430
  35        3S         -0.00061  -0.02292   0.03363  -0.00013   0.00561
  36 6   H  1S         -0.03136   0.07071   0.00300  -0.00158   0.08387
  37        2S         -0.03522   0.10118   0.00108  -0.00118   0.09416
  38        3S         -0.00077   0.04082  -0.00316  -0.00007   0.00588
                          26        27        28        29        30
  26        3PX         0.19978
  27        3PY        -0.00221   0.19740
  28        3PZ         0.00013   0.00015   0.16422
  29        4S          0.02547   0.04226   0.00119   0.18848
  30        4PX         0.11537  -0.01075   0.00092   0.01600   0.06771
  31        4PY        -0.01081   0.10189   0.00173   0.02493  -0.01073
  32        4PZ         0.00134   0.00244   0.15321   0.00274   0.00150
  33 5   H  1S         -0.05338   0.09939  -0.00281   0.06676  -0.03483
  34        2S         -0.08041   0.13822  -0.00225   0.07704  -0.05288
  35        3S         -0.03736   0.05184  -0.00020   0.00913  -0.02473
  36 6   H  1S          0.11190   0.00405  -0.00264   0.06736   0.06613
  37        2S          0.15993   0.00010  -0.00203   0.07916   0.09498
  38        3S          0.06420  -0.00639  -0.00014   0.01031   0.03845
                          31        32        33        34        35
  31        4PY         0.05417
  32        4PZ         0.00283   0.14299
  33 5   H  1S          0.05594  -0.00146   0.08054
  34        2S          0.07798  -0.00061   0.11005   0.15286
  35        3S          0.02943   0.00022   0.03831   0.05581   0.02322
  36 6   H  1S         -0.00187  -0.00140  -0.01236  -0.02613  -0.02010
  37        2S         -0.00643  -0.00053  -0.02629  -0.04897  -0.03213
  38        3S         -0.00660   0.00024  -0.02041  -0.03236  -0.01604
                          36        37        38
  36 6   H  1S          0.07941
  37        2S          0.10950   0.15340
  38        3S          0.03852   0.05651   0.02365
    Full Mulliken population analysis:
                           1         2         3         4         5
   1 1   C  1S          0.65939
   2        2S          0.49326   0.49202
   3        2PX         0.00000   0.00000   0.08482
   4        2PY         0.00000   0.00000   0.00000   0.08779
   5        2PZ         0.00000   0.00000   0.00000   0.00000   0.06442
   6        3S         -0.02927  -0.06442   0.00000   0.00000   0.00000
   7        3PX         0.00000   0.00000   0.08247   0.00000   0.00000
   8        3PY         0.00000   0.00000   0.00000   0.08261   0.00000
   9        3PZ         0.00000   0.00000   0.00000   0.00000   0.06523
  10        4S         -0.01218  -0.02134   0.00000   0.00000   0.00000
  11        4PX         0.00000   0.00000   0.01541   0.00000   0.00000
  12        4PY         0.00000   0.00000   0.00000   0.01440   0.00000
  13        4PZ         0.00000   0.00000   0.00000   0.00000   0.02111
  14 2   H  1S         -0.00024  -0.00034   0.00185   0.00565   0.00001
  15        2S         -0.00168  -0.00323   0.00434   0.01317   0.00001
  16        3S          0.00004  -0.00007   0.00069   0.00189   0.00000
  17 3   H  1S         -0.00027  -0.00039   0.00816  -0.00000   0.00001
  18        2S         -0.00177  -0.00339   0.01785  -0.00000   0.00001
  19        3S          0.00005  -0.00006   0.00253   0.00000   0.00000
  20 4   C  1S          0.00000   0.00000  -0.00002  -0.00006   0.00000
  21        2S          0.00000  -0.00000  -0.00002  -0.00005   0.00000
  22        2PX        -0.00002  -0.00002   0.00011   0.00085   0.00000
  23        2PY        -0.00006  -0.00005   0.00086   0.00196   0.00000
  24        2PZ        -0.00000  -0.00000  -0.00000  -0.00000   0.00041
  25        3S         -0.00059  -0.00099   0.00257   0.00766  -0.00000
  26        3PX        -0.00053  -0.00098   0.00019   0.00553   0.00000
  27        3PY        -0.00161  -0.00296   0.00556   0.01070   0.00000
  28        3PZ        -0.00000  -0.00000  -0.00000  -0.00000   0.00609
  29        4S          0.00034   0.00031   0.00097   0.00292  -0.00000
  30        4PX        -0.00018  -0.00045  -0.00071   0.00146   0.00000
  31        4PY        -0.00052  -0.00133   0.00147   0.00098   0.00000
  32        4PZ        -0.00000  -0.00000  -0.00000  -0.00000   0.00902
  33 5   H  1S          0.00000   0.00000  -0.00000  -0.00000   0.00000
  34        2S          0.00001   0.00002   0.00000  -0.00031   0.00000
  35        3S          0.00007   0.00013   0.00001  -0.00070  -0.00000
  36 6   H  1S          0.00000   0.00000  -0.00000  -0.00000   0.00000
  37        2S          0.00001   0.00002  -0.00023  -0.00006   0.00000
  38        3S          0.00007   0.00012  -0.00056  -0.00011  -0.00000
                           6         7         8         9        10
   6        3S          0.45253
   7        3PX         0.00000   0.20290
   8        3PY         0.00000   0.00000   0.19690
   9        3PZ         0.00000   0.00000   0.00000   0.16690
  10        4S          0.21105   0.00000   0.00000   0.00000   0.18110
  11        4PX         0.00000   0.07098   0.00000   0.00000   0.00000
  12        4PY         0.00000   0.00000   0.06433   0.00000   0.00000
  13        4PZ         0.00000   0.00000   0.00000   0.10084   0.00000
  14 2   H  1S          0.01625   0.01096   0.03238   0.00004   0.01845
  15        2S          0.04152   0.01967   0.05738   0.00004   0.04742
  16        3S          0.00282   0.00393   0.01015   0.00000   0.00861
  17 3   H  1S          0.01745   0.04494  -0.00000   0.00005   0.01863
  18        2S          0.04315   0.07732  -0.00000   0.00004   0.04669
  19        3S          0.00289   0.01369   0.00001   0.00000   0.00765
  20 4   C  1S         -0.00059  -0.00058  -0.00173   0.00000   0.00033
  21        2S         -0.00100  -0.00107  -0.00318   0.00000   0.00030
  22        2PX         0.00239   0.00019   0.00549   0.00000   0.00077
  23        2PY         0.00725   0.00554   0.01063   0.00000   0.00237
  24        2PZ         0.00000  -0.00000  -0.00000   0.00613   0.00000
  25        3S          0.02171   0.01357   0.04053  -0.00000   0.00025
  26        3PX         0.01237  -0.00126   0.01844   0.00000   0.00389
  27        3PY         0.03754   0.01859   0.02855   0.00000   0.01189
  28        3PZ         0.00000  -0.00000  -0.00000   0.03525   0.00000
  29        4S          0.00067   0.00499   0.01508  -0.00000  -0.02043
  30        4PX         0.00629  -0.00397   0.00585   0.00000   0.00191
  31        4PY         0.01872   0.00590   0.00127   0.00000   0.00541
  32        4PZ         0.00001  -0.00000  -0.00000   0.04932   0.00001
  33 5   H  1S         -0.00005  -0.00000  -0.00019   0.00000  -0.00078
  34        2S         -0.00119   0.00006  -0.00320  -0.00000  -0.00318
  35        3S         -0.00196   0.00011  -0.00425  -0.00000  -0.00120
  36 6   H  1S         -0.00005  -0.00012  -0.00005   0.00000  -0.00075
  37        2S         -0.00111  -0.00248  -0.00050  -0.00000  -0.00314
  38        3S         -0.00185  -0.00351  -0.00054  -0.00000  -0.00130
                          11        12        13        14        15
  11        4PX         0.05923
  12        4PY         0.00000   0.05077
  13        4PZ         0.00000   0.00000   0.14273
  14 2   H  1S          0.00636   0.01737   0.00002   0.08144
  15        2S          0.01528   0.04041   0.00001   0.07727   0.14897
  16        3S          0.00515   0.01168  -0.00001   0.01361   0.04089
  17 3   H  1S          0.02353   0.00000   0.00002  -0.00001  -0.00064
  18        2S          0.05434   0.00002   0.00001  -0.00064  -0.00522
  19        3S          0.01613   0.00001  -0.00001  -0.00196  -0.00771
  20 4   C  1S         -0.00019  -0.00058   0.00000   0.00000   0.00002
  21        2S         -0.00047  -0.00145   0.00000   0.00000   0.00003
  22        2PX        -0.00073   0.00137   0.00000  -0.00000   0.00000
  23        2PY         0.00138   0.00095   0.00000  -0.00000  -0.00037
  24        2PZ        -0.00000  -0.00000   0.00900   0.00000   0.00000
  25        3S          0.00656   0.02022  -0.00001  -0.00007  -0.00152
  26        3PX        -0.00428   0.00554   0.00000  -0.00000   0.00004
  27        3PY         0.00560   0.00125   0.00000  -0.00023  -0.00360
  28        3PZ        -0.00000  -0.00000   0.04888   0.00000   0.00000
  29        4S          0.00249   0.00825  -0.00001  -0.00107  -0.00449
  30        4PX        -0.00723   0.00313   0.00000   0.00001   0.00017
  31        4PY         0.00315  -0.00563   0.00000  -0.00246  -0.01040
  32        4PZ        -0.00000  -0.00000   0.08966   0.00000  -0.00000
  33 5   H  1S          0.00003  -0.00232   0.00000   0.00000   0.00000
  34        2S          0.00028  -0.00983  -0.00000   0.00000   0.00016
  35        3S          0.00029  -0.00731  -0.00000   0.00023   0.00147
  36 6   H  1S         -0.00176  -0.00047   0.00000  -0.00000  -0.00004
  37        2S         -0.00830  -0.00101  -0.00000  -0.00004  -0.00090
  38        3S         -0.00658  -0.00028  -0.00000  -0.00046  -0.00245
                          16        17        18        19        20
  16        3S          0.02066
  17 3   H  1S         -0.00200   0.08307
  18        2S         -0.00777   0.07763   0.14747
  19        3S         -0.00643   0.01338   0.03966   0.01972
  20 4   C  1S          0.00009   0.00000   0.00002   0.00010   0.65949
  21        2S          0.00016   0.00000   0.00003   0.00017   0.49331
  22        2PX         0.00001  -0.00000  -0.00029  -0.00059   0.00000
  23        2PY        -0.00074  -0.00000  -0.00008  -0.00014   0.00000
  24        2PZ        -0.00000   0.00000   0.00000  -0.00000   0.00000
  25        3S         -0.00249  -0.00008  -0.00158  -0.00253  -0.02939
  26        3PX         0.00006  -0.00017  -0.00296  -0.00366   0.00000
  27        3PY        -0.00447  -0.00007  -0.00068  -0.00069   0.00000
  28        3PZ        -0.00000   0.00000   0.00000  -0.00000   0.00000
  29        4S         -0.00229  -0.00108  -0.00444  -0.00215  -0.01236
  30        4PX         0.00017  -0.00188  -0.00876  -0.00673   0.00000
  31        4PY        -0.00761  -0.00058  -0.00139  -0.00053   0.00000
  32        4PZ        -0.00000   0.00000  -0.00000  -0.00000   0.00000
  33 5   H  1S          0.00023  -0.00000  -0.00004  -0.00043  -0.00021
  34        2S          0.00144  -0.00005  -0.00093  -0.00236  -0.00157
  35        3S          0.00247  -0.00047  -0.00247  -0.00286   0.00005
  36 6   H  1S         -0.00042   0.00000   0.00000   0.00022  -0.00019
  37        2S         -0.00235   0.00000   0.00015   0.00140  -0.00153
  38        3S         -0.00290   0.00023   0.00146   0.00242   0.00004
                          21        22        23        24        25
  21        2S          0.49205
  22        2PX         0.00000   0.08222
  23        2PY         0.00000   0.00000   0.08752
  24        2PZ         0.00000   0.00000   0.00000   0.06422
  25        3S         -0.06461   0.00000   0.00000   0.00000   0.45382
  26        3PX         0.00000   0.08056   0.00000   0.00000   0.00000
  27        3PY         0.00000   0.00000   0.08257   0.00000   0.00000
  28        3PZ         0.00000   0.00000   0.00000   0.06461   0.00000
  29        4S         -0.02175   0.00000   0.00000   0.00000   0.21685
  30        4PX         0.00000   0.01622   0.00000   0.00000   0.00000
  31        4PY         0.00000   0.00000   0.01484   0.00000   0.00000
  32        4PZ         0.00000   0.00000   0.00000   0.02110   0.00000
  33 5   H  1S         -0.00030   0.00146   0.00559   0.00001   0.01518
  34        2S         -0.00300   0.00381   0.01362   0.00001   0.03903
  35        3S         -0.00006   0.00068   0.00201   0.00000   0.00257
  36 6   H  1S         -0.00027   0.00660   0.00002   0.00001   0.01449
  37        2S         -0.00292   0.01709   0.00001   0.00001   0.03830
  38        3S         -0.00007   0.00272  -0.00002   0.00000   0.00267
                          26        27        28        29        30
  26        3PX         0.19978
  27        3PY         0.00000   0.19740
  28        3PZ         0.00000   0.00000   0.16422
  29        4S          0.00000   0.00000   0.00000   0.18848
  30        4PX         0.07539   0.00000   0.00000   0.00000   0.06771
  31        4PY         0.00000   0.06658   0.00000   0.00000   0.00000
  32        4PZ         0.00000   0.00000   0.10012   0.00000   0.00000
  33 5   H  1S          0.00885   0.03322   0.00004   0.01746   0.00578
  34        2S          0.01732   0.06003   0.00004   0.04402   0.01481
  35        3S          0.00387   0.01083   0.00000   0.00686   0.00545
  36 6   H  1S          0.04078   0.00011   0.00004   0.01741   0.02461
  37        2S          0.07677   0.00000   0.00004   0.04483   0.05980
  38        3S          0.01497  -0.00011   0.00000   0.00770   0.01911
                          31        32        33        34        35
  31        4PY         0.05417
  32        4PZ         0.00000   0.14299
  33 5   H  1S          0.01872   0.00002   0.08054
  34        2S          0.04405   0.00002   0.07774   0.15286
  35        3S          0.01307  -0.00000   0.01432   0.04403   0.02322
  36 6   H  1S         -0.00005   0.00002  -0.00001  -0.00080  -0.00236
  37        2S         -0.00029   0.00001  -0.00080  -0.00672  -0.00978
  38        3S         -0.00024  -0.00000  -0.00240  -0.00985  -0.00857
                          36        37        38
  36 6   H  1S          0.07941
  37        2S          0.07735   0.15340
  38        3S          0.01439   0.04459   0.02365
     Gross orbital populations:
                           1
   1 1   C  1S          1.10434
   2        2S          0.88586
   3        2PX         0.22833
   4        2PY         0.23626
   5        2PZ         0.16633
   6        3S          0.79313
   7        3PX         0.56284
   8        3PY         0.55598
   9        3PZ         0.42385
  10        4S          0.50242
  11        4PX         0.25664
  12        4PY         0.21082
  13        4PZ         0.41227
  14 2   H  1S          0.27440
  15        2S          0.46603
  16        3S          0.08522
  17 3   H  1S          0.27940
  18        2S          0.46344
  19        3S          0.08120
  20 4   C  1S          1.10442
  21        2S          0.88584
  22        2PX         0.22091
  23        2PY         0.23567
  24        2PZ         0.16551
  25        3S          0.79212
  26        3PX         0.55051
  27        3PY         0.55602
  28        3PZ         0.41932
  29        4S          0.50955
  30        4PX         0.27798
  31        4PY         0.21730
  32        4PZ         0.41226
  33 5   H  1S          0.27165
  34        2S          0.47037
  35        3S          0.08973
  36 6   H  1S          0.26812
  37        2S          0.47164
  38        3S          0.09233
          Condensed to atoms (all electrons):
               1          2          3          4          5          6
     1  C    5.030461   0.388014   0.389293   0.601272  -0.035454  -0.034544
     2  H    0.388014   0.514613  -0.032369  -0.041038   0.006000  -0.009567
     3  H    0.389293  -0.032369   0.511587  -0.040758  -0.009609   0.005896
     4  C    0.601272  -0.041038  -0.040758   5.062126   0.383328   0.382491
     5  H   -0.035454   0.006000  -0.009609   0.383328   0.528787  -0.041301
     6  H   -0.034544  -0.009567   0.005896   0.382491  -0.041301   0.529117
 Mulliken charges:
               1
     1  C   -0.339042
     2  H    0.174347
     3  H    0.175959
     4  C   -0.347420
     5  H    0.168248
     6  H    0.167907
 Sum of Mulliken charges =  -0.00000
 Mulliken charges with hydrogens summed into heavy atoms:
               1
     1  C    0.011265
     4  C   -0.011265
 Electronic spatial extent (au):  <R**2>=             83.7339
 Charge=             -0.0000 electrons
 Dipole moment (field-independent basis, Debye):
    X=             -0.0014    Y=              0.0239    Z=             -0.1424  Tot=              0.1444
 Quadrupole moment (field-independent basis, Debye-Ang):
   XX=            -12.2088   YY=            -12.2292   ZZ=            -15.6695
   XY=              0.0079   XZ=             -0.0008   YZ=             -0.0038
 Traceless Quadrupole moment (field-independent basis, Debye-Ang):
   XX=              1.1603   YY=              1.1400   ZZ=             -2.3003
   XY=              0.0079   XZ=             -0.0008   YZ=             -0.0038
 Octapole moment (field-independent basis, Debye-Ang**2):
  XXX=             -0.3985  YYY=             -0.0977  ZZZ=             -0.0549  XYY=              0.2241
  XXY=             -0.0208  XXZ=             -0.1822  XZZ=             -0.1137  YZZ=             -0.1091
  YYZ=             -0.2430  XYZ=             -0.0524
 Hexadecapole moment (field-independent basis, Debye-Ang**3):
 XXXX=            -34.3182 YYYY=            -55.2675 ZZZZ=            -17.8273 XXXY=             -7.2540
 XXXZ=              0.0311 YYYX=            -10.7071 YYYZ=              0.0442 ZZZX=              0.0412
 ZZZY=              0.0692 XXYY=            -16.1991 XXZZ=             -9.9275 YYZZ=            -13.6485
 XXYZ=              0.0136 YYXZ=              0.0009 ZZXY=             -3.2033
 N-N= 3.306476374153D+01 E-N=-2.478373748302D+02  KE= 7.815110737863D+01
 Orbital energies and kinetic energies (alpha):
                                 1                 2
   1         O               -10.291198         15.979314
   2         O               -10.287428         15.979092
   3         O                -0.863982          1.538225
   4         O                -0.672032          1.271133
   5         O                -0.559815          0.943005
   6         O                -0.509076          1.283760
   7         O                -0.436134          1.042265
   8         O                -0.356879          1.038759
   9         V                 0.079476          1.182377
  10         V                 0.140754          0.590597
  11         V                 0.164570          0.595281
  12         V                 0.170153          0.679624
  13         V                 0.240674          0.583934
  14         V                 0.372029          0.849457
  15         V                 0.393344          0.933299
  16         V                 0.400297          0.786661
  17         V                 0.463497          1.199103
  18         V                 0.489251          1.412229
  19         V                 0.493789          1.302659
  20         V                 0.590999          1.652867
  21         V                 0.665239          1.573826
  22         V                 0.691494          2.144301
  23         V                 0.771710          2.400814
  24         V                 0.776342          2.340575
  25         V                 0.838770          1.080872
  26         V                 0.951733          3.423194
  27         V                 2.231075          3.926620
  28         V                 2.290921          4.026439
  29         V                 2.333133          4.304606
  30         V                 2.405471          4.514426
  31         V                 2.671189          6.300672
  32         V                 2.816798          6.302709
  33         V                 2.878217          6.142817
  34         V                 2.951029          6.226460
  35         V                 3.140290          6.820283
  36         V                 3.317741          6.402619
  37         V                23.352119         60.074579
  38         V                23.705818         60.203705
 Total kinetic energy from orbitals= 7.815110737863D+01
 Calling FoFJK, ICntrl=      2127 FMM=F ISym2X=0 I1Cent= 0 IOpClX= 0 NMat=1 NMatS=1 NMatT=0.
 -------------------------------------------------------------------
 Center     Atomic                   Forces (Hartrees/Bohr)
 Number     Number              X              Y              Z
 -------------------------------------------------------------------
      1        6           0.017920820    0.011629830   -0.005650036
      2        1          -0.009612921    0.004110096    0.002861758
      3        1          -0.001811514   -0.006030144    0.002499319
      4        6           0.012144111    0.012710293   -0.006274800
      5        1           0.002043696   -0.015291091    0.003181513
      6        1          -0.020684192   -0.007128983    0.003382246
 -------------------------------------------------------------------
 Cartesian Forces:  Max     0.020684192 RMS     0.009827205

 GradGradGradGradGradGradGradGradGradGradGradGradGradGradGradGradGradGrad
 Berny optimization.
 Search for a local minimum.
 Step number   1 out of a maximum of    2
 All quantities printed in internal units (Hartrees-Bohrs-Radians)
 Second derivative matrix not updated -- first step.
 The second derivative matrix:
                          X1        Y1        Z1        X2        Y2
           X1           0.76854
           Y1           0.09299   0.85941
           Z1           0.00847   0.01282   0.17076
           X2          -0.16699   0.09795   0.00311   0.14411
           Y2           0.10373  -0.28371  -0.01104  -0.11731   0.27235
           Z2           0.00493  -0.01387  -0.05508  -0.00451   0.01138
           X3          -0.36002   0.00179  -0.01213   0.00013   0.00009
           Y3          -0.00368  -0.11138  -0.00286   0.03250   0.01915
           Z3          -0.01551  -0.00273  -0.05622   0.00228   0.00087
           X4          -0.26687  -0.17809  -0.00089   0.02278   0.01347
           Y4          -0.17880  -0.47254  -0.00147  -0.01316  -0.00779
           Z4           0.00207   0.00371  -0.09376  -0.00087  -0.00122
           X5           0.02345  -0.01355   0.00089  -0.00001   0.00001
           Y5           0.01160  -0.00670   0.00120   0.00001  -0.00000
           Z5          -0.00076   0.00049   0.01732   0.00037  -0.00019
           X6           0.00190  -0.00109   0.00055  -0.00001   0.00001
           Y6          -0.02583   0.01493   0.00134   0.00001  -0.00000
           Z6           0.00080  -0.00042   0.01698  -0.00037   0.00019
                          Z2        X3        Y3        Z3        X4
           Z2           0.02879
           X3          -0.00041   0.36008
           Y3           0.00244  -0.00199   0.07673
           Z3           0.01061   0.01318   0.00185   0.02978
           X4           0.00071  -0.00015  -0.02685  -0.00068   0.70286
           Y4          -0.00037   0.00009   0.01551   0.00043   0.12439
           Z4           0.01564  -0.00064  -0.00142   0.01586  -0.00742
           X5          -0.00035  -0.00001   0.00001   0.00036  -0.14425
           Y5           0.00023   0.00001  -0.00001  -0.00023   0.09102
           Z5           0.00921   0.00037  -0.00024  -0.00937  -0.00440
           X6          -0.00037  -0.00001   0.00001   0.00037  -0.31437
           Y6           0.00019   0.00001  -0.00000  -0.00019  -0.02394
           Z6          -0.00917  -0.00037   0.00024   0.00933   0.01269
                          Y4        Z4        X5        Y5        Z5
           Y4           0.85489
           Z4          -0.01433   0.17596
           X5           0.08279  -0.00291   0.12322
           Y5          -0.28657   0.01049  -0.10147   0.27738
           Z5           0.01298  -0.05705   0.00390  -0.01120   0.02979
           X6          -0.01529   0.00978  -0.00240  -0.00117   0.00052
           Y6          -0.10350   0.00277   0.03221   0.01589  -0.00184
           Z6           0.00275  -0.05665  -0.00188  -0.00049   0.01011
                          X6        Y6        Z6
           X6           0.31490
           Y6           0.01754   0.07269
           Z6          -0.01086  -0.00228   0.02941
 ITU=  0
     Eigenvalues ---    0.03716   0.04375   0.09031   0.10194   0.13492
     Eigenvalues ---    0.17419   0.26247   0.29079   0.52822   0.69694
     Eigenvalues ---    0.97873   1.56003
 Angle between quadratic step and forces=  38.42 degrees.
 Linear search not attempted -- first point.
 B after Tr=     0.007924    0.009762   -0.014705
         Rot=    1.000000   -0.000085    0.000045   -0.000128 Ang=  -0.02 deg.
 Variable       Old X    -DE/DX   Delta X   Delta X   Delta X     New X
                                 (Linear)    (Quad)   (Total)
    X1       -0.63678   0.01792   0.00000   0.02368   0.03188  -0.60489
    Y1       -1.10158   0.01163   0.00000   0.02770   0.03731  -1.06427
    Z1        0.01743  -0.00565   0.00000  -0.03157  -0.04651  -0.02908
    X2        0.41747  -0.00961   0.00000  -0.03555  -0.02689   0.39058
    Y2       -2.88040   0.00411   0.00000   0.01846   0.02833  -2.85207
    Z2       -0.06232   0.00286   0.00000   0.03867   0.02351  -0.03881
    X3       -2.67497  -0.00181   0.00000   0.01590   0.02412  -2.65085
    Y3       -1.08780  -0.00603   0.00000  -0.02962  -0.02053  -1.10833
    Z3       -0.06367   0.00250   0.00000   0.03765   0.02251  -0.04116
    X4        0.62843   0.01214   0.00000   0.00910   0.01674   0.64517
    Y4        1.08840   0.01271   0.00000   0.01275   0.02267   1.11108
    Z4        0.01149  -0.00627   0.00000  -0.02928  -0.04374  -0.03225
    X5       -0.30101   0.00204   0.00000  -0.00901  -0.00183  -0.30284
    Y5        2.96268  -0.01529   0.00000  -0.04343  -0.03375   2.92893
    Z5       -0.07101   0.00318   0.00000   0.03684   0.02260  -0.04841
    X6        2.73611  -0.02068   0.00000  -0.05164  -0.04402   2.69209
    Y6        1.24073  -0.00713   0.00000  -0.04449  -0.03403   1.20669
    Z6       -0.06943   0.00338   0.00000   0.03588   0.02162  -0.04781
         Item               Value     Threshold  Converged?
 Maximum Force            0.020684     0.000450     NO 
 RMS     Force            0.009827     0.000300     NO 
 Maximum Displacement     0.046508     0.001800     NO 
 RMS     Displacement     0.029892     0.001200     NO 
 Predicted change in Energy=-2.211347D-03
 GradGradGradGradGradGradGradGradGradGradGradGradGradGradGradGradGradGrad

 Unable to Open any file for archive entry.
 1\1\GINC-BHD0005\Force\RwB97XD\6-311G\C2H4\BWEIGHT\11-Jan-2023\0\\# WB
 97XD/6-311G SCF=XQC FORCE nosym pop=full guess=read\\MD Step 1000\\0,1
 \C,-0.33696687,-0.58293322,0.00922149\H,0.22091478,-1.52424119,-0.0329
 7676\H,-1.41553308,-0.57563874,-0.03369444\C,0.33255,0.57595749,0.0060
 8074\H,-0.15928802,1.56778171,-0.0375778\H,1.4478862,0.6565643,-0.0367
 4151\\Version=ES64L-G16RevC.01\HF=-78.5549105\RMSD=7.801e-09\RMSF=9.82
 7e-03\Dipole=-0.0005372,0.0094164,-0.0560207\Quadrupole=0.862669,0.847
 5553,-1.7102243,0.0058665,-0.000585,-0.0028363\PG=C01 [X(C2H4)]\\@
 The archive entry for this job was punched.


 THERE ARE PEOPLE SO ADDICTED TO EXAGERATING THEY
 CAN'T TELL THE TRUTH WITHOUT LYING. -- FORTUNE COOKIE
 Job cpu time:       0 days  0 hours  0 minutes 25.7 seconds.
 Elapsed time:       0 days  0 hours  0 minutes  9.6 seconds.
 File lengths (MBytes):  RWF=    272 Int=      0 D2E=      0 Chk=     32 Scr=     32
 Normal termination of Gaussian 16 at Wed Jan 11 18:46:37 2023.
