2
MD Step 0
Li  0.00000000 0.00000000 0.00000000
H  0.00000000 0.00000000 3.00000000
2
MD Step 1
Li  0.00152097 0.00152095 0.00234947
H  0.00399319 0.00399351 2.99828340
2
MD Step 2
Li  0.00304330 0.00304327 0.00635818
H  0.00797695 0.00797758 2.98513004
2
MD Step 3
Li  0.00456840 0.00456836 0.01203578
H  0.01194165 0.01194260 2.96047342
2
MD Step 4
Li  0.00609772 0.00609766 0.01939808
H  0.01587729 0.01587857 2.92420459
2
MD Step 5
Li  0.00763277 0.00763270 0.02846478
H  0.01977337 0.01977496 2.87618779
2
MD Step 6
Li  0.00917518 0.00917510 0.03925578
H  0.02361874 0.02362064 2.81628577
2
MD Step 7
Li  0.01072664 0.01072655 0.05178590
H  0.02740174 0.02740395 2.74439646
2
MD Step 8
Li  0.01228889 0.01228879 0.06605726
H  0.03111039 0.03111288 2.66050526
2
MD Step 9
Li  0.01386361 0.01386350 0.08204801
H  0.03473310 0.03473588 2.56476269
2
MD Step 10
Li  0.01545226 0.01545214 0.09969787
H  0.03825977 0.03826281 2.45758424
2
MD Step 11
Li  0.01705578 0.01705566 0.11888728
H  0.04168389 0.04168719 2.33979415
2
MD Step 12
Li  0.01867408 0.01867396 0.13940825
H  0.04500619 0.04500973 2.21282586
2
MD Step 13
Li  0.02030499 0.02030486 0.16091992
H  0.04824161 0.04824538 2.07902899
2
MD Step 14
Li  0.02194253 0.02194241 0.18288855
H  0.05143123 0.05143521 1.94208237
2
MD Step 15
Li  0.02357437 0.02357425 0.20452327
H  0.05466021 0.05466442 1.80743733
2
MD Step 16
Li  0.02517645 0.02517632 0.22469297
H  0.05809435 0.05809882 1.68289025
2
MD Step 17
Li  0.02668943 0.02668926 0.24183519
H  0.06214255 0.06214754 1.57921093
2
MD Step 18
Li  0.02810065 0.02810040 0.25403594
H  0.06689221 0.06689799 1.50959190
2
MD Step 19
Li  0.02925102 0.02925046 0.25967993
H  0.07343981 0.07344798 1.48516690
2
MD Step 20
Li  0.03013909 0.03013816 0.25794753
H  0.08179539 0.08180632 1.51158561
2
MD Step 21
Li  0.03069956 0.03069772 0.24958246
H  0.09240905 0.09242643 1.58372166
2
MD Step 22
Li  0.03105874 0.03105587 0.23636073
H  0.10441012 0.10443490 1.68933343
2
MD Step 23
Li  0.03125227 0.03124679 0.22008630
H  0.11755303 0.11759598 1.81598665
2
MD Step 24
Li  0.03136531 0.03135718 0.20230774
H  0.13125072 0.13131217 1.95300757
2
MD Step 25
Li  0.03145825 0.03144745 0.18417571
H  0.14508693 0.14516697 2.09246480
2
MD Step 26
Li  0.03157746 0.03156402 0.16648484
H  0.15874209 0.15884058 2.22888123
2
MD Step 27
Li  0.03175692 0.03174088 0.14977118
H  0.17198196 0.17209853 2.35856200
2
MD Step 28
Li  0.03202016 0.03200162 0.13437734
H  0.18464429 0.18477840 2.47914560
2
MD Step 29
Li  0.03238293 0.03236198 0.12051255
H  0.19662065 0.19677161 2.58918979
2
MD Step 30
Li  0.03285545 0.03283219 0.10829731
H  0.20784056 0.20800757 2.68786412
2
MD Step 31
Li  0.03344396 0.03341854 0.09779250
H  0.21826089 0.21844309 2.77474883
2
MD Step 32
Li  0.03415210 0.03412464 0.08902059
H  0.22785673 0.22805320 2.84968908
2
MD Step 33
Li  0.03498173 0.03495237 0.08197979
H  0.23661514 0.23682491 2.91269724
2
MD Step 34
Li  0.03593366 0.03590255 0.07665538
H  0.24453056 0.24475263 2.96387475
2
MD Step 35
Li  0.03700817 0.03697546 0.07302749
H  0.25160104 0.25183438 3.00335860
2
MD Step 36
Li  0.03820550 0.03817133 0.07107645
H  0.25782499 0.25806857 3.03128428
2
MD Step 37
Li  0.03952607 0.03949061 0.07078641
H  0.26319945 0.26345219 3.04776114
2
MD Step 38
Li  0.04097071 0.04093411 0.07214754
H  0.26771872 0.26797951 3.05285690
2
MD Step 39
Li  0.04254077 0.04250321 0.07515722
H  0.27137350 0.27164122 3.04658964
2
MD Step 40
Li  0.04423818 0.04419981 0.07982027
H  0.27415056 0.27442404 3.02892607
2
MD Step 41
Li  0.04606540 0.04602640 0.08614841
H  0.27603279 0.27631081 2.99978545
2
MD Step 42
Li  0.04802541 0.04798596 0.09415871
H  0.27699980 0.27728111 2.95905017
2
MD Step 43
Li  0.05012143 0.05008174 0.10387084
H  0.27702923 0.27731251 2.90658455
2
MD Step 44
Li  0.05235675 0.05231699 0.11530300
H  0.27609862 0.27638251 2.84226320
2
MD Step 45
Li  0.05473405 0.05469445 0.12846576
H  0.27418925 0.27447234 2.76601321
2
MD Step 46
Li  0.05725482 0.05721558 0.14335301
H  0.27129105 0.27157188 2.67787685
2
MD Step 47
Li  0.05991826 0.05987959 0.15992963
H  0.26740947 0.26768656 2.57809597
2
MD Step 48
Li  0.06271981 0.06268192 0.17811572
H  0.26257595 0.26284787 2.46722146
2
MD Step 49
Li  0.06564887 0.06561197 0.19776249
H  0.25686345 0.25712882 2.34627891
2
MD Step 50
Li  0.06868556 0.06864980 0.21861863
H  0.25040918 0.25066687 2.21700037
2
MD Step 51
Li  0.07179548 0.07176099 0.24028029
H  0.24345011 0.24369930 2.08216968
2
MD Step 52
Li  0.07492284 0.07488964 0.26212862
H  0.23637082 0.23661136 1.94605224
2
MD Step 53
Li  0.07798118 0.07794914 0.28326257
H  0.22976729 0.22999999 1.81485891
2
MD Step 54
Li  0.08083595 0.08080455 0.30241014
H  0.22456690 0.22479548 1.69735712
2
MD Step 55
Li  0.08329426 0.08326225 0.31787396
H  0.22209921 0.22233219 1.60524655
2
MD Step 56
Li  0.08516574 0.08513091 0.32776821
H  0.22367638 0.22392907 1.55152566
2
MD Step 57
Li  0.08630627 0.08626686 0.33081909
H  0.23029180 0.23057629 1.54497435
2
MD Step 58
Li  0.08664276 0.08659793 0.32684896
H  0.24244931 0.24277137 1.58681715
2
MD Step 59
Li  0.08628404 0.08623071 0.31681314
H  0.25939874 0.25977954 1.67046926
2
MD Step 60
Li  0.08537448 0.08531063 0.30258679
H  0.28014488 0.28059850 1.78300560
2
MD Step 61
Li  0.08415005 0.08407466 0.28592849
H  0.30306145 0.30359476 1.91230484
2
MD Step 62
Li  0.08278762 0.08270030 0.26824550
H  0.32692914 0.32754497 2.04866696
2
MD Step 63
Li  0.08142083 0.08132156 0.25053089
H  0.35082692 0.35152536 2.18524703
2
MD Step 64
Li  0.08014479 0.08003383 0.23346796
H  0.37409918 0.37487839 2.31733519
2
MD Step 65
Li  0.07902441 0.07890224 0.21750857
H  0.39629853 0.39715524 2.44181701
2
MD Step 66
Li  0.07810190 0.07796913 0.20293634
H  0.41713399 0.41806400 2.55673744
2
MD Step 67
Li  0.07740365 0.07726098 0.18992099
H  0.43642370 0.43742217 2.66092665
2
MD Step 68
Li  0.07694524 0.07679343 0.17855641
H  0.45406023 0.45512190 2.75373756
2
MD Step 69
Li  0.07673501 0.07657486 0.16888634
H  0.46998615 0.47110552 2.83486862
2
MD Step 70
Li  0.07677642 0.07660875 0.16092213
H  0.48417753 0.48534897 2.90424167
2
MD Step 71
Li  0.07706996 0.07689559 0.15465570
H  0.49663108 0.49784888 2.96191229
2
MD Step 72
Li  0.07761459 0.07743437 0.15006955
H  0.50735387 0.50861229 3.00800112
2
MD Step 73
Li  0.07840878 0.07822354 0.14714324
H  0.51635654 0.51764982 3.04264915
2
MD Step 74
Li  0.07945116 0.07926172 0.14585794
H  0.52364856 0.52497094 3.06598608
2
MD Step 75
Li  0.08074097 0.08054818 0.14619948
H  0.52923503 0.53058072 3.07810963
2
MD Step 76
Li  0.08227845 0.08208317 0.14816028
H  0.53311436 0.53447750 3.07907198
2
MD Step 77
Li  0.08406495 0.08386803 0.15174010
H  0.53527731 0.53665197 3.06887485
2
MD Step 78
Li  0.08610294 0.08590525 0.15694597
H  0.53570683 0.53708699 3.04746975
2
MD Step 79
Li  0.08839593 0.08819837 0.16379147
H  0.53437862 0.53575813 3.01476316
2
MD Step 80
Li  0.09094821 0.09075169 0.17229465
H  0.53126322 0.53263574 2.97063053
2
MD Step 81
Li  0.09376437 0.09356984 0.18247500
H  0.52632898 0.52768804 2.91493758
2
MD Step 82
Li  0.09684861 0.09665703 0.19434876
H  0.51954688 0.52088585 2.84757241
2
MD Step 83
Li  0.10020370 0.10001604 0.20792240
H  0.51089795 0.51221007 2.76849037
2
MD Step 84
Li  0.10382929 0.10364655 0.22318254
H  0.50038447 0.50166293 2.67778367
2
MD Step 85
Li  0.10771984 0.10754299 0.24008285
H  0.48804473 0.48928280 2.57577177
2
MD Step 86
Li  0.11186162 0.11169160 0.25852613
H  0.47397331 0.47516456 2.46312453
2
MD Step 87
Li  0.11622833 0.11606598 0.27833868
H  0.45835151 0.45949010 2.34103922
2
MD Step 88
Li  0.12077429 0.12062030 0.29923196
H  0.44149415 0.44257537 2.21150472
2
MD Step 89
Li  0.12542476 0.12527952 0.32074852
H  0.42391643 0.42493758 2.07767414
2
MD Step 90
Li  0.13006414 0.12992760 0.34220017
H  0.40641517 0.40737654 1.94429097
2
MD Step 91
Li  0.13451973 0.13439116 0.36259528
H  0.39018073 0.39108738 1.81819018
2
MD Step 92
Li  0.13853314 0.13840433 0.38053431
H  0.37699417 0.37790265 1.70901861
2
MD Step 93
Li  0.14182508 0.14169336 0.39430876
H  0.36878045 0.36970925 1.62855247
2
MD Step 94
Li  0.14403615 0.14388939 0.40209639
H  0.36801696 0.36904967 1.58935192
2
MD Step 95
Li  0.14488176 0.14471123 0.40276103
H  0.37666522 0.37786197 1.59924846
2
MD Step 96
Li  0.14442971 0.14422673 0.39663280
H  0.39425790 0.39567856 1.65596649
2
MD Step 97
Li  0.14289654 0.14265238 0.38523085
H  0.41930247 0.42100723 1.74903496
2
MD Step 98
Li  0.14066117 0.14036974 0.37035984
H  0.44918713 0.45121792 1.86601480
2
MD Step 99
Li  0.13805696 0.13771576 0.35369799
H  0.48161416 0.48398825 1.99533850
2
MD Step 100
Li  0.13532646 0.13493458 0.33643355
H  0.51491167 0.51763523 2.12881565
2
MD Step 101
Li  0.13264724 0.13220512 0.31941132
H  0.54785567 0.55092579 2.26062328
2
MD Step 102
Li  0.13014338 0.12965251 0.30320900
H  0.57959099 0.58299738 2.38677955
2
MD Step 103
Li  0.12789699 0.12735960 0.28820026
H  0.60955163 0.61327890 2.50470875
2
MD Step 104
Li  0.12596003 0.12537885 0.27461551
H  0.63737946 0.64140872 2.61282273
2
MD Step 105
Li  0.12436400 0.12374212 0.26258942
H  0.66285730 0.66716740 2.71019320
2
MD Step 106
Li  0.12312642 0.12246711 0.25219261
H  0.68586450 0.69043278 2.79633350
2
MD Step 107
Li  0.12225563 0.12156231 0.24345425
H  0.70634345 0.71114640 2.87104256
2
MD Step 108
Li  0.12175398 0.12103011 0.23637655
H  0.72427802 0.72929179 2.93430507
2
MD Step 109
Li  0.12162038 0.12086945 0.23094670
H  0.73967576 0.74487620 2.98620936
2
MD Step 110
Li  0.12185210 0.12107764 0.22714544
H  0.75255541 0.75791826 3.02688816
2
MD Step 111
Li  0.12244615 0.12165170 0.22495265
H  0.76293756 0.76843848 3.05648020
2
MD Step 112
Li  0.12340013 0.12258922 0.22435104
H  0.77083887 0.77645342 3.07510463
2
MD Step 113
Li  0.12471277 0.12388898 0.22532868
H  0.77626799 0.78197160 3.08284366
2
MD Step 114
Li  0.12638432 0.12555124 0.22788041
H  0.77922322 0.78499105 3.07973293
2
MD Step 115
Li  0.12841669 0.12757798 0.23200830
H  0.77969147 0.78549834 3.06575811
2
MD Step 116
Li  0.13081337 0.12997275 0.23772136
H  0.77764858 0.78346882 3.04085705
2
MD Step 117
Li  0.13357925 0.13274053 0.24503441
H  0.77306090 0.77886825 3.00492775
2
MD Step 118
Li  0.13672010 0.13588719 0.25396578
H  0.76588864 0.77165619 2.95784371
2
MD Step 119
Li  0.14024182 0.13941870 0.26453396
H  0.75609109 0.76179140 2.89947752
2
MD Step 120
Li  0.14414932 0.14334007 0.27675272
H  0.74363451 0.74923946 2.82973439
2
MD Step 121
Li  0.14844469 0.14765345 0.29062331
H  0.72850446 0.73398544 2.74860550
2
MD Step 122
Li  0.15312457 0.15235552 0.30612331
H  0.71072400 0.71605233 2.65624554
2
MD Step 123
Li  0.15817703 0.15743423 0.32319365
H  0.69037551 0.69552309 2.55306168
2
MD Step 124
Li  0.16357654 0.16286384 0.34171822
H  0.66763484 0.67257522 2.43985409
2
MD Step 125
Li  0.16927710 0.16859786 0.36149593
H  0.64281913 0.64752906 2.31800892
2
MD Step 126
Li  0.17520149 0.17455827 0.38219836
H  0.61646067 0.62092251 2.18978993
2
MD Step 127
Li  0.18122642 0.18062041 0.40331274
H  0.58940910 0.59361479 2.05873150
2
MD Step 128
Li  0.18716593 0.18659610 0.42408186
H  0.56294643 0.56690285 1.93005278
2
MD Step 129
Li  0.19274607 0.19220813 0.44342730
H  0.53896072 0.54269760 1.81118720
2
MD Step 130
Li  0.19757428 0.19704847 0.45984161
H  0.52015790 0.52381139 1.71252512
2
MD Step 131
Li  0.20124528 0.20066499 0.47154600
H  0.50933145 0.51336072 1.64632733
2
MD Step 132
Li  0.20321787 0.20254642 0.47696943
H  0.51021169 0.51486951 1.62342268
2
MD Step 133
Li  0.20336669 0.20243690 0.47554458
H  0.52366278 0.53010150 1.64772150
2
MD Step 134
Li  0.20179461 0.20056715 0.46802203
H  0.54897556 0.55746624 1.71405022
2
MD Step 135
Li  0.19902424 0.19741304 0.45596260
H  0.58254784 0.59368379 1.81165055
2
MD Step 136
Li  0.19545742 0.19344602 0.44114855
H  0.62160992 0.63550452 1.92823778
2
MD Step 137
Li  0.19151437 0.18908961 0.42501579
H  0.66326515 0.68000924 2.05391458
2
MD Step 138
Li  0.18749117 0.18464983 0.40860583
H  0.70547290 0.72508860 2.18150201
2
MD Step 139
Li  0.18359750 0.18034525 0.39263937
H  0.74678784 0.76923608 2.30603252
2
MD Step 140
Li  0.17997664 0.17632595 0.37759976
H  0.78622240 0.81141716 2.42417449
2
MD Step 141
Li  0.17672125 0.17268948 0.36379378
H  0.82313777 0.85095945 2.53381333
2
MD Step 142
Li  0.17388876 0.16949674 0.35140739
H  0.85713828 0.88744327 2.63366738
2
MD Step 143
Li  0.17151291 0.16678386 0.34054638
H  0.88799124 0.92061955 2.72300725
2
MD Step 144
Li  0.16961146 0.16457013 0.33126291
H  0.91557431 0.95035532 2.80147357
2
MD Step 145
Li  0.16819165 0.16286377 0.32357445
H  0.93983751 0.97659386 2.86894591
2
MD Step 146
Li  0.16725414 0.16166603 0.31747699
H  0.96077635 0.99932664 2.92545185
2
MD Step 147
Li  0.16679608 0.16097442 0.31295534
H  0.97841053 1.01857079 2.97109612
2
MD Step 148
Li  0.16681314 0.16078490 0.30998991
H  0.99276978 1.03435415 3.00601378
2
MD Step 149
Li  0.16730105 0.16109344 0.30856153
H  1.00388355 1.04670456 3.03033693
2
MD Step 150
Li  0.16825663 0.16189710 0.30865479
H  1.01177383 1.05564215 3.04417180
2
MD Step 151
Li  0.16967839 0.16319478 0.31026001
H  1.01645076 1.06117467 3.04758513
2
MD Step 152
Li  0.17156693 0.16498750 0.31337421
H  1.01791042 1.06329497 3.04059738
2
MD Step 153
Li  0.17392493 0.16727857 0.31800135
H  1.01613410 1.06198019 3.02318138
2
MD Step 154
Li  0.17675713 0.17007346 0.32415171
H  1.01108931 1.05719280 2.99526614
2
MD Step 155
Li  0.18006983 0.17337932 0.33184057
H  1.00273251 1.04888339 2.95674641
2
MD Step 156
Li  0.18387022 0.17720424 0.34108564
H  0.99101421 1.03699622 2.90750017
2
MD Step 157
Li  0.18816513 0.18155597 0.35190309
H  0.97588731 1.02147790 2.84741581
2
MD Step 158
Li  0.19295930 0.18644005 0.36430217
H  0.95731913 1.00229021 2.77642974
2
MD Step 159
Li  0.19825278 0.19185712 0.37827713
H  0.93530927 0.97942875 2.69458152
2
MD Step 160
Li  0.20403740 0.19779901 0.39379563
H  0.90991418 0.95294983 2.60209403
2
MD Step 161
Li  0.21029199 0.20424368 0.41078434
H  0.88127972 0.92300539 2.49947282
2
MD Step 162
Li  0.21697520 0.21114748 0.42910729
H  0.84969084 0.88989626 2.38765496
2
MD Step 163
Li  0.22401542 0.21843421 0.44853529
H  0.81564117 0.85414770 2.26822029
2
MD Step 164
Li  0.23129526 0.22597853 0.46870045
H  0.77993986 0.81662368 2.14370454
2
MD Step 165
Li  0.23863212 0.23358438 0.48903985
H  0.74384560 0.77867550 2.01798781
2
MD Step 166
Li  0.24575634 0.24096190 0.50873770
H  0.70921690 0.74230116 1.89669313
2
MD Step 167
Li  0.25227687 0.24768726 0.52664421
H  0.67874936 0.71042194 1.78774566
2
MD Step 168
Li  0.25767259 0.25317275 0.54122852
H  0.65603487 0.68708889 1.70169736
2
MD Step 169
Li  0.26140371 0.25678749 0.55082340
H  0.64479401 0.67665047 1.65003994
2
MD Step 170
Li  0.26284088 0.25809485 0.55412629
H  0.64936477 0.68211621 1.64175161
2
MD Step 171
Li  0.26189372 0.25695751 0.55102408
H  0.67037017 0.70443268 1.67761203
2
MD Step 172
Li  0.25905089 0.25371388 0.54251546
H  0.70444190 0.74126727 1.75073755
2
MD Step 173
Li  0.25483098 0.24899122 0.53030010
H  0.74800553 0.78829640 1.84941261
2
MD Step 174
Li  0.24982759 0.24340685 0.51596137
H  0.79696946 0.84126515 1.96272361
2
MD Step 175
Li  0.24448423 0.23745755 0.50073282
H  0.84827674 0.89674922 2.08216789
2
MD Step 176
Li  0.23913513 0.23150224 0.48548969
H  0.89962358 0.95227478 2.20171270
2
MD Step 177
Li  0.23401191 0.22579357 0.47083365
H  0.94941350 1.00610030 2.31721081
2
MD Step 178
Li  0.22926969 0.22050041 0.45716078
H  0.99657725 1.05706178 2.42593216
2
MD Step 179
Li  0.22500711 0.21573019 0.44471854
H  1.04043501 1.10441875 2.52617111
2
MD Step 180
Li  0.22128425 0.21154819 0.43365409
H  1.08057260 1.14772131 2.61691329
2
MD Step 181
Li  0.21813531 0.20799149 0.42404786
H  1.11675429 1.18671377 2.69760428
2
MD Step 182
Li  0.21557718 0.20507841 0.41593655
H  1.14886367 1.22126997 2.76799119
2
MD Step 183
Li  0.21361553 0.20281481 0.40932853
H  1.17686167 1.25134947 2.82801631
2
MD Step 184
Li  0.21224905 0.20119905 0.40421501
H  1.20075734 1.27696355 2.87774026
2
MD Step 185
Li  0.21147308 0.20022602 0.40057922
H  1.22058272 1.29814749 2.91727849
2
MD Step 186
Li  0.21128196 0.19988943 0.39840215
H  1.23637687 1.31494454 2.94676219
2
MD Step 187
Li  0.21167055 0.20018354 0.39766630
H  1.24817526 1.32739441 2.96631193
2
MD Step 188
Li  0.21263532 0.20110433 0.39835838
H  1.25600216 1.33552470 2.97601925
2
MD Step 189
Li  0.21417503 0.20265029 0.40047091
H  1.25986615 1.33934579 2.97593578
2
MD Step 190
Li  0.21629105 0.20482279 0.40400289
H  1.25975781 1.33884837 2.96606842
2
MD Step 191
Li  0.21898737 0.20762603 0.40895977
H  1.25564957 1.33400337 2.94637959
2
MD Step 192
Li  0.22227035 0.21106682 0.41535268
H  1.24749761 1.32476397 2.91679255
2
MD Step 193
Li  0.22614808 0.21515379 0.42319679
H  1.23524623 1.31107052 2.87720273
2
MD Step 194
Li  0.23062929 0.21989624 0.43250858
H  1.21883524 1.29285908 2.82749656
2
MD Step 195
Li  0.23572176 0.22530237 0.44330193
H  1.19821094 1.27007304 2.76757834
2
MD Step 196
Li  0.24142998 0.23137693 0.45558238
H  1.17334239 1.24267968 2.69740997
2
MD Step 197
Li  0.24775139 0.23811703 0.46933799
H  1.14424732 1.21069890 2.61707365
2
MD Step 198
Li  0.25467169 0.24550689 0.48452842
H  1.11102424 1.17423947 2.52684744
2
MD Step 199
Li  0.26215826 0.25351091 0.50106946
H  1.07389803 1.13354682 2.42731192
2
MD Step 200
Li  0.27015062 0.26206328 0.51881068
H  1.03328555 1.08907454 2.31950377
2
MD Step 201
Li  0.27854600 0.27105235 0.53750279
H  0.98989513 1.04159216 2.20514139
2
MD Step 202
Li  0.28717850 0.28029843 0.55675099
H  0.94487023 0.99233830 2.08694602
2
MD Step 203
Li  0.29579473 0.28952720 0.57596164
H  0.89995755 0.94320372 1.96900951
2
MD Step 204
Li  0.30402066 0.29834110 0.59428056
H  0.85773513 0.89692877 1.85721940
2
MD Step 205
Li  0.31133891 0.30617561 0.61053724
H  0.82176907 0.85740451 1.75964386
2
MD Step 206
Li  0.31705856 0.31228174 0.62316600
H  0.79682180 0.82979349 1.68707467
2
MD Step 207
Li  0.32044325 0.31591046 0.63069850
H  0.78796881 0.81925871 1.64963268
2
MD Step 208
Li  0.32094936 0.31666774 0.63214633
H  0.79895715 0.82851604 1.65413086
2
MD Step 209
Li  0.31867011 0.31463493 0.62776622
H  0.82914430 0.85700471 1.69879954
2
MD Step 210
Li  0.31421679 0.31029313 0.61880628
H  0.87431670 0.90140877 1.77503587
2
MD Step 211
Li  0.30829914 0.30441083 0.60681932
H  0.92958242 0.95643101 1.87213669
2
MD Step 212
Li  0.30159527 0.29770061 0.59325480
H  0.99026740 1.01715996 1.98011120
2
MD Step 213
Li  0.29462191 0.29070902 0.57914996
H  1.05280984 1.07982834 2.09181005
2
MD Step 214
Li  0.28774247 0.28381528 0.56523256
H  1.11470493 1.14182219 2.20221686
2
MD Step 215
Li  0.28120780 0.27727931 0.55199769
H  1.17422365 1.20135009 2.30791924
2
MD Step 216
Li  0.27518261 0.27127053 0.53976465
H  1.23023056 1.25724415 2.40671617
2
MD Step 217
Li  0.26977029 0.26589445 0.52872962
H  1.28201323 1.30877721 2.49725557
2
MD Step 218
Li  0.26503261 0.26121344 0.51900656
H  1.32914567 1.35551926 2.57875188
2
MD Step 219
Li  0.26100334 0.25726096 0.51065476
H  1.37139528 1.39723978 2.65079644
2
MD Step 220
Li  0.25769776 0.25405150 0.50369787
H  1.40865662 1.43383887 2.71322627
2
MD Step 221
Li  0.25511928 0.25158735 0.49813672
H  1.44090628 1.46530066 2.76603552
2
MD Step 222
Li  0.25326444 0.24986391 0.49395958
H  1.46816805 1.49165695 2.80930525
2
MD Step 223
Li  0.25212663 0.24887340 0.49114898
H  1.49048754 1.51296137 2.84315564
2
MD Step 224
Li  0.25169862 0.24860747 0.48968659
H  1.50791451 1.52927139 2.86771322
2
MD Step 225
Li  0.25197440 0.24905905 0.48955651
H  1.52049051 1.54063583 2.88308751
2
MD Step 226
Li  0.25295025 0.25022346 0.49074743
H  1.52824100 1.54708689 2.88935646
2
MD Step 227
Li  0.25462549 0.25209910 0.49325379
H  1.53117087 1.54863565 2.88655847
2
MD Step 228
Li  0.25700264 0.25468767 0.49707616
H  1.52926255 1.54527032 2.87468950
2
MD Step 229
Li  0.26008747 0.25799413 0.50222108
H  1.52247642 1.53695680 2.85370456
2
MD Step 230
Li  0.26388850 0.26202621 0.50870013
H  1.51075373 1.52364176 2.82352374
2
MD Step 231
Li  0.26841614 0.26679352 0.51652824
H  1.49402263 1.50525894 2.78404424
2
MD Step 232
Li  0.27368126 0.27230605 0.52572076
H  1.47220832 1.48173950 2.73516017
2
MD Step 233
Li  0.27969293 0.27857192 0.53628938
H  1.44524821 1.45302742 2.67679093
2
MD Step 234
Li  0.28645520 0.28559414 0.54823641
H  1.41311439 1.41910208 2.60892074
2
MD Step 235
Li  0.29396229 0.29336571 0.56154580
H  1.37584674 1.38001163 2.53166012
2
MD Step 236
Li  0.30219253 0.30186362 0.57617203
H  1.33359456 1.33591471 2.44532288
2
MD Step 237
Li  0.31109937 0.31103986 0.59202446
H  1.28667879 1.28714223 2.35053368
2
MD Step 238
Li  0.32059873 0.32080894 0.60894489
H  1.23567894 1.23428347 2.24838307
2
MD Step 239
Li  0.33054952 0.33102868 0.62667399
H  1.18156740 1.17831839 2.14065844
2
MD Step 240
Li  0.34072649 0.34147359 0.64480541
H  1.12589692 1.12080128 2.03016078
2
MD Step 241
Li  0.35078940 0.35180530 0.66273641
H  1.07101265 1.06406449 1.92104456
2
MD Step 242
Li  0.36023451 0.36152777 0.67959388
H  1.02038669 1.01152698 1.81932788
2
MD Step 243
Li  0.36839008 0.36996679 0.69422182
H  0.97864921 0.96783599 1.73297881
2
MD Step 244
Li  0.37439278 0.37630390 0.70513342
H  0.95175088 0.93863287 1.67224558
2
MD Step 245
Li  0.37746209 0.37970983 0.71113660
H  0.94507177 0.92963374 1.64534486
2
MD Step 246
Li  0.37712245 0.37967868 0.71144586
H  0.96188966 0.94432551 1.65769085
2
MD Step 247
Li  0.37369546 0.37649154 0.70665000
H  0.99998790 0.98077068 1.70522520
2
MD Step 248
Li  0.36783107 0.37099157 0.69791044
H  1.05488650 1.03315766 1.77994249
2
MD Step 249
Li  0.36042236 0.36398843 0.68672555
H  1.12042968 1.09590564 1.87151484
2
MD Step 250
Li  0.35222656 0.35622702 0.67431434
H  1.19139813 1.16388017 1.97153991
2
MD Step 251
Li  0.34382126 0.34826398 0.66157930
H  1.26381061 1.23324447 2.07379705
2
MD Step 252
Li  0.33560676 0.34048439 0.64913709
H  1.33490794 1.30134428 2.17403577
2
MD Step 253
Li  0.32785489 0.33314961 0.63740089
H  1.40281648 1.36637814 2.26940819
2
MD Step 254
Li  0.32074078 0.32642786 0.62663298
H  1.46632912 1.42718660 2.35810640
2
MD Step 255
Li  0.31437240 0.32042265 0.61699212
H  1.52470160 1.48305602 2.43903611
2
MD Step 256
Li  0.30881268 0.31519423 0.60856857
H  1.57750016 1.53357133 2.51157522
2
MD Step 257
Li  0.30409421 0.31077362 0.60140681
H  1.62450024 1.57851851 2.57541713
2
MD Step 258
Li  0.30022994 0.30717311 0.59552205
H  1.66561255 1.61781303 2.63045700
2
MD Step 259
Li  0.29721998 0.30439268 0.59091060
H  1.70083629 1.65145488 2.67672026
2
MD Step 260
Li  0.29505782 0.30242587 0.58755898
H  1.73021634 1.67948863 2.71429981
2
MD Step 261
Li  0.29373427 0.30126366 0.58544997
H  1.75381609 1.70197656 2.74331435
2
MD Step 262
Li  0.29323996 0.30089689 0.58456641
H  1.77170008 1.71898162 2.76388224
2
MD Step 263
Li  0.29356728 0.30131816 0.58489389
H  1.78392078 1.73055502 2.77610266
2
MD Step 264
Li  0.29471162 0.30252290 0.58642257
H  1.79050993 1.73672808 2.78004357
2
MD Step 265
Li  0.29667207 0.30451011 0.58914804
H  1.79147386 1.73750780 2.77573524
2
MD Step 266
Li  0.29945163 0.30728251 0.59307164
H  1.78679192 1.73287537 2.76316851
2
MD Step 267
Li  0.30305703 0.31084643 0.59820012
H  1.77641760 1.72278722 2.74229683
2
MD Step 268
Li  0.30749819 0.31521120 0.60454473
H  1.76028262 1.70717904 2.71304275
2
MD Step 269
Li  0.31278698 0.32038804 0.61211942
H  1.73830513 1.68597343 2.67530999
2
MD Step 270
Li  0.31893537 0.32638831 0.62093820
H  1.71040265 1.65909211 2.62900202
2
MD Step 271
Li  0.32595289 0.33322103 0.63101135
H  1.67650946 1.62647293 2.57404797
2
MD Step 272
Li  0.33384279 0.34088907 0.64233959
H  1.63660318 1.58809607 2.51044293
2
MD Step 273
Li  0.34259577 0.34938335 0.65490536
H  1.59074792 1.54402421 2.43830786
2
MD Step 274
Li  0.35218281 0.35867594 0.66866290
H  1.53914366 1.49444975 2.35795829
2
MD Step 275
Li  0.36254440 0.36870970 0.68352272
H  1.48220063 1.43976660 2.27001088
2
MD Step 276
Li  0.37357496 0.37938341 0.69933045
H  1.42064658 1.38067243 2.17552983
2
MD Step 277
Li  0.38509941 0.39052938 0.71583450
H  1.35568828 1.31832307 2.07624920
2
MD Step 278
Li  0.39684101 0.40188284 0.73264288
H  1.28923312 1.25454357 1.97487096
2
MD Step 279
Li  0.40838656 0.41304913 0.74917793
H  1.22412941 1.19205416 1.87537666
2
MD Step 280
Li  0.41914108 0.42346227 0.76461369
H  1.16447802 1.13475605 1.78345946
2
MD Step 281
Li  0.42827345 0.43229831 0.77779847
H  1.11600768 1.08832851 1.70705777
2
MD Step 282
Li  0.43479197 0.43861381 0.78745369
H  1.08555397 1.05927437 1.65498438
2
MD Step 283
Li  0.43782430 0.44145966 0.79235889
H  1.07912968 1.05413567 1.63565176
2
MD Step 284
Li  0.43694506 0.44048782 0.79207071
H  1.09966689 1.07531139 1.65211581
2
MD Step 285
Li  0.43266005 0.43611363 0.78725938
H  1.14367924 1.11993867 1.69975679
2
MD Step 286
Li  0.42589492 0.42935545 0.77914484
H  1.20478644 1.18099820 1.77016596
2
MD Step 287
Li  0.41758781 0.42109268 0.76904807
H  1.27652215 1.25242846 1.85423818
2
MD Step 288
Li  0.40854056 0.41211687 0.75803000
H  1.35335940 1.32877352 1.94466064
2
MD Step 289
Li  0.39935415 0.40300611 0.74683814
H  1.43115587 1.40604877 2.03628108
2
MD Step 290
Li  0.39044151 0.39416143 0.73598831
H  1.50706528 1.48149000 2.12554394
2
MD Step 291
Li  0.38207986 0.38585326 0.72582408
H  1.57917689 1.55323321 2.21008111
2
MD Step 292
Li  0.37444551 0.37825434 0.71656163
H  1.64627537 1.62008775 2.28840254
2
MD Step 293
Li  0.36764566 0.37147022 0.70833061
H  1.70762189 1.68132603 2.35961460
2
MD Step 294
Li  0.36174153 0.36556169 0.70120339
H  1.76279442 1.73652914 2.42321842
2
MD Step 295
Li  0.35676340 0.36055925 0.69521432
H  1.81158428 1.78548674 2.47897726
2
MD Step 296
Li  0.35272155 0.35647384 0.69037321
H  1.85392059 1.82812351 2.52682348
2
MD Step 297
Li  0.34961394 0.35330428 0.68667495
H  1.88981738 1.86444758 2.56679240
2
MD Step 298
Li  0.34743203 0.35104293 0.68410666
H  1.91933360 1.89451156 2.59897267
2
MD Step 299
Li  0.34616476 0.34967965 0.68265257
H  1.94254540 1.91838534 2.62347300
2
MD Step 300
Li  0.34580148 0.34920466 0.68229752
H  1.95952623 1.93613636 2.64039798
2
MD Step 301
Li  0.34633385 0.34961043 0.68302924
H  1.97033358 1.94781659 2.64983211
2
MD Step 302
Li  0.34775699 0.35089279 0.68483974
H  1.97500106 1.95345464 2.65183043
2
MD Step 303
Li  0.35007008 0.35305158 0.68772600
H  1.97353435 1.95305170 2.64641388
2
MD Step 304
Li  0.35327650 0.35609077 0.69169004
H  1.96591010 1.94658037 2.63356841
2
MD Step 305
Li  0.35738357 0.36001822 0.69673861
H  1.95207791 1.93398651 2.61324756
2
MD Step 306
Li  0.36240178 0.36484494 0.70288220
H  1.93196549 1.91519418 2.58537900
2
MD Step 307
Li  0.36834340 0.37058376 0.71013334
H  1.90548820 1.89011498 2.54987637
2
MD Step 308
Li  0.37522029 0.37724712 0.71850383
H  1.87256438 1.85866313 2.50665836
2
MD Step 309
Li  0.38304060 0.38484387 0.72800088
H  1.83313776 1.82077768 2.45567523
2
MD Step 310
Li  0.39180415 0.39337464 0.73862174
H  1.78720960 1.77645426 2.39694596
2
MD Step 311
Li  0.40149578 0.40282529 0.75034559
H  1.73488448 1.72579035 2.33061406
2
MD Step 312
Li  0.41207687 0.41315846 0.76312358
H  1.67642846 1.66904349 2.25701623
2
MD Step 313
Li  0.42347243 0.42430063 0.77686390
H  1.61235854 1.60672034 2.17678534
2
MD Step 314
Li  0.43555331 0.43612440 0.79141119
H  1.54356488 1.53969911 2.09099219
2
MD Step 315
Li  0.44810892 0.44842098 0.80651530
H  1.47149904 1.46941887 2.00136097
2
MD Step 316
Li  0.46081206 0.46086476 0.82179168
H  1.39841626 1.39812408 1.91054242
2
MD Step 317
Li  0.47318137 0.47297481 0.83668066
H  1.32763456 1.32912955 1.82239405
2
MD Step 318
Li  0.48450831 0.48404027 0.85037078
H  1.26403762 1.26733519 1.74250918
2
MD Step 319
Li  0.49391018 0.49317115 0.86180682
H  1.21370966 1.21887537 1.67816108
2
MD Step 320
Li  0.50029888 0.49926838 0.86990073
H  1.18415077 1.19132574 1.63684942
2
MD Step 321
Li  0.50280160 0.50140943 0.87356385
H  1.18137700 1.19104503 1.62607813
2
MD Step 322
Li  0.50126900 0.49935845 0.87260190
H  1.20641765 1.21965899 1.64718635
2
MD Step 323
Li  0.49619603 0.49373855 0.86780987
H  1.25586123 1.27287259 1.69469424
2
MD Step 324
Li  0.48870075 0.48562546 0.86031291
H  1.32200116 1.34327119 1.76084663
2
MD Step 325
Li  0.47977739 0.47606385 0.85128796
H  1.39798447 1.42365405 1.83753107
2
MD Step 326
Li  0.47023453 0.46586253 0.84159673
H  1.47823786 1.50844628 1.91880793
2
MD Step 327
Li  0.46065239 0.45562041 0.83186334
H  1.55876199 1.59351970 2.00037545
2
MD Step 328
Li  0.45142941 0.44575055 0.82251220
H  1.63681052 1.67602721 2.07930822
2
MD Step 329
Li  0.44282973 0.43652760 0.81382193
H  1.71056281 1.75407577 2.15368577
2
MD Step 330
Li  0.43501932 0.42812491 0.80596579
H  1.77887483 1.82647046 2.22231388
2
MD Step 331
Li  0.42809764 0.42064696 0.79904623
H  1.84106108 1.89249120 2.28448637
2
MD Step 332
Li  0.42211980 0.41415219 0.79311894
H  1.89674172 1.95173509 2.33981936
2
MD Step 333
Li  0.41711168 0.40866862 0.78820883
H  1.94573826 2.00400903 2.38814121
2
MD Step 334
Li  0.41308020 0.40420428 0.78432088
H  1.98800303 2.04925762 2.42941755
2
MD Step 335
Li  0.41002061 0.40075503 0.78144804
H  2.02356890 2.08750955 2.46369703
2
MD Step 336
Li  0.40792257 0.39831097 0.77957771
H  2.05250697 2.11883290 2.49106646
2
MD Step 337
Li  0.40677410 0.39686039 0.77869564
H  2.07489992 2.14330846 2.51162402
2
MD Step 338
Li  0.40656410 0.39639239 0.77878856
H  2.09082426 2.16101132 2.52546120
2
MD Step 339
Li  0.40728416 0.39689886 0.77984607
H  2.10033790 2.17199738 2.53264974
2
MD Step 340
Li  0.40892968 0.39837567 0.78186175
H  2.10347253 2.17629515 2.53323386
2
MD Step 341
Li  0.41150041 0.40082323 0.78483369
H  2.10022999 2.17390182 2.52722666
2
MD Step 342
Li  0.41500046 0.40424656 0.78876454
H  2.09058181 2.16478272 2.51460996
2
MD Step 343
Li  0.41943798 0.40865492 0.79366103
H  2.07447193 2.14887399 2.49533735
2
MD Step 344
Li  0.42482418 0.41406085 0.79953299
H  2.05182308 2.12608933 2.46934111
2
MD Step 345
Li  0.43117171 0.42047840 0.80639161
H  2.02254793 2.09633184 2.43654406
2