2
MD Step 0
Li  0.00000000 0.00000000 0.00000000
F  0.00000000 0.00000000 3.00000000
2
MD Step 1
Li  0.00152116 0.00152095 0.00232976
F  0.00091937 0.00091937 3.00062389
2
MD Step 2
Li  0.00304199 0.00304159 0.00628019
F  0.00183885 0.00183886 3.00065567
2
MD Step 3
Li  0.00456217 0.00456156 0.01185861
F  0.00275858 0.00275858 3.00009267
2
MD Step 4
Li  0.00608135 0.00608054 0.01907635
F  0.00367867 0.00367867 2.99893075
2
MD Step 5
Li  0.00759917 0.00759816 0.02794836
F  0.00459925 0.00459926 2.99716445
2
MD Step 6
Li  0.00911530 0.00911409 0.03849357
F  0.00552046 0.00552047 2.99478685
2
MD Step 7
Li  0.01062939 0.01062798 0.05073516
F  0.00644241 0.00644242 2.99178948
2
MD Step 8
Li  0.01214109 0.01213947 0.06470004
F  0.00736523 0.00736524 2.98816252
2
MD Step 9
Li  0.01364998 0.01364817 0.08041839
F  0.00828908 0.00828909 2.98389493
2
MD Step 10
Li  0.01515564 0.01515363 0.09792311
F  0.00921411 0.00921412 2.97897470
2
MD Step 11
Li  0.01665750 0.01665530 0.11724911
F  0.01014053 0.01014053 2.97338907
2
MD Step 12
Li  0.01815482 0.01815242 0.13843258
F  0.01106861 0.01106861 2.96712482
2
MD Step 13
Li  0.01964622 0.01964363 0.16150957
F  0.01199885 0.01199885 2.96016878
2
MD Step 14
Li  0.02112866 0.02112588 0.18651360
F  0.01293236 0.01293235 2.95250870
2
MD Step 15
Li  0.02259821 0.02259525 0.21347237
F  0.01387058 0.01387057 2.94413446
2
MD Step 16
Li  0.02405357 0.02405043 0.24240921
F  0.01481399 0.01481397 2.93503755
2
MD Step 17
Li  0.02549319 0.02548989 0.27334224
F  0.01576315 0.01576311 2.92521133
2
MD Step 18
Li  0.02691329 0.02690983 0.30628114
F  0.01671944 0.01671939 2.91465228
2
MD Step 19
Li  0.02830495 0.02830134 0.34122383
F  0.01768611 0.01768605 2.90336114
2
MD Step 20
Li  0.02965266 0.02964892 0.37815033
F  0.01866885 0.01866876 2.89134523
2
MD Step 21
Li  0.03095881 0.03095495 0.41701628
F  0.01966677 0.01966665 2.87862075
2
MD Step 22
Li  0.03224272 0.03223875 0.45776387
F  0.02067282 0.02067266 2.86520881
2
MD Step 23
Li  0.03351381 0.03350975 0.50031636
F  0.02168354 0.02168335 2.85113747
2
MD Step 24
Li  0.03477531 0.03477115 0.54457212
F  0.02269778 0.02269755 2.83644384
2
MD Step 25
Li  0.03602855 0.03602430 0.59040272
F  0.02371503 0.02371476 2.82117485
2
MD Step 26
Li  0.03727447 0.03727014 0.63764800
F  0.02473495 0.02473464 2.80538901
2
MD Step 27
Li  0.03851401 0.03850959 0.68611837
F  0.02575721 0.02575685 2.78915558
2
MD Step 28
Li  0.03974813 0.03974363 0.73559120
F  0.02678144 0.02678105 2.77255591
2
MD Step 29
Li  0.04097785 0.04097327 0.78580376
F  0.02780728 0.02780685 2.75568599
2
MD Step 30
Li  0.04220371 0.04219905 0.83644840
F  0.02883454 0.02883406 2.73865820
2
MD Step 31
Li  0.04342404 0.04341930 0.88715131
F  0.02986381 0.02986328 2.72160913
2
MD Step 32
Li  0.04463084 0.04462605 0.93744945
F  0.03089803 0.03089745 2.70470793
2
MD Step 33
Li  0.04581543 0.04581059 0.98674178
F  0.03194036 0.03193973 2.68817421
2
MD Step 34
Li  0.04699515 0.04699026 1.03424182
F  0.03298447 0.03298378 2.67229529
2
MD Step 35
Li  0.04819343 0.04818849 1.07891825
F  0.03402180 0.03402105 2.65744797
2
MD Step 36
Li  0.04942973 0.04942474 1.11944890
F  0.03504524 0.03504444 2.64411530
2
MD Step 37
Li  0.05072399 0.05071893 1.15422652
F  0.03604751 0.03604666 2.63288447
2
MD Step 38
Li  0.05209848 0.05209333 1.18146735
F  0.03702046 0.03701957 2.62440719
2
MD Step 39
Li  0.05357685 0.05357159 1.19945351
F  0.03795546 0.03795454 2.61931106
2
MD Step 40
Li  0.05517995 0.05517453 1.20689145
F  0.03884489 0.03884395 2.61806870
2
MD Step 41
Li  0.05686519 0.05685959 1.20732189
F  0.03970431 0.03970337 2.61938649
2
MD Step 42
Li  0.05863617 0.05863036 1.20079031
F  0.04053241 0.04053146 2.62324784
2
MD Step 43
Li  0.06054918 0.06054313 1.18386829
F  0.04130861 0.04130769 2.63090529
2
MD Step 44
Li  0.06259119 0.06258486 1.15791174
F  0.04203769 0.04203679 2.64186349
2
MD Step 45
Li  0.06474181 0.06473518 1.12465354
F  0.04272708 0.04272622 2.65548931
2
MD Step 46
Li  0.06697783 0.06697087 1.08585771
F  0.04338528 0.04338447 2.67113829
2
MD Step 47
Li  0.06927593 0.06926863 1.04309486
F  0.04402079 0.04402003 2.68823660
2
MD Step 48
Li  0.07161486 0.07160723 0.99764839
F  0.04464139 0.04464068 2.70631536
2
MD Step 49
Li  0.07397800 0.07397002 0.95051521
F  0.04525314 0.04525249 2.72501036
2
MD Step 50
Li  0.07635389 0.07634556 0.90245256
F  0.04586024 0.04585963 2.74404494
2
MD Step 51
Li  0.07873484 0.07872618 0.85403998
F  0.04646548 0.04646493 2.76320736
2
MD Step 52
Li  0.08111492 0.08110592 0.80572862
F  0.04707104 0.04707054 2.78233281
2
MD Step 53
Li  0.08348886 0.08347953 0.75788413
F  0.04767885 0.04767839 2.80128768
2
MD Step 54
Li  0.08585168 0.08584202 0.71080837
F  0.04829072 0.04829031 2.81996170
2
MD Step 55
Li  0.08819872 0.08818875 0.66475929
F  0.04890835 0.04890799 2.83826063
2
MD Step 56
Li  0.09052584 0.09051555 0.61995541
F  0.04953327 0.04953294 2.85610462
2
MD Step 57
Li  0.09282906 0.09281846 0.57658323
F  0.05016691 0.05016663 2.87342556
2
MD Step 58
Li  0.09510479 0.09509390 0.53479964
F  0.05081060 0.05081035 2.89016610
2
MD Step 59
Li  0.09734991 0.09733872 0.49473097
F  0.05146547 0.05146525 2.90628011
2
MD Step 60
Li  0.09956141 0.09954995 0.45647836
F  0.05213262 0.05213243 2.92173062
2
MD Step 61
Li  0.10173687 0.10172514 0.42011896
F  0.05281294 0.05281278 2.93648945
2
MD Step 62
Li  0.10387465 0.10386268 0.38570668
F  0.05350703 0.05350688 2.95053691
2
MD Step 63
Li  0.10597381 0.10596160 0.35327572
F  0.05421523 0.05421510 2.96386051
2
MD Step 64
Li  0.10803383 0.10802139 0.32284364
F  0.05493772 0.05493760 2.97645382
2
MD Step 65
Li  0.11005447 0.11004181 0.29441349
F  0.05567461 0.05567449 2.98831573
2
MD Step 66
Li  0.11203567 0.11202281 0.26797643
F  0.05642590 0.05642579 2.99944948
2
MD Step 67
Li  0.11397751 0.11396446 0.24351455
F  0.05719157 0.05719145 3.00986160
2
MD Step 68
Li  0.11588023 0.11586701 0.22100323
F  0.05797154 0.05797141 3.01956108
2
MD Step 69
Li  0.11774424 0.11773085 0.20041300
F  0.05876564 0.05876551 3.02855871
2
MD Step 70
Li  0.11957006 0.11955651 0.18171119
F  0.05957370 0.05957355 3.03686641
2
MD Step 71
Li  0.12135825 0.12134456 0.16486347
F  0.06039551 0.06039534 3.04449672
2
MD Step 72
Li  0.12310931 0.12309547 0.14983535
F  0.06123089 0.06123069 3.05146225
2
MD Step 73
Li  0.12482363 0.12480967 0.13659330
F  0.06207968 0.06207946 3.05777524
2
MD Step 74
Li  0.12650154 0.12648746 0.12510566
F  0.06294178 0.06294153 3.06344726
2
MD Step 75
Li  0.12814332 0.12812913 0.11534334
F  0.06381708 0.06381680 3.06848895
2
MD Step 76
Li  0.12974918 0.12973489 0.10728043
F  0.06470550 0.06470518 3.07290976
2
MD Step 77
Li  0.13131930 0.13130490 0.10089459
F  0.06560698 0.06560663 3.07671786
2
MD Step 78
Li  0.13285378 0.13283930 0.09616730
F  0.06652148 0.06652109 3.07992002
2
MD Step 79
Li  0.13435267 0.13433811 0.09308395
F  0.06744899 0.06744854 3.08252157
2
MD Step 80
Li  0.13581595 0.13580132 0.09163401
F  0.06838950 0.06838901 3.08452635
2
MD Step 81
Li  0.13724352 0.13722883 0.09181102
F  0.06934306 0.06934252 3.08593674
2
MD Step 82
Li  0.13863518 0.13862043 0.09361264
F  0.07030974 0.07030915 3.08675358
2
MD Step 83
Li  0.13999066 0.13997586 0.09704065
F  0.07128964 0.07128899 3.08697622
2
MD Step 84
Li  0.14130961 0.14129477 0.10210097
F  0.07228288 0.07228217 3.08660251
2
MD Step 85
Li  0.14259158 0.14257671 0.10880361
F  0.07328963 0.07328887 3.08562878
2
MD Step 86
Li  0.14383604 0.14382115 0.11716260
F  0.07431009 0.07430926 3.08404991
2
MD Step 87
Li  0.14504238 0.14502748 0.12719597
F  0.07534447 0.07534358 3.08185931
2
MD Step 88
Li  0.14620991 0.14619500 0.13892557
F  0.07639304 0.07639207 3.07904900
2
MD Step 89
Li  0.14733785 0.14732295 0.15237685
F  0.07745607 0.07745502 3.07560968
2
MD Step 90
Li  0.14842539 0.14841050 0.16757849
F  0.07853386 0.07853274 3.07153087
2
MD Step 91
Li  0.14947163 0.14945676 0.18456183
F  0.07962673 0.07962553 3.06680112
2
MD Step 92
Li  0.15047564 0.15046079 0.20336016
F  0.08073504 0.08073376 3.06140827
2
MD Step 93
Li  0.15143640 0.15142159 0.22400783
F  0.08185915 0.08185778 3.05533977
2
MD Step 94
Li  0.15235288 0.15233812 0.24653921
F  0.08299943 0.08299797 3.04858307
2
MD Step 95
Li  0.15322405 0.15320934 0.27098727
F  0.08415627 0.08415472 3.04112612
2
MD Step 96
Li  0.15404895 0.15403432 0.29738199
F  0.08533001 0.08532836 3.03295795
2
MD Step 97
Li  0.15482679 0.15481224 0.32574874
F  0.08652095 0.08651919 3.02406932
2
MD Step 98
Li  0.15555692 0.15554246 0.35610637
F  0.08772932 0.08772745 3.01445332
2
MD Step 99
Li  0.15623886 0.15622451 0.38846502
F  0.08895529 0.08895331 3.00410626
2
MD Step 100
Li  0.15687244 0.15685820 0.42282331
F  0.09019893 0.09019684 2.99302863
2
MD Step 101
Li  0.15745780 0.15744369 0.45916568
F  0.09146019 0.09145798 2.98122613
2
MD Step 102
Li  0.15799553 0.15798155 0.49746026
F  0.09273885 0.09273652 2.96871039
2
MD Step 103
Li  0.15848664 0.15847282 0.53765599
F  0.09403454 0.09403208 2.95550008
2
MD Step 104
Li  0.15893278 0.15891912 0.57967897
F  0.09534666 0.09534407 2.94162219
2
MD Step 105
Li  0.15933626 0.15932277 0.62343104
F  0.09667437 0.09667164 2.92711258
2
MD Step 106
Li  0.15969986 0.15968655 0.66878929
F  0.09801664 0.09801378 2.91201616
2
MD Step 107
Li  0.16002734 0.16001421 0.71560107
F  0.09937212 0.09936911 2.89638870
2
MD Step 108
Li  0.16032355 0.16031061 0.76368354
F  0.10073902 0.10073587 2.88029699
2
MD Step 109
Li  0.16059419 0.16058145 0.81282280
F  0.10211526 0.10211196 2.86381919
2
MD Step 110
Li  0.16084640 0.16083386 0.86276655
F  0.10349823 0.10349479 2.84704747
2
MD Step 111
Li  0.16108901 0.16107667 0.91321941
F  0.10488471 0.10488112 2.83008975
2
MD Step 112
Li  0.16133279 0.16132066 0.96382545
F  0.10627076 0.10626703 2.81307607
2
MD Step 113
Li  0.16159142 0.16157950 1.01414668
F  0.10765139 0.10764751 2.79616644
2
MD Step 114
Li  0.16188259 0.16187087 1.06362387
F  0.10902013 0.10901610 2.77956518
2
MD Step 115
Li  0.16222980 0.16221829 1.11152697
F  0.11036840 0.11036422 2.76353901
2
MD Step 116
Li  0.16266445 0.16265313 1.15689546
F  0.11168471 0.11168039 2.74843884
2
MD Step 117
Li  0.16322894 0.16321780 1.19848690
F  0.11295360 0.11294914 2.73471861
2
MD Step 118
Li  0.16397831 0.16396732 1.23476772
F  0.11415493 0.11415035 2.72293860
2
MD Step 119
Li  0.16497811 0.16496724 1.26399141
F  0.11526478 0.11526007 2.71373688
2
MD Step 120
Li  0.16629757 0.16628678 1.28440647
F  0.11625784 0.11625303 2.70775337
2
MD Step 121
Li  0.16799702 0.16798627 1.29458802
F  0.11711206 0.11710717 2.70550863
2
MD Step 122
Li  0.16995194 0.16994119 1.29784051
F  0.11787296 0.11786799 2.70579541
2
MD Step 123
Li  0.17217415 0.17216339 1.29402051
F  0.11853620 0.11853116 2.70866608
2
MD Step 124
Li  0.17465712 0.17464630 1.28346435
F  0.11910417 0.11909908 2.71399780
2
MD Step 125
Li  0.17753999 0.17752908 1.26310917
F  0.11952604 0.11952092 2.72290955
2
MD Step 126
Li  0.18076767 0.18075663 1.23447288
F  0.11982194 0.11981678 2.73484677
2
MD Step 127
Li  0.18427368 0.18426249 1.19930159
F  0.12001615 0.12001098 2.74917153
2
MD Step 128
Li  0.18799233 0.18798097 1.15927447
F  0.12013267 0.12012749 2.76527036
2
MD Step 129
Li  0.19186834 0.19185681 1.11583309
F  0.12019170 0.12018651 2.78261657
2
MD Step 130
Li  0.19585893 0.19584721 1.07013246
F  0.12020887 0.12020367 2.80078819
2
MD Step 131
Li  0.19993065 0.19991875 1.02306189
F  0.12019640 0.12019120 2.81946032
2
MD Step 132
Li  0.20405413 0.20404205 0.97530015
F  0.12016501 0.12015980 2.83838496
2
MD Step 133
Li  0.20820250 0.20819024 0.92736890
F  0.12012454 0.12011932 2.85737153
2
MD Step 134
Li  0.21235192 0.21233949 0.87968099
F  0.12008368 0.12007845 2.87626920
2
MD Step 135
Li  0.21648279 0.21647020 0.83257330
F  0.12004960 0.12004436 2.89495488
2
MD Step 136
Li  0.22057905 0.22056629 0.78632794
F  0.12002816 0.12002291 2.91332552
2
MD Step 137
Li  0.22462780 0.22461489 0.74118541
F  0.12002408 0.12001881 2.93129324
2
MD Step 138
Li  0.22861874 0.22860568 0.69735035
F  0.12004113 0.12003583 2.94878328
2
MD Step 139
Li  0.23254340 0.23253020 0.65499753
F  0.12008238 0.12007707 2.96573180
2
MD Step 140
Li  0.23639628 0.23638295 0.61427066
F  0.12014986 0.12014452 2.98208627
2
MD Step 141
Li  0.24017550 0.24016205 0.57528597
F  0.12024425 0.12023889 2.99780425
2
MD Step 142
Li  0.24388385 0.24387028 0.53813606
F  0.12036454 0.12035914 3.01285189
2
MD Step 143
Li  0.24752803 0.24751436 0.50289186
F  0.12050827 0.12050284 3.02720330
2
MD Step 144
Li  0.25111162 0.25109788 0.46960502
F  0.12067413 0.12066865 3.04083958
2
MD Step 145
Li  0.25463066 0.25461686 0.43830753
F  0.12086358 0.12085805 3.05374907
2
MD Step 146
Li  0.25807831 0.25806447 0.40901299
F  0.12107911 0.12107352 3.06592678
2
MD Step 147
Li  0.26144927 0.26143541 0.38172057
F  0.12132266 0.12131701 3.07737303
2
MD Step 148
Li  0.26474045 0.26472658 0.35641884
F  0.12159535 0.12158963 3.08809198
2
MD Step 149
Li  0.26795000 0.26793613 0.33308904
F  0.12189788 0.12189208 3.09809050
2
MD Step 150
Li  0.27107557 0.27106172 0.31170777
F  0.12223108 0.12222520 3.10737713
2
MD Step 151
Li  0.27411292 0.27409909 0.29224808
F  0.12259651 0.12259055 3.11596171
2
MD Step 152
Li  0.27705738 0.27704359 0.27467894
F  0.12299588 0.12298983 3.12385559
2
MD Step 153
Li  0.27990616 0.27989242 0.25896636
F  0.12343021 0.12342407 3.13107119
2
MD Step 154
Li  0.28265830 0.28264462 0.24507600
F  0.12389984 0.12389361 3.13762104
2
MD Step 155
Li  0.28531386 0.28530023 0.23297482
F  0.12440476 0.12439843 3.14351722
2
MD Step 156
Li  0.28787331 0.28785974 0.22263191
F  0.12494479 0.12493837 3.14877102
2
MD Step 157
Li  0.29033731 0.29032381 0.21401938
F  0.12551969 0.12551317 3.15339263
2
MD Step 158
Li  0.29270649 0.29269307 0.20711293
F  0.12612923 0.12612262 3.15739094
2
MD Step 159
Li  0.29498139 0.29496805 0.20189235
F  0.12677322 0.12676651 3.16077332
2
MD Step 160
Li  0.29716233 0.29714907 0.19834181
F  0.12745155 0.12744472 3.16354555
2
MD Step 161
Li  0.29924935 0.29923618 0.19645000
F  0.12816418 0.12815725 3.16571177
2
MD Step 162
Li  0.30124219 0.30122912 0.19620975
F  0.12891122 0.12890418 3.16727460
2
MD Step 163
Li  0.30314033 0.30312735 0.19761780
F  0.12969286 0.12968571 3.16823523
2
MD Step 164
Li  0.30494301 0.30493014 0.20067458
F  0.13050937 0.13050211 3.16859351
2
MD Step 165
Li  0.30664927 0.30663651 0.20538422
F  0.13136111 0.13135374 3.16834791
2
MD Step 166
Li  0.30825782 0.30824518 0.21175467
F  0.13224855 0.13224106 3.16749554
2
MD Step 167
Li  0.30976712 0.30975459 0.21979831
F  0.13317225 0.13316465 3.16603189
2
MD Step 168
Li  0.31117535 0.31116294 0.22953208
F  0.13413288 0.13412516 3.16395075
2
MD Step 169
Li  0.31248044 0.31246816 0.24097735
F  0.13513118 0.13512334 3.16124431
2
MD Step 170
Li  0.31368014 0.31366799 0.25415945
F  0.13616799 0.13616004 3.15790333
2
MD Step 171
Li  0.31477193 0.31475991 0.26910723
F  0.13724423 0.13723615 3.15391727
2
MD Step 172
Li  0.31575301 0.31574112 0.28585243
F  0.13836091 0.13835271 3.14927453
2
MD Step 173
Li  0.31662025 0.31660851 0.30442897
F  0.13951918 0.13951086 3.14396271
2
MD Step 174
Li  0.31736982 0.31735822 0.32487254
F  0.14072045 0.14071200 3.13796878
2
MD Step 175
Li  0.31799604 0.31798460 0.34721893
F  0.14196678 0.14195820 3.13127966
2
MD Step 176
Li  0.31848777 0.31847650 0.37149899
F  0.14326224 0.14325353 3.12388408
2
MD Step 177
Li  0.31883149 0.31882040 0.39773151
F  0.14461178 0.14460293 3.11577518
2
MD Step 178
Li  0.31902271 0.31901181 0.42593562
F  0.14601704 0.14600804 3.10694596
2
MD Step 179
Li  0.31905545 0.31904476 0.45612895
F  0.14748020 0.14747105 3.09738999
2
MD Step 180
Li  0.31891732 0.31890684 0.48832190
F  0.14900578 0.14899649 3.08710347
2
MD Step 181
Li  0.31858284 0.31857258 0.52251250
F  0.15060310 0.15059365 3.07608711
2
MD Step 182
Li  0.31801362 0.31800360 0.55867455
F  0.15228618 0.15227657 3.06435049
2
MD Step 183
Li  0.31721593 0.31720614 0.59675199
F  0.15405273 0.15404296 3.05191408
2
MD Step 184
Li  0.31624498 0.31623542 0.63668958
F  0.15588258 0.15587266 3.03879808
2
MD Step 185
Li  0.31513522 0.31512590 0.67842204
F  0.15776314 0.15775306 3.02502633
2
MD Step 186
Li  0.31390345 0.31389437 0.72185661
F  0.15968828 0.15967804 3.01063272
2
MD Step 187
Li  0.31256115 0.31255230 0.76687232
F  0.16165380 0.16164340 2.99566144
2
MD Step 188
Li  0.31111958 0.31111095 0.81331841
F  0.16365560 0.16364504 2.98016758
2
MD Step 189
Li  0.30959113 0.30958274 0.86101181
F  0.16568912 0.16567841 2.96421802
2
MD Step 190
Li  0.30798950 0.30798133 0.90973892
F  0.16774939 0.16773853 2.94789080
2
MD Step 191
Li  0.30633012 0.30632218 0.95924888
F  0.16983076 0.16981973 2.93127757
2
MD Step 192
Li  0.30462917 0.30462145 1.00924643
F  0.17192731 0.17191614 2.91448619
2
MD Step 193
Li  0.30290093 0.30289341 1.05937577
F  0.17403384 0.17402251 2.89764667
2
MD Step 194
Li  0.30115333 0.30114601 1.10919594
F  0.17614743 0.17613596 2.88092010
2
MD Step 195
Li  0.29939991 0.29939277 1.15813888
F  0.17826315 0.17825155 2.86451403
2
MD Step 196
Li  0.29770265 0.29769568 1.20546717
F  0.18035836 0.18034662 2.84869786
2
MD Step 197
Li  0.29615885 0.29615203 1.25022441
F  0.18239750 0.18238563 2.83382102
2
MD Step 198
Li  0.29487420 0.29486755 1.29118032
F  0.18434196 0.18432995 2.82033297
2
MD Step 199
Li  0.29396565 0.29395917 1.32682227
F  0.18614901 0.18613687 2.80878637
2
MD Step 200
Li  0.29355963 0.29355336 1.35543484
F  0.18777247 0.18776018 2.79980792
2
MD Step 201
Li  0.29378015 0.29377413 1.37530796
F  0.18916702 0.18915456 2.79402240
2
MD Step 202
Li  0.29473207 0.29472633 1.38506464
F  0.19029436 0.19028172 2.79193289
2
MD Step 203
Li  0.29618652 0.29618111 1.38801174
F  0.19123809 0.19122527 2.79233123
2
MD Step 204
Li  0.29815592 0.29815087 1.38402826
F  0.19199370 0.19198067 2.79526164
2
MD Step 205
Li  0.30090279 0.30089816 1.36950942
F  0.19246526 0.19245200 2.80204110
2
MD Step 206
Li  0.30433934 0.30433520 1.34566662
F  0.19268484 0.19267133 2.81222705
2
MD Step 207
Li  0.30834595 0.30834236 1.31416766
F  0.19269616 0.19268238 2.82521014
2
MD Step 208
Li  0.31279372 0.31279072 1.27678191
F  0.19254630 0.19253223 2.84034394
2
MD Step 209
Li  0.31755944 0.31755704 1.23512290
F  0.19228028 0.19226591 2.85703897
2
MD Step 210
Li  0.32253620 0.32253443 1.19052930
F  0.19193715 0.19192249 2.87480615
2
MD Step 211
Li  0.32763855 0.32763740 1.14405179
F  0.19154814 0.19153318 2.89326160
2
MD Step 212
Li  0.33280404 0.33280349 1.09649256
F  0.19113607 0.19112081 2.91211225
2
MD Step 213
Li  0.33798910 0.33798914 1.04846465
F  0.19071684 0.19070130 2.93113414
2
MD Step 214
Li  0.34316189 0.34316251 1.00044230
F  0.19030210 0.19028627 2.95015399
2
MD Step 215
Li  0.34829678 0.34829797 0.95280632
F  0.18990120 0.18988509 2.96903269
2
MD Step 216
Li  0.35337165 0.35337339 0.90586991
F  0.18952223 0.18950585 2.98765580
2
MD Step 217
Li  0.35836693 0.35836920 0.85989797
F  0.18917234 0.18915569 3.00592654
2
MD Step 218
Li  0.36326528 0.36326806 0.81511526
F  0.18885786 0.18884095 3.02376280
2
MD Step 219
Li  0.36805114 0.36805442 0.77171470
F  0.18858448 0.18856732 3.04109410
2
MD Step 220
Li  0.37271051 0.37271426 0.72985778
F  0.18835732 0.18833991 3.05786144
2
MD Step 221
Li  0.37723093 0.37723513 0.68967583
F  0.18818091 0.18816327 3.07401683
2
MD Step 222
Li  0.38160111 0.38160573 0.65127512
F  0.18805940 0.18804153 3.08952145
2
MD Step 223
Li  0.38581154 0.38581655 0.61473745
F  0.18799625 0.18797816 3.10434542
2
MD Step 224
Li  0.38985575 0.38986112 0.58012180
F  0.18799383 0.18797554 3.11846718
2
MD Step 225
Li  0.39373056 0.39373626 0.54746756
F  0.18805330 0.18803481 3.13187235
2
MD Step 226
Li  0.39743513 0.39744113 0.51679641
F  0.18817497 0.18815630 3.14455300
2
MD Step 227
Li  0.40096999 0.40097626 0.48811481
F  0.18835863 0.18833979 3.15650678
2
MD Step 228
Li  0.40433651 0.40434301 0.46141689
F  0.18860381 0.18858481 3.16773583
2
MD Step 229
Li  0.40753666 0.40754338 0.43668724
F  0.18890976 0.18889061 3.17824578
2
MD Step 230
Li  0.41057301 0.41057991 0.41390329
F  0.18927556 0.18925627 3.18804487
2
MD Step 231
Li  0.41344880 0.41345586 0.39303741
F  0.18970001 0.18968059 3.19714320
2
MD Step 232
Li  0.41616789 0.41617508 0.37405854
F  0.19018172 0.19016218 3.20555212
2
MD Step 233
Li  0.41873442 0.41874172 0.35693363
F  0.19071917 0.19069951 3.21328370
2
MD Step 234
Li  0.42115241 0.42115980 0.34162889
F  0.19131088 0.19129112 3.22035030
2
MD Step 235
Li  0.42342546 0.42343292 0.32811088
F  0.19195554 0.19193569 3.22676411
2
MD Step 236
Li  0.42555671 0.42556421 0.31634750
F  0.19265202 0.19263207 3.23253687
2
MD Step 237
Li  0.42754879 0.42755632 0.30630895
F  0.19339934 0.19337930 3.23767948
2
MD Step 238
Li  0.42940390 0.42941144 0.29796852
F  0.19419669 0.19417659 3.24220168
2
MD Step 239
Li  0.43112388 0.43113141 0.29130319
F  0.19504342 0.19502325 3.24611189
2
MD Step 240
Li  0.43271024 0.43271774 0.28629388
F  0.19593897 0.19591873 3.24941709
2
MD Step 241
Li  0.43416420 0.43417166 0.28292549
F  0.19688289 0.19686259 3.25212277
2
MD Step 242
Li  0.43548668 0.43549407 0.28118693
F  0.19787484 0.19785450 3.25423300
2
MD Step 243
Li  0.43667828 0.43668558 0.28107115
F  0.19891461 0.19889423 3.25575036
2
MD Step 244
Li  0.43773922 0.43774643 0.28257514
F  0.20000212 0.19998169 3.25667594
2
MD Step 245
Li  0.43866943 0.43867652 0.28569995
F  0.20113739 0.20111693 3.25700936
2
MD Step 246
Li  0.43946844 0.43947540 0.29045069
F  0.20232059 0.20230011 3.25674875
2
MD Step 247
Li  0.44013548 0.44014228 0.29683653
F  0.20355201 0.20353151 3.25589076
2
MD Step 248
Li  0.44066944 0.44067607 0.30487062
F  0.20483204 0.20481154 3.25443059
2
MD Step 249
Li  0.44106892 0.44107537 0.31457015
F  0.20616121 0.20614070 3.25236196
2
MD Step 250
Li  0.44133224 0.44133848 0.32595626
F  0.20754013 0.20751962 3.24967714
2
MD Step 251
Li  0.44145734 0.44146335 0.33905393
F  0.20896954 0.20894904 3.24636701
2
MD Step 252
Li  0.44144178 0.44144755 0.35389154
F  0.21045034 0.21042986 3.24242119
2
MD Step 253
Li  0.44128264 0.44128815 0.37050022
F  0.21198360 0.21196314 3.23782833
2
MD Step 254
Li  0.44097653 0.44098175 0.38891285
F  0.21357055 0.21355012 3.23257640
2
MD Step 255
Li  0.44051958 0.44052450 0.40916316
F  0.21521261 0.21519222 3.22665307
2
MD Step 256
Li  0.43990767 0.43991226 0.43128471
F  0.21691129 0.21689095 3.22004610
2
MD Step 257
Li  0.43913674 0.43914097 0.45530968
F  0.21866806 0.21864778 3.21274371
2
MD Step 258
Li  0.43820324 0.43820710 0.48126754
F  0.22048423 0.22046401 3.20473516
2
MD Step 259
Li  0.43710429 0.43710774 0.50918354
F  0.22236085 0.22234070 3.19601120
2
MD Step 260
Li  0.43583762 0.43584064 0.53907679
F  0.22429874 0.22427868 3.18656486
2
MD Step 261
Li  0.43440159 0.43440415 0.57095808
F  0.22629850 0.22627854 3.17639220
2
MD Step 262
Li  0.43279524 0.43279732 0.60482721
F  0.22836049 0.22834063 3.16549329
2
MD Step 263
Li  0.43101872 0.43102028 0.64067018
F  0.23048466 0.23046491 3.15387324
2
MD Step 264
Li  0.42907396 0.42907498 0.67845637
F  0.23267028 0.23265066 3.14154325
2
MD Step 265
Li  0.42696576 0.42696621 0.71813655
F  0.23491563 0.23489614 3.12852129
2
MD Step 266
Li  0.42470214 0.42470199 0.75964030
F  0.23721775 0.23719841 3.11483310
2
MD Step 267
Li  0.42229355 0.42229279 0.80287308
F  0.23957283 0.23955365 3.10051321
2
MD Step 268
Li  0.41975181 0.41975040 0.84771575
F  0.24197657 0.24195754 3.08560515
2
MD Step 269
Li  0.41709008 0.41708802 0.89402219
F  0.24442414 0.24440528 3.07016231
2
MD Step 270
Li  0.41432324 0.41432051 0.94161391
F  0.24691011 0.24689142 3.05424990
2
MD Step 271
Li  0.41146775 0.41146433 0.99028229
F  0.24942847 0.24940996 3.03794413
2
MD Step 272
Li  0.40854221 0.40853809 1.03978270
F  0.25197243 0.25195410 3.02133439
2
MD Step 273
Li  0.40556767 0.40556283 1.08982677
F  0.25453428 0.25451614 3.00452602
2
MD Step 274
Li  0.40256832 0.40256276 1.14006882
F  0.25710520 0.25708726 2.98764532
2
MD Step 275
Li  0.39957324 0.39956695 1.19008385
F  0.25967456 0.25965681 2.97084756
2
MD Step 276
Li  0.39662052 0.39661348 1.23933189
F  0.26222844 0.26221089 2.95433002
2
MD Step 277
Li  0.39376346 0.39375567 1.28710861
F  0.26474738 0.26473003 2.93835002
2
MD Step 278
Li  0.39107658 0.39106805 1.33248984
F  0.26720414 0.26718699 2.92324520
2
MD Step 279
Li  0.38865721 0.38864795 1.37427756
F  0.26956316 0.26954620 2.90945326
2
MD Step 280
Li  0.38662260 0.38661263 1.41098312
F  0.27178162 0.27176485 2.89751807
2
MD Step 281
Li  0.38510217 0.38509152 1.44088828
F  0.27381222 0.27379562 2.88806738
2
MD Step 282
Li  0.38422418 0.38421290 1.46223626
F  0.27560811 0.27559167 2.88174303
2
MD Step 283
Li  0.38409728 0.38408541 1.47355122
F  0.27712959 0.27711329 2.87908420
2
MD Step 284
Li  0.38448893 0.38447650 1.47801179
F  0.27846162 0.27844545 2.87892961
2
MD Step 285
Li  0.38541425 0.38540127 1.47538117
F  0.27959867 0.27958263 2.88136575
2
MD Step 286
Li  0.38685144 0.38683793 1.46590886
F  0.28054871 0.28053280 2.88630148
2
MD Step 287
Li  0.38902190 0.38900787 1.44643122
F  0.28123086 0.28121506 2.89489262
2
MD Step 288
Li  0.39181260 0.39179806 1.41843088
F  0.28168641 0.28167072 2.90659751
2
MD Step 289
Li  0.39509477 0.39507974 1.38366414
F  0.28196239 0.28194682 2.92077447
2
MD Step 290
Li  0.39874004 0.39872451 1.34384333
F  0.28210572 0.28209026 2.93679792
2
MD Step 291
Li  0.40263178 0.40261575 1.30044946
F  0.28215901 0.28214365 2.95412678
2
MD Step 292
Li  0.40666768 0.40665116 1.25467282
F  0.28215962 0.28214437 2.97232617
2
MD Step 293
Li  0.41076262 0.41074560 1.20743256
F  0.28213867 0.28212352 2.99106029
2
MD Step 294
Li  0.41486526 0.41484776 1.15943336
F  0.28211490 0.28209986 3.01007168
2
MD Step 295
Li  0.41895410 0.41893612 1.11121633
F  0.28209617 0.28208124 3.02916266
2
MD Step 296
Li  0.42301359 0.42299513 1.06320583
F  0.28208817 0.28207334 3.04817819
2
MD Step 297
Li  0.42702683 0.42700790 1.01574613
F  0.28209707 0.28208233 3.06699248
2
MD Step 298
Li  0.43097688 0.43095748 0.96912446
F  0.28212905 0.28211441 3.08550060
2
MD Step 299
Li  0.43484807 0.43482821 0.92358464
F  0.28218984 0.28217530 3.10361347
2
MD Step 300
Li  0.43862645 0.43860612 0.87933454
F  0.28228454 0.28227009 3.12125514
2
MD Step 301
Li  0.44229920 0.44227843 0.83655159
F  0.28241783 0.28240347 3.13836080
2
MD Step 302
Li  0.44585449 0.44583328 0.79538047
F  0.28259403 0.28257977 3.15487758
2
MD Step 303
Li  0.44927940 0.44925776 0.75593726
F  0.28281787 0.28280369 3.17076308
2
MD Step 304
Li  0.45255513 0.45253307 0.71831129
F  0.28309621 0.28308211 3.18598465
2
MD Step 305
Li  0.45565222 0.45562979 0.68256894
F  0.28343982 0.28342578 3.20051805
2
MD Step 306
Li  0.45854625 0.45852349 0.64876476
F  0.28385761 0.28384362 3.21434335
2
MD Step 307
Li  0.46124234 0.46121929 0.61693792
F  0.28434772 0.28433376 3.22744623
2
MD Step 308
Li  0.46375703 0.46373371 0.58710507
F  0.28490411 0.28489017 3.23982061
2
MD Step 309
Li  0.46610230 0.46607876 0.55926574
F  0.28552239 0.28550846 3.25146667
2
MD Step 310
Li  0.46828526 0.46826152 0.53340823
F  0.28619997 0.28618604 3.26238867
2
MD Step 311
Li  0.47031079 0.47028689 0.50951386
F  0.28693506 0.28692112 3.27259346
2
MD Step 312
Li  0.47218543 0.47216138 0.48756101
F  0.28772529 0.28771133 3.28208891
2
MD Step 313
Li  0.47392021 0.47389605 0.46752476
F  0.28856661 0.28855262 3.29088414
2
MD Step 314
Li  0.47552507 0.47550081 0.44937309
F  0.28945540 0.28944137 3.29899085
2
MD Step 315
Li  0.47700641 0.47698206 0.43307011
F  0.29038931 0.29037524 3.30642214
2
MD Step 316
Li  0.47836864 0.47834420 0.41857988
F  0.29136674 0.29135263 3.31319115
2
MD Step 317
Li  0.47961521 0.47959070 0.40586785
F  0.29238643 0.29237227 3.31931050
2
MD Step 318
Li  0.48074906 0.48072449 0.39490169
F  0.29344730 0.29343309 3.32479201
2
MD Step 319
Li  0.48177271 0.48174809 0.38565212
F  0.29454843 0.29453417 3.32964636
2
MD Step 320
Li  0.48268836 0.48266368 0.37809359
F  0.29568902 0.29567470 3.33388290
2
MD Step 321
Li  0.48349783 0.48347311 0.37220492
F  0.29686840 0.29685402 3.33750936
2
MD Step 322
Li  0.48420265 0.48417790 0.36796995
F  0.29808601 0.29807158 3.34053165
2
MD Step 323
Li  0.48480417 0.48477941 0.36537712
F  0.29934136 0.29932686 3.34295399
2
MD Step 324
Li  0.48530360 0.48527882 0.36441826
F  0.30063402 0.30061945 3.34477936
2
MD Step 325
Li  0.48570184 0.48567706 0.36508873
F  0.30196364 0.30194900 3.34600946
2
MD Step 326
Li  0.48599956 0.48597478 0.36738781
F  0.30332999 0.30331527 3.34664456
2
MD Step 327
Li  0.48619716 0.48617239 0.37131879
F  0.30473291 0.30471812 3.34668344
2
MD Step 328
Li  0.48629483 0.48627009 0.37688867
F  0.30617234 0.30615747 3.34612356
2
MD Step 329
Li  0.48629261 0.48626789 0.38410772
F  0.30764827 0.30763332 3.34496117
2
MD Step 330
Li  0.48619024 0.48616556 0.39299018
F  0.30916079 0.30914575 3.34319105
2
MD Step 331
Li  0.48598712 0.48596249 0.40355545
F  0.31071012 0.31069498 3.34080612
2
MD Step 332
Li  0.48568241 0.48565783 0.41582761
F  0.31229656 0.31228133 3.33779759
2
MD Step 333
Li  0.48527505 0.48525054 0.42983471
F  0.31392050 0.31390518 3.33415520
2
MD Step 334
Li  0.48476395 0.48473950 0.44560821
F  0.31558235 0.31556693 3.32986746
2
MD Step 335
Li  0.48414805 0.48412367 0.46318227
F  0.31728249 0.31726697 3.32492190
2
MD Step 336
Li  0.48342668 0.48340239 0.48259292
F  0.31902115 0.31900553 3.31930534
2
MD Step 337
Li  0.48260033 0.48257614 0.50387757
F  0.32079817 0.32078244 3.31300412
2
MD Step 338
Li  0.48167272 0.48164865 0.52707265
F  0.32261219 0.32259634 3.30600494
2
MD Step 339
Li  0.48065286 0.48062893 0.55220861
F  0.32445991 0.32444394 3.29829666
2
MD Step 340
Li  0.47954751 0.47952375 0.57930854
F  0.32633886 0.32632275 3.28987085
2
MD Step 341
Li  0.47835906 0.47833550 0.60839340
F  0.32824817 0.32823192 3.28071986
2
MD Step 342
Li  0.47709207 0.47706872 0.63947997
F  0.33018618 0.33016978 3.27083754
2
MD Step 343
Li  0.47575772 0.47573463 0.67257726
F  0.33214880 0.33213223 3.26022062
2
MD Step 344
Li  0.47437815 0.47435535 0.70768176
F  0.33412794 0.33411119 3.24887037
2
MD Step 345
Li  0.47297745 0.47295498 0.74476606
F  0.33611480 0.33609785 3.23679681
2