 Entering Gaussian System, Link 0=g16
 Initial command:
 /software/gaussian/g16-c01/avx2/g16/l1.exe "/gpfs/fs2/scratch/bweight/software/many_molecule_many_mode_NAMD/src/NAMD/EXAMPLE_2_BOMD_S1/G16/GS_NEW/Gau-6660.inp" -scrdir="/gpfs/fs2/scratch/bweight/software/many_molecule_many_mode_NAMD/src/NAMD/EXAMPLE_2_BOMD_S1/G16/GS_NEW/"
 Entering Link 1 = /software/gaussian/g16-c01/avx2/g16/l1.exe PID=      6661.
  
 Copyright (c) 1988-2019, Gaussian, Inc.  All Rights Reserved.
  
 This is part of the Gaussian(R) 16 program.  It is based on
 the Gaussian(R) 09 system (copyright 2009, Gaussian, Inc.),
 the Gaussian(R) 03 system (copyright 2003, Gaussian, Inc.),
 the Gaussian(R) 98 system (copyright 1998, Gaussian, Inc.),
 the Gaussian(R) 94 system (copyright 1995, Gaussian, Inc.),
 the Gaussian 92(TM) system (copyright 1992, Gaussian, Inc.),
 the Gaussian 90(TM) system (copyright 1990, Gaussian, Inc.),
 the Gaussian 88(TM) system (copyright 1988, Gaussian, Inc.),
 the Gaussian 86(TM) system (copyright 1986, Carnegie Mellon
 University), and the Gaussian 82(TM) system (copyright 1983,
 Carnegie Mellon University). Gaussian is a federally registered
 trademark of Gaussian, Inc.
  
 This software contains proprietary and confidential information,
 including trade secrets, belonging to Gaussian, Inc.
  
 This software is provided under written license and may be
 used, copied, transmitted, or stored only in accord with that
 written license.
  
 The following legend is applicable only to US Government
 contracts under FAR:
  
                    RESTRICTED RIGHTS LEGEND
  
 Use, reproduction and disclosure by the US Government is
 subject to restrictions as set forth in subparagraphs (a)
 and (c) of the Commercial Computer Software - Restricted
 Rights clause in FAR 52.227-19.
  
 Gaussian, Inc.
 340 Quinnipiac St., Bldg. 40, Wallingford CT 06492
  
  
 ---------------------------------------------------------------
 Warning -- This program may not be used in any manner that
 competes with the business of Gaussian, Inc. or will provide
 assistance to any competitor of Gaussian, Inc.  The licensee
 of this program is prohibited from giving any competitor of
 Gaussian, Inc. access to this program.  By using this program,
 the user acknowledges that Gaussian, Inc. is engaged in the
 business of creating and licensing software in the field of
 computational chemistry and represents and warrants to the
 licensee that it is not a competitor of Gaussian, Inc. and that
 it will not use this program in any manner prohibited above.
 ---------------------------------------------------------------
  

 Cite this work as:
 Gaussian 16, Revision C.01,
 M. J. Frisch, G. W. Trucks, H. B. Schlegel, G. E. Scuseria, 
 M. A. Robb, J. R. Cheeseman, G. Scalmani, V. Barone, 
 G. A. Petersson, H. Nakatsuji, X. Li, M. Caricato, A. V. Marenich, 
 J. Bloino, B. G. Janesko, R. Gomperts, B. Mennucci, H. P. Hratchian, 
 J. V. Ortiz, A. F. Izmaylov, J. L. Sonnenberg, D. Williams-Young, 
 F. Ding, F. Lipparini, F. Egidi, J. Goings, B. Peng, A. Petrone, 
 T. Henderson, D. Ranasinghe, V. G. Zakrzewski, J. Gao, N. Rega, 
 G. Zheng, W. Liang, M. Hada, M. Ehara, K. Toyota, R. Fukuda, 
 J. Hasegawa, M. Ishida, T. Nakajima, Y. Honda, O. Kitao, H. Nakai, 
 T. Vreven, K. Throssell, J. A. Montgomery, Jr., J. E. Peralta, 
 F. Ogliaro, M. J. Bearpark, J. J. Heyd, E. N. Brothers, K. N. Kudin, 
 V. N. Staroverov, T. A. Keith, R. Kobayashi, J. Normand, 
 K. Raghavachari, A. P. Rendell, J. C. Burant, S. S. Iyengar, 
 J. Tomasi, M. Cossi, J. M. Millam, M. Klene, C. Adamo, R. Cammi, 
 J. W. Ochterski, R. L. Martin, K. Morokuma, O. Farkas, 
 J. B. Foresman, and D. J. Fox, Gaussian, Inc., Wallingford CT, 2019.
 
 ******************************************
 Gaussian 16:  ES64L-G16RevC.01  3-Jul-2019
                29-Dec-2022 
 ******************************************
 %oldchk=../GS_OLD/geometry.chk
 %chk=geometry.chk
 %nprocshared=1
 Will use up to    1 processors via shared memory.
 %mem=5GB
 Copying data from "../GS_OLD/geometry.chk" to current chk file "geometry.chk"
 IOpt=  2 FromEx=T IUOpen= 4 IOptOp= 5 NList=   0 IFRang= 0 IUIn= 4 IUOut= 2.
 ------------------------------------------
 # BLYP/STO-3G SCF=XQC FORCE nosym pop=full
 ------------------------------------------
 1/10=7,30=1,38=1/1,3;
 2/12=2,15=1,17=6,18=5,40=1/2;
 3/6=3,11=2,25=1,30=1,71=1,74=402/1,2,3;
 4//1;
 5/5=2,8=3,13=1,38=5/2,8;
 6/7=3,28=1/1;
 7/29=1,30=1/1,2,3,16;
 1/10=7,30=1/3;
 99//99;
 -----------
 MD Step 999
 -----------
 Symbolic Z-matrix:
 Charge =  0 Multiplicity = 1
 Li                    2.05785   1.82841   2.28488 
 H                     0.27939   1.85967   1.71367 
 

 GradGradGradGradGradGradGradGradGradGradGradGradGradGradGradGradGradGrad
 Berny optimization.
 Initialization pass.
 Trust Radius=3.00D-01 FncErr=1.00D-07 GrdErr=1.00D-07 EigMax=2.50D+02 EigMin=1.00D-04
 Number of steps in this run=      2 maximum allowed number of steps=      2.
 GradGradGradGradGradGradGradGradGradGradGradGradGradGradGradGradGradGrad

                          Input orientation:                          
 ---------------------------------------------------------------------
 Center     Atomic      Atomic             Coordinates (Angstroms)
 Number     Number       Type             X           Y           Z
 ---------------------------------------------------------------------
      1          3           0        2.057847    1.828409    2.284877
      2          1           0        0.279387    1.859669    1.713671
 ---------------------------------------------------------------------
 Symmetry turned off by external request.
 Stoichiometry    HLi
 Framework group  C*V[C*(HLi)]
 Deg. of freedom     1
 Full point group                 C*V     NOp   4
 Rotational constants (GHZ):           0.0000000         164.3149527         164.3149527
 Standard basis: STO-3G (5D, 7F)
     6 basis functions,    18 primitive gaussians,     6 cartesian basis functions
     2 alpha electrons        2 beta electrons
       nuclear repulsion energy         0.8497652850 Hartrees.
 NAtoms=    2 NActive=    2 NUniq=    2 SFac= 1.00D+00 NAtFMM=   60 NAOKFM=F Big=F
 Integral buffers will be    131072 words long.
 Raffenetti 2 integral format.
 Two-electron integral symmetry is turned off.
 One-electron integrals computed using PRISM.
 NBasis=     6 RedAO= T EigKep=  4.28D-01  NBF=     6
 NBsUse=     6 1.00D-06 EigRej= -1.00D+00 NBFU=     6
 ExpMin= 4.81D-02 ExpMax= 1.61D+01 ExpMxC= 1.61D+01 IAcc=3 IRadAn=         5 AccDes= 0.00D+00
 Harris functional with IExCor=  402 and IRadAn=       5 diagonalized for initial guess.
 HarFok:  IExCor=  402 AccDes= 0.00D+00 IRadAn=         5 IDoV= 1 UseB2=F ITyADJ=14
 ICtDFT=  3500011 ScaDFX=  1.000000  1.000000  1.000000  1.000000
 FoFCou: FMM=F IPFlag=           0 FMFlag=      100000 FMFlg1=           0
         NFxFlg=           0 DoJE=T BraDBF=F KetDBF=T FulRan=T
         wScrn=  0.000000 ICntrl=       500 IOpCl=  0 I1Cent=   200000004 NGrid=           0
         NMat0=    1 NMatS0=      1 NMatT0=    0 NMatD0=    1 NMtDS0=    0 NMtDT0=    0
 Symmetry not used in FoFCou.
 Keep J ints in memory in canonical form, NReq=846976.
 Requested convergence on RMS density matrix=1.00D-08 within  32 cycles.
 Requested convergence on MAX density matrix=1.00D-06.
 Requested convergence on             energy=1.00D-06.
 No special actions if energy rises.
 SCF Done:  E(RB-LYP) =  -7.93129364100     A.U. after   10 cycles
            NFock= 10  Conv=0.83D-08     -V/T= 2.0053
 QCSCF skips out because SCF is already converged.

 **********************************************************************

            Population analysis using the SCF Density.

 **********************************************************************

 Alpha  occ. eigenvalues --   -1.78178  -0.12677
 Alpha virt. eigenvalues --   -0.03076   0.03111   0.03111   0.26291
     Molecular Orbital Coefficients:
                           1         2         3         4         5
                           O         O         V         V         V
     Eigenvalues --    -1.78178  -0.12677  -0.03076   0.03111   0.03111
   1 1   Li 1S          0.98658  -0.17392  -0.21983  -0.00000  -0.00000
   2        2S          0.05124   0.51031   0.79304   0.00000   0.00000
   3        2PX         0.00301  -0.27229   0.55804  -0.29449   0.08391
   4        2PY        -0.00005   0.00479  -0.00981   0.22360   0.97454
   5        2PZ         0.00097  -0.08745   0.17923   0.92913  -0.20793
   6 2   H  1S         -0.00347   0.57749  -0.23849  -0.00000  -0.00000
                           6
                           V
     Eigenvalues --     0.26291
   1 1   Li 1S          0.11304
   2        2S         -0.58249
   3        2PX         0.89143
   4        2PY        -0.01567
   5        2PZ         0.28631
   6 2   H  1S          1.03614
     Density Matrix:
                           1         2         3         4         5
   1 1   Li 1S          2.00716
   2        2S         -0.07640   0.52608
   3        2PX         0.10064  -0.27759   0.14830
   4        2PY        -0.00177   0.00488  -0.00261   0.00005
   5        2PZ         0.03232  -0.08916   0.04763  -0.00084   0.01530
   6 2   H  1S         -0.20772   0.58904  -0.31451   0.00553  -0.10101
                           6
   6 2   H  1S          0.66702
    Full Mulliken population analysis:
                           1         2         3         4         5
   1 1   Li 1S          2.00716
   2        2S         -0.01842   0.52608
   3        2PX         0.00000   0.00000   0.14830
   4        2PY         0.00000   0.00000   0.00000   0.00005
   5        2PZ         0.00000   0.00000   0.00000   0.00000   0.01530
   6 2   H  1S         -0.00772   0.19406   0.13605   0.00004   0.01403
                           6
   6 2   H  1S          0.66702
     Gross orbital populations:
                           1
   1 1   Li 1S          1.98102
   2        2S          0.70171
   3        2PX         0.28435
   4        2PY         0.00009
   5        2PZ         0.02933
   6 2   H  1S          1.00349
          Condensed to atoms (all electrons):
               1          2
     1  Li   2.660039   0.336468
     2  H    0.336468   0.667025
 Mulliken charges:
               1
     1  Li   0.003493
     2  H   -0.003493
 Sum of Mulliken charges =   0.00000
 Mulliken charges with hydrogens summed into heavy atoms:
               1
     1  Li   0.000000
 Electronic spatial extent (au):  <R**2>=            156.7756
 Charge=              0.0000 electrons
 Dipole moment (field-independent basis, Debye):
    X=              4.4612    Y=             -0.0784    Z=              1.4328  Tot=              4.6863
 Quadrupole moment (field-independent basis, Debye-Ang):
   XX=              9.7921   YY=             -5.8359   ZZ=              0.6879
   XY=              8.0485   XZ=             12.1717   YZ=              2.4577
 Traceless Quadrupole moment (field-independent basis, Debye-Ang):
   XX=              8.2441   YY=             -7.3840   ZZ=             -0.8601
   XY=              8.0485   XZ=             12.1717   YZ=              2.4577
 Octapole moment (field-independent basis, Debye-Ang**2):
  XXX=             21.3133  YYY=            -31.5043  ZZZ=            -12.5685  XYY=              8.3950
  XXY=             17.6684  XXZ=             26.6795  XZZ=             25.7387  YZZ=              0.8302
  YYZ=             -6.7809  XYZ=             22.0332
 Hexadecapole moment (field-independent basis, Debye-Ang**3):
 XXXX=             35.5073 YYYY=           -129.0829 ZZZZ=            -85.2352 XXXY=             38.4960
 XXXZ=             57.3477 YYYX=             -7.6900 YYYZ=            -53.6308 ZZZX=             44.3618
 ZZZY=            -24.2147 XXYY=             20.1099 XXZZ=             57.8469 YYZZ=            -25.6272
 XXYZ=             48.3078 YYXZ=             27.6370 ZZXY=             46.5117
 N-N= 8.497652850146D-01 E-N=-2.002270021635D+01  KE= 7.889681019110D+00
 Orbital energies and kinetic energies (alpha):
                                 1                 2
   1         O                -1.781775          3.479717
   2         O                -0.126770          0.465124
   3         V                -0.030760          0.411309
   4         V                 0.031113          0.319682
   5         V                 0.031113          0.319682
   6         V                 0.262909          0.971518
 Total kinetic energy from orbitals= 7.889681019110D+00
 Calling FoFJK, ICntrl=      2527 FMM=F ISym2X=0 I1Cent= 0 IOpClX= 0 NMat=1 NMatS=1 NMatT=0.
 -------------------------------------------------------------------
 Center     Atomic                   Forces (Hartrees/Bohr)
 Number     Number              X              Y              Z
 -------------------------------------------------------------------
      1        3          -0.034577523    0.000607787   -0.011105609
      2        1           0.034577523   -0.000607787    0.011105609
 -------------------------------------------------------------------
 Cartesian Forces:  Max     0.034577523 RMS     0.020970686

 GradGradGradGradGradGradGradGradGradGradGradGradGradGradGradGradGradGrad
 Berny optimization.
 Search for a local minimum.
 Step number   1 out of a maximum of    2
 All quantities printed in internal units (Hartrees-Bohrs-Radians)
 Second derivative matrix not updated -- first step.
 The second derivative matrix:
                          X1        Y1        Z1        X2        Y2
           X1           0.04894
           Y1          -0.00086   1.00000
           Z1           0.01572  -0.00028   0.00505
           X2          -0.04894   0.00086  -0.01572   0.04894
           Y2           0.00086  -0.00002   0.00028  -0.00086   1.00000
           Z2          -0.01572   0.00028  -0.00505   0.01572  -0.00028
                          Z2
           Z2           0.00505
 ITU=  0
     Eigenvalues ---    0.10105
 Quadratic step=4.910D-01 exceeds max=3.000D-01 adjusted using Lamda=-6.433D-02.
 Angle between NR and scaled steps=   0.00 degrees.
 Angle between quadratic step and forces=  15.00 degrees.
 Linear search not attempted -- first point.
 B after Tr=    -0.052270    0.000919   -0.016788
         Rot=    1.000000    0.000000   -0.000000    0.000000 Ang=   0.00 deg.
 Variable       Old X    -DE/DX   Delta X   Delta X   Delta X     New X
                                 (Linear)    (Quad)   (Total)
    X1        3.88877  -0.03458   0.00000  -0.14280  -0.19507   3.69369
    Y1        3.45519   0.00061   0.00000   0.00251   0.00343   3.45862
    Z1        4.31779  -0.01111   0.00000  -0.04587  -0.06265   4.25514
    X2        0.52797   0.03458   0.00000   0.24734   0.19507   0.72304
    Y2        3.51426  -0.00061   0.00000  -0.00435  -0.00343   3.51084
    Z2        3.23837   0.01111   0.00000   0.07944   0.06265   3.30102
         Item               Value     Threshold  Converged?
 Maximum Force            0.034578     0.000450     NO 
 RMS     Force            0.020971     0.000300     NO 
 Maximum Displacement     0.195072     0.001800     NO 
 RMS     Displacement     0.118308     0.001200     NO 
 Predicted change in Energy=-1.033893D-02
 GradGradGradGradGradGradGradGradGradGradGradGradGradGradGradGradGradGrad

 Unable to Open any file for archive entry.
 1\1\GINC-BHD0001\Force\RBLYP\STO-3G\H1Li1\BWEIGHT\29-Dec-2022\0\\# BLY
 P/STO-3G SCF=XQC FORCE nosym pop=full\\MD Step 999\\0,1\Li,2.05784675,
 1.82840903,2.2848771\H,0.27938737,1.85966853,1.71367059\\Version=ES64L
 -G16RevC.01\HF=-7.9312936\RMSD=8.324e-09\RMSF=2.097e-02\Dipole=1.75515
 38,-0.0308501,0.5637211\Quadrupole=6.1292928,-5.4897943,-0.6394986,5.9
 838949,9.0493388,1.8272375\PG=C*V [C*(H1Li1)]\\@
 The archive entry for this job was punched.


 AS FAR AS THE LAWS OF MATHEMATICS REFER TO REALITY,
 THEY ARE NOT CERTAIN; AND AS FAR AS THEY ARE CERTAIN,
 THEY DO NOT REFER TO REALITY.

                                         -- ALBERT EINSTEIN
 Job cpu time:       0 days  0 hours  0 minutes  3.6 seconds.
 Elapsed time:       0 days  0 hours  0 minutes  3.9 seconds.
 File lengths (MBytes):  RWF=    272 Int=      0 D2E=      0 Chk=     32 Scr=     32
 Normal termination of Gaussian 16 at Thu Dec 29 05:02:36 2022.
