 Entering Gaussian System, Link 0=g16
 Initial command:
 /software/gaussian/g16-c01/avx2/g16/l1.exe "/gpfs/fs2/scratch/bweight/software/many_molecule_many_mode_NAMD/src/NAMD/TEST_NVT/TRAJ/traj-55/G16/GS_NEW/Gau-28339.inp" -scrdir="/gpfs/fs2/scratch/bweight/software/many_molecule_many_mode_NAMD/src/NAMD/TEST_NVT/TRAJ/traj-55/G16/GS_NEW/"
 Entering Link 1 = /software/gaussian/g16-c01/avx2/g16/l1.exe PID=     28340.
  
 Copyright (c) 1988-2019, Gaussian, Inc.  All Rights Reserved.
  
 This is part of the Gaussian(R) 16 program.  It is based on
 the Gaussian(R) 09 system (copyright 2009, Gaussian, Inc.),
 the Gaussian(R) 03 system (copyright 2003, Gaussian, Inc.),
 the Gaussian(R) 98 system (copyright 1998, Gaussian, Inc.),
 the Gaussian(R) 94 system (copyright 1995, Gaussian, Inc.),
 the Gaussian 92(TM) system (copyright 1992, Gaussian, Inc.),
 the Gaussian 90(TM) system (copyright 1990, Gaussian, Inc.),
 the Gaussian 88(TM) system (copyright 1988, Gaussian, Inc.),
 the Gaussian 86(TM) system (copyright 1986, Carnegie Mellon
 University), and the Gaussian 82(TM) system (copyright 1983,
 Carnegie Mellon University). Gaussian is a federally registered
 trademark of Gaussian, Inc.
  
 This software contains proprietary and confidential information,
 including trade secrets, belonging to Gaussian, Inc.
  
 This software is provided under written license and may be
 used, copied, transmitted, or stored only in accord with that
 written license.
  
 The following legend is applicable only to US Government
 contracts under FAR:
  
                    RESTRICTED RIGHTS LEGEND
  
 Use, reproduction and disclosure by the US Government is
 subject to restrictions as set forth in subparagraphs (a)
 and (c) of the Commercial Computer Software - Restricted
 Rights clause in FAR 52.227-19.
  
 Gaussian, Inc.
 340 Quinnipiac St., Bldg. 40, Wallingford CT 06492
  
  
 ---------------------------------------------------------------
 Warning -- This program may not be used in any manner that
 competes with the business of Gaussian, Inc. or will provide
 assistance to any competitor of Gaussian, Inc.  The licensee
 of this program is prohibited from giving any competitor of
 Gaussian, Inc. access to this program.  By using this program,
 the user acknowledges that Gaussian, Inc. is engaged in the
 business of creating and licensing software in the field of
 computational chemistry and represents and warrants to the
 licensee that it is not a competitor of Gaussian, Inc. and that
 it will not use this program in any manner prohibited above.
 ---------------------------------------------------------------
  

 Cite this work as:
 Gaussian 16, Revision C.01,
 M. J. Frisch, G. W. Trucks, H. B. Schlegel, G. E. Scuseria, 
 M. A. Robb, J. R. Cheeseman, G. Scalmani, V. Barone, 
 G. A. Petersson, H. Nakatsuji, X. Li, M. Caricato, A. V. Marenich, 
 J. Bloino, B. G. Janesko, R. Gomperts, B. Mennucci, H. P. Hratchian, 
 J. V. Ortiz, A. F. Izmaylov, J. L. Sonnenberg, D. Williams-Young, 
 F. Ding, F. Lipparini, F. Egidi, J. Goings, B. Peng, A. Petrone, 
 T. Henderson, D. Ranasinghe, V. G. Zakrzewski, J. Gao, N. Rega, 
 G. Zheng, W. Liang, M. Hada, M. Ehara, K. Toyota, R. Fukuda, 
 J. Hasegawa, M. Ishida, T. Nakajima, Y. Honda, O. Kitao, H. Nakai, 
 T. Vreven, K. Throssell, J. A. Montgomery, Jr., J. E. Peralta, 
 F. Ogliaro, M. J. Bearpark, J. J. Heyd, E. N. Brothers, K. N. Kudin, 
 V. N. Staroverov, T. A. Keith, R. Kobayashi, J. Normand, 
 K. Raghavachari, A. P. Rendell, J. C. Burant, S. S. Iyengar, 
 J. Tomasi, M. Cossi, J. M. Millam, M. Klene, C. Adamo, R. Cammi, 
 J. W. Ochterski, R. L. Martin, K. Morokuma, O. Farkas, 
 J. B. Foresman, and D. J. Fox, Gaussian, Inc., Wallingford CT, 2019.
 
 ******************************************
 Gaussian 16:  ES64L-G16RevC.01  3-Jul-2019
                11-Jan-2023 
 ******************************************
 %oldchk=../GS_OLD/geometry.chk
 %chk=geometry.chk
 %nprocshared=4
 Will use up to    4 processors via shared memory.
 %mem=5GB
 Copying data from "../GS_OLD/geometry.chk" to current chk file "geometry.chk"
 IOpt=  2 FromEx=T IUOpen= 4 IOptOp= 5 NList=   0 IFRang= 0 IUIn= 4 IUOut= 2.
 -------------------------------------------------------
 # WB97XD/6-311G SCF=XQC FORCE nosym pop=full guess=read
 -------------------------------------------------------
 1/10=7,30=1,38=1/1,3;
 2/12=2,15=1,17=6,18=5,40=1/2;
 3/5=4,6=6,11=2,25=1,30=1,71=1,74=-58,116=-2/1,2,3;
 4/5=1/1;
 5/5=2,8=3,13=1,38=6/2,8;
 6/7=3,28=1/1;
 7/29=1,30=1/1,2,3,16;
 1/10=7,30=1/3;
 99//99;
 ------------
 MD Step 1000
 ------------
 Symbolic Z-matrix:
 Charge =  0 Multiplicity = 1
 C                    -0.33541  -0.58092   0.00471 
 H                     0.21051  -1.53682  -0.01524 
 H                    -1.42672  -0.59243  -0.01591 
 C                     0.33383   0.57835   0.00387 
 H                    -0.16687   1.55534  -0.01743 
 H                     1.43869   0.64126  -0.01683 
 

 GradGradGradGradGradGradGradGradGradGradGradGradGradGradGradGradGradGrad
 Berny optimization.
 Initialization pass.
 Trust Radius=3.00D-01 FncErr=1.00D-07 GrdErr=1.00D-07 EigMax=2.50D+02 EigMin=1.00D-04
 Number of steps in this run=      2 maximum allowed number of steps=      2.
 GradGradGradGradGradGradGradGradGradGradGradGradGradGradGradGradGradGrad

                          Input orientation:                          
 ---------------------------------------------------------------------
 Center     Atomic      Atomic             Coordinates (Angstroms)
 Number     Number       Type             X           Y           Z
 ---------------------------------------------------------------------
      1          6           0       -0.335413   -0.580923    0.004705
      2          1           0        0.210511   -1.536824   -0.015243
      3          1           0       -1.426717   -0.592433   -0.015906
      4          6           0        0.333826    0.578351    0.003866
      5          1           0       -0.166868    1.555345   -0.017434
      6          1           0        1.438692    0.641261   -0.016834
 ---------------------------------------------------------------------
                    Distance matrix (angstroms):
                    1          2          3          4          5
     1  C    0.000000
     2  H    1.100989   0.000000
     3  H    1.091559   1.890077   0.000000
     4  C    1.338580   2.118852   2.114387   0.000000
     5  H    2.143021   3.115112   2.490014   1.098027   0.000000
     6  H    2.154447   2.500496   3.119706   1.106849   1.847531
                    6
     6  H    0.000000
 Symmetry turned off by external request.
 Stoichiometry    C2H4
 Framework group  C1[X(C2H4)]
 Deg. of freedom    12
 Full point group                 C1      NOp   1
 Rotational constants (GHZ):         143.5050502          29.6780790          24.5957151
 Standard basis: 6-311G (5D, 7F)
    38 basis functions,    72 primitive gaussians,    38 cartesian basis functions
     8 alpha electrons        8 beta electrons
       nuclear repulsion energy        33.0699998571 Hartrees.
 NAtoms=    6 NActive=    6 NUniq=    6 SFac= 1.00D+00 NAtFMM=   60 NAOKFM=F Big=F
 Integral buffers will be    131072 words long.
 Raffenetti 2 integral format.
 Two-electron integral symmetry is turned off.
 Nuclear repulsion after empirical dispersion term =       33.0691587520 Hartrees.
 One-electron integrals computed using PRISM.
 NBasis=    38 RedAO= T EigKep=  6.45D-03  NBF=    38
 NBsUse=    38 1.00D-06 EigRej= -1.00D+00 NBFU=    38
 Initial guess from the checkpoint file:  "geometry.chk"
 B after Tr=    -0.000286   -0.000325   -0.000453
         Rot=    1.000000    0.000001    0.000001    0.000005 Ang=   0.00 deg.
 Keep R1 ints in memory in canonical form, NReq=4036876.
 Requested convergence on RMS density matrix=1.00D-08 within  32 cycles.
 Requested convergence on MAX density matrix=1.00D-06.
 Requested convergence on             energy=1.00D-06.
 No special actions if energy rises.
 SCF Done:  E(RwB97XD) =  -78.5562941034     A.U. after    8 cycles
            NFock=  8  Conv=0.52D-08     -V/T= 2.0052
 QCSCF skips out because SCF is already converged.

 **********************************************************************

            Population analysis using the SCF Density.

 **********************************************************************

 Alpha  occ. eigenvalues --  -10.28951 -10.28858  -0.86360  -0.67248  -0.55912
 Alpha  occ. eigenvalues --   -0.50939  -0.43705  -0.35672
 Alpha virt. eigenvalues --    0.07986   0.14110   0.16487   0.17026   0.24091
 Alpha virt. eigenvalues --    0.37523   0.39347   0.39732   0.46483   0.48779
 Alpha virt. eigenvalues --    0.49388   0.59104   0.66589   0.69113   0.77382
 Alpha virt. eigenvalues --    0.77489   0.84445   0.95181   2.23185   2.29001
 Alpha virt. eigenvalues --    2.33239   2.40758   2.67111   2.81822   2.87841
 Alpha virt. eigenvalues --    2.95234   3.14018   3.32031  23.35273  23.70563
     Molecular Orbital Coefficients:
                           1         2         3         4         5
                           O         O         O         O         O
     Eigenvalues --   -10.28951 -10.28858  -0.86360  -0.67248  -0.55912
   1 1   C  1S          0.32672   0.45900  -0.08795   0.06730  -0.00033
   2        2S          0.26906   0.37765  -0.13899   0.10780  -0.00054
   3        2PX         0.00014  -0.00009   0.02616   0.03593   0.13461
   4        2PY         0.00024  -0.00014   0.04658   0.05990  -0.07332
   5        2PZ        -0.00000  -0.00000  -0.00081   0.00123   0.00012
   6        3S          0.00773   0.01237   0.37281  -0.29426   0.00155
   7        3PX        -0.00036   0.00065   0.03428   0.05785   0.21101
   8        3PY        -0.00061   0.00114   0.06087   0.09726  -0.11550
   9        3PZ        -0.00002  -0.00001  -0.00136   0.00221   0.00019
  10        4S         -0.00321  -0.01464   0.19133  -0.22871   0.00121
  11        4PX         0.00069  -0.00202   0.00485   0.02330   0.11035
  12        4PY         0.00119  -0.00350   0.00887   0.04054  -0.06125
  13        4PZ         0.00002   0.00005  -0.00049   0.00111   0.00009
  14 2   H  1S         -0.00007  -0.00003   0.05167  -0.08797   0.09988
  15        2S         -0.00023   0.00022   0.05309  -0.10607   0.12659
  16        3S          0.00144   0.00116  -0.00166  -0.01524   0.04087
  17 3   H  1S         -0.00007  -0.00004   0.05287  -0.09049  -0.10241
  18        2S         -0.00023   0.00021   0.05381  -0.10858  -0.12915
  19        3S          0.00147   0.00118  -0.00169  -0.01598  -0.04168
  20 4   C  1S          0.45890  -0.32687  -0.08729  -0.06792  -0.00033
  21        2S          0.37780  -0.26886  -0.13786  -0.10890  -0.00053
  22        2PX        -0.00009  -0.00014  -0.02738   0.03750   0.12143
  23        2PY        -0.00015  -0.00024  -0.04608   0.06728  -0.07425
  24        2PZ        -0.00000   0.00000  -0.00071  -0.00136   0.00012
  25        3S          0.01129  -0.00913   0.36938   0.29752   0.00146
  26        3PX         0.00012   0.00074  -0.03463   0.06068   0.19010
  27        3PY         0.00024   0.00128  -0.05809   0.10819  -0.11536
  28        3PZ        -0.00002   0.00001  -0.00122  -0.00242   0.00019
  29        4S         -0.00762   0.01280   0.18950   0.23508   0.00076
  30        4PX        -0.00001  -0.00211  -0.00531   0.02630   0.10349
  31        4PY        -0.00007  -0.00364  -0.00881   0.04546  -0.06203
  32        4PZ         0.00004  -0.00003  -0.00049  -0.00123   0.00009
  33 5   H  1S         -0.00008  -0.00000   0.05103   0.09370  -0.09226
  34        2S         -0.00015  -0.00028   0.05193   0.11146  -0.11615
  35        3S          0.00173  -0.00064  -0.00111   0.01674  -0.03737
  36 6   H  1S         -0.00007  -0.00001   0.04974   0.09182   0.08917
  37        2S         -0.00016  -0.00028   0.05119   0.10974   0.11273
  38        3S          0.00168  -0.00062  -0.00122   0.01616   0.03649
                           6         7         8         9        10
                           O         O         O         V         V
     Eigenvalues --    -0.50939  -0.43705  -0.35672   0.07986   0.14110
   1 1   C  1S         -0.00400   0.00012  -0.00062   0.00175  -0.03447
   2        2S         -0.00603   0.00020  -0.00101   0.00291  -0.05532
   3        2PX         0.09503  -0.11328  -0.00220   0.00098  -0.03302
   4        2PY         0.16777   0.06706  -0.00371   0.00161  -0.06464
   5        2PZ         0.00329  -0.00002   0.17941  -0.18924  -0.00175
   6        3S          0.02238  -0.00036   0.00294  -0.00879   0.12094
   7        3PX         0.13836  -0.18095  -0.00311   0.00149  -0.03902
   8        3PY         0.24540   0.10766  -0.00522   0.00242  -0.07917
   9        3PZ         0.00522  -0.00001   0.28817  -0.27803  -0.00276
  10        4S         -0.05161  -0.00249   0.00449  -0.01009   1.24154
  11        4PX         0.07000  -0.11283  -0.00251   0.00819  -0.20455
  12        4PY         0.12490   0.06733  -0.00423   0.01380  -0.39032
  13        4PZ         0.00297   0.00001   0.26717  -0.69571  -0.01008
  14 2   H  1S         -0.08047  -0.11664   0.00010   0.00271  -0.01704
  15        2S         -0.11144  -0.18070   0.00129   0.00434  -0.04692
  16        3S         -0.04164  -0.08380   0.00077   0.01156  -0.84403
  17 3   H  1S         -0.07930   0.11479   0.00007   0.00272  -0.01412
  18        2S         -0.10932   0.17715   0.00125   0.00437  -0.04007
  19        3S         -0.04059   0.08189   0.00075   0.01143  -0.79740
  20 4   C  1S         -0.00807  -0.00038  -0.00055  -0.00170  -0.03520
  21        2S         -0.01262  -0.00063  -0.00090  -0.00282  -0.05651
  22        2PX        -0.09738   0.12307   0.00214   0.00106   0.03916
  23        2PY        -0.16290  -0.07222   0.00392   0.00192   0.06107
  24        2PZ         0.00346   0.00011   0.17918   0.18939  -0.00178
  25        3S          0.04089   0.00175   0.00264   0.00848   0.12421
  26        3PX        -0.14390   0.19672   0.00300   0.00163   0.04802
  27        3PY        -0.23929  -0.11462   0.00552   0.00296   0.07297
  28        3PZ         0.00546   0.00017   0.28714   0.27802  -0.00272
  29        4S         -0.02988   0.00266   0.00421   0.00947   1.22919
  30        4PX        -0.07489   0.12463   0.00234   0.00834   0.25329
  31        4PY        -0.12341  -0.07231   0.00438   0.01469   0.40720
  32        4PZ         0.00315   0.00010   0.26751   0.69633  -0.01074
  33 5   H  1S         -0.07500  -0.12335   0.00013  -0.00260  -0.01185
  34        2S         -0.10224  -0.19139   0.00137  -0.00426  -0.03777
  35        3S         -0.03816  -0.08949   0.00077  -0.01095  -0.81487
  36 6   H  1S         -0.07955   0.12285   0.00010  -0.00262  -0.01458
  37        2S         -0.10880   0.19167   0.00133  -0.00436  -0.04442
  38        3S         -0.04071   0.08977   0.00073  -0.01129  -0.86215
                          11        12        13        14        15
                           V         V         V         V         V
     Eigenvalues --     0.16487   0.17026   0.24091   0.37523   0.39347
   1 1   C  1S          0.00181  -0.04467   0.00012   0.01110   0.00123
   2        2S          0.00294  -0.07280   0.00018   0.01575   0.00199
   3        2PX         0.09884  -0.01763   0.09964  -0.03816  -0.02514
   4        2PY        -0.05460  -0.03813  -0.05698  -0.06843   0.01066
   5        2PZ         0.00018  -0.00423   0.00002  -0.00303  -0.00010
   6        3S         -0.00658   0.16441   0.00025   0.02683  -0.00073
   7        3PX         0.14111  -0.00883   0.10644  -0.05180  -0.10798
   8        3PY        -0.07949  -0.02622  -0.06165  -0.09716   0.04918
   9        3PZ         0.00025  -0.00585   0.00001  -0.00598  -0.00003
  10        4S         -0.06697   1.40269  -0.02479  -2.78483  -0.22766
  11        4PX         0.58164  -0.09878   1.15809  -1.59198  -0.52575
  12        4PY        -0.31364  -0.21013  -0.66784  -2.76919   0.15525
  13        4PZ         0.00118  -0.02765   0.00054  -0.02762  -0.00140
  14 2   H  1S         -0.02905  -0.02608   0.01231  -0.05401   0.07821
  15        2S         -0.07778  -0.02047  -0.02645  -0.62566   0.80053
  16        3S         -1.01735  -1.01026  -1.52859  -0.33973  -0.35865
  17 3   H  1S          0.02956  -0.02481  -0.01379  -0.04817  -0.07637
  18        2S          0.07787  -0.01926   0.02185  -0.57732  -0.75785
  19        3S          1.10784  -0.96269   1.55747  -0.40015   0.28386
  20 4   C  1S         -0.00003   0.04327  -0.00017  -0.01964   0.00007
  21        2S         -0.00008   0.07044  -0.00028  -0.03196   0.00030
  22        2PX         0.10039  -0.02147  -0.10049  -0.04147  -0.03022
  23        2PY        -0.05861  -0.03895   0.05759  -0.07424   0.01191
  24        2PZ        -0.00001   0.00422  -0.00002   0.00234   0.00027
  25        3S          0.00063  -0.15666   0.00035   0.03481  -0.00373
  26        3PX         0.14393  -0.01523  -0.11286  -0.09141  -0.10831
  27        3PY        -0.08394  -0.02858   0.06349  -0.16615   0.05686
  28        3PZ        -0.00001   0.00582   0.00000   0.00310   0.00063
  29        4S         -0.01669  -1.37471   0.02161   3.38424   0.14202
  30        4PX         0.54397  -0.11355  -1.13715  -1.25017  -0.58558
  31        4PY        -0.32163  -0.21096   0.65319  -2.20081   0.07648
  32        4PZ        -0.00002   0.02753  -0.00054   0.02337   0.00204
  33 5   H  1S          0.03008   0.02499   0.00788   0.01336  -0.07784
  34        2S          0.06884   0.02142  -0.03087   0.10371  -0.76009
  35        3S          1.05257   0.98362  -1.54758   0.46660   0.43865
  36 6   H  1S         -0.03160   0.02445  -0.00659   0.00843   0.08781
  37        2S         -0.07098   0.01861   0.03264   0.06213   0.90180
  38        3S         -1.03283   0.95059   1.52464   0.47614  -0.41734
                          16        17        18        19        20
                           V         V         V         V         V
     Eigenvalues --     0.39732   0.46483   0.48779   0.49388   0.59104
   1 1   C  1S         -0.01748  -0.00911   0.04796   0.00018  -0.00038
   2        2S         -0.03103  -0.02336   0.08093   0.00047  -0.00069
   3        2PX         0.02347   0.06063  -0.01682   0.00072   0.00138
   4        2PY         0.04477   0.10439  -0.02385   0.00106   0.00205
   5        2PZ        -0.00004   0.00038  -0.00194  -0.15222  -0.19239
   6        3S          0.07913   0.33033  -0.12469  -0.00657   0.00007
   7        3PX         0.09562   0.24449   0.01239   0.00083   0.00462
   8        3PY         0.18567   0.41950   0.03251   0.00076   0.00696
   9        3PZ        -0.00288   0.00282  -0.00947  -0.62954  -0.68400
  10        4S          2.39431  -0.30011  -3.11347   0.03125   0.04299
  11        4PX         0.10376  -0.27853  -0.78751   0.01127   0.01400
  12        4PY         0.23759  -0.51884  -1.37114   0.02090   0.02375
  13        4PZ        -0.00180   0.00178   0.05013   0.68857   1.23960
  14 2   H  1S         -0.02714   0.03968   0.07447  -0.00099  -0.00108
  15        2S         -0.54758   0.38300   0.88502  -0.00778  -0.00757
  16        3S          0.26596  -0.12122  -0.64217   0.01370   0.01493
  17 3   H  1S         -0.03799   0.04254   0.07186  -0.00097  -0.00102
  18        2S         -0.64952   0.41795   0.85922  -0.00782  -0.00629
  19        3S          0.29976  -0.12595  -0.60965   0.01338   0.01460
  20 4   C  1S         -0.00243  -0.00102  -0.05056   0.00150   0.00042
  21        2S         -0.00754  -0.00954  -0.08726   0.00274   0.00079
  22        2PX         0.00526  -0.05646  -0.02348  -0.00023   0.00126
  23        2PY         0.01295  -0.09836  -0.04397  -0.00045   0.00249
  24        2PZ        -0.00221   0.00097  -0.00205  -0.15249   0.19236
  25        3S          0.08043   0.30270   0.20221  -0.01135  -0.00114
  26        3PX        -0.05127  -0.23810  -0.03582  -0.00061   0.00444
  27        3PY        -0.07244  -0.41799  -0.06694  -0.00141   0.00858
  28        3PZ        -0.00655   0.00422  -0.00706  -0.63083   0.68323
  29        4S         -0.54851  -0.58702   3.16773  -0.04563  -0.03994
  30        4PX         1.11956   0.31811  -0.66278   0.00507   0.01335
  31        4PY         2.06298   0.52045  -1.11470   0.00811   0.02329
  32        4PZ        -0.02019   0.00874  -0.03009   0.69128  -1.23841
  33 5   H  1S         -0.05092   0.05862  -0.06771   0.00097   0.00101
  34        2S         -0.86545   0.59655  -0.85050   0.01598   0.00444
  35        3S         -0.14536  -0.22002   0.56161  -0.00150  -0.01457
  36 6   H  1S         -0.03938   0.05684  -0.06820   0.00100   0.00105
  37        2S         -0.73970   0.57039  -0.84445   0.01581   0.00510
  38        3S         -0.18416  -0.23322   0.58727  -0.00216  -0.01477
                          21        22        23        24        25
                           V         V         V         V         V
     Eigenvalues --     0.66589   0.69113   0.77382   0.77489   0.84445
   1 1   C  1S          0.00066   0.00005   0.06787   0.05772   0.00048
   2        2S          0.00134   0.00020   0.14369   0.12330   0.00109
   3        2PX        -0.14156  -0.19176   0.00286   0.11573  -0.00956
   4        2PY         0.08255   0.11412   0.00369   0.19228   0.01052
   5        2PZ        -0.00005  -0.00013   0.00114   0.00291   0.00008
   6        3S         -0.01021  -0.00795  -1.04562  -1.11762  -0.01101
   7        3PX        -0.64634  -0.66254  -0.06219   0.46831  -0.23248
   8        3PY         0.37426   0.39485  -0.11446   0.77430   0.15348
   9        3PZ        -0.00028  -0.00051   0.00408   0.01016   0.00029
  10        4S          0.01790   0.06370   1.34452   2.20460  -0.07031
  11        4PX         1.12619   0.75211  -0.01316  -0.72504   4.45948
  12        4PY        -0.65592  -0.44032  -0.03188  -1.06290  -2.58246
  13        4PZ         0.00034  -0.00029  -0.00299  -0.03546   0.00213
  14 2   H  1S          0.02571   0.05734   0.01852   0.02893  -0.02687
  15        2S          0.16000   0.60943   0.09026   0.05836  -1.54927
  16        3S         -1.08092  -1.04750  -0.36452  -1.06053  -1.20562
  17 3   H  1S         -0.02515  -0.05733   0.01837   0.02964   0.02898
  18        2S         -0.16984  -0.63794   0.10195   0.04089   1.57976
  19        3S          1.07152   1.03088  -0.37428  -1.15701   1.21210
  20 4   C  1S          0.00085   0.00020   0.08942   0.00903   0.00042
  21        2S          0.00171   0.00031   0.19014   0.01840   0.00087
  22        2PX        -0.14301   0.19237  -0.08019   0.07563   0.00975
  23        2PY         0.08171  -0.10750  -0.14447   0.13634  -0.00081
  24        2PZ        -0.00004   0.00014   0.00302  -0.00145  -0.00010
  25        3S         -0.01201   0.00393  -1.54194   0.01460  -0.00571
  26        3PX        -0.65572   0.66072  -0.27052   0.36072   0.23191
  27        3PY         0.37676  -0.36830  -0.49154   0.64834  -0.10861
  28        3PZ        -0.00023   0.00049   0.01060  -0.00528  -0.00035
  29        4S          0.01100  -0.05660   2.59646  -0.56530   0.05151
  30        4PX         1.24521  -0.78973   0.44337  -0.39999  -4.24939
  31        4PY        -0.71087   0.44826   0.82658  -0.86743   2.39285
  32        4PZ         0.00042   0.00024  -0.02832   0.02406  -0.00164
  33 5   H  1S         -0.02327   0.05649   0.03397  -0.00602  -0.02450
  34        2S         -0.12499   0.58727   0.10184   0.04465  -1.44728
  35        3S          1.08255  -1.03907  -1.06251   0.56388  -1.12708
  36 6   H  1S          0.02364  -0.05642   0.03365  -0.00529   0.02467
  37        2S          0.11994  -0.55578   0.09204   0.01108   1.43450
  38        3S         -1.08446   1.04914  -1.01443   0.50159   1.13279
                          26        27        28        29        30
                           V         V         V         V         V
     Eigenvalues --     0.95181   2.23185   2.29001   2.33239   2.40758
   1 1   C  1S          0.09554  -0.00994  -0.01402   0.00017  -0.00035
   2        2S          0.19848   0.00166  -0.01377   0.00058  -0.00031
   3        2PX        -0.09132  -0.08680  -0.13500   0.34227  -0.40692
   4        2PY        -0.15831  -0.15889  -0.22843  -0.19727   0.23387
   5        2PZ         0.00007  -0.00855  -0.01167  -0.00008  -0.00043
   6        3S         -1.53807  -0.18373  -0.03575  -0.00214  -0.00405
   7        3PX        -0.23206   0.08984   0.21455  -0.41467   0.56761
   8        3PY        -0.39609   0.17402   0.37556   0.24129  -0.32908
   9        3PZ        -0.00168   0.00867   0.01462   0.00013   0.00050
  10        4S          5.71119  -0.10737  -0.88378  -0.00584  -0.02674
  11        4PX         1.18734   0.04752  -0.19496  -0.03141   0.96217
  12        4PY         1.98895   0.06186  -0.35243   0.00968  -0.54450
  13        4PZ        -0.01150   0.00189   0.00503  -0.00010   0.00080
  14 2   H  1S          0.01604  -0.71538  -0.77841  -0.71885   0.64902
  15        2S         -0.29089   1.01819   1.16863   1.10124  -1.44811
  16        3S         -0.08847  -0.30981  -0.46478  -0.48340   0.37077
  17 3   H  1S          0.01628  -0.71079  -0.78581   0.69930  -0.66674
  18        2S         -0.26843   1.01375   1.18116  -1.07537   1.48431
  19        3S         -0.07701  -0.29330  -0.46082   0.46838  -0.36599
  20 4   C  1S         -0.09421  -0.01081   0.01275   0.00047   0.00027
  21        2S         -0.19546  -0.00041   0.01311   0.00068   0.00043
  22        2PX        -0.09219   0.12717  -0.12681   0.30671   0.41923
  23        2PY        -0.15900   0.22293  -0.21054  -0.17793  -0.23813
  24        2PZ         0.00015  -0.00953   0.01133   0.00024   0.00015
  25        3S          1.51136  -0.16983   0.01860  -0.00023   0.00020
  26        3PX        -0.22742  -0.15864   0.21468  -0.37741  -0.58629
  27        3PY        -0.39713  -0.27278   0.35213   0.21709   0.33219
  28        3PZ         0.00225   0.01008  -0.01440  -0.00026  -0.00024
  29        4S         -5.69842  -0.17370   0.89377   0.01860   0.01679
  30        4PX         1.11764  -0.01818  -0.19646   0.09080  -0.88825
  31        4PY         1.98700  -0.04240  -0.32341  -0.05353   0.51087
  32        4PZ         0.00867   0.00311  -0.00437  -0.00011  -0.00071
  33 5   H  1S         -0.01736  -0.78344   0.68418   0.70072   0.69071
  34        2S          0.28813   1.13634  -1.04317  -1.02355  -1.47902
  35        3S          0.06871  -0.34534   0.40481   0.49887   0.41753
  36 6   H  1S         -0.01749  -0.77598   0.71024  -0.68289  -0.68859
  37        2S          0.30660   1.12312  -1.07918   0.99358   1.46921
  38        3S          0.07109  -0.34704   0.43152  -0.49258  -0.42308
                          31        32        33        34        35
                           V         V         V         V         V
     Eigenvalues --     2.67111   2.81822   2.87841   2.95234   3.14018
   1 1   C  1S          0.00032  -0.00164  -0.01357  -0.00000  -0.00932
   2        2S          0.00025  -0.00479  -0.04511  -0.00025  -0.02870
   3        2PX         0.00353  -0.04677  -0.46742  -0.74223   0.45518
   4        2PY         0.00548  -0.08179  -0.83899   0.41247   0.79886
   5        2PZ        -0.92539   0.93488  -0.09052  -0.00085   0.00460
   6        3S         -0.00104   0.03991   0.39682   0.00361   0.24231
   7        3PX        -0.00280   0.08157   0.83380   0.89141  -0.44470
   8        3PY        -0.00431   0.14171   1.47295  -0.48334  -0.78097
   9        3PZ         0.94085  -1.14318   0.11364   0.00114  -0.00585
  10        4S          0.00849  -0.09172  -0.88546  -0.01206  -0.47218
  11        4PX        -0.00105  -0.06608  -0.71752  -0.67643   0.23105
  12        4PY        -0.00134  -0.11513  -1.27128   0.35974   0.40293
  13        4PZ        -0.33869   0.61990  -0.07202  -0.00090   0.00373
  14 2   H  1S          0.00776   0.01397   0.27057  -0.38348  -0.22022
  15        2S         -0.00897  -0.00941  -0.23029   0.39823   0.16719
  16        3S         -0.00163  -0.02615  -0.29634   0.26614   0.06769
  17 3   H  1S          0.00785   0.01341   0.25857   0.38782  -0.21808
  18        2S         -0.00924  -0.00836  -0.21036  -0.39860   0.16578
  19        3S         -0.00190  -0.02656  -0.29783  -0.28142   0.07133
  20 4   C  1S          0.00033   0.00160   0.01351   0.00055  -0.00783
  21        2S          0.00032   0.00493   0.04737   0.00132  -0.02405
  22        2PX        -0.00455  -0.04262  -0.41652  -0.79484  -0.49885
  23        2PY        -0.00831  -0.07650  -0.74908   0.44271  -0.87869
  24        2PZ        -0.92415  -0.93586   0.09248   0.00031   0.00813
  25        3S         -0.00174  -0.04219  -0.42528  -0.01035   0.20471
  26        3PX         0.00462   0.07714   0.77953   0.95169   0.52882
  27        3PY         0.00827   0.13721   1.38823  -0.52157   0.93862
  28        3PZ         0.93939   1.14408  -0.11644  -0.00037  -0.01031
  29        4S          0.00989   0.09244   0.89802   0.02750  -0.38887
  30        4PX        -0.00024  -0.06522  -0.71205  -0.69471  -0.31731
  31        4PY        -0.00081  -0.11511  -1.25348   0.37370  -0.56373
  32        4PZ        -0.33792  -0.62001   0.07425   0.00023   0.00790
  33 5   H  1S          0.00744  -0.01691  -0.28924   0.41154  -0.25657
  34        2S         -0.00903   0.01319   0.25795  -0.41929   0.19881
  35        3S         -0.00116   0.02563   0.29219  -0.25456   0.11788
  36 6   H  1S          0.00758  -0.01723  -0.28753  -0.42074  -0.24945
  37        2S         -0.00947   0.01398   0.26281   0.42845   0.19460
  38        3S         -0.00088   0.02411   0.27412   0.25566   0.11414
                          36        37        38
                           V         V         V
     Eigenvalues --     3.32031  23.35273  23.70563
   1 1   C  1S         -0.00037  -1.42303  -1.44341
   2        2S         -0.00056   1.51771   1.56090
   3        2PX         0.77332  -0.00643   0.01216
   4        2PY        -0.43613  -0.01065   0.02139
   5        2PZ         0.00055  -0.00035  -0.00014
   6        3S          0.00109  -0.29829  -0.39715
   7        3PX        -1.10352   0.02346  -0.05562
   8        3PY         0.62051   0.03932  -0.09696
   9        3PZ        -0.00083   0.00098   0.00043
  10        4S         -0.01925   0.27771   0.76579
  11        4PX         1.94359  -0.02481   0.13221
  12        4PY        -1.09864  -0.04229   0.22941
  13        4PZ         0.00136  -0.00164  -0.00188
  14 2   H  1S          0.54909   0.01285   0.00633
  15        2S         -0.85873   0.00793  -0.01417
  16        3S         -0.45651  -0.08379  -0.03874
  17 3   H  1S         -0.55852   0.01421   0.00735
  18        2S          0.87208   0.00755  -0.01457
  19        3S          0.47435  -0.08524  -0.03937
  20 4   C  1S          0.00024  -1.43863   1.42776
  21        2S          0.00016   1.53434  -1.54398
  22        2PX        -0.72180   0.00617   0.01261
  23        2PY         0.41115   0.01117   0.02135
  24        2PZ        -0.00042  -0.00036   0.00010
  25        3S          0.00140  -0.30099   0.39256
  26        3PX         1.02939  -0.02271  -0.05639
  27        3PY        -0.59246  -0.04065  -0.09665
  28        3PZ         0.00064   0.00104  -0.00026
  29        4S          0.00255   0.27654  -0.76208
  30        4PX        -1.82201   0.02424   0.13169
  31        4PY         1.05045   0.04482   0.22635
  32        4PZ        -0.00110  -0.00168   0.00151
  33 5   H  1S          0.50132   0.01401  -0.00571
  34        2S         -0.78284   0.00764   0.01439
  35        3S         -0.44113  -0.08392   0.03847
  36 6   H  1S         -0.49671   0.01267  -0.00445
  37        2S          0.77796   0.00888   0.01347
  38        3S          0.43345  -0.08220   0.03727
     Density Matrix:
                           1         2         3         4         5
   1 1   C  1S          0.65941
   2        2S          0.56150   0.49198
   3        2PX        -0.00062  -0.00085   0.08393
   4        2PY        -0.00137  -0.00192   0.00371   0.08759
   5        2PZ         0.00006   0.00009  -0.00008  -0.00018   0.06440
   6        3S         -0.08895  -0.15385   0.00309   0.00669  -0.00012
   7        3PX         0.00083   0.00128   0.13007   0.00136  -0.00006
   8        3PY         0.00117   0.00180   0.00135   0.13108  -0.00015
   9        3PZ         0.00011   0.00019  -0.00014  -0.00028   0.10345
  10        4S         -0.07956  -0.11467  -0.01537  -0.02744   0.00040
  11        4PX         0.00023   0.00152   0.07052  -0.00457  -0.00036
  12        4PY         0.00053   0.00287  -0.00461   0.06564  -0.00063
  13        4PZ        -0.00006  -0.00015  -0.00054  -0.00091   0.09589
  14 2   H  1S         -0.02045  -0.03257   0.03440  -0.06302  -0.00076
  15        2S         -0.02280  -0.03646   0.04899  -0.08797  -0.00058
  16        3S          0.00053  -0.00075   0.02089  -0.03319  -0.00002
  17 3   H  1S         -0.02083  -0.03316  -0.07239  -0.00211  -0.00083
  18        2S         -0.02304  -0.03681  -0.10068  -0.00199  -0.00066
  19        3S          0.00056  -0.00073  -0.03873   0.00140  -0.00005
  20 4   C  1S          0.00607   0.00977  -0.01080  -0.01866  -0.00027
  21        2S          0.00975   0.01523  -0.01728  -0.02986  -0.00045
  22        2PX         0.01040   0.01663  -0.01244  -0.03205   0.00029
  23        2PY         0.01817   0.02906  -0.03218  -0.04972   0.00056
  24        2PZ        -0.00031  -0.00050  -0.00026  -0.00040   0.06431
  25        3S         -0.02626  -0.03985   0.04847   0.08379   0.00135
  26        3PX         0.01609   0.02494  -0.01820  -0.04575   0.00038
  27        3PY         0.02806   0.04352  -0.04586  -0.07124   0.00074
  28        3PZ        -0.00052  -0.00083  -0.00045  -0.00071   0.10307
  29        4S          0.00532   0.00393   0.02071   0.03600   0.00159
  30        4PX         0.00309   0.00638  -0.01301  -0.02095   0.00044
  31        4PY         0.00529   0.01098  -0.02099  -0.03742   0.00087
  32        4PZ        -0.00044  -0.00071  -0.00069  -0.00112   0.09601
  33 5   H  1S          0.00421   0.00693  -0.00174  -0.01220  -0.00032
  34        2S          0.00636   0.01058   0.00338  -0.02476  -0.00001
  35        3S          0.00330   0.00483   0.00410  -0.01743   0.00006
  36 6   H  1S          0.00416   0.00684  -0.00975  -0.00766  -0.00032
  37        2S          0.00624   0.01039  -0.02319  -0.00942  -0.00003
  38        3S          0.00324   0.00474  -0.01716  -0.00515   0.00004
                           6         7         8         9        10
   6        3S          0.45260
   7        3PX        -0.00152   0.20189
   8        3PY        -0.00132  -0.00434   0.19669
   9        3PZ        -0.00038  -0.00010  -0.00023   0.16615
  10        4S          0.27457  -0.02626  -0.04742   0.00052   0.18366
  11        4PX        -0.00659   0.10981  -0.01029  -0.00058  -0.01517
  12        4PY        -0.01198  -0.01033   0.09895  -0.00100  -0.02847
  13        4PZ         0.00069  -0.00071  -0.00119   0.15402   0.00139
  14 2   H  1S          0.08708   0.05546  -0.09850  -0.00127   0.06914
  15        2S          0.09755   0.07934  -0.13703  -0.00098   0.08155
  16        3S          0.00611   0.03417  -0.05109  -0.00004   0.01112
  17 3   H  1S          0.08872  -0.11355  -0.00171  -0.00137   0.06899
  18        2S          0.09861  -0.15775  -0.00026  -0.00110   0.08035
  19        3S          0.00619  -0.06043   0.00402  -0.00007   0.01030
  20 4   C  1S         -0.02647  -0.01683  -0.02910  -0.00047   0.00512
  21        2S         -0.04008  -0.02615  -0.04523  -0.00076   0.00381
  22        2PX        -0.04655  -0.01779  -0.04540   0.00050  -0.01788
  23        2PY        -0.08141  -0.04567  -0.07091   0.00095  -0.03137
  24        2PZ         0.00148  -0.00035  -0.00053   0.10330   0.00160
  25        3S          0.10211   0.07101   0.12289   0.00226   0.00124
  26        3PX        -0.06749  -0.02616  -0.06462   0.00066  -0.02667
  27        3PY        -0.11791  -0.06492  -0.10156   0.00128  -0.04672
  28        3PZ         0.00245  -0.00062  -0.00094   0.16554   0.00265
  29        4S          0.00183   0.03128   0.05452   0.00264  -0.03223
  30        4PX        -0.02260  -0.01949  -0.02939   0.00074  -0.00662
  31        4PY        -0.03906  -0.02953  -0.05409   0.00144  -0.01107
  32        4PZ         0.00208  -0.00096  -0.00154   0.15420   0.00245
  33 5   H  1S         -0.02065  -0.00071  -0.01762  -0.00046  -0.01520
  34        2S         -0.03168   0.00840  -0.03657   0.00003  -0.01987
  35        3S         -0.01243   0.00791  -0.02625   0.00011  -0.00378
  36 6   H  1S         -0.02033  -0.01481  -0.00927  -0.00047  -0.01515
  37        2S         -0.03108  -0.03570  -0.01060   0.00001  -0.02004
  38        3S         -0.01218  -0.02657  -0.00610   0.00008  -0.00400
                          11        12        13        14        15
  11        4PX         0.06077
  12        4PY        -0.00921   0.05128
  13        4PZ        -0.00086  -0.00145   0.14278
  14 2   H  1S          0.03350  -0.05426  -0.00066   0.08093
  15        2S          0.04868  -0.07535  -0.00025   0.10953   0.15034
  16        3S          0.02137  -0.02797   0.00014   0.03692   0.05297
  17 3   H  1S         -0.06331   0.00179  -0.00070  -0.01309  -0.02493
  18        2S         -0.08833   0.00451  -0.00029  -0.02487  -0.04361
  19        3S         -0.03413   0.00466   0.00012  -0.01826  -0.02789
  20 4   C  1S         -0.00317  -0.00570  -0.00041   0.00421   0.00664
  21        2S         -0.00654  -0.01166  -0.00067   0.00695   0.01108
  22        2PX        -0.01313  -0.02009   0.00070   0.00179  -0.00289
  23        2PY        -0.02023  -0.03672   0.00131   0.01163   0.02445
  24        2PZ        -0.00049  -0.00077   0.09576  -0.00036  -0.00011
  25        3S          0.02314   0.04102   0.00196  -0.02088  -0.03328
  26        3PX        -0.02011  -0.02847   0.00096   0.00099  -0.00743
  27        3PY        -0.02865  -0.05339   0.00180   0.01717   0.03644
  28        3PZ        -0.00080  -0.00128   0.15346  -0.00052  -0.00011
  29        4S          0.00809   0.01508   0.00241  -0.01744  -0.02384
  30        4PX        -0.01460  -0.01257   0.00089  -0.00152  -0.00828
  31        4PY        -0.01262  -0.02945   0.00170   0.01543   0.02736
  32        4PZ        -0.00097  -0.00158   0.14296  -0.00029   0.00018
  33 5   H  1S          0.00183  -0.01554  -0.00024   0.01120   0.02348
  34        2S          0.00893  -0.02713   0.00029   0.02365   0.04442
  35        3S          0.00737  -0.01566   0.00021   0.01649   0.02771
  36 6   H  1S         -0.01442  -0.00592  -0.00024  -0.00906  -0.01829
  37        2S         -0.02800  -0.00538   0.00028  -0.01870  -0.03432
  38        3S         -0.01716  -0.00126   0.00020  -0.01007  -0.01769
                          16        17        18        19        20
  16        3S          0.02133
  17 3   H  1S         -0.01842   0.08187
  18        2S         -0.02801   0.10980   0.14940
  19        3S         -0.01325   0.03649   0.05194   0.02071
  20 4   C  1S          0.00363   0.00428   0.00672   0.00366   0.65946
  21        2S          0.00535   0.00706   0.01119   0.00538   0.56157
  22        2PX        -0.00364   0.00915   0.02244   0.01683   0.00109
  23        2PY         0.01771   0.00742   0.00965   0.00560   0.00166
  24        2PZ         0.00002  -0.00035  -0.00008   0.00004   0.00005
  25        3S         -0.01386  -0.02117  -0.03356  -0.01389  -0.08923
  26        3PX        -0.00718   0.01441   0.03516   0.02624  -0.00053
  27        3PY         0.02661   0.00954   0.01177   0.00702  -0.00115
  28        3PZ         0.00005  -0.00052  -0.00007   0.00008   0.00012
  29        4S         -0.00568  -0.01731  -0.02336  -0.00534  -0.07990
  30        4PX        -0.00698   0.01397   0.02752   0.01704  -0.00023
  31        4PY         0.01597   0.00652   0.00657   0.00192  -0.00024
  32        4PZ         0.00018  -0.00029   0.00021   0.00020  -0.00004
  33 5   H  1S          0.01635  -0.00909  -0.01833  -0.00959  -0.02034
  34        2S          0.02753  -0.01861  -0.03407  -0.01710  -0.02229
  35        3S          0.01462  -0.00999  -0.01747  -0.00897   0.00063
  36 6   H  1S         -0.00964   0.01120   0.02330   0.01604  -0.02008
  37        2S         -0.01736   0.02372   0.04426   0.02715  -0.02227
  38        3S         -0.00916   0.01654   0.02764   0.01446   0.00053
                          21        22        23        24        25
  21        2S          0.49209
  22        2PX         0.00156   0.08307
  23        2PY         0.00234   0.00350   0.08786
  24        2PZ         0.00008   0.00009   0.00013   0.06424
  25        3S         -0.15424  -0.00507  -0.00777  -0.00010   0.45372
  26        3PX        -0.00080   0.12907   0.00161   0.00006   0.00001
  27        3PY        -0.00176   0.00169   0.13160   0.00006   0.00116
  28        3PZ         0.00019   0.00014   0.00021   0.10294  -0.00038
  29        4S         -0.11534   0.01393   0.02343   0.00040   0.27706
  30        4PX        -0.00152   0.07267  -0.00492   0.00031   0.00639
  31        4PY        -0.00231  -0.00492   0.06683   0.00057   0.01011
  32        4PZ        -0.00011   0.00051   0.00092   0.09589   0.00058
  33 5   H  1S         -0.03239  -0.03393   0.06386  -0.00085   0.08662
  34        2S         -0.03561  -0.04988   0.08843  -0.00067   0.09533
  35        3S         -0.00058  -0.02235   0.03327  -0.00006   0.00565
  36 6   H  1S         -0.03200   0.07155   0.00270  -0.00078   0.08557
  37        2S         -0.03560   0.10118   0.00108  -0.00058   0.09523
  38        3S         -0.00070   0.04017  -0.00283  -0.00003   0.00586
                          26        27        28        29        30
  26        3PX         0.20087
  27        3PY        -0.00290   0.19763
  28        3PZ         0.00008   0.00009   0.16497
  29        4S          0.02539   0.04244   0.00049   0.18462
  30        4PX         0.11350  -0.01028   0.00049   0.01562   0.06516
  31        4PY        -0.01037   0.10085   0.00092   0.02488  -0.00986
  32        4PZ         0.00066   0.00119   0.15367   0.00130   0.00077
  33 5   H  1S         -0.05419   0.09981  -0.00140   0.06708  -0.03422
  34        2S         -0.08010   0.13770  -0.00110   0.07700  -0.05111
  35        3S         -0.03632   0.05116  -0.00010   0.00916  -0.02343
  36 6   H  1S          0.11283   0.00342  -0.00130   0.06757   0.06529
  37        2S          0.15936  -0.00007  -0.00098   0.07870   0.09264
  38        3S          0.06296  -0.00587  -0.00006   0.01007   0.03690
                          31        32        33        34        35
  31        4PY         0.05296
  32        4PZ         0.00144   0.14314
  33 5   H  1S          0.05542  -0.00072   0.08147
  34        2S          0.07655  -0.00030   0.11017   0.15139
  35        3S          0.02855   0.00011   0.03772   0.05436   0.02229
  36 6   H  1S         -0.00172  -0.00068  -0.01254  -0.02584  -0.01962
  37        2S         -0.00576  -0.00024  -0.02598  -0.04752  -0.03087
  38        3S         -0.00596   0.00012  -0.01987  -0.03104  -0.01514
                          36        37        38
  36 6   H  1S          0.08055
  37        2S          0.10975   0.15189
  38        3S          0.03789   0.05492   0.02263
    Full Mulliken population analysis:
                           1         2         3         4         5
   1 1   C  1S          0.65941
   2        2S          0.49325   0.49198
   3        2PX         0.00000   0.00000   0.08393
   4        2PY         0.00000   0.00000   0.00000   0.08759
   5        2PZ         0.00000   0.00000   0.00000   0.00000   0.06440
   6        3S         -0.02928  -0.06443   0.00000   0.00000   0.00000
   7        3PX         0.00000   0.00000   0.08183   0.00000   0.00000
   8        3PY         0.00000   0.00000   0.00000   0.08247   0.00000
   9        3PZ         0.00000   0.00000   0.00000   0.00000   0.06508
  10        4S         -0.01223  -0.02146   0.00000   0.00000   0.00000
  11        4PX         0.00000   0.00000   0.01553   0.00000   0.00000
  12        4PY         0.00000   0.00000   0.00000   0.01446   0.00000
  13        4PZ         0.00000   0.00000   0.00000   0.00000   0.02112
  14 2   H  1S         -0.00022  -0.00032   0.00173   0.00555   0.00000
  15        2S         -0.00165  -0.00315   0.00421   0.01324   0.00000
  16        3S          0.00004  -0.00007   0.00069   0.00192   0.00000
  17 3   H  1S         -0.00024  -0.00035   0.00766   0.00000   0.00000
  18        2S         -0.00170  -0.00326   0.01764   0.00000   0.00000
  19        3S          0.00004  -0.00007   0.00258  -0.00000   0.00000
  20 4   C  1S          0.00000   0.00000  -0.00002  -0.00006   0.00000
  21        2S          0.00000  -0.00000  -0.00002  -0.00005   0.00000
  22        2PX        -0.00002  -0.00002   0.00011   0.00085   0.00000
  23        2PY        -0.00006  -0.00005   0.00085   0.00196   0.00000
  24        2PZ        -0.00000  -0.00000  -0.00000  -0.00000   0.00041
  25        3S         -0.00059  -0.00099   0.00252   0.00756  -0.00000
  26        3PX        -0.00054  -0.00100   0.00019   0.00553   0.00000
  27        3PY        -0.00164  -0.00301   0.00554   0.01069   0.00000
  28        3PZ        -0.00000  -0.00000  -0.00000  -0.00000   0.00611
  29        4S          0.00034   0.00030   0.00094   0.00283  -0.00000
  30        4PX        -0.00018  -0.00045  -0.00070   0.00145   0.00000
  31        4PY        -0.00053  -0.00135   0.00145   0.00097   0.00000
  32        4PZ        -0.00000  -0.00000  -0.00000  -0.00000   0.00903
  33 5   H  1S          0.00000   0.00000  -0.00000  -0.00000   0.00000
  34        2S          0.00001   0.00002   0.00000  -0.00032   0.00000
  35        3S          0.00008   0.00014   0.00001  -0.00071  -0.00000
  36 6   H  1S          0.00000   0.00000  -0.00000  -0.00000   0.00000
  37        2S          0.00001   0.00002  -0.00024  -0.00007   0.00000
  38        3S          0.00008   0.00013  -0.00057  -0.00012  -0.00000
                           6         7         8         9        10
   6        3S          0.45260
   7        3PX         0.00000   0.20189
   8        3PY         0.00000   0.00000   0.19669
   9        3PZ         0.00000   0.00000   0.00000   0.16615
  10        4S          0.21271   0.00000   0.00000   0.00000   0.18366
  11        4PX         0.00000   0.07176   0.00000   0.00000   0.00000
  12        4PY         0.00000   0.00000   0.06466   0.00000   0.00000
  13        4PZ         0.00000   0.00000   0.00000   0.10065   0.00000
  14 2   H  1S          0.01582   0.01040   0.03235   0.00001   0.01821
  15        2S          0.04080   0.01917   0.05797   0.00001   0.04686
  16        3S          0.00281   0.00395   0.01034   0.00000   0.00837
  17 3   H  1S          0.01653   0.04369   0.00001   0.00001   0.01835
  18        2S          0.04185   0.07729   0.00000   0.00001   0.04651
  19        3S          0.00286   0.01404  -0.00001   0.00000   0.00780
  20 4   C  1S         -0.00059  -0.00057  -0.00170   0.00000   0.00032
  21        2S         -0.00100  -0.00104  -0.00313   0.00000   0.00029
  22        2PX         0.00242   0.00019   0.00548   0.00000   0.00081
  23        2PY         0.00735   0.00552   0.01064   0.00000   0.00247
  24        2PZ         0.00000  -0.00000  -0.00000   0.00612   0.00000
  25        3S          0.02174   0.01330   0.03986  -0.00000   0.00047
  26        3PX         0.01264  -0.00126   0.01843   0.00000   0.00411
  27        3PY         0.03824   0.01852   0.02855   0.00000   0.01247
  28        3PZ         0.00000  -0.00000  -0.00000   0.03525   0.00000
  29        4S          0.00069   0.00482   0.01456  -0.00000  -0.02023
  30        4PX         0.00635  -0.00400   0.00582   0.00000   0.00201
  31        4PY         0.01900   0.00585   0.00128   0.00000   0.00581
  32        4PZ         0.00000  -0.00000  -0.00000   0.04925   0.00000
  33 5   H  1S         -0.00006  -0.00000  -0.00020   0.00000  -0.00083
  34        2S         -0.00126   0.00006  -0.00330  -0.00000  -0.00339
  35        3S         -0.00205   0.00010  -0.00427  -0.00000  -0.00137
  36 6   H  1S         -0.00005  -0.00013  -0.00006   0.00000  -0.00081
  37        2S         -0.00120  -0.00258  -0.00053  -0.00000  -0.00336
  38        3S         -0.00198  -0.00353  -0.00056  -0.00000  -0.00144
                          11        12        13        14        15
  11        4PX         0.06077
  12        4PY         0.00000   0.05128
  13        4PZ         0.00000   0.00000   0.14278
  14 2   H  1S          0.00622   0.01763   0.00000   0.08093
  15        2S          0.01522   0.04125   0.00000   0.07737   0.15034
  16        3S          0.00524   0.01201  -0.00000   0.01380   0.04179
  17 3   H  1S          0.02371  -0.00001   0.00000  -0.00001  -0.00066
  18        2S          0.05562  -0.00003   0.00000  -0.00065  -0.00546
  19        3S          0.01681  -0.00002  -0.00000  -0.00203  -0.00812
  20 4   C  1S         -0.00018  -0.00057   0.00000   0.00000   0.00002
  21        2S         -0.00046  -0.00143   0.00000   0.00000   0.00003
  22        2PX        -0.00071   0.00139   0.00000  -0.00000   0.00000
  23        2PY         0.00140   0.00096   0.00000  -0.00000  -0.00035
  24        2PZ        -0.00000  -0.00000   0.00900   0.00000   0.00000
  25        3S          0.00650   0.01996  -0.00000  -0.00007  -0.00143
  26        3PX        -0.00412   0.00564   0.00000  -0.00000   0.00004
  27        3PY         0.00567   0.00126   0.00000  -0.00022  -0.00350
  28        3PZ        -0.00000  -0.00000   0.04901   0.00000   0.00000
  29        4S          0.00245   0.00791  -0.00000  -0.00100  -0.00422
  30        4PX        -0.00703   0.00318   0.00000   0.00001   0.00018
  31        4PY         0.00320  -0.00557   0.00000  -0.00241  -0.01021
  32        4PZ        -0.00000  -0.00000   0.08973   0.00000  -0.00000
  33 5   H  1S          0.00002  -0.00234   0.00000   0.00000   0.00000
  34        2S          0.00026  -0.00985  -0.00000   0.00000   0.00016
  35        3S          0.00027  -0.00727  -0.00000   0.00023   0.00146
  36 6   H  1S         -0.00176  -0.00050   0.00000  -0.00000  -0.00004
  37        2S         -0.00829  -0.00110  -0.00000  -0.00004  -0.00090
  38        3S         -0.00654  -0.00033  -0.00000  -0.00045  -0.00244
                          16        17        18        19        20
  16        3S          0.02133
  17 3   H  1S         -0.00205   0.08187
  18        2S         -0.00816   0.07756   0.14940
  19        3S         -0.00688   0.01363   0.04098   0.02071
  20 4   C  1S          0.00009   0.00000   0.00002   0.00009   0.65946
  21        2S          0.00016   0.00000   0.00003   0.00016   0.49331
  22        2PX         0.00001  -0.00000  -0.00027  -0.00059   0.00000
  23        2PY        -0.00074  -0.00000  -0.00008  -0.00013   0.00000
  24        2PZ        -0.00000   0.00000   0.00000  -0.00000   0.00000
  25        3S         -0.00236  -0.00007  -0.00146  -0.00238  -0.02937
  26        3PX         0.00007  -0.00015  -0.00284  -0.00365   0.00000
  27        3PY        -0.00442  -0.00007  -0.00063  -0.00065   0.00000
  28        3PZ        -0.00000   0.00000   0.00000  -0.00000   0.00000
  29        4S         -0.00211  -0.00100  -0.00416  -0.00200  -0.01229
  30        4PX         0.00019  -0.00184  -0.00860  -0.00669   0.00000
  31        4PY        -0.00750  -0.00057  -0.00137  -0.00050   0.00000
  32        4PZ        -0.00000   0.00000  -0.00000  -0.00000   0.00000
  33 5   H  1S          0.00023  -0.00000  -0.00004  -0.00044  -0.00023
  34        2S          0.00145  -0.00004  -0.00092  -0.00239  -0.00162
  35        3S          0.00246  -0.00046  -0.00244  -0.00288   0.00005
  36 6   H  1S         -0.00043   0.00000   0.00000   0.00022  -0.00021
  37        2S         -0.00239   0.00000   0.00015   0.00142  -0.00159
  38        3S         -0.00291   0.00023   0.00144   0.00242   0.00004
                          21        22        23        24        25
  21        2S          0.49209
  22        2PX         0.00000   0.08307
  23        2PY         0.00000   0.00000   0.08786
  24        2PZ         0.00000   0.00000   0.00000   0.06424
  25        3S         -0.06460   0.00000   0.00000   0.00000   0.45372
  26        3PX         0.00000   0.08120   0.00000   0.00000   0.00000
  27        3PY         0.00000   0.00000   0.08279   0.00000   0.00000
  28        3PZ         0.00000   0.00000   0.00000   0.06476   0.00000
  29        4S         -0.02159   0.00000   0.00000   0.00000   0.21464
  30        4PX         0.00000   0.01600   0.00000   0.00000   0.00000
  31        4PY         0.00000   0.00000   0.01472   0.00000   0.00000
  32        4PZ         0.00000   0.00000   0.00000   0.02112   0.00000
  33 5   H  1S         -0.00032   0.00159   0.00584   0.00000   0.01586
  34        2S         -0.00310   0.00396   0.01369   0.00000   0.04005
  35        3S         -0.00005   0.00068   0.00198   0.00000   0.00260
  36 6   H  1S         -0.00030   0.00706   0.00002   0.00000   0.01529
  37        2S         -0.00304   0.01738   0.00001   0.00000   0.03948
  38        3S         -0.00007   0.00268  -0.00001   0.00000   0.00268
                          26        27        28        29        30
  26        3PX         0.20087
  27        3PY         0.00000   0.19763
  28        3PZ         0.00000   0.00000   0.16497
  29        4S          0.00000   0.00000   0.00000   0.18462
  30        4PX         0.07417   0.00000   0.00000   0.00000   0.06516
  31        4PY         0.00000   0.06590   0.00000   0.00000   0.00000
  32        4PZ         0.00000   0.00000   0.10041   0.00000   0.00000
  33 5   H  1S          0.00940   0.03377   0.00001   0.01772   0.00584
  34        2S          0.01783   0.05981   0.00001   0.04435   0.01469
  35        3S          0.00386   0.01060   0.00000   0.00691   0.00528
  36 6   H  1S          0.04214   0.00007   0.00001   0.01769   0.02437
  37        2S          0.07723  -0.00000   0.00001   0.04501   0.05835
  38        3S          0.01466  -0.00008   0.00000   0.00756   0.01827
                          31        32        33        34        35
  31        4PY         0.05296
  32        4PZ         0.00000   0.14314
  33 5   H  1S          0.01846   0.00001   0.08147
  34        2S          0.04293   0.00000   0.07782   0.15139
  35        3S          0.01255  -0.00000   0.01410   0.04289   0.02229
  36 6   H  1S         -0.00004   0.00000  -0.00001  -0.00079  -0.00231
  37        2S         -0.00021   0.00000  -0.00079  -0.00652  -0.00940
  38        3S         -0.00017  -0.00000  -0.00234  -0.00945  -0.00809
                          36        37        38
  36 6   H  1S          0.08055
  37        2S          0.07752   0.15189
  38        3S          0.01416   0.04333   0.02263
     Gross orbital populations:
                           1
   1 1   C  1S          1.10437
   2        2S          0.88585
   3        2PX         0.22588
   4        2PY         0.23573
   5        2PZ         0.16616
   6        3S          0.79250
   7        3PX         0.55924
   8        3PY         0.55534
   9        3PZ         0.42253
  10        4S          0.50609
  11        4PX         0.26154
  12        4PY         0.21256
  13        4PZ         0.41230
  14 2   H  1S          0.27283
  15        2S          0.46800
  16        3S          0.08693
  17 3   H  1S          0.27575
  18        2S          0.46643
  19        3S          0.08434
  20 4   C  1S          1.10439
  21        2S          0.88585
  22        2PX         0.22329
  23        2PY         0.23662
  24        2PZ         0.16566
  25        3S          0.79292
  26        3PX         0.55442
  27        3PY         0.55731
  28        3PZ         0.42056
  29        4S          0.50474
  30        4PX         0.27184
  31        4PY         0.21466
  32        4PZ         0.41269
  33 5   H  1S          0.27455
  34        2S          0.46842
  35        3S          0.08723
  36 6   H  1S          0.27168
  37        2S          0.46957
  38        3S          0.08924
          Condensed to atoms (all electrons):
               1          2          3          4          5          6
     1  C    5.035313   0.386622   0.387343   0.602587  -0.036255  -0.035521
     2  H    0.386622   0.518511  -0.034022  -0.039734   0.005995  -0.009614
     3  H    0.387343  -0.034022   0.516337  -0.039408  -0.009621   0.005896
     4  C    0.602587  -0.039734  -0.039408   5.052180   0.385001   0.384319
     5  H   -0.036255   0.005995  -0.009621   0.385001   0.524768  -0.039692
     6  H   -0.035521  -0.009614   0.005896   0.384319  -0.039692   0.525098
 Mulliken charges:
               1
     1  C   -0.340090
     2  H    0.172243
     3  H    0.173474
     4  C   -0.344946
     5  H    0.169804
     6  H    0.169514
 Sum of Mulliken charges =  -0.00000
 Mulliken charges with hydrogens summed into heavy atoms:
               1
     1  C    0.005627
     4  C   -0.005627
 Electronic spatial extent (au):  <R**2>=             83.7134
 Charge=             -0.0000 electrons
 Dipole moment (field-independent basis, Debye):
    X=              0.0015    Y=              0.0208    Z=             -0.0684  Tot=              0.0715
 Quadrupole moment (field-independent basis, Debye-Ang):
   XX=            -12.2000   YY=            -12.2113   ZZ=            -15.6705
   XY=              0.0142   XZ=             -0.0002   YZ=             -0.0025
 Traceless Quadrupole moment (field-independent basis, Debye-Ang):
   XX=              1.1606   YY=              1.1493   ZZ=             -2.3099
   XY=              0.0142   XZ=             -0.0002   YZ=             -0.0025
 Octapole moment (field-independent basis, Debye-Ang**2):
  XXX=             -0.2506  YYY=             -0.0166  ZZZ=             -0.0550  XYY=              0.1564
  XXY=             -0.0017  XXZ=             -0.0953  XZZ=             -0.0628  YZZ=             -0.0445
  YYZ=             -0.1242  XYZ=             -0.0253
 Hexadecapole moment (field-independent basis, Debye-Ang**3):
 XXXX=            -34.2701 YYYY=            -55.1674 ZZZZ=            -17.8042 XXXY=             -7.2460
 XXXZ=              0.0083 YYYX=            -10.7179 YYYZ=              0.0111 ZZZX=              0.0107
 ZZZY=              0.0205 XXYY=            -16.1915 XXZZ=             -9.9270 YYZZ=            -13.6368
 XXYZ=              0.0040 YYXZ=             -0.0000 ZZXY=             -3.2064
 N-N= 3.306915875201D+01 E-N=-2.478511202671D+02  KE= 7.815370165560D+01
 Orbital energies and kinetic energies (alpha):
                                 1                 2
   1         O               -10.289506         15.975932
   2         O               -10.288580         15.982418
   3         O                -0.863600          1.537899
   4         O                -0.672477          1.272001
   5         O                -0.559121          0.941263
   6         O                -0.509393          1.284355
   7         O                -0.437048          1.044773
   8         O                -0.356723          1.038210
   9         V                 0.079861          1.181890
  10         V                 0.141101          0.588159
  11         V                 0.164870          0.593938
  12         V                 0.170260          0.679228
  13         V                 0.240910          0.582096
  14         V                 0.375230          0.856745
  15         V                 0.393471          0.933860
  16         V                 0.397324          0.776287
  17         V                 0.464828          1.187655
  18         V                 0.487789          1.428656
  19         V                 0.493882          1.301742
  20         V                 0.591044          1.652167
  21         V                 0.665895          1.572238
  22         V                 0.691132          2.148735
  23         V                 0.773819          2.523499
  24         V                 0.774888          2.221766
  25         V                 0.844450          1.086696
  26         V                 0.951805          3.422315
  27         V                 2.231852          3.924875
  28         V                 2.290008          4.030968
  29         V                 2.332387          4.303519
  30         V                 2.407585          4.521174
  31         V                 2.671113          6.300910
  32         V                 2.818216          6.307559
  33         V                 2.878410          6.135015
  34         V                 2.952341          6.225656
  35         V                 3.140176          6.821966
  36         V                 3.320314          6.402238
  37         V                23.352732         60.074700
  38         V                23.705634         60.203537
 Total kinetic energy from orbitals= 7.815370165560D+01
 Calling FoFJK, ICntrl=      2127 FMM=F ISym2X=0 I1Cent= 0 IOpClX= 0 NMat=1 NMatS=1 NMatT=0.
 -------------------------------------------------------------------
 Center     Atomic                   Forces (Hartrees/Bohr)
 Number     Number              X              Y              Z
 -------------------------------------------------------------------
      1        6           0.009865767    0.005316281   -0.002799529
      2        1          -0.009283870    0.008464897    0.001420574
      3        1           0.006189416   -0.003509490    0.001329600
      4        6           0.006159314    0.003584206   -0.002947917
      5        1           0.001468172   -0.009477020    0.001456353
      6        1          -0.014398800   -0.004378873    0.001540920
 -------------------------------------------------------------------
 Cartesian Forces:  Max     0.014398800 RMS     0.006360155

 GradGradGradGradGradGradGradGradGradGradGradGradGradGradGradGradGradGrad
 Berny optimization.
 Search for a local minimum.
 Step number   1 out of a maximum of    2
 All quantities printed in internal units (Hartrees-Bohrs-Radians)
 Second derivative matrix not updated -- first step.
 The second derivative matrix:
                          X1        Y1        Z1        X2        Y2
           X1           0.74880
           Y1           0.10119   0.85537
           Z1           0.00394   0.00610   0.17087
           X2          -0.16077   0.09357   0.00140   0.13827
           Y2           0.09987  -0.28216  -0.00506  -0.11273   0.27124
           Z2           0.00222  -0.00636  -0.05496  -0.00201   0.00526
           X3          -0.34611  -0.00248  -0.00547  -0.00036  -0.00020
           Y3          -0.00864  -0.10898  -0.00133   0.03235   0.01845
           Z3          -0.00701  -0.00129  -0.05573   0.00102   0.00037
           X4          -0.26691  -0.17786  -0.00059   0.02287   0.01305
           Y4          -0.17831  -0.47238  -0.00097  -0.01320  -0.00753
           Z4           0.00085   0.00154  -0.09430  -0.00041  -0.00057
           X5           0.02350  -0.01356   0.00044  -0.00000   0.00000
           Y5           0.01203  -0.00695   0.00060   0.00000  -0.00000
           Z5          -0.00035   0.00022   0.01721   0.00017  -0.00009
           X6           0.00150  -0.00086   0.00028  -0.00000   0.00000
           Y6          -0.02615   0.01509   0.00067   0.00000  -0.00000
           Z6           0.00036  -0.00020   0.01691  -0.00017   0.00009
                          Z2        X3        Y3        Z3        X4
           Z2           0.02846
           X3          -0.00021   0.34619
           Y3           0.00109   0.00284   0.07520
           Z3           0.01047   0.00598   0.00092   0.02909
           X4           0.00036   0.00029  -0.02655  -0.00035   0.72275
           Y4          -0.00020  -0.00017   0.01533   0.00022   0.11615
           Z4           0.01599  -0.00030  -0.00067   0.01620  -0.00364
           X5          -0.00018  -0.00000   0.00000   0.00018  -0.15095
           Y5           0.00011   0.00000  -0.00000  -0.00011   0.09633
           Z5           0.00926   0.00018  -0.00011  -0.00937  -0.00230
           X6          -0.00018  -0.00000   0.00000   0.00018  -0.32803
           Y6           0.00010   0.00000  -0.00000  -0.00010  -0.02112
           Z6          -0.00923  -0.00018   0.00011   0.00934   0.00652
                          Y4        Z4        X5        Y5        Z5
           Y4           0.86402
           Z4          -0.00705   0.17594
           X5           0.08823  -0.00152   0.12934
           Y5          -0.29365   0.00536  -0.10741   0.28384
           Z5           0.00664  -0.05711   0.00205  -0.00569   0.02966
           X6          -0.01270   0.00503  -0.00188  -0.00096   0.00025
           Y6          -0.10578   0.00139   0.03274   0.01676  -0.00096
           Z6           0.00136  -0.05672  -0.00097  -0.00027   0.01035
                          X6        Y6        Z6
           X6           0.32843
           Y6           0.01452   0.07394
           Z6          -0.00556  -0.00109   0.02935
 ITU=  0
     Eigenvalues ---    0.03722   0.04386   0.09358   0.09946   0.13523
     Eigenvalues ---    0.17509   0.26418   0.28979   0.52978   0.70479
     Eigenvalues ---    0.97301   1.56204
 Angle between quadratic step and forces=  28.91 degrees.
 Linear search not attempted -- first point.
 B after Tr=     0.004467    0.004897   -0.007000
         Rot=    1.000000   -0.000018    0.000009   -0.000102 Ang=  -0.01 deg.
 Variable       Old X    -DE/DX   Delta X   Delta X   Delta X     New X
                                 (Linear)    (Quad)   (Total)
    X1       -0.63384   0.00987   0.00000   0.01636   0.02105  -0.61279
    Y1       -1.09779   0.00532   0.00000   0.01835   0.02312  -1.07466
    Z1        0.00889  -0.00280   0.00000  -0.01472  -0.02177  -0.01288
    X2        0.39781  -0.00928   0.00000  -0.03136  -0.02631   0.37150
    Y2       -2.90418   0.00846   0.00000   0.03151   0.03648  -2.86770
    Z2       -0.02881   0.00142   0.00000   0.01806   0.01096  -0.01784
    X3       -2.69610   0.00619   0.00000   0.03393   0.03863  -2.65748
    Y3       -1.11954  -0.00351   0.00000  -0.01422  -0.00987  -1.12940
    Z3       -0.03006   0.00133   0.00000   0.01780   0.01071  -0.01935
    X4        0.63084   0.00616   0.00000   0.00211   0.00636   0.63720
    Y4        1.09292   0.00358   0.00000   0.00193   0.00695   1.09988
    Z4        0.00730  -0.00295   0.00000  -0.01426  -0.02120  -0.01390
    X5       -0.31533   0.00147   0.00000  -0.00802  -0.00415  -0.31948
    Y5        2.93918  -0.00948   0.00000  -0.03284  -0.02801   2.91117
    Z5       -0.03295   0.00146   0.00000   0.01768   0.01078  -0.02216
    X6        2.71873  -0.01440   0.00000  -0.03980  -0.03558   2.68316
    Y6        1.21181  -0.00438   0.00000  -0.03413  -0.02868   1.18312
    Z6       -0.03181   0.00154   0.00000   0.01742   0.01052  -0.02129
         Item               Value     Threshold  Converged?
 Maximum Force            0.014399     0.000450     NO 
 RMS     Force            0.006360     0.000300     NO 
 Maximum Displacement     0.038628     0.001800     NO 
 RMS     Displacement     0.022304     0.001200     NO 
 Predicted change in Energy=-1.151925D-03
 GradGradGradGradGradGradGradGradGradGradGradGradGradGradGradGradGradGrad

 Unable to Open any file for archive entry.
 1\1\GINC-BHD0011\Force\RwB97XD\6-311G\C2H4\BWEIGHT\11-Jan-2023\0\\# WB
 97XD/6-311G SCF=XQC FORCE nosym pop=full guess=read\\MD Step 1000\\0,1
 \C,-0.33541299,-0.58092326,0.00470509\H,0.21051112,-1.5368236,-0.01524
 34\H,-1.42671661,-0.59243267,-0.01590624\C,0.33382551,0.578351,0.00386
 552\H,-0.16686799,1.55534466,-0.01743422\H,1.43869155,0.6412605,-0.016
 83377\\Version=ES64L-G16RevC.01\HF=-78.5562941\RMSD=5.241e-09\RMSF=6.3
 60e-03\Dipole=0.0005725,0.0081726,-0.0269301\Quadrupole=0.86289,0.8544
 995,-1.7173895,0.0105782,-0.0001624,-0.0018848\PG=C01 [X(C2H4)]\\@
 The archive entry for this job was punched.


      HUMANKIND PERIODICALLY GOES THROUGH A SPEEDUP OF ITS AFFAIRS, 
      THEREBY EXPERIENCING THE RACE BETWEEN THE RENEWABLE VITALITY
      OF THE LIVING, AND THE BECKONING VITIATION OF DECADENCE.
      IN THIS PERIODIC RACE, ANY PAUSE BECOMES A LUXURY.
      ONLY THEN CAN ONE REFLECT THAT ALL IS PERMITTED;
      ALL IS POSSIBLE.

                              -- THE APOCRYPHA OF MUAD'DIB
                                 CHILDREN OF DUNE, BY FRANK HERBERT
 Job cpu time:       0 days  0 hours  0 minutes 37.2 seconds.
 Elapsed time:       0 days  0 hours  0 minutes 14.0 seconds.
 File lengths (MBytes):  RWF=    272 Int=      0 D2E=      0 Chk=     32 Scr=     32
 Normal termination of Gaussian 16 at Wed Jan 11 18:43:51 2023.
