 Entering Gaussian System, Link 0=g16
 Initial command:
 /software/gaussian/g16-c01/avx2/g16/l1.exe "/gpfs/fs2/scratch/bweight/software/many_molecule_many_mode_NAMD/src/NAMD/TEST_NVT/TRAJ/traj-1/G16/GS_NEW/Gau-2856.inp" -scrdir="/gpfs/fs2/scratch/bweight/software/many_molecule_many_mode_NAMD/src/NAMD/TEST_NVT/TRAJ/traj-1/G16/GS_NEW/"
 Entering Link 1 = /software/gaussian/g16-c01/avx2/g16/l1.exe PID=      2857.
  
 Copyright (c) 1988-2019, Gaussian, Inc.  All Rights Reserved.
  
 This is part of the Gaussian(R) 16 program.  It is based on
 the Gaussian(R) 09 system (copyright 2009, Gaussian, Inc.),
 the Gaussian(R) 03 system (copyright 2003, Gaussian, Inc.),
 the Gaussian(R) 98 system (copyright 1998, Gaussian, Inc.),
 the Gaussian(R) 94 system (copyright 1995, Gaussian, Inc.),
 the Gaussian 92(TM) system (copyright 1992, Gaussian, Inc.),
 the Gaussian 90(TM) system (copyright 1990, Gaussian, Inc.),
 the Gaussian 88(TM) system (copyright 1988, Gaussian, Inc.),
 the Gaussian 86(TM) system (copyright 1986, Carnegie Mellon
 University), and the Gaussian 82(TM) system (copyright 1983,
 Carnegie Mellon University). Gaussian is a federally registered
 trademark of Gaussian, Inc.
  
 This software contains proprietary and confidential information,
 including trade secrets, belonging to Gaussian, Inc.
  
 This software is provided under written license and may be
 used, copied, transmitted, or stored only in accord with that
 written license.
  
 The following legend is applicable only to US Government
 contracts under FAR:
  
                    RESTRICTED RIGHTS LEGEND
  
 Use, reproduction and disclosure by the US Government is
 subject to restrictions as set forth in subparagraphs (a)
 and (c) of the Commercial Computer Software - Restricted
 Rights clause in FAR 52.227-19.
  
 Gaussian, Inc.
 340 Quinnipiac St., Bldg. 40, Wallingford CT 06492
  
  
 ---------------------------------------------------------------
 Warning -- This program may not be used in any manner that
 competes with the business of Gaussian, Inc. or will provide
 assistance to any competitor of Gaussian, Inc.  The licensee
 of this program is prohibited from giving any competitor of
 Gaussian, Inc. access to this program.  By using this program,
 the user acknowledges that Gaussian, Inc. is engaged in the
 business of creating and licensing software in the field of
 computational chemistry and represents and warrants to the
 licensee that it is not a competitor of Gaussian, Inc. and that
 it will not use this program in any manner prohibited above.
 ---------------------------------------------------------------
  

 Cite this work as:
 Gaussian 16, Revision C.01,
 M. J. Frisch, G. W. Trucks, H. B. Schlegel, G. E. Scuseria, 
 M. A. Robb, J. R. Cheeseman, G. Scalmani, V. Barone, 
 G. A. Petersson, H. Nakatsuji, X. Li, M. Caricato, A. V. Marenich, 
 J. Bloino, B. G. Janesko, R. Gomperts, B. Mennucci, H. P. Hratchian, 
 J. V. Ortiz, A. F. Izmaylov, J. L. Sonnenberg, D. Williams-Young, 
 F. Ding, F. Lipparini, F. Egidi, J. Goings, B. Peng, A. Petrone, 
 T. Henderson, D. Ranasinghe, V. G. Zakrzewski, J. Gao, N. Rega, 
 G. Zheng, W. Liang, M. Hada, M. Ehara, K. Toyota, R. Fukuda, 
 J. Hasegawa, M. Ishida, T. Nakajima, Y. Honda, O. Kitao, H. Nakai, 
 T. Vreven, K. Throssell, J. A. Montgomery, Jr., J. E. Peralta, 
 F. Ogliaro, M. J. Bearpark, J. J. Heyd, E. N. Brothers, K. N. Kudin, 
 V. N. Staroverov, T. A. Keith, R. Kobayashi, J. Normand, 
 K. Raghavachari, A. P. Rendell, J. C. Burant, S. S. Iyengar, 
 J. Tomasi, M. Cossi, J. M. Millam, M. Klene, C. Adamo, R. Cammi, 
 J. W. Ochterski, R. L. Martin, K. Morokuma, O. Farkas, 
 J. B. Foresman, and D. J. Fox, Gaussian, Inc., Wallingford CT, 2019.
 
 ******************************************
 Gaussian 16:  ES64L-G16RevC.01  3-Jul-2019
                11-Jan-2023 
 ******************************************
 %oldchk=../GS_OLD/geometry.chk
 %chk=geometry.chk
 %nprocshared=4
 Will use up to    4 processors via shared memory.
 %mem=5GB
 Copying data from "../GS_OLD/geometry.chk" to current chk file "geometry.chk"
 IOpt=  2 FromEx=T IUOpen= 4 IOptOp= 5 NList=   0 IFRang= 0 IUIn= 4 IUOut= 2.
 -------------------------------------------------------
 # WB97XD/6-311G SCF=XQC FORCE nosym pop=full guess=read
 -------------------------------------------------------
 1/10=7,30=1,38=1/1,3;
 2/12=2,15=1,17=6,18=5,40=1/2;
 3/5=4,6=6,11=2,25=1,30=1,71=1,74=-58,116=-2/1,2,3;
 4/5=1/1;
 5/5=2,8=3,13=1,38=6/2,8;
 6/7=3,28=1/1;
 7/29=1,30=1/1,2,3,16;
 1/10=7,30=1/3;
 99//99;
 ------------
 MD Step 1000
 ------------
 Symbolic Z-matrix:
 Charge =  0 Multiplicity = 1
 C                    -0.33535  -0.58129   0.00544 
 H                     0.20497  -1.53284  -0.01653 
 H                    -1.41857  -0.58876  -0.01734 
 C                     0.33409   0.57776   0.00444 
 H                    -0.17391   1.56385  -0.01891 
 H                     1.44942   0.64651  -0.01817 
 

 GradGradGradGradGradGradGradGradGradGradGradGradGradGradGradGradGradGrad
 Berny optimization.
 Initialization pass.
 Trust Radius=3.00D-01 FncErr=1.00D-07 GrdErr=1.00D-07 EigMax=2.50D+02 EigMin=1.00D-04
 Number of steps in this run=      2 maximum allowed number of steps=      2.
 GradGradGradGradGradGradGradGradGradGradGradGradGradGradGradGradGradGrad

                          Input orientation:                          
 ---------------------------------------------------------------------
 Center     Atomic      Atomic             Coordinates (Angstroms)
 Number     Number       Type             X           Y           Z
 ---------------------------------------------------------------------
      1          6           0       -0.335355   -0.581286    0.005442
      2          1           0        0.204972   -1.532837   -0.016532
      3          1           0       -1.418568   -0.588760   -0.017344
      4          6           0        0.334085    0.577764    0.004439
      5          1           0       -0.173908    1.563846   -0.018908
      6          1           0        1.449424    0.646513   -0.018168
 ---------------------------------------------------------------------
                    Distance matrix (angstroms):
                    1          2          3          4          5
     1  C    0.000000
     2  H    1.094480   0.000000
     3  H    1.083479   1.878075   0.000000
     4  C    1.338486   2.114650   2.105480   0.000000
     5  H    2.151336   3.119776   2.486542   1.109486   0.000000
     6  H    2.166445   2.509627   3.122704   1.117685   1.864593
                    6
     6  H    0.000000
 Symmetry turned off by external request.
 Stoichiometry    C2H4
 Framework group  C1[X(C2H4)]
 Deg. of freedom    12
 Full point group                 C1      NOp   1
 Rotational constants (GHZ):         143.1268911          29.6527130          24.5678983
 Standard basis: 6-311G (5D, 7F)
    38 basis functions,    72 primitive gaussians,    38 cartesian basis functions
     8 alpha electrons        8 beta electrons
       nuclear repulsion energy        33.0458904840 Hartrees.
 NAtoms=    6 NActive=    6 NUniq=    6 SFac= 1.00D+00 NAtFMM=   60 NAOKFM=F Big=F
 Integral buffers will be    131072 words long.
 Raffenetti 2 integral format.
 Two-electron integral symmetry is turned off.
 Nuclear repulsion after empirical dispersion term =       33.0450485780 Hartrees.
 One-electron integrals computed using PRISM.
 NBasis=    38 RedAO= T EigKep=  6.44D-03  NBF=    38
 NBsUse=    38 1.00D-06 EigRej= -1.00D+00 NBFU=    38
 Initial guess from the checkpoint file:  "geometry.chk"
 B after Tr=    -0.000311   -0.000471   -0.000547
         Rot=    1.000000   -0.000003    0.000003    0.000008 Ang=  -0.00 deg.
 Keep R1 ints in memory in canonical form, NReq=4036876.
 Requested convergence on RMS density matrix=1.00D-08 within  32 cycles.
 Requested convergence on MAX density matrix=1.00D-06.
 Requested convergence on             energy=1.00D-06.
 No special actions if energy rises.
 SCF Done:  E(RwB97XD) =  -78.5557846465     A.U. after    8 cycles
            NFock=  8  Conv=0.65D-08     -V/T= 2.0053
 QCSCF skips out because SCF is already converged.

 **********************************************************************

            Population analysis using the SCF Density.

 **********************************************************************

 Alpha  occ. eigenvalues --  -10.29150 -10.28752  -0.86358  -0.67186  -0.55897
 Alpha  occ. eigenvalues --   -0.50936  -0.43644  -0.35682
 Alpha virt. eigenvalues --    0.07981   0.14081   0.16441   0.16991   0.24065
 Alpha virt. eigenvalues --    0.37557   0.39270   0.39699   0.46349   0.48758
 Alpha virt. eigenvalues --    0.49378   0.59092   0.66519   0.69057   0.77162
 Alpha virt. eigenvalues --    0.77627   0.84377   0.95180   2.23203   2.28965
 Alpha virt. eigenvalues --    2.33260   2.40717   2.67093   2.81796   2.87829
 Alpha virt. eigenvalues --    2.95187   3.13939   3.31844  23.35174  23.70537
     Molecular Orbital Coefficients:
                           1         2         3         4         5
                           O         O         O         O         O
     Eigenvalues --   -10.29150 -10.28752  -0.86358  -0.67186  -0.55897
   1 1   C  1S          0.06218   0.55995  -0.08865   0.06646  -0.00057
   2        2S          0.05137   0.46084  -0.14012   0.10645  -0.00094
   3        2PX         0.00016  -0.00001   0.02560   0.03777   0.13688
   4        2PY         0.00028  -0.00000   0.04609   0.06231  -0.07551
   5        2PZ         0.00000  -0.00000  -0.00092   0.00142   0.00014
   6        3S          0.00074   0.01463   0.37578  -0.29053   0.00265
   7        3PX        -0.00064   0.00038   0.03359   0.06029   0.21431
   8        3PY        -0.00109   0.00068   0.06041   0.10048  -0.11875
   9        3PZ        -0.00001  -0.00002  -0.00155   0.00252   0.00021
  10        4S          0.00432  -0.01440   0.19198  -0.22628   0.00282
  11        4PX         0.00159  -0.00140   0.00453   0.02386   0.11114
  12        4PY         0.00276  -0.00246   0.00849   0.04162  -0.06255
  13        4PZ        -0.00000   0.00006  -0.00054   0.00126   0.00010
  14 2   H  1S         -0.00004  -0.00006   0.05273  -0.08876   0.10285
  15        2S         -0.00030   0.00008   0.05395  -0.10636   0.12995
  16        3S          0.00071   0.00173  -0.00166  -0.01538   0.04205
  17 3   H  1S         -0.00005  -0.00008   0.05437  -0.09160  -0.10472
  18        2S         -0.00031   0.00008   0.05492  -0.10922  -0.13157
  19        3S          0.00072   0.00178  -0.00163  -0.01628  -0.04265
  20 4   C  1S          0.55997  -0.06237  -0.08658  -0.06874  -0.00036
  21        2S          0.46088  -0.05113  -0.13672  -0.11021  -0.00058
  22        2PX        -0.00001  -0.00016  -0.02806   0.03611   0.11875
  23        2PY        -0.00001  -0.00028  -0.04704   0.06450  -0.07215
  24        2PZ        -0.00000   0.00000  -0.00074  -0.00141   0.00014
  25        3S          0.01423  -0.00248   0.36646   0.30119   0.00166
  26        3PX        -0.00027   0.00071  -0.03551   0.05885   0.18618
  27        3PY        -0.00043   0.00122  -0.05913   0.10459  -0.11239
  28        3PZ        -0.00002  -0.00000  -0.00128  -0.00255   0.00021
  29        4S         -0.01280   0.00746   0.18898   0.23899   0.00088
  30        4PX         0.00105  -0.00185  -0.00572   0.02598   0.10257
  31        4PY         0.00173  -0.00320  -0.00917   0.04430  -0.06080
  32        4PZ         0.00005  -0.00001  -0.00053  -0.00132   0.00010
  33 5   H  1S         -0.00005  -0.00004   0.04944   0.09218  -0.08924
  34        2S          0.00001  -0.00032   0.05072   0.11089  -0.11312
  35        3S          0.00178   0.00026  -0.00118   0.01665  -0.03640
  36 6   H  1S         -0.00004  -0.00004   0.04804   0.09085   0.08624
  37        2S         -0.00001  -0.00032   0.04997   0.10957   0.10954
  38        3S          0.00173   0.00028  -0.00129   0.01607   0.03541
                           6         7         8         9        10
                           O         O         O         V         V
     Eigenvalues --    -0.50936  -0.43644  -0.35682   0.07981   0.14081
   1 1   C  1S         -0.00449   0.00005  -0.00070   0.00191  -0.03200
   2        2S         -0.00685   0.00008  -0.00114   0.00316  -0.05128
   3        2PX         0.09539  -0.11119  -0.00245   0.00105  -0.03266
   4        2PY         0.16666   0.06631  -0.00406   0.00171  -0.06249
   5        2PZ         0.00362  -0.00003   0.17938  -0.18904  -0.00150
   6        3S          0.02457   0.00006   0.00333  -0.00959   0.11092
   7        3PX         0.13889  -0.17686  -0.00347   0.00159  -0.03924
   8        3PY         0.24375   0.10629  -0.00573   0.00256  -0.07737
   9        3PZ         0.00573  -0.00002   0.28854  -0.27816  -0.00241
  10        4S         -0.04711  -0.00250   0.00480  -0.01043   1.18708
  11        4PX         0.07043  -0.11053  -0.00283   0.00874  -0.20192
  12        4PY         0.12418   0.06612  -0.00470   0.01491  -0.37676
  13        4PZ         0.00326   0.00001   0.26730  -0.69529  -0.00902
  14 2   H  1S         -0.07943  -0.11507   0.00010   0.00297  -0.01477
  15        2S         -0.10945  -0.17768   0.00143   0.00474  -0.04361
  16        3S         -0.04094  -0.08232   0.00084   0.01224  -0.79954
  17 3   H  1S         -0.07885   0.11328   0.00007   0.00299  -0.01219
  18        2S         -0.10806   0.17394   0.00140   0.00469  -0.03813
  19        3S         -0.04017   0.08012   0.00084   0.01190  -0.76198
  20 4   C  1S         -0.00747  -0.00036  -0.00058  -0.00191  -0.03760
  21        2S         -0.01162  -0.00058  -0.00095  -0.00315  -0.06042
  22        2PX        -0.09732   0.12427   0.00233   0.00120   0.03990
  23        2PY        -0.16361  -0.07305   0.00430   0.00219   0.06385
  24        2PZ         0.00378   0.00014   0.17928   0.18966  -0.00239
  25        3S          0.03835   0.00159   0.00280   0.00944   0.13394
  26        3PX        -0.14381   0.19967   0.00324   0.00183   0.04836
  27        3PY        -0.24046  -0.11633   0.00604   0.00334   0.07585
  28        3PZ         0.00598   0.00021   0.28678   0.27779  -0.00361
  29        4S         -0.03537   0.00242   0.00476   0.01139   1.27466
  30        4PX        -0.07478   0.12755   0.00250   0.00942   0.25637
  31        4PY        -0.12390  -0.07445   0.00474   0.01644   0.42020
  32        4PZ         0.00346   0.00013   0.26726   0.69659  -0.01377
  33 5   H  1S         -0.07568  -0.12462   0.00015  -0.00287  -0.01464
  34        2S         -0.10407  -0.19471   0.00147  -0.00475  -0.04166
  35        3S         -0.03892  -0.09134   0.00083  -0.01276  -0.85285
  36 6   H  1S         -0.08041   0.12357   0.00012  -0.00289  -0.01700
  37        2S         -0.11081   0.19421   0.00143  -0.00493  -0.04748
  38        3S         -0.04147   0.09135   0.00080  -0.01323  -0.89310
                          11        12        13        14        15
                           V         V         V         V         V
     Eigenvalues --     0.16441   0.16991   0.24065   0.37557   0.39270
   1 1   C  1S          0.00091  -0.04616   0.00025   0.01152   0.00083
   2        2S          0.00148  -0.07521   0.00038   0.01639   0.00116
   3        2PX         0.09547  -0.01966   0.10076  -0.03829  -0.02249
   4        2PY        -0.05440  -0.03919  -0.05754  -0.06818   0.01159
   5        2PZ         0.00011  -0.00476   0.00004  -0.00333  -0.00014
   6        3S         -0.00331   0.16951   0.00022   0.02779   0.00478
   7        3PX         0.13692  -0.01121   0.10707  -0.05213  -0.10174
   8        3PY        -0.07892  -0.02658  -0.06209  -0.09863   0.05613
   9        3PZ         0.00014  -0.00660   0.00002  -0.00659  -0.00012
  10        4S         -0.03861   1.46961  -0.04151  -2.82434  -0.20256
  11        4PX         0.56874  -0.11275   1.16405  -1.60407  -0.55831
  12        4PY        -0.31569  -0.22435  -0.67861  -2.78589   0.14369
  13        4PZ         0.00076  -0.03109   0.00071  -0.03050  -0.00191
  14 2   H  1S         -0.02972  -0.02516   0.01341  -0.05280   0.07658
  15        2S         -0.08113  -0.01904  -0.02281  -0.61222   0.77900
  16        3S         -1.02785  -1.04103  -1.55242  -0.35880  -0.32638
  17 3   H  1S          0.02899  -0.02470  -0.01505  -0.04608  -0.07615
  18        2S          0.07975  -0.01857   0.01736  -0.55245  -0.76652
  19        3S          1.07874  -1.01853   1.59381  -0.42644   0.25475
  20 4   C  1S          0.00052   0.04181  -0.00027  -0.01987  -0.00020
  21        2S          0.00082   0.06809  -0.00044  -0.03236  -0.00030
  22        2PX         0.10343  -0.02226  -0.09977  -0.04167  -0.03280
  23        2PY        -0.06038  -0.03622   0.05726  -0.07616   0.01128
  24        2PZ         0.00007   0.00457  -0.00003   0.00261   0.00027
  25        3S         -0.00145  -0.15201   0.00038   0.03711   0.00150
  26        3PX         0.14857  -0.01692  -0.11293  -0.09055  -0.11346
  27        3PY        -0.08629  -0.02617   0.06352  -0.16874   0.05008
  28        3PZ         0.00010   0.00630  -0.00001   0.00349   0.00062
  29        4S         -0.03058  -1.30256   0.03370   3.41235   0.15414
  30        4PX         0.55182  -0.11445  -1.12606  -1.26840  -0.54092
  31        4PY        -0.32559  -0.18394   0.63938  -2.24831   0.08922
  32        4PZ         0.00047   0.02959  -0.00064   0.02636   0.00198
  33 5   H  1S          0.03117   0.02566   0.00618   0.01599  -0.07897
  34        2S          0.06885   0.02228  -0.03448   0.13473  -0.77706
  35        3S          1.06570   0.91322  -1.51110   0.45760   0.47826
  36 6   H  1S         -0.03195   0.02586  -0.00516   0.00869   0.08831
  37        2S         -0.07049   0.02244   0.03615   0.07452   0.89353
  38        3S         -1.02509   0.92099   1.48091   0.48029  -0.45924
                          16        17        18        19        20
                           V         V         V         V         V
     Eigenvalues --     0.39699   0.46349   0.48758   0.49378   0.59092
   1 1   C  1S         -0.01646   0.01414  -0.04617   0.00011  -0.00038
   2        2S         -0.02931   0.03168  -0.07697   0.00039  -0.00068
   3        2PX         0.02258  -0.06314   0.01139   0.00078   0.00155
   4        2PY         0.04134  -0.10706   0.01314   0.00109   0.00219
   5        2PZ        -0.00007  -0.00042   0.00242  -0.15162  -0.19265
   6        3S          0.07452  -0.33894   0.08106  -0.00758  -0.00045
   7        3PX         0.09496  -0.24548  -0.03702   0.00061   0.00513
   8        3PY         0.17756  -0.41499  -0.07736   0.00021   0.00743
   9        3PZ        -0.00328  -0.00325   0.01126  -0.62790  -0.68556
  10        4S          2.32530  -0.06683   3.17906   0.04269   0.04798
  11        4PX         0.06852   0.16783   0.79158   0.01441   0.01581
  12        4PY         0.15196   0.34021   1.40156   0.02694   0.02553
  13        4PZ        -0.00331   0.00163  -0.05719   0.68565   1.24129
  14 2   H  1S         -0.02971  -0.03091  -0.07845  -0.00131  -0.00121
  15        2S         -0.57774  -0.28114  -0.93603  -0.01122  -0.00909
  16        3S          0.24876   0.03564   0.64467   0.01681   0.01631
  17 3   H  1S         -0.03648  -0.03531  -0.07551  -0.00129  -0.00110
  18        2S         -0.63899  -0.33620  -0.91737  -0.01141  -0.00689
  19        3S          0.26193   0.04387   0.60070   0.01626   0.01589
  20 4   C  1S         -0.00366  -0.00457   0.05100   0.00177   0.00049
  21        2S         -0.00951  -0.00006   0.08893   0.00324   0.00091
  22        2PX         0.00497   0.05267   0.02797  -0.00013   0.00134
  23        2PY         0.01160   0.09328   0.05320  -0.00026   0.00277
  24        2PZ        -0.00242  -0.00115   0.00252  -0.15308   0.19215
  25        3S          0.08267  -0.27814  -0.24253  -0.01351  -0.00174
  26        3PX        -0.05055   0.22939   0.05846  -0.00025   0.00480
  27        3PY        -0.07722   0.40817   0.11082  -0.00073   0.00955
  28        3PZ        -0.00713  -0.00471   0.00860  -0.63228   0.68159
  29        4S         -0.48230   0.91068  -3.02735  -0.05528  -0.04251
  30        4PX         1.08605  -0.42477   0.64432   0.00715   0.01425
  31        4PY         1.98096  -0.68919   1.07550   0.01151   0.02609
  32        4PZ        -0.02082  -0.01181   0.02921   0.69413  -1.23679
  33 5   H  1S         -0.05081  -0.06629   0.06092   0.00113   0.00107
  34        2S         -0.85683  -0.67390   0.76229   0.01816   0.00380
  35        3S         -0.10576   0.30962  -0.54729  -0.00319  -0.01591
  36 6   H  1S         -0.04272  -0.06314   0.06264   0.00121   0.00116
  37        2S         -0.76936  -0.62710   0.76302   0.01818   0.00525
  38        3S         -0.13508   0.31696  -0.57917  -0.00410  -0.01623
                          21        22        23        24        25
                           V         V         V         V         V
     Eigenvalues --     0.66519   0.69057   0.77162   0.77627   0.84377
   1 1   C  1S          0.00061  -0.00027   0.04948   0.07464   0.00072
   2        2S          0.00120  -0.00069   0.10429   0.15913   0.00153
   3        2PX        -0.11875   0.20651  -0.02892   0.11229  -0.01003
   4        2PY         0.06956  -0.12299  -0.05081   0.18546   0.00887
   5        2PZ        -0.00004   0.00020   0.00036   0.00348   0.00011
   6        3S         -0.00791   0.01307  -0.69283  -1.36851  -0.01074
   7        3PX        -0.56921   0.73571  -0.18634   0.43337  -0.22630
   8        3PY         0.33115  -0.43673  -0.32833   0.71222   0.14219
   9        3PZ        -0.00025   0.00080   0.00136   0.01217   0.00049
  10        4S          0.00943  -0.09625   0.63739   2.48086  -0.14352
  11        4PX         1.07586  -0.86212   0.14629  -0.69468   4.44570
  12        4PY        -0.63359   0.48823   0.26610  -1.04697  -2.62010
  13        4PZ         0.00044   0.00005   0.00781  -0.03852   0.00230
  14 2   H  1S          0.01882  -0.06017   0.01002   0.03241  -0.02775
  15        2S          0.07772  -0.64091   0.08673   0.08730  -1.55571
  16        3S         -0.98007   1.16337  -0.05100  -1.13434  -1.21952
  17 3   H  1S         -0.01845   0.06010   0.00955   0.03331   0.02935
  18        2S         -0.08367   0.67934   0.08632   0.08512   1.58898
  19        3S          0.97124  -1.15312  -0.05574  -1.22718   1.22970
  20 4   C  1S          0.00074  -0.00080   0.08280   0.03340   0.00076
  21        2S          0.00148  -0.00151   0.17628   0.07038   0.00168
  22        2PX        -0.16372  -0.17439  -0.09902   0.05023   0.01077
  23        2PY         0.09321   0.09777  -0.17631   0.09075  -0.00397
  24        2PZ        -0.00007  -0.00020   0.00354  -0.00063  -0.00012
  25        3S         -0.01014   0.00365  -1.47889  -0.41713  -0.01608
  26        3PX        -0.72132  -0.57517  -0.36461   0.27156   0.24471
  27        3PY         0.41236   0.32089  -0.64910   0.48521  -0.12621
  28        3PZ        -0.00035  -0.00071   0.01251  -0.00240  -0.00043
  29        4S          0.01528   0.06573   2.67151   0.21404   0.12585
  30        4PX         1.28558   0.63279   0.55927  -0.28001  -4.24801
  31        4PY        -0.73045  -0.38163   1.00236  -0.60511   2.34650
  32        4PZ         0.00055   0.00010  -0.03700   0.01651  -0.00161
  33 5   H  1S         -0.02950  -0.05379   0.03487   0.00337  -0.02294
  34        2S         -0.19329  -0.55500   0.07076   0.06191  -1.42540
  35        3S          1.16306   0.90867  -1.14222   0.24341  -1.10666
  36 6   H  1S          0.02966   0.05312   0.03455   0.00437   0.02412
  37        2S          0.18676   0.52035   0.06025   0.03622   1.41800
  38        3S         -1.16426  -0.89908  -1.10864   0.20370   1.10631
                          26        27        28        29        30
                           V         V         V         V         V
     Eigenvalues --     0.95180   2.23203   2.28965   2.33260   2.40717
   1 1   C  1S          0.09559  -0.01076  -0.01452  -0.00024  -0.00041
   2        2S          0.19859   0.00046  -0.01508  -0.00076  -0.00032
   3        2PX        -0.09114  -0.08681  -0.13359  -0.33292  -0.41217
   4        2PY        -0.15816  -0.15818  -0.22742   0.19177   0.24092
   5        2PZ         0.00010  -0.00981  -0.01257   0.00007  -0.00048
   6        3S         -1.53828  -0.18287  -0.03000   0.00330  -0.00467
   7        3PX        -0.23241   0.08589   0.21140   0.39516   0.57213
   8        3PY        -0.39711   0.16862   0.37253  -0.22965  -0.33922
   9        3PZ        -0.00185   0.00982   0.01571  -0.00013   0.00058
  10        4S          5.71515  -0.13342  -0.89466   0.00132  -0.04701
  11        4PX         1.17904   0.05445  -0.19780   0.01677   0.96644
  12        4PY         1.99459   0.06611  -0.34686  -0.00408  -0.55796
  13        4PZ        -0.01286   0.00265   0.00578   0.00016   0.00092
  14 2   H  1S          0.01558  -0.72528  -0.77189   0.69283   0.67368
  15        2S         -0.28689   1.03436   1.16346  -1.05274  -1.48902
  16        3S         -0.08725  -0.30918  -0.45769   0.46287   0.37863
  17 3   H  1S          0.01554  -0.72224  -0.77399  -0.67613  -0.69327
  18        2S         -0.26842   1.03326   1.16454   1.03215   1.52881
  19        3S         -0.08476  -0.28939  -0.45223  -0.44947  -0.37462
  20 4   C  1S         -0.09416  -0.00962   0.01206  -0.00037   0.00022
  21        2S         -0.19535   0.00147   0.01153  -0.00058   0.00026
  22        2PX        -0.09247   0.12595  -0.12551  -0.31824   0.41398
  23        2PY        -0.15924   0.22352  -0.21425   0.18223  -0.23087
  24        2PZ         0.00019  -0.01006   0.01262  -0.00018   0.00019
  25        3S          1.51160  -0.17255   0.02390   0.00089   0.00038
  26        3PX        -0.22690  -0.16036   0.21533   0.40172  -0.58194
  27        3PY        -0.39533  -0.28095   0.36129  -0.22789   0.32237
  28        3PZ         0.00242   0.01085  -0.01613   0.00021  -0.00030
  29        4S         -5.68904  -0.14044   0.87853  -0.01393   0.03171
  30        4PX         1.12643  -0.01356  -0.19369  -0.08383  -0.87320
  31        4PY         1.97984  -0.03290  -0.33271   0.04906   0.48899
  32        4PZ         0.00927   0.00272  -0.00444   0.00009  -0.00068
  33 5   H  1S         -0.01801  -0.77604   0.69645  -0.72082   0.66489
  34        2S          0.29245   1.12243  -1.05604   1.06030  -1.42987
  35        3S          0.06776  -0.35283   0.41903  -0.51946   0.41422
  36 6   H  1S         -0.01818  -0.76413   0.71777   0.71136  -0.66379
  37        2S          0.30583   1.10216  -1.08838  -1.04241   1.42321
  38        3S          0.06189  -0.35018   0.43777   0.51685  -0.41703
                          31        32        33        34        35
                           V         V         V         V         V
     Eigenvalues --     2.67093   2.81796   2.87829   2.95187   3.13939
   1 1   C  1S          0.00036   0.00178  -0.01325   0.00009  -0.00953
   2        2S          0.00029   0.00519  -0.04444   0.00004  -0.02895
   3        2PX         0.00382   0.05170  -0.47150  -0.73868   0.45290
   4        2PY         0.00591   0.08926  -0.83396   0.40788   0.80300
   5        2PZ        -0.92242  -0.93700  -0.09914  -0.00089   0.00539
   6        3S         -0.00122  -0.04314   0.39170   0.00105   0.24235
   7        3PX        -0.00291  -0.08989   0.84028   0.89085  -0.44356
   8        3PY        -0.00450  -0.15462   1.46730  -0.48174  -0.78915
   9        3PZ         0.93704   1.14502   0.12446   0.00121  -0.00698
  10        4S          0.00935   0.09937  -0.87444  -0.00932  -0.46863
  11        4PX        -0.00137   0.07275  -0.72140  -0.66668   0.23068
  12        4PY        -0.00179   0.12540  -1.26760   0.35574   0.41218
  13        4PZ        -0.33671  -0.62024  -0.07891  -0.00097   0.00448
  14 2   H  1S          0.00848  -0.01487   0.26849  -0.37579  -0.22436
  15        2S         -0.00976   0.00976  -0.22802   0.38337   0.17008
  16        3S         -0.00201   0.02862  -0.29735   0.27405   0.07282
  17 3   H  1S          0.00852  -0.01401   0.25541   0.38041  -0.21715
  18        2S         -0.00991   0.00828  -0.20464  -0.38288   0.16328
  19        3S         -0.00244   0.02970  -0.30475  -0.29056   0.07192
  20 4   C  1S          0.00035  -0.00178   0.01398   0.00057  -0.00739
  21        2S          0.00033  -0.00546   0.04824   0.00137  -0.02344
  22        2PX        -0.00501   0.04602  -0.41415  -0.79580  -0.50037
  23        2PY        -0.00923   0.08346  -0.75069   0.44934  -0.87517
  24        2PZ        -0.92708   0.93195   0.10072   0.00016   0.00854
  25        3S         -0.00181   0.04665  -0.43089  -0.01103   0.20299
  26        3PX         0.00516  -0.08349   0.77445   0.94641   0.52889
  27        3PY         0.00935  -0.14961   1.38692  -0.52533   0.93003
  28        3PZ         0.94322  -1.14013  -0.12681  -0.00020  -0.01069
  29        4S          0.01075  -0.10206   0.91111   0.02881  -0.38894
  30        4PX        -0.00047   0.07057  -0.70835  -0.69744  -0.31649
  31        4PY        -0.00124   0.12555  -1.25031   0.37702  -0.55437
  32        4PZ        -0.33997   0.61822   0.08086   0.00010   0.00821
  33 5   H  1S          0.00823   0.01876  -0.28964   0.42038  -0.25177
  34        2S         -0.01008  -0.01492   0.25953  -0.43559   0.19650
  35        3S         -0.00095  -0.02747   0.28575  -0.24145   0.11115
  36 6   H  1S          0.00840   0.01944  -0.29176  -0.42535  -0.24887
  37        2S         -0.01055  -0.01610   0.26962   0.44054   0.19597
  38        3S         -0.00066  -0.02543   0.26577   0.24218   0.11285
                          36        37        38
                           V         V         V
     Eigenvalues --     3.31844  23.35174  23.70537
   1 1   C  1S         -0.00058  -1.41106  -1.45513
   2        2S         -0.00097   1.50481   1.57349
   3        2PX         0.77794  -0.00676   0.01195
   4        2PY        -0.44200  -0.01106   0.02121
   5        2PZ         0.00061  -0.00040  -0.00017
   6        3S          0.00425  -0.29492  -0.39989
   7        3PX        -1.11165   0.02476  -0.05519
   8        3PY         0.63164   0.04113  -0.09666
   9        3PZ        -0.00091   0.00112   0.00050
  10        4S         -0.04244   0.27018   0.76953
  11        4PX         1.95062  -0.02763   0.13089
  12        4PY        -1.12184  -0.04641   0.22968
  13        4PZ         0.00150  -0.00185  -0.00212
  14 2   H  1S          0.55789   0.01364   0.00713
  15        2S         -0.86943   0.00773  -0.01443
  16        3S         -0.46933  -0.08461  -0.03908
  17 3   H  1S         -0.56814   0.01525   0.00865
  18        2S          0.88352   0.00704  -0.01572
  19        3S          0.48580  -0.08627  -0.04077
  20 4   C  1S          0.00033  -1.45035   1.41581
  21        2S          0.00033   1.54692  -1.53116
  22        2PX        -0.71744   0.00584   0.01283
  23        2PY         0.40405   0.01056   0.02163
  24        2PZ        -0.00044  -0.00038   0.00010
  25        3S         -0.00053  -0.30400   0.38993
  26        3PX         1.02079  -0.02153  -0.05694
  27        3PY        -0.57907  -0.03846  -0.09726
  28        3PZ         0.00065   0.00109  -0.00025
  29        4S          0.01957   0.28319  -0.75842
  30        4PX        -1.80736   0.02157   0.13329
  31        4PY         1.02037   0.04036   0.22664
  32        4PZ        -0.00108  -0.00179   0.00159
  33 5   H  1S          0.48911   0.01248  -0.00438
  34        2S         -0.76647   0.00821   0.01373
  35        3S         -0.42190  -0.08254   0.03775
  36 6   H  1S         -0.48512   0.01122  -0.00301
  37        2S          0.76308   0.00971   0.01224
  38        3S          0.41950  -0.08125   0.03569
     Density Matrix:
                           1         2         3         4         5
   1 1   C  1S          0.65941
   2        2S          0.56154   0.49205
   3        2PX        -0.00053  -0.00070   0.08457
   4        2PY        -0.00126  -0.00174   0.00347   0.08780
   5        2PZ         0.00006   0.00010  -0.00008  -0.00018   0.06438
   6        3S         -0.08900  -0.15395   0.00268   0.00621  -0.00015
   7        3PX         0.00090   0.00138   0.13079   0.00111  -0.00006
   8        3PY         0.00124   0.00190   0.00107   0.13142  -0.00016
   9        3PZ         0.00013   0.00021  -0.00015  -0.00030   0.10357
  10        4S         -0.07929  -0.11418  -0.01494  -0.02700   0.00039
  11        4PX         0.00024   0.00150   0.07049  -0.00455  -0.00041
  12        4PY         0.00058   0.00293  -0.00453   0.06562  -0.00070
  13        4PZ        -0.00008  -0.00018  -0.00059  -0.00099   0.09592
  14 2   H  1S         -0.02064  -0.03286   0.03459  -0.06347  -0.00085
  15        2S         -0.02284  -0.03650   0.04893  -0.08796  -0.00063
  16        3S          0.00059  -0.00067   0.02076  -0.03299  -0.00002
  17 3   H  1S         -0.02107  -0.03352  -0.07304  -0.00185  -0.00094
  18        2S         -0.02307  -0.03685  -0.10076  -0.00164  -0.00074
  19        3S          0.00063  -0.00065  -0.03847   0.00149  -0.00005
  20 4   C  1S          0.00607   0.00978  -0.01088  -0.01871  -0.00030
  21        2S          0.00975   0.01524  -0.01742  -0.02994  -0.00048
  22        2PX         0.01034   0.01652  -0.01241  -0.03200   0.00031
  23        2PY         0.01813   0.02900  -0.03228  -0.04966   0.00061
  24        2PZ        -0.00034  -0.00055  -0.00029  -0.00044   0.06434
  25        3S         -0.02629  -0.03992   0.04892   0.08405   0.00146
  26        3PX         0.01597   0.02475  -0.01826  -0.04554   0.00040
  27        3PY         0.02797   0.04339  -0.04593  -0.07107   0.00080
  28        3PZ        -0.00058  -0.00093  -0.00051  -0.00078   0.10292
  29        4S          0.00534   0.00396   0.02065   0.03556   0.00178
  30        4PX         0.00309   0.00638  -0.01289  -0.02081   0.00046
  31        4PY         0.00532   0.01102  -0.02087  -0.03735   0.00093
  32        4PZ        -0.00049  -0.00079  -0.00078  -0.00123   0.09590
  33 5   H  1S          0.00420   0.00691  -0.00166  -0.01223  -0.00034
  34        2S          0.00644   0.01071   0.00344  -0.02495  -0.00003
  35        3S          0.00332   0.00489   0.00412  -0.01763   0.00006
  36 6   H  1S          0.00414   0.00680  -0.00989  -0.00769  -0.00035
  37        2S          0.00624   0.01037  -0.02351  -0.00947  -0.00005
  38        3S          0.00323   0.00473  -0.01739  -0.00518   0.00004
                           6         7         8         9        10
   6        3S          0.45291
   7        3PX        -0.00186   0.20255
   8        3PY        -0.00164  -0.00457   0.19719
   9        3PZ        -0.00042  -0.00011  -0.00025   0.16659
  10        4S          0.27308  -0.02543  -0.04653   0.00050   0.18109
  11        4PX        -0.00648   0.10950  -0.01019  -0.00067  -0.01449
  12        4PY        -0.01212  -0.01009   0.09889  -0.00113  -0.02791
  13        4PZ         0.00080  -0.00079  -0.00131   0.15430   0.00148
  14 2   H  1S          0.08783   0.05556  -0.09908  -0.00141   0.06906
  15        2S          0.09765   0.07893  -0.13686  -0.00107   0.08079
  16        3S          0.00595   0.03380  -0.05075  -0.00003   0.01079
  17 3   H  1S          0.08967  -0.11425  -0.00132  -0.00154   0.06860
  18        2S          0.09876  -0.15743   0.00022  -0.00121   0.07909
  19        3S          0.00610  -0.05986   0.00410  -0.00008   0.00985
  20 4   C  1S         -0.02649  -0.01696  -0.02921  -0.00051   0.00520
  21        2S         -0.04011  -0.02636  -0.04539  -0.00082   0.00393
  22        2PX        -0.04619  -0.01764  -0.04539   0.00054  -0.01787
  23        2PY        -0.08124  -0.04595  -0.07092   0.00105  -0.03183
  24        2PZ         0.00164  -0.00040  -0.00059   0.10350   0.00172
  25        3S          0.10227   0.07170   0.12338   0.00244   0.00101
  26        3PX        -0.06690  -0.02609  -0.06438   0.00070  -0.02666
  27        3PY        -0.11757  -0.06522  -0.10145   0.00139  -0.04742
  28        3PZ         0.00272  -0.00070  -0.00104   0.16555   0.00285
  29        4S          0.00166   0.03120   0.05391   0.00296  -0.03255
  30        4PX        -0.02255  -0.01920  -0.02920   0.00077  -0.00688
  31        4PY        -0.03911  -0.02945  -0.05406   0.00155  -0.01171
  32        4PZ         0.00232  -0.00109  -0.00170   0.15426   0.00264
  33 5   H  1S         -0.02061  -0.00075  -0.01770  -0.00050  -0.01548
  34        2S         -0.03205   0.00825  -0.03687   0.00001  -0.02055
  35        3S         -0.01266   0.00782  -0.02656   0.00011  -0.00405
  36 6   H  1S         -0.02017  -0.01490  -0.00935  -0.00051  -0.01523
  37        2S         -0.03095  -0.03597  -0.01071  -0.00001  -0.02029
  38        3S         -0.01213  -0.02681  -0.00615   0.00008  -0.00410
                          11        12        13        14        15
  11        4PX         0.06026
  12        4PY        -0.00892   0.05109
  13        4PZ        -0.00098  -0.00162   0.14292
  14 2   H  1S          0.03335  -0.05431  -0.00073   0.08158
  15        2S          0.04815  -0.07489  -0.00025   0.10958   0.14932
  16        3S          0.02102  -0.02764   0.00015   0.03665   0.05224
  17 3   H  1S         -0.06331   0.00180  -0.00079  -0.01309  -0.02486
  18        2S         -0.08764   0.00445  -0.00031  -0.02475  -0.04319
  19        3S         -0.03365   0.00456   0.00014  -0.01811  -0.02747
  20 4   C  1S         -0.00316  -0.00564  -0.00045   0.00423   0.00660
  21        2S         -0.00652  -0.01158  -0.00072   0.00697   0.01100
  22        2PX        -0.01333  -0.02008   0.00076   0.00192  -0.00270
  23        2PY        -0.02031  -0.03674   0.00143   0.01155   0.02424
  24        2PZ        -0.00056  -0.00087   0.09587  -0.00040  -0.00011
  25        3S          0.02315   0.04089   0.00210  -0.02094  -0.03306
  26        3PX        -0.02055  -0.02834   0.00102   0.00100  -0.00743
  27        3PY        -0.02872  -0.05341   0.00196   0.01705   0.03615
  28        3PZ        -0.00091  -0.00144   0.15335  -0.00058  -0.00010
  29        4S          0.00771   0.01438   0.00271  -0.01725  -0.02331
  30        4PX        -0.01475  -0.01248   0.00094  -0.00159  -0.00844
  31        4PY        -0.01249  -0.02950   0.00183   0.01548   0.02738
  32        4PZ        -0.00110  -0.00177   0.14289  -0.00032   0.00021
  33 5   H  1S          0.00190  -0.01560  -0.00025   0.01120   0.02339
  34        2S          0.00898  -0.02736   0.00030   0.02374   0.04446
  35        3S          0.00740  -0.01583   0.00022   0.01664   0.02785
  36 6   H  1S         -0.01470  -0.00604  -0.00027  -0.00899  -0.01804
  37        2S         -0.02852  -0.00558   0.00029  -0.01874  -0.03420
  38        3S         -0.01741  -0.00133   0.00020  -0.01014  -0.01774
                          16        17        18        19        20
  16        3S          0.02093
  17 3   H  1S         -0.01837   0.08273
  18        2S         -0.02768   0.10999   0.14838
  19        3S         -0.01297   0.03623   0.05116   0.02025
  20 4   C  1S          0.00363   0.00430   0.00673   0.00367   0.65947
  21        2S          0.00532   0.00711   0.01122   0.00540   0.56153
  22        2PX        -0.00352   0.00897   0.02205   0.01652   0.00118
  23        2PY         0.01753   0.00743   0.00969   0.00565   0.00184
  24        2PZ         0.00003  -0.00039  -0.00008   0.00005   0.00005
  25        3S         -0.01373  -0.02136  -0.03371  -0.01396  -0.08919
  26        3PX        -0.00713   0.01428   0.03480   0.02588  -0.00046
  27        3PY         0.02638   0.00951   0.01175   0.00707  -0.00103
  28        3PZ         0.00006  -0.00057  -0.00006   0.00010   0.00012
  29        4S         -0.00539  -0.01729  -0.02317  -0.00523  -0.08032
  30        4PX        -0.00703   0.01383   0.02725   0.01687  -0.00022
  31        4PY         0.01595   0.00629   0.00621   0.00180  -0.00022
  32        4PZ         0.00020  -0.00031   0.00025   0.00023  -0.00003
  33 5   H  1S          0.01621  -0.00912  -0.01822  -0.00944  -0.02000
  34        2S          0.02749  -0.01881  -0.03412  -0.01697  -0.02220
  35        3S          0.01466  -0.01011  -0.01755  -0.00894   0.00055
  36 6   H  1S         -0.00946   0.01119   0.02310   0.01579  -0.01980
  37        2S         -0.01723   0.02389   0.04424   0.02695  -0.02226
  38        3S         -0.00915   0.01674   0.02777   0.01444   0.00044
                          21        22        23        24        25
  21        2S          0.49199
  22        2PX         0.00169   0.08223
  23        2PY         0.00263   0.00387   0.08740
  24        2PZ         0.00008   0.00011   0.00015   0.06432
  25        3S         -0.15413  -0.00547  -0.00862  -0.00010   0.45340
  26        3PX        -0.00069   0.12809   0.00198   0.00007  -0.00035
  27        3PY        -0.00157   0.00209   0.13100   0.00008   0.00049
  28        3PZ         0.00021   0.00016   0.00024   0.10288  -0.00041
  29        4S         -0.11611   0.01437   0.02418   0.00049   0.27939
  30        4PX        -0.00154   0.07283  -0.00506   0.00033   0.00652
  31        4PY        -0.00231  -0.00509   0.06681   0.00062   0.01012
  32        4PZ        -0.00011   0.00056   0.00101   0.09586   0.00058
  33 5   H  1S         -0.03188  -0.03355   0.06309  -0.00091   0.08527
  34        2S         -0.03550  -0.04983   0.08837  -0.00073   0.09500
  35        3S         -0.00068  -0.02250   0.03360  -0.00008   0.00582
  36 6   H  1S         -0.03157   0.07071   0.00302  -0.00083   0.08445
  37        2S         -0.03558   0.10097   0.00153  -0.00062   0.09512
  38        3S         -0.00081   0.04042  -0.00268  -0.00004   0.00601
                          26        27        28        29        30
  26        3PX         0.19990
  27        3PY        -0.00260   0.19692
  28        3PZ         0.00009   0.00011   0.16457
  29        4S          0.02622   0.04398   0.00061   0.18866
  30        4PX         0.11412  -0.01064   0.00052   0.01631   0.06620
  31        4PY        -0.01084   0.10097   0.00098   0.02596  -0.01049
  32        4PZ         0.00071   0.00130   0.15334   0.00147   0.00081
  33 5   H  1S         -0.05389   0.09888  -0.00150   0.06734  -0.03456
  34        2S         -0.08049   0.13799  -0.00123   0.07840  -0.05212
  35        3S         -0.03678   0.05178  -0.00012   0.00973  -0.02406
  36 6   H  1S          0.11187   0.00386  -0.00139   0.06802   0.06541
  37        2S          0.15957   0.00051  -0.00106   0.08024   0.09372
  38        3S          0.06358  -0.00574  -0.00007   0.01060   0.03763
                          31        32        33        34        35
  31        4PY         0.05334
  32        4PZ         0.00154   0.14288
  33 5   H  1S          0.05542  -0.00079   0.08032
  34        2S          0.07744  -0.00036   0.10993   0.15282
  35        3S          0.02918   0.00010   0.03810   0.05548   0.02293
  36 6   H  1S         -0.00179  -0.00073  -0.01252  -0.02587  -0.01968
  37        2S         -0.00597  -0.00027  -0.02604  -0.04797  -0.03129
  38        3S         -0.00617   0.00013  -0.01998  -0.03152  -0.01549
                          36        37        38
  36 6   H  1S          0.07947
  37        2S          0.10942   0.15300
  38        3S          0.03815   0.05582   0.02316
    Full Mulliken population analysis:
                           1         2         3         4         5
   1 1   C  1S          0.65941
   2        2S          0.49328   0.49205
   3        2PX         0.00000   0.00000   0.08457
   4        2PY         0.00000   0.00000   0.00000   0.08780
   5        2PZ         0.00000   0.00000   0.00000   0.00000   0.06438
   6        3S         -0.02930  -0.06448   0.00000   0.00000   0.00000
   7        3PX         0.00000   0.00000   0.08228   0.00000   0.00000
   8        3PY         0.00000   0.00000   0.00000   0.08268   0.00000
   9        3PZ         0.00000   0.00000   0.00000   0.00000   0.06516
  10        4S         -0.01219  -0.02137   0.00000   0.00000   0.00000
  11        4PX         0.00000   0.00000   0.01552   0.00000   0.00000
  12        4PY         0.00000   0.00000   0.00000   0.01445   0.00000
  13        4PZ         0.00000   0.00000   0.00000   0.00000   0.02113
  14 2   H  1S         -0.00024  -0.00034   0.00178   0.00576   0.00000
  15        2S         -0.00167  -0.00321   0.00422   0.01336   0.00000
  16        3S          0.00005  -0.00006   0.00068   0.00191   0.00000
  17 3   H  1S         -0.00026  -0.00037   0.00800   0.00000   0.00000
  18        2S         -0.00174  -0.00332   0.01783   0.00000   0.00000
  19        3S          0.00005  -0.00006   0.00256  -0.00000   0.00000
  20 4   C  1S          0.00000   0.00000  -0.00002  -0.00006   0.00000
  21        2S          0.00000  -0.00000  -0.00002  -0.00005   0.00000
  22        2PX        -0.00002  -0.00002   0.00011   0.00085   0.00000
  23        2PY        -0.00006  -0.00005   0.00086   0.00196   0.00000
  24        2PZ        -0.00000  -0.00000  -0.00000  -0.00000   0.00041
  25        3S         -0.00059  -0.00099   0.00255   0.00759  -0.00000
  26        3PX        -0.00054  -0.00099   0.00019   0.00550   0.00000
  27        3PY        -0.00164  -0.00300   0.00555   0.01066   0.00000
  28        3PZ        -0.00000  -0.00000  -0.00000  -0.00000   0.00610
  29        4S          0.00034   0.00030   0.00094   0.00279  -0.00000
  30        4PX        -0.00018  -0.00045  -0.00070   0.00144   0.00000
  31        4PY        -0.00054  -0.00135   0.00145   0.00097   0.00000
  32        4PZ        -0.00000  -0.00000  -0.00000  -0.00000   0.00902
  33 5   H  1S          0.00000   0.00000  -0.00000  -0.00000   0.00000
  34        2S          0.00001   0.00002   0.00000  -0.00032   0.00000
  35        3S          0.00008   0.00014   0.00001  -0.00071  -0.00000
  36 6   H  1S          0.00000   0.00000  -0.00000  -0.00000   0.00000
  37        2S          0.00001   0.00002  -0.00023  -0.00006   0.00000
  38        3S          0.00007   0.00013  -0.00057  -0.00012  -0.00000
                           6         7         8         9        10
   6        3S          0.45291
   7        3PX         0.00000   0.20255
   8        3PY         0.00000   0.00000   0.19719
   9        3PZ         0.00000   0.00000   0.00000   0.16659
  10        4S          0.21156   0.00000   0.00000   0.00000   0.18109
  11        4PX         0.00000   0.07155   0.00000   0.00000   0.00000
  12        4PY         0.00000   0.00000   0.06462   0.00000   0.00000
  13        4PZ         0.00000   0.00000   0.00000   0.10083   0.00000
  14 2   H  1S          0.01624   0.01050   0.03298   0.00001   0.01831
  15        2S          0.04125   0.01906   0.05821   0.00001   0.04666
  16        3S          0.00274   0.00388   0.01026   0.00000   0.00816
  17 3   H  1S          0.01708   0.04460   0.00000   0.00001   0.01839
  18        2S          0.04242   0.07750  -0.00000   0.00001   0.04607
  19        3S          0.00284   0.01388  -0.00001   0.00000   0.00748
  20 4   C  1S         -0.00059  -0.00057  -0.00171   0.00000   0.00033
  21        2S         -0.00100  -0.00105  -0.00314   0.00000   0.00030
  22        2PX         0.00241   0.00019   0.00548   0.00000   0.00081
  23        2PY         0.00733   0.00555   0.01064   0.00000   0.00250
  24        2PZ         0.00000  -0.00000  -0.00000   0.00613   0.00000
  25        3S          0.02178   0.01343   0.04002  -0.00000   0.00038
  26        3PX         0.01253  -0.00126   0.01837   0.00000   0.00411
  27        3PY         0.03814   0.01861   0.02851   0.00000   0.01266
  28        3PZ         0.00000  -0.00000  -0.00000   0.03526   0.00000
  29        4S          0.00063   0.00481   0.01439  -0.00000  -0.02043
  30        4PX         0.00633  -0.00394   0.00578   0.00000   0.00208
  31        4PY         0.01902   0.00583   0.00127   0.00000   0.00614
  32        4PZ         0.00000  -0.00000  -0.00000   0.04927   0.00000
  33 5   H  1S         -0.00006  -0.00000  -0.00019   0.00000  -0.00083
  34        2S         -0.00125   0.00005  -0.00326  -0.00000  -0.00346
  35        3S         -0.00207   0.00009  -0.00429  -0.00000  -0.00146
  36 6   H  1S         -0.00005  -0.00012  -0.00005   0.00000  -0.00079
  37        2S         -0.00115  -0.00253  -0.00052   0.00000  -0.00334
  38        3S         -0.00194  -0.00353  -0.00056  -0.00000  -0.00146
                          11        12        13        14        15
  11        4PX         0.06026
  12        4PY         0.00000   0.05109
  13        4PZ         0.00000   0.00000   0.14292
  14 2   H  1S          0.00617   0.01768   0.00001   0.08158
  15        2S          0.01498   0.04102   0.00000   0.07741   0.14932
  16        3S          0.00512   0.01185  -0.00000   0.01370   0.04121
  17 3   H  1S          0.02373  -0.00000   0.00001  -0.00001  -0.00068
  18        2S          0.05512  -0.00002   0.00000  -0.00068  -0.00555
  19        3S          0.01652  -0.00002  -0.00000  -0.00205  -0.00810
  20 4   C  1S         -0.00018  -0.00057   0.00000   0.00000   0.00002
  21        2S         -0.00046  -0.00142   0.00000   0.00000   0.00003
  22        2PX        -0.00072   0.00139   0.00000  -0.00000   0.00000
  23        2PY         0.00141   0.00095   0.00000  -0.00000  -0.00035
  24        2PZ        -0.00000  -0.00000   0.00901   0.00000   0.00000
  25        3S          0.00650   0.01989  -0.00000  -0.00007  -0.00143
  26        3PX        -0.00421   0.00561   0.00000  -0.00000   0.00004
  27        3PY         0.00569   0.00125   0.00000  -0.00022  -0.00350
  28        3PZ        -0.00000  -0.00000   0.04898   0.00000   0.00000
  29        4S          0.00233   0.00754  -0.00000  -0.00100  -0.00415
  30        4PX        -0.00710   0.00316   0.00000   0.00002   0.00019
  31        4PY         0.00316  -0.00558   0.00000  -0.00244  -0.01026
  32        4PZ        -0.00000  -0.00000   0.08969   0.00000  -0.00000
  33 5   H  1S          0.00002  -0.00232   0.00000   0.00000   0.00000
  34        2S          0.00024  -0.00985  -0.00000   0.00000   0.00015
  35        3S          0.00026  -0.00732  -0.00000   0.00023   0.00145
  36 6   H  1S         -0.00177  -0.00050   0.00000  -0.00000  -0.00004
  37        2S         -0.00834  -0.00112  -0.00000  -0.00004  -0.00088
  38        3S         -0.00660  -0.00035  -0.00000  -0.00045  -0.00242
                          16        17        18        19        20
  16        3S          0.02093
  17 3   H  1S         -0.00208   0.08273
  18        2S         -0.00816   0.07769   0.14838
  19        3S         -0.00679   0.01354   0.04036   0.02025
  20 4   C  1S          0.00009   0.00000   0.00002   0.00009   0.65947
  21        2S          0.00016   0.00000   0.00003   0.00016   0.49328
  22        2PX         0.00001  -0.00000  -0.00028  -0.00058   0.00000
  23        2PY        -0.00073  -0.00000  -0.00008  -0.00013   0.00000
  24        2PZ        -0.00000   0.00000   0.00000  -0.00000   0.00000
  25        3S         -0.00235  -0.00007  -0.00150  -0.00242  -0.02936
  26        3PX         0.00007  -0.00016  -0.00288  -0.00362   0.00000
  27        3PY        -0.00439  -0.00007  -0.00065  -0.00066   0.00000
  28        3PZ        -0.00000   0.00000   0.00000  -0.00000   0.00000
  29        4S         -0.00202  -0.00102  -0.00418  -0.00197  -0.01235
  30        4PX         0.00020  -0.00184  -0.00860  -0.00665   0.00000
  31        4PY        -0.00751  -0.00056  -0.00130  -0.00047   0.00000
  32        4PZ        -0.00000   0.00000  -0.00000  -0.00000   0.00000
  33 5   H  1S          0.00022  -0.00000  -0.00004  -0.00043  -0.00021
  34        2S          0.00144  -0.00005  -0.00093  -0.00239  -0.00157
  35        3S          0.00246  -0.00047  -0.00247  -0.00287   0.00004
  36 6   H  1S         -0.00042   0.00000   0.00000   0.00022  -0.00020
  37        2S         -0.00235   0.00000   0.00015   0.00140  -0.00155
  38        3S         -0.00288   0.00023   0.00144   0.00241   0.00003
                          21        22        23        24        25
  21        2S          0.49199
  22        2PX         0.00000   0.08223
  23        2PY         0.00000   0.00000   0.08740
  24        2PZ         0.00000   0.00000   0.00000   0.06432
  25        3S         -0.06455   0.00000   0.00000   0.00000   0.45340
  26        3PX         0.00000   0.08059   0.00000   0.00000   0.00000
  27        3PY         0.00000   0.00000   0.08242   0.00000   0.00000
  28        3PZ         0.00000   0.00000   0.00000   0.06473   0.00000
  29        4S         -0.02173   0.00000   0.00000   0.00000   0.21645
  30        4PX         0.00000   0.01604   0.00000   0.00000   0.00000
  31        4PY         0.00000   0.00000   0.01471   0.00000   0.00000
  32        4PZ         0.00000   0.00000   0.00000   0.02111   0.00000
  33 5   H  1S         -0.00029   0.00150   0.00548   0.00000   0.01513
  34        2S         -0.00301   0.00391   0.01347   0.00000   0.03922
  35        3S         -0.00006   0.00069   0.00200   0.00000   0.00266
  36 6   H  1S         -0.00027   0.00665   0.00002   0.00000   0.01465
  37        2S         -0.00295   0.01711   0.00002   0.00000   0.03878
  38        3S         -0.00008   0.00270  -0.00001   0.00000   0.00273
                          26        27        28        29        30
  26        3PX         0.19990
  27        3PY         0.00000   0.19692
  28        3PZ         0.00000   0.00000   0.16457
  29        4S          0.00000   0.00000   0.00000   0.18866
  30        4PX         0.07457   0.00000   0.00000   0.00000   0.06620
  31        4PY         0.00000   0.06598   0.00000   0.00000   0.00000
  32        4PZ         0.00000   0.00000   0.10020   0.00000   0.00000
  33 5   H  1S          0.00919   0.03272   0.00001   0.01758   0.00591
  34        2S          0.01786   0.05944   0.00001   0.04475   0.01506
  35        3S          0.00393   0.01074   0.00000   0.00730   0.00547
  36 6   H  1S          0.04093   0.00009   0.00001   0.01761   0.02437
  37        2S          0.07676   0.00002   0.00001   0.04549   0.05907
  38        3S          0.01484  -0.00008   0.00000   0.00792   0.01871
                          31        32        33        34        35
  31        4PY         0.05334
  32        4PZ         0.00000   0.14288
  33 5   H  1S          0.01841   0.00001   0.08032
  34        2S          0.04344   0.00000   0.07765   0.15282
  35        3S          0.01288  -0.00000   0.01424   0.04377   0.02293
  36 6   H  1S         -0.00004   0.00001  -0.00001  -0.00074  -0.00226
  37        2S         -0.00023   0.00000  -0.00075  -0.00635  -0.00936
  38        3S         -0.00019  -0.00000  -0.00230  -0.00943  -0.00819
                          36        37        38
  36 6   H  1S          0.07947
  37        2S          0.07729   0.15300
  38        3S          0.01425   0.04404   0.02316
     Gross orbital populations:
                           1
   1 1   C  1S          1.10435
   2        2S          0.88586
   3        2PX         0.22757
   4        2PY         0.23640
   5        2PZ         0.16621
   6        3S          0.79333
   7        3PX         0.56138
   8        3PY         0.55668
   9        3PZ         0.42329
  10        4S          0.50169
  11        4PX         0.25919
  12        4PY         0.21145
  13        4PZ         0.41258
  14 2   H  1S          0.27484
  15        2S          0.46637
  16        3S          0.08540
  17 3   H  1S          0.27838
  18        2S          0.46466
  19        3S          0.08253
  20 4   C  1S          1.10442
  21        2S          0.88584
  22        2PX         0.22105
  23        2PY         0.23529
  24        2PZ         0.16573
  25        3S          0.79181
  26        3PX         0.55135
  27        3PY         0.55517
  28        3PZ         0.41988
  29        4S          0.51097
  30        4PX         0.27518
  31        4PY         0.21615
  32        4PZ         0.41219
  33 5   H  1S          0.27098
  34        2S          0.47075
  35        3S          0.08983
  36 6   H  1S          0.26829
  37        2S          0.47143
  38        3S          0.09153
          Condensed to atoms (all electrons):
               1          2          3          4          5          6
     1  C    5.034257   0.387361   0.388316   0.601976  -0.036448  -0.035486
     2  H    0.387361   0.516466  -0.034102  -0.039600   0.005963  -0.009468
     3  H    0.388316  -0.034102   0.514532  -0.039393  -0.009653   0.005861
     4  C    0.601976  -0.039600  -0.039393   5.055431   0.383692   0.382920
     5  H   -0.036448   0.005963  -0.009653   0.383692   0.527393  -0.039382
     6  H   -0.035486  -0.009468   0.005861   0.382920  -0.039382   0.526808
 Mulliken charges:
               1
     1  C   -0.339975
     2  H    0.173380
     3  H    0.174440
     4  C   -0.345026
     5  H    0.168435
     6  H    0.168747
 Sum of Mulliken charges =  -0.00000
 Mulliken charges with hydrogens summed into heavy atoms:
               1
     1  C    0.007845
     4  C   -0.007845
 Electronic spatial extent (au):  <R**2>=             83.8114
 Charge=             -0.0000 electrons
 Dipole moment (field-independent basis, Debye):
    X=             -0.0066    Y=              0.0104    Z=             -0.0751  Tot=              0.0761
 Quadrupole moment (field-independent basis, Debye-Ang):
   XX=            -12.2038   YY=            -12.2152   ZZ=            -15.6787
   XY=              0.0158   XZ=              0.0003   YZ=             -0.0024
 Traceless Quadrupole moment (field-independent basis, Debye-Ang):
   XX=              1.1621   YY=              1.1507   ZZ=             -2.3128
   XY=              0.0158   XZ=              0.0003   YZ=             -0.0024
 Octapole moment (field-independent basis, Debye-Ang**2):
  XXX=             -0.2790  YYY=             -0.1580  ZZZ=             -0.0709  XYY=              0.1073
  XXY=             -0.0193  XXZ=             -0.1076  XZZ=             -0.0976  YZZ=             -0.1022
  YYZ=             -0.1394  XYZ=             -0.0278
 Hexadecapole moment (field-independent basis, Debye-Ang**3):
 XXXX=            -34.3195 YYYY=            -55.2668 ZZZZ=            -17.8174 XXXY=             -7.2356
 XXXZ=              0.0086 YYYX=            -10.7339 YYYZ=              0.0142 ZZZX=              0.0131
 ZZZY=              0.0257 XXYY=            -16.2208 XXZZ=             -9.9433 YYZZ=            -13.6665
 XXYZ=              0.0044 YYXZ=              0.0009 ZZXY=             -3.2096
 N-N= 3.304504857800D+01 E-N=-2.477950546356D+02  KE= 7.814476630601D+01
 Orbital energies and kinetic energies (alpha):
                                 1                 2
   1         O               -10.291504         15.979418
   2         O               -10.287519         15.979182
   3         O                -0.863575          1.538458
   4         O                -0.671856          1.270865
   5         O                -0.558974          0.941375
   6         O                -0.509360          1.282798
   7         O                -0.436444          1.041823
   8         O                -0.356824          1.038464
   9         V                 0.079810          1.182079
  10         V                 0.140810          0.590643
  11         V                 0.164415          0.596699
  12         V                 0.169907          0.680602
  13         V                 0.240653          0.583527
  14         V                 0.375567          0.858990
  15         V                 0.392703          0.932682
  16         V                 0.396990          0.773120
  17         V                 0.463488          1.195628
  18         V                 0.487581          1.420654
  19         V                 0.493781          1.301698
  20         V                 0.590925          1.652274
  21         V                 0.665188          1.575370
  22         V                 0.690565          2.142983
  23         V                 0.771618          2.411731
  24         V                 0.776267          2.331040
  25         V                 0.843769          1.085977
  26         V                 0.951798          3.422407
  27         V                 2.232027          3.921892
  28         V                 2.289652          4.030131
  29         V                 2.332603          4.302205
  30         V                 2.407173          4.519589
  31         V                 2.670933          6.300763
  32         V                 2.817958          6.307042
  33         V                 2.878288          6.135484
  34         V                 2.951870          6.225838
  35         V                 3.139386          6.822181
  36         V                 3.318437          6.401360
  37         V                23.351739         60.074492
  38         V                23.705370         60.203561
 Total kinetic energy from orbitals= 7.814476630601D+01
 Calling FoFJK, ICntrl=      2127 FMM=F ISym2X=0 I1Cent= 0 IOpClX= 0 NMat=1 NMatS=1 NMatT=0.
 -------------------------------------------------------------------
 Center     Atomic                   Forces (Hartrees/Bohr)
 Number     Number              X              Y              Z
 -------------------------------------------------------------------
      1        6           0.013063696    0.008842092   -0.002976317
      2        1          -0.007100530    0.005098772    0.001508029
      3        1           0.000820086   -0.003710321    0.001379613
      4        6           0.008989622    0.010162582   -0.003386104
      5        1           0.004838516   -0.015439665    0.001698500
      6        1          -0.020611390   -0.004953459    0.001776280
 -------------------------------------------------------------------
 Cartesian Forces:  Max     0.020611390 RMS     0.008384809

 GradGradGradGradGradGradGradGradGradGradGradGradGradGradGradGradGradGrad
 Berny optimization.
 Search for a local minimum.
 Step number   1 out of a maximum of    2
 All quantities printed in internal units (Hartrees-Bohrs-Radians)
 Second derivative matrix not updated -- first step.
 The second derivative matrix:
                          X1        Y1        Z1        X2        Y2
           X1           0.76061
           Y1           0.09830   0.86332
           Z1           0.00456   0.00687   0.17236
           X2          -0.16292   0.09561   0.00158   0.14015
           Y2           0.10220  -0.28854  -0.00574  -0.11514   0.27748
           Z2           0.00250  -0.00721  -0.05572  -0.00227   0.00597
           X3          -0.35555  -0.00166  -0.00629  -0.00025  -0.00014
           Y3          -0.00799  -0.11036  -0.00149   0.03283   0.01861
           Z3          -0.00802  -0.00143  -0.05624   0.00115   0.00041
           X4          -0.26697  -0.17791  -0.00062   0.02303   0.01307
           Y4          -0.17859  -0.47246  -0.00100  -0.01330  -0.00755
           Z4           0.00095   0.00174  -0.09423  -0.00046  -0.00064
           X5           0.02323  -0.01342   0.00048  -0.00000   0.00000
           Y5           0.01196  -0.00691   0.00065   0.00000  -0.00000
           Z5          -0.00039   0.00024   0.01691   0.00019  -0.00010
           X6           0.00160  -0.00093   0.00030  -0.00000   0.00000
           Y6          -0.02588   0.01495   0.00071   0.00000  -0.00000
           Z6           0.00041  -0.00022   0.01693  -0.00019   0.00010
                          Z2        X3        Y3        Z3        X4
           Z2           0.02888
           X3          -0.00023   0.35562
           Y3           0.00123   0.00191   0.07630
           Z3           0.01061   0.00686   0.00101   0.02948
           X4           0.00038   0.00019  -0.02675  -0.00038   0.70749
           Y4          -0.00021  -0.00011   0.01545   0.00023   0.12051
           Z4           0.01625  -0.00033  -0.00075   0.01612  -0.00378
           X5          -0.00019  -0.00000   0.00000   0.00019  -0.14720
           Y5           0.00012   0.00000  -0.00000  -0.00012   0.09234
           Z5           0.00922   0.00020  -0.00012  -0.00931  -0.00241
           X6          -0.00019  -0.00000   0.00000   0.00020  -0.31655
           Y6           0.00010   0.00000  -0.00000  -0.00010  -0.02126
           Z6          -0.00924  -0.00020   0.00012   0.00933   0.00680
                          Y4        Z4        X5        Y5        Z5
           Y4           0.85138
           Z4          -0.00742   0.17393
           X5           0.08465  -0.00159   0.12597
           Y5          -0.28277   0.00559  -0.10328   0.27320
           Z5           0.00693  -0.05598   0.00215  -0.00594   0.02902
           X6          -0.01316   0.00522  -0.00200  -0.00102   0.00027
           Y6          -0.10405   0.00148   0.03204   0.01648  -0.00101
           Z6           0.00147  -0.05609  -0.00103  -0.00029   0.01015
                          X6        Y6        Z6
           X6           0.31695
           Y6           0.01510   0.07262
           Z6          -0.00579  -0.00118   0.02892
 ITU=  0
     Eigenvalues ---    0.03712   0.04374   0.09304   0.09941   0.13486
     Eigenvalues ---    0.17418   0.26373   0.28862   0.52737   0.69681
     Eigenvalues ---    0.97380   1.55999
 Angle between quadratic step and forces=  32.31 degrees.
 Linear search not attempted -- first point.
 B after Tr=     0.005063    0.006854   -0.007699
         Rot=    1.000000   -0.000019    0.000008   -0.000116 Ang=  -0.01 deg.
 Variable       Old X    -DE/DX   Delta X   Delta X   Delta X     New X
                                 (Linear)    (Quad)   (Total)
    X1       -0.63373   0.01306   0.00000   0.01782   0.02314  -0.61059
    Y1       -1.09847   0.00884   0.00000   0.02224   0.02895  -1.06952
    Z1        0.01028  -0.00298   0.00000  -0.01616  -0.02391  -0.01362
    X2        0.38734  -0.00710   0.00000  -0.01876  -0.01303   0.37431
    Y2       -2.89664   0.00510   0.00000   0.02735   0.03429  -2.86235
    Z2       -0.03124   0.00151   0.00000   0.01988   0.01208  -0.01916
    X3       -2.68071   0.00082   0.00000   0.01964   0.02497  -2.65574
    Y3       -1.11259  -0.00371   0.00000  -0.01489  -0.00865  -1.12124
    Z3       -0.03278   0.00138   0.00000   0.01951   0.01173  -0.02105
    X4        0.63133   0.00899   0.00000   0.00312   0.00793   0.63925
    Y4        1.09182   0.01016   0.00000   0.00615   0.01315   1.10496
    Z4        0.00839  -0.00339   0.00000  -0.01571  -0.02335  -0.01496
    X5       -0.32864   0.00484   0.00000   0.00729   0.01168  -0.31696
    Y5        2.95524  -0.01544   0.00000  -0.04591  -0.03913   2.91611
    Z5       -0.03573   0.00170   0.00000   0.01950   0.01191  -0.02383
    X6        2.73901  -0.02061   0.00000  -0.05946  -0.05467   2.68434
    Y6        1.22173  -0.00495   0.00000  -0.03609  -0.02861   1.19312
    Z6       -0.03433   0.00178   0.00000   0.01915   0.01154  -0.02279
         Item               Value     Threshold  Converged?
 Maximum Force            0.020611     0.000450     NO 
 RMS     Force            0.008385     0.000300     NO 
 Maximum Displacement     0.054675     0.001800     NO 
 RMS     Displacement     0.024500     0.001200     NO 
 Predicted change in Energy=-1.618890D-03
 GradGradGradGradGradGradGradGradGradGradGradGradGradGradGradGradGradGrad

 Unable to Open any file for archive entry.
 1\1\GINC-BHD0016\Force\RwB97XD\6-311G\C2H4\BWEIGHT\11-Jan-2023\0\\# WB
 97XD/6-311G SCF=XQC FORCE nosym pop=full guess=read\\MD Step 1000\\0,1
 \C,-0.33535465,-0.58128551,0.00544178\H,0.20497237,-1.53283693,-0.0165
 3151\H,-1.41856811,-0.58875972,-0.01734444\C,0.33408502,0.57776374,0.0
 0443908\H,-0.17390806,1.56384578,-0.01890769\H,1.44942426,0.64651278,-
 0.01816809\\Version=ES64L-G16RevC.01\HF=-78.5557846\RMSD=6.503e-09\RMS
 F=8.385e-03\Dipole=-0.0025862,0.0040897,-0.0295557\Quadrupole=0.864002
 1,0.8555205,-1.7195226,0.0117825,0.0002321,-0.0017995\PG=C01 [X(C2H4)]
 \\@
 The archive entry for this job was punched.


 QUANTUM MECHANICS IS BOHRING -- M.S. GORDON
 Job cpu time:       0 days  0 hours  4 minutes 58.0 seconds.
 Elapsed time:       0 days  0 hours  1 minutes 39.1 seconds.
 File lengths (MBytes):  RWF=    272 Int=      0 D2E=      0 Chk=     32 Scr=     32
 Normal termination of Gaussian 16 at Wed Jan 11 18:29:37 2023.
