 Entering Gaussian System, Link 0=g16
 Initial command:
 /software/gaussian/g16-c01/avx2/g16/l1.exe "/gpfs/fs2/scratch/bweight/software/many_molecule_many_mode_NAMD/src/NAMD/TEST_NVT/TRAJ/traj-19/G16/GS_NEW/Gau-19284.inp" -scrdir="/gpfs/fs2/scratch/bweight/software/many_molecule_many_mode_NAMD/src/NAMD/TEST_NVT/TRAJ/traj-19/G16/GS_NEW/"
 Entering Link 1 = /software/gaussian/g16-c01/avx2/g16/l1.exe PID=     19285.
  
 Copyright (c) 1988-2019, Gaussian, Inc.  All Rights Reserved.
  
 This is part of the Gaussian(R) 16 program.  It is based on
 the Gaussian(R) 09 system (copyright 2009, Gaussian, Inc.),
 the Gaussian(R) 03 system (copyright 2003, Gaussian, Inc.),
 the Gaussian(R) 98 system (copyright 1998, Gaussian, Inc.),
 the Gaussian(R) 94 system (copyright 1995, Gaussian, Inc.),
 the Gaussian 92(TM) system (copyright 1992, Gaussian, Inc.),
 the Gaussian 90(TM) system (copyright 1990, Gaussian, Inc.),
 the Gaussian 88(TM) system (copyright 1988, Gaussian, Inc.),
 the Gaussian 86(TM) system (copyright 1986, Carnegie Mellon
 University), and the Gaussian 82(TM) system (copyright 1983,
 Carnegie Mellon University). Gaussian is a federally registered
 trademark of Gaussian, Inc.
  
 This software contains proprietary and confidential information,
 including trade secrets, belonging to Gaussian, Inc.
  
 This software is provided under written license and may be
 used, copied, transmitted, or stored only in accord with that
 written license.
  
 The following legend is applicable only to US Government
 contracts under FAR:
  
                    RESTRICTED RIGHTS LEGEND
  
 Use, reproduction and disclosure by the US Government is
 subject to restrictions as set forth in subparagraphs (a)
 and (c) of the Commercial Computer Software - Restricted
 Rights clause in FAR 52.227-19.
  
 Gaussian, Inc.
 340 Quinnipiac St., Bldg. 40, Wallingford CT 06492
  
  
 ---------------------------------------------------------------
 Warning -- This program may not be used in any manner that
 competes with the business of Gaussian, Inc. or will provide
 assistance to any competitor of Gaussian, Inc.  The licensee
 of this program is prohibited from giving any competitor of
 Gaussian, Inc. access to this program.  By using this program,
 the user acknowledges that Gaussian, Inc. is engaged in the
 business of creating and licensing software in the field of
 computational chemistry and represents and warrants to the
 licensee that it is not a competitor of Gaussian, Inc. and that
 it will not use this program in any manner prohibited above.
 ---------------------------------------------------------------
  

 Cite this work as:
 Gaussian 16, Revision C.01,
 M. J. Frisch, G. W. Trucks, H. B. Schlegel, G. E. Scuseria, 
 M. A. Robb, J. R. Cheeseman, G. Scalmani, V. Barone, 
 G. A. Petersson, H. Nakatsuji, X. Li, M. Caricato, A. V. Marenich, 
 J. Bloino, B. G. Janesko, R. Gomperts, B. Mennucci, H. P. Hratchian, 
 J. V. Ortiz, A. F. Izmaylov, J. L. Sonnenberg, D. Williams-Young, 
 F. Ding, F. Lipparini, F. Egidi, J. Goings, B. Peng, A. Petrone, 
 T. Henderson, D. Ranasinghe, V. G. Zakrzewski, J. Gao, N. Rega, 
 G. Zheng, W. Liang, M. Hada, M. Ehara, K. Toyota, R. Fukuda, 
 J. Hasegawa, M. Ishida, T. Nakajima, Y. Honda, O. Kitao, H. Nakai, 
 T. Vreven, K. Throssell, J. A. Montgomery, Jr., J. E. Peralta, 
 F. Ogliaro, M. J. Bearpark, J. J. Heyd, E. N. Brothers, K. N. Kudin, 
 V. N. Staroverov, T. A. Keith, R. Kobayashi, J. Normand, 
 K. Raghavachari, A. P. Rendell, J. C. Burant, S. S. Iyengar, 
 J. Tomasi, M. Cossi, J. M. Millam, M. Klene, C. Adamo, R. Cammi, 
 J. W. Ochterski, R. L. Martin, K. Morokuma, O. Farkas, 
 J. B. Foresman, and D. J. Fox, Gaussian, Inc., Wallingford CT, 2019.
 
 ******************************************
 Gaussian 16:  ES64L-G16RevC.01  3-Jul-2019
                11-Jan-2023 
 ******************************************
 %oldchk=../GS_OLD/geometry.chk
 %chk=geometry.chk
 %nprocshared=4
 Will use up to    4 processors via shared memory.
 %mem=5GB
 Copying data from "../GS_OLD/geometry.chk" to current chk file "geometry.chk"
 IOpt=  2 FromEx=T IUOpen= 4 IOptOp= 5 NList=   0 IFRang= 0 IUIn= 4 IUOut= 2.
 -------------------------------------------------------
 # WB97XD/6-311G SCF=XQC FORCE nosym pop=full guess=read
 -------------------------------------------------------
 1/10=7,30=1,38=1/1,3;
 2/12=2,15=1,17=6,18=5,40=1/2;
 3/5=4,6=6,11=2,25=1,30=1,71=1,74=-58,116=-2/1,2,3;
 4/5=1/1;
 5/5=2,8=3,13=1,38=6/2,8;
 6/7=3,28=1/1;
 7/29=1,30=1/1,2,3,16;
 1/10=7,30=1/3;
 99//99;
 ------------
 MD Step 1000
 ------------
 Symbolic Z-matrix:
 Charge =  0 Multiplicity = 1
 C                    -0.33702  -0.58267   0.00717 
 H                     0.22659  -1.5237   -0.02395 
 H                    -1.42223  -0.58463  -0.02612 
 C                     0.33299   0.57765   0.00534 
 H                    -0.15214   1.5662   -0.02833 
 H                     1.44026   0.64644  -0.02615 
 

 GradGradGradGradGradGradGradGradGradGradGradGradGradGradGradGradGradGrad
 Berny optimization.
 Initialization pass.
 Trust Radius=3.00D-01 FncErr=1.00D-07 GrdErr=1.00D-07 EigMax=2.50D+02 EigMin=1.00D-04
 Number of steps in this run=      2 maximum allowed number of steps=      2.
 GradGradGradGradGradGradGradGradGradGradGradGradGradGradGradGradGradGrad

                          Input orientation:                          
 ---------------------------------------------------------------------
 Center     Atomic      Atomic             Coordinates (Angstroms)
 Number     Number       Type             X           Y           Z
 ---------------------------------------------------------------------
      1          6           0       -0.337015   -0.582670    0.007169
      2          1           0        0.226586   -1.523699   -0.023950
      3          1           0       -1.422230   -0.584628   -0.026119
      4          6           0        0.332988    0.577650    0.005337
      5          1           0       -0.152141    1.566200   -0.028334
      6          1           0        1.440258    0.646436   -0.026146
 ---------------------------------------------------------------------
                    Distance matrix (angstroms):
                    1          2          3          4          5
     1  C    0.000000
     2  H    1.097337   0.000000
     3  H    1.085727   1.897486   0.000000
     4  C    1.339869   2.104245   2.105391   0.000000
     5  H    2.157100   3.113025   2.497838   1.101687   0.000000
     6  H    2.161137   2.486462   3.115985   1.109851   1.838941
                    6
     6  H    0.000000
 Symmetry turned off by external request.
 Stoichiometry    C2H4
 Framework group  C1[X(C2H4)]
 Deg. of freedom    12
 Full point group                 C1      NOp   1
 Rotational constants (GHZ):         143.4855223          29.6609730          24.5885219
 Standard basis: 6-311G (5D, 7F)
    38 basis functions,    72 primitive gaussians,    38 cartesian basis functions
     8 alpha electrons        8 beta electrons
       nuclear repulsion energy        33.0678402355 Hartrees.
 NAtoms=    6 NActive=    6 NUniq=    6 SFac= 1.00D+00 NAtFMM=   60 NAOKFM=F Big=F
 Integral buffers will be    131072 words long.
 Raffenetti 2 integral format.
 Two-electron integral symmetry is turned off.
 Nuclear repulsion after empirical dispersion term =       33.0669979574 Hartrees.
 One-electron integrals computed using PRISM.
 NBasis=    38 RedAO= T EigKep=  6.46D-03  NBF=    38
 NBsUse=    38 1.00D-06 EigRej= -1.00D+00 NBFU=    38
 Initial guess from the checkpoint file:  "geometry.chk"
 B after Tr=    -0.000251   -0.000393   -0.000324
         Rot=    1.000000    0.000001    0.000001    0.000005 Ang=   0.00 deg.
 Keep R1 ints in memory in canonical form, NReq=4036876.
 Requested convergence on RMS density matrix=1.00D-08 within  32 cycles.
 Requested convergence on MAX density matrix=1.00D-06.
 Requested convergence on             energy=1.00D-06.
 No special actions if energy rises.
 SCF Done:  E(RwB97XD) =  -78.5555959126     A.U. after    8 cycles
            NFock=  8  Conv=0.60D-08     -V/T= 2.0051
 QCSCF skips out because SCF is already converged.

 **********************************************************************

            Population analysis using the SCF Density.

 **********************************************************************

 Alpha  occ. eigenvalues --  -10.28989 -10.28826  -0.86360  -0.67268  -0.55981
 Alpha  occ. eigenvalues --   -0.50886  -0.43704  -0.35653
 Alpha virt. eigenvalues --    0.07942   0.14099   0.16508   0.17040   0.24081
 Alpha virt. eigenvalues --    0.37189   0.39408   0.39985   0.46482   0.48883
 Alpha virt. eigenvalues --    0.49403   0.59093   0.66603   0.69181   0.77315
 Alpha virt. eigenvalues --    0.77529   0.84218   0.95063   2.23115   2.29111
 Alpha virt. eigenvalues --    2.33256   2.40693   2.67097   2.81773   2.87831
 Alpha virt. eigenvalues --    2.95191   3.13992   3.32045  23.35322  23.70482
     Molecular Orbital Coefficients:
                           1         2         3         4         5
                           O         O         O         O         O
     Eigenvalues --   -10.28989 -10.28826  -0.86360  -0.67268  -0.55981
   1 1   C  1S          0.15520   0.54160  -0.08826   0.06693  -0.00024
   2        2S          0.12793   0.44570  -0.13952   0.10718  -0.00039
   3        2PX         0.00016  -0.00003   0.02602   0.03567   0.13870
   4        2PY         0.00028  -0.00004   0.04609   0.05854  -0.07346
   5        2PZ        -0.00000  -0.00001  -0.00134   0.00198   0.00033
   6        3S          0.00319   0.01427   0.37430  -0.29251   0.00104
   7        3PX        -0.00056   0.00049   0.03469   0.05724   0.21734
   8        3PY        -0.00095   0.00086   0.06090   0.09501  -0.11609
   9        3PZ        -0.00002  -0.00003  -0.00225   0.00352   0.00049
  10        4S          0.00179  -0.01490   0.19201  -0.22583   0.00014
  11        4PX         0.00133  -0.00171   0.00499   0.02316   0.11234
  12        4PY         0.00227  -0.00289   0.00862   0.03924  -0.06069
  13        4PZ         0.00001   0.00008  -0.00078   0.00176   0.00025
  14 2   H  1S         -0.00005  -0.00006   0.05276  -0.08667   0.10289
  15        2S         -0.00029   0.00014   0.05401  -0.10472   0.13028
  16        3S          0.00098   0.00160  -0.00178  -0.01493   0.04203
  17 3   H  1S         -0.00006  -0.00006   0.05386  -0.09042  -0.10645
  18        2S         -0.00029   0.00011   0.05474  -0.10822  -0.13368
  19        3S          0.00102   0.00162  -0.00183  -0.01577  -0.04302
  20 4   C  1S          0.54157  -0.15538  -0.08687  -0.06832  -0.00003
  21        2S          0.44578  -0.12769  -0.13717  -0.10956  -0.00003
  22        2PX        -0.00003  -0.00016  -0.02717   0.03838   0.11685
  23        2PY        -0.00005  -0.00029  -0.04628   0.06809  -0.07410
  24        2PZ        -0.00000   0.00000  -0.00107  -0.00209   0.00032
  25        3S          0.01365  -0.00483   0.36746   0.29946   0.00001
  26        3PX        -0.00013   0.00074  -0.03392   0.06202   0.18285
  27        3PY        -0.00020   0.00128  -0.05792   0.10947  -0.11485
  28        3PZ        -0.00003  -0.00000  -0.00183  -0.00376   0.00049
  29        4S         -0.01137   0.00953   0.18893   0.23731  -0.00121
  30        4PX         0.00066  -0.00196  -0.00526   0.02690   0.10055
  31        4PY         0.00114  -0.00345  -0.00910   0.04670  -0.06273
  32        4PZ         0.00007  -0.00002  -0.00076  -0.00193   0.00026
  33 5   H  1S         -0.00007  -0.00004   0.05004   0.09449  -0.08950
  34        2S         -0.00005  -0.00031   0.05113   0.11224  -0.11243
  35        3S          0.00181  -0.00003  -0.00104   0.01682  -0.03595
  36 6   H  1S         -0.00006  -0.00003   0.04921   0.09248   0.08468
  37        2S         -0.00005  -0.00032   0.05060   0.11051   0.10695
  38        3S          0.00178  -0.00005  -0.00104   0.01634   0.03460
                           6         7         8         9        10
                           O         O         O         V         V
     Eigenvalues --    -0.50886  -0.43704  -0.35653   0.07942   0.14099
   1 1   C  1S         -0.00303   0.00025  -0.00105   0.00278  -0.03367
   2        2S         -0.00447   0.00045  -0.00170   0.00461  -0.05403
   3        2PX         0.09391  -0.11017  -0.00353   0.00161  -0.03086
   4        2PY         0.16903   0.06544  -0.00580   0.00245  -0.06502
   5        2PZ         0.00518  -0.00008   0.17935  -0.18907  -0.00270
   6        3S          0.01802  -0.00114   0.00498  -0.01395   0.11769
   7        3PX         0.13628  -0.17589  -0.00500   0.00243  -0.03606
   8        3PY         0.24706   0.10467  -0.00818   0.00367  -0.08036
   9        3PZ         0.00822  -0.00010   0.28838  -0.27800  -0.00427
  10        4S         -0.05580  -0.00352   0.00713  -0.01614   1.23176
  11        4PX         0.06845  -0.10913  -0.00414   0.01335  -0.18745
  12        4PY         0.12549   0.06604  -0.00678   0.02124  -0.38263
  13        4PZ         0.00468  -0.00001   0.26731  -0.69367  -0.01560
  14 2   H  1S         -0.08131  -0.11456   0.00013   0.00435  -0.01780
  15        2S         -0.11292  -0.17666   0.00201   0.00683  -0.04880
  16        3S         -0.04231  -0.08147   0.00120   0.01801  -0.84100
  17 3   H  1S         -0.07930   0.11181   0.00007   0.00436  -0.01370
  18        2S         -0.10946   0.17175   0.00196   0.00704  -0.03867
  19        3S         -0.04064   0.07913   0.00117   0.01793  -0.77022
  20 4   C  1S         -0.00909  -0.00051  -0.00079  -0.00262  -0.03600
  21        2S         -0.01428  -0.00085  -0.00130  -0.00433  -0.05781
  22        2PX        -0.09874   0.12574   0.00329   0.00156   0.04110
  23        2PY        -0.16116  -0.07446   0.00619   0.00310   0.06040
  24        2PZ         0.00542   0.00029   0.17900   0.18944  -0.00284
  25        3S          0.04565   0.00250   0.00384   0.01303   0.12759
  26        3PX        -0.14641   0.20075   0.00458   0.00242   0.05062
  27        3PY        -0.23725  -0.11840   0.00870   0.00479   0.07154
  28        3PZ         0.00856   0.00044   0.28658   0.27792  -0.00432
  29        4S         -0.02444   0.00301   0.00654   0.01404   1.23702
  30        4PX        -0.07672   0.12859   0.00347   0.01242   0.26876
  31        4PY        -0.12301  -0.07464   0.00680   0.02342   0.41277
  32        4PZ         0.00496   0.00025   0.26774   0.69484  -0.01707
  33 5   H  1S         -0.07361  -0.12533   0.00025  -0.00398  -0.01126
  34        2S         -0.10016  -0.19501   0.00217  -0.00666  -0.03645
  35        3S         -0.03741  -0.09159   0.00121  -0.01712  -0.81598
  36 6   H  1S         -0.07965   0.12521   0.00018  -0.00399  -0.01516
  37        2S         -0.10891   0.19555   0.00208  -0.00657  -0.04643
  38        3S         -0.04093   0.09173   0.00116  -0.01718  -0.88661
                          11        12        13        14        15
                           V         V         V         V         V
     Eigenvalues --     0.16508   0.17040   0.24081   0.37189   0.39408
   1 1   C  1S          0.00097  -0.04539  -0.00007   0.00900   0.00134
   2        2S          0.00156  -0.07399  -0.00011   0.01210   0.00227
   3        2PX         0.09745  -0.02045   0.09950  -0.03541  -0.02458
   4        2PY        -0.05326  -0.03603  -0.05714  -0.06512   0.00771
   5        2PZ         0.00017  -0.00670   0.00009  -0.00474  -0.00021
   6        3S         -0.00323   0.16741   0.00023   0.03425  -0.00527
   7        3PX         0.13922  -0.01203   0.10495  -0.04350  -0.10977
   8        3PY        -0.07701  -0.02283  -0.06111  -0.08365   0.04217
   9        3PZ         0.00024  -0.00929   0.00004  -0.00980  -0.00034
  10        4S         -0.04979   1.43202  -0.00318  -2.47770  -0.20712
  11        4PX         0.58963  -0.12239   1.17220  -1.52764  -0.53386
  12        4PY        -0.31410  -0.19720  -0.66221  -2.66837   0.15114
  13        4PZ         0.00117  -0.04383   0.00162  -0.04313  -0.00257
  14 2   H  1S         -0.02887  -0.02544   0.01380  -0.06040   0.07530
  15        2S         -0.08031  -0.01671  -0.02483  -0.67815   0.77387
  16        3S         -1.03719  -0.99064  -1.54538  -0.28514  -0.31944
  17 3   H  1S          0.02815  -0.02530  -0.01603  -0.05385  -0.07555
  18        2S          0.07961  -0.02181   0.01910  -0.63046  -0.75286
  19        3S          1.10015  -1.01914   1.56302  -0.35549   0.24008
  20 4   C  1S          0.00171   0.04243   0.00002  -0.01999   0.00002
  21        2S          0.00274   0.06906   0.00001  -0.03295   0.00032
  22        2PX         0.10020  -0.02384  -0.10052  -0.04093  -0.03083
  23        2PY        -0.06198  -0.03761   0.05758  -0.07169   0.01474
  24        2PZ         0.00032   0.00647  -0.00010   0.00327   0.00032
  25        3S         -0.00559  -0.15282   0.00028   0.04579  -0.00784
  26        3PX         0.14394  -0.01932  -0.11438  -0.09425  -0.10608
  27        3PY        -0.08756  -0.02722   0.06455  -0.16717   0.06342
  28        3PZ         0.00045   0.00891  -0.00007   0.00375   0.00061
  29        4S         -0.07473  -1.35111  -0.00297   3.21967   0.16379
  30        4PX         0.53122  -0.11899  -1.12111  -1.12422  -0.58600
  31        4PY        -0.33532  -0.20079   0.65781  -1.96019   0.08203
  32        4PZ         0.00193   0.04229  -0.00162   0.03447   0.00259
  33 5   H  1S          0.03123   0.02411   0.00588   0.00641  -0.08098
  34        2S          0.06704   0.02148  -0.03510   0.02173  -0.79116
  35        3S          1.09053   0.94314  -1.52957   0.45025   0.47610
  36 6   H  1S         -0.03084   0.02526  -0.00453   0.00329   0.08802
  37        2S         -0.06682   0.01936   0.03581  -0.00813   0.90401
  38        3S         -0.99009   0.95649   1.52272   0.45669  -0.44855
                          16        17        18        19        20
                           V         V         V         V         V
     Eigenvalues --     0.39985   0.46482   0.48883   0.49403   0.59093
   1 1   C  1S         -0.01907   0.01216   0.04647  -0.00083  -0.00056
   2        2S         -0.03331   0.02843   0.07772  -0.00112  -0.00100
   3        2PX         0.02811  -0.06046  -0.01190   0.00145   0.00215
   4        2PY         0.05305  -0.10662  -0.01649   0.00192   0.00315
   5        2PZ         0.00051  -0.00047  -0.00676  -0.15189  -0.19237
   6        3S          0.07360  -0.33607  -0.09349  -0.00845  -0.00064
   7        3PX         0.10274  -0.23841   0.03473   0.00051   0.00725
   8        3PY         0.19985  -0.41826   0.06809  -0.00117   0.01052
   9        3PZ        -0.00333  -0.00438  -0.02998  -0.62830  -0.68440
  10        4S          2.81410   0.16465  -3.08007   0.12287   0.06975
  11        4PX         0.30625   0.25261  -0.82544   0.03794   0.01989
  12        4PY         0.59110   0.45600  -1.41413   0.06768   0.03873
  13        4PZ        -0.00107   0.00111   0.09650   0.68451   1.23964
  14 2   H  1S         -0.02316  -0.03432   0.07516  -0.00346  -0.00168
  15        2S         -0.50053  -0.33364   0.90205  -0.03497  -0.01221
  16        3S          0.32851   0.07576  -0.63822   0.03745   0.02360
  17 3   H  1S         -0.03365  -0.03508   0.07386  -0.00338  -0.00167
  18        2S         -0.59764  -0.33943   0.87406  -0.03401  -0.01209
  19        3S          0.35170   0.07286  -0.61640   0.03658   0.02312
  20 4   C  1S          0.00052  -0.00259  -0.05087   0.00361   0.00072
  21        2S         -0.00274   0.00326  -0.08854   0.00650   0.00134
  22        2PX         0.00981   0.05542  -0.02821   0.00051   0.00203
  23        2PY         0.01993   0.09411  -0.04960   0.00052   0.00401
  24        2PZ        -0.00381  -0.00179  -0.00682  -0.15263   0.19217
  25        3S          0.07689  -0.28611   0.23075  -0.02395  -0.00259
  26        3PX        -0.04233   0.23771  -0.05878   0.00125   0.00704
  27        3PY        -0.05794   0.40836  -0.10001   0.00047   0.01396
  28        3PZ        -0.01063  -0.00730  -0.02591  -0.63128   0.68230
  29        4S         -1.02327   0.74267   3.11267  -0.14579  -0.06158
  30        4PX         1.30506  -0.31856  -0.59438   0.02070   0.02308
  31        4PY         2.36262  -0.54443  -1.02642   0.03648   0.03572
  32        4PZ        -0.03416  -0.01694  -0.02915   0.69429  -1.23702
  33 5   H  1S         -0.04765  -0.06353  -0.06472   0.00311   0.00161
  34        2S         -0.85420  -0.65280  -0.81942   0.04489   0.00677
  35        3S         -0.22398   0.25959   0.54362  -0.01585  -0.02292
  36 6   H  1S         -0.03733  -0.06366  -0.06389   0.00307   0.00159
  37        2S         -0.73527  -0.65591  -0.81416   0.04429   0.00630
  38        3S         -0.25926   0.27784   0.55227  -0.01660  -0.02303
                          21        22        23        24        25
                           V         V         V         V         V
     Eigenvalues --     0.66603   0.69181   0.77315   0.77529   0.84218
   1 1   C  1S          0.00085  -0.00074   0.04251   0.07809   0.00105
   2        2S          0.00179  -0.00157   0.08954   0.16640   0.00248
   3        2PX        -0.13582   0.19588  -0.03935   0.11065  -0.00677
   4        2PY         0.07897  -0.11777  -0.06566   0.17919   0.01487
   5        2PZ        -0.00018   0.00024   0.00008   0.00497   0.00012
   6        3S         -0.01527   0.01670  -0.57006  -1.41595  -0.02984
   7        3PX        -0.62666   0.68548  -0.22817   0.42315  -0.21793
   8        3PY         0.36028  -0.41297  -0.38122   0.67161   0.16949
   9        3PZ        -0.00090   0.00089   0.00047   0.01739   0.00021
  10        4S          0.02503  -0.04553   0.45555   2.49830   0.05984
  11        4PX         1.08625  -0.77338   0.28170  -0.75964   4.54736
  12        4PY        -0.62320   0.49330   0.31658  -0.96307  -2.55634
  13        4PZ         0.00111   0.00090   0.01552  -0.05428   0.00742
  14 2   H  1S          0.02487  -0.05849   0.00613   0.03371  -0.02658
  15        2S          0.14957  -0.63040   0.05372   0.10828  -1.58391
  16        3S         -1.05491   1.10127   0.02344  -1.09212  -1.23529
  17 3   H  1S         -0.02398   0.05767   0.00631   0.03427   0.03087
  18        2S         -0.16537   0.65404   0.09759   0.06404   1.62447
  19        3S          1.04569  -1.05014   0.07060  -1.25407   1.22827
  20 4   C  1S          0.00108  -0.00021   0.07998   0.04107   0.00063
  21        2S          0.00222  -0.00041   0.17040   0.08661   0.00118
  22        2PX        -0.14853  -0.18750  -0.10222   0.04108   0.01016
  23        2PY         0.08560   0.10400  -0.18479   0.07647   0.00378
  24        2PZ        -0.00018  -0.00026   0.00519  -0.00048  -0.00014
  25        3S         -0.01663  -0.00159  -1.44104  -0.55180  -0.00065
  26        3PX        -0.67445  -0.63945  -0.38013   0.23485   0.23324
  27        3PY         0.39170   0.35149  -0.69543   0.43475  -0.08874
  28        3PZ        -0.00090  -0.00085   0.01840  -0.00203  -0.00015
  29        4S          0.01184   0.01903   2.63256   0.44971  -0.07395
  30        4PX         1.28335   0.79618   0.52737  -0.16649  -4.13090
  31        4PY        -0.74299  -0.41523   1.11163  -0.57965   2.40052
  32        4PZ         0.00174  -0.00062  -0.05461   0.01960  -0.00661
  33 5   H  1S         -0.02426  -0.05513   0.03376   0.00705  -0.02364
  34        2S         -0.13340  -0.55441   0.06579   0.09195  -1.41249
  35        3S          1.10797   0.99898  -1.20339   0.17181  -1.09106
  36 6   H  1S          0.02512   0.05533   0.03331   0.00734   0.02266
  37        2S          0.12797   0.53210   0.08685   0.02160   1.39559
  38        3S         -1.11100  -1.03252  -1.10860   0.09093   1.10743
                          26        27        28        29        30
                           V         V         V         V         V
     Eigenvalues --     0.95063   2.23115   2.29111   2.33256   2.40693
   1 1   C  1S          0.09596  -0.00996  -0.01460   0.00039  -0.00046
   2        2S          0.19941   0.00176  -0.01437   0.00076  -0.00063
   3        2PX        -0.09079  -0.07422  -0.12990   0.35070  -0.40825
   4        2PY        -0.15717  -0.14143  -0.23043  -0.19804   0.22687
   5        2PZ         0.00021  -0.01349  -0.01870   0.00042  -0.00102
   6        3S         -1.54698  -0.18633  -0.03985  -0.00003  -0.00407
   7        3PX        -0.23086   0.06896   0.20470  -0.42108   0.57037
   8        3PY        -0.39213   0.14547   0.37565   0.23996  -0.31721
   9        3PZ        -0.00248   0.01351   0.02325  -0.00036   0.00121
  10        4S          5.71464  -0.10000  -0.88279   0.00021  -0.00107
  11        4PX         1.21000   0.05182  -0.18339  -0.06537   0.99155
  12        4PY         1.98072   0.07155  -0.36091   0.02670  -0.53697
  13        4PZ        -0.01918   0.00288   0.00829  -0.00033   0.00235
  14 2   H  1S          0.01521  -0.70392  -0.80321  -0.70813   0.64643
  15        2S         -0.29096   0.99923   1.19957   1.10007  -1.45356
  16        3S         -0.10559  -0.29961  -0.48150  -0.46710   0.36135
  17 3   H  1S          0.01574  -0.69127  -0.79913   0.70537  -0.66761
  18        2S         -0.25625   0.98091   1.20145  -1.09878   1.49818
  19        3S         -0.07828  -0.27719  -0.45949   0.45848  -0.35151
  20 4   C  1S         -0.09383  -0.01074   0.01240   0.00043   0.00027
  21        2S         -0.19458  -0.00060   0.01260   0.00053   0.00060
  22        2PX        -0.09180   0.13838  -0.12250   0.29974   0.41606
  23        2PY        -0.15864   0.23850  -0.20266  -0.17490  -0.24356
  24        2PZ         0.00032  -0.01479   0.01756   0.00061   0.00063
  25        3S          1.50480  -0.16575   0.01715   0.00125  -0.00057
  26        3PX        -0.22406  -0.17633   0.20990  -0.37252  -0.58151
  27        3PY        -0.39266  -0.29964   0.34221   0.21499   0.34230
  28        3PZ         0.00365   0.01584  -0.02236  -0.00067  -0.00086
  29        4S         -5.69102  -0.18335   0.89220   0.01485  -0.01403
  30        4PX         1.09063  -0.01584  -0.20108   0.11737  -0.85092
  31        4PY         1.98266  -0.03313  -0.30959  -0.06631   0.51175
  32        4PZ         0.01265   0.00499  -0.00656   0.00004  -0.00204
  33 5   H  1S         -0.01786  -0.79303   0.66878   0.70172   0.69208
  34        2S          0.28859   1.15413  -1.02538  -1.01413  -1.46730
  35        3S          0.06019  -0.35599   0.39314   0.50796   0.42809
  36 6   H  1S         -0.01768  -0.79060   0.68828  -0.68631  -0.69105
  37        2S          0.31621   1.14902  -1.04600   0.98944   1.45779
  38        3S          0.07912  -0.35824   0.42233  -0.50349  -0.43747
                          31        32        33        34        35
                           V         V         V         V         V
     Eigenvalues --     2.67097   2.81773   2.87831   2.95191   3.13992
   1 1   C  1S          0.00051   0.00258  -0.01338  -0.00004  -0.00991
   2        2S          0.00041   0.00736  -0.04376  -0.00041  -0.03012
   3        2PX         0.00575   0.07386  -0.47014  -0.72324   0.44703
   4        2PY         0.00774   0.13030  -0.86118   0.40882   0.77252
   5        2PZ        -0.92477  -0.92917  -0.14055  -0.00180   0.00634
   6        3S         -0.00173  -0.06041   0.38181   0.00575   0.25177
   7        3PX        -0.00445  -0.12743   0.83034   0.87241  -0.42704
   8        3PY        -0.00566  -0.22296   1.48907  -0.47789  -0.73317
   9        3PZ         0.94030   1.13538   0.17632   0.00237  -0.00815
  10        4S          0.01344   0.14157  -0.86820  -0.01410  -0.49382
  11        4PX        -0.00177   0.10166  -0.70777  -0.67185   0.21258
  12        4PY        -0.00273   0.17927  -1.26754   0.35475   0.35734
  13        4PZ        -0.33858  -0.61438  -0.11161  -0.00186   0.00470
  14 2   H  1S          0.01223  -0.01890   0.25816  -0.37485  -0.20843
  15        2S         -0.01386   0.01114  -0.21210   0.38924   0.15748
  16        3S         -0.00303   0.04202  -0.30228   0.27431   0.04999
  17 3   H  1S          0.01247  -0.01861   0.24951   0.37478  -0.21340
  18        2S         -0.01442   0.00990  -0.19734  -0.38538   0.16145
  19        3S         -0.00343   0.04167  -0.29901  -0.29151   0.06352
  20 4   C  1S          0.00051  -0.00249   0.01349   0.00046  -0.00743
  21        2S          0.00049  -0.00773   0.04767   0.00108  -0.02269
  22        2PX        -0.00685   0.06488  -0.40591  -0.81304  -0.50421
  23        2PY        -0.01378   0.11538  -0.71366   0.44483  -0.90177
  24        2PZ        -0.92455   0.92875   0.14361  -0.00001   0.01369
  25        3S         -0.00274   0.06633  -0.42863  -0.00795   0.19308
  26        3PX         0.00706  -0.11863   0.76783   0.97162   0.54385
  27        3PY         0.01397  -0.20931   1.34435  -0.52458   0.98258
  28        3PZ         0.94022  -1.13477  -0.18090  -0.00001  -0.01736
  29        4S          0.01547  -0.14378   0.89400   0.02517  -0.36585
  30        4PX        -0.00045   0.10178  -0.70912  -0.70276  -0.33299
  31        4PY        -0.00197   0.17725  -1.23288   0.37654  -0.61051
  32        4PZ        -0.33852   0.61366   0.11542  -0.00004   0.01369
  33 5   H  1S          0.01153   0.02792  -0.29498   0.41803  -0.27095
  34        2S         -0.01422  -0.02275   0.27007  -0.42699   0.21379
  35        3S         -0.00139  -0.03829   0.28110  -0.24648   0.13396
  36 6   H  1S          0.01163   0.02765  -0.28873  -0.43243  -0.25380
  37        2S         -0.01469  -0.02317   0.26732   0.44031   0.19852
  38        3S         -0.00109  -0.03733   0.27121   0.24948   0.12109
                          36        37        38
                           V         V         V
     Eigenvalues --     3.32045  23.35322  23.70482
   1 1   C  1S         -0.00023  -1.41547  -1.45084
   2        2S         -0.00024   1.50965   1.56887
   3        2PX         0.79168  -0.00656   0.01219
   4        2PY        -0.43789  -0.01076   0.02128
   5        2PZ         0.00160  -0.00056  -0.00025
   6        3S         -0.00289  -0.29685  -0.39872
   7        3PX        -1.13198   0.02381  -0.05552
   8        3PY         0.62005   0.03957  -0.09633
   9        3PZ        -0.00242   0.00157   0.00076
  10        4S          0.01234   0.27644   0.76608
  11        4PX         1.98786  -0.02513   0.13398
  12        4PY        -1.08229  -0.04283   0.22821
  13        4PZ         0.00415  -0.00265  -0.00311
  14 2   H  1S          0.56443   0.01311   0.00740
  15        2S         -0.87801   0.00743  -0.01518
  16        3S         -0.46345  -0.08409  -0.04020
  17 3   H  1S         -0.57563   0.01479   0.00825
  18        2S          0.89447   0.00737  -0.01445
  19        3S          0.49259  -0.08637  -0.03941
  20 4   C  1S         -0.00007  -1.44609   1.42017
  21        2S         -0.00045   1.54235  -1.53574
  22        2PX        -0.70372   0.00625   0.01259
  23        2PY         0.40760   0.01118   0.02157
  24        2PZ        -0.00135  -0.00056   0.00014
  25        3S          0.00684  -0.30274   0.39013
  26        3PX         1.00183  -0.02269  -0.05602
  27        3PY        -0.59097  -0.04025  -0.09664
  28        3PZ         0.00203   0.00160  -0.00034
  29        4S         -0.03591   0.27829  -0.75839
  30        4PX        -1.76037   0.02427   0.12911
  31        4PY         1.05364   0.04380   0.22618
  32        4PZ        -0.00360  -0.00258   0.00222
  33 5   H  1S          0.48248   0.01366  -0.00481
  34        2S         -0.75138   0.00813   0.01353
  35        3S         -0.43433  -0.08338   0.03721
  36 6   H  1S         -0.47771   0.01245  -0.00407
  37        2S          0.74531   0.00884   0.01387
  38        3S          0.41993  -0.08150   0.03771
     Density Matrix:
                           1         2         3         4         5
   1 1   C  1S          0.65940
   2        2S          0.56149   0.49197
   3        2PX        -0.00048  -0.00063   0.08432
   4        2PY        -0.00120  -0.00166   0.00357   0.08767
   5        2PZ         0.00009   0.00013  -0.00011  -0.00028   0.06439
   6        3S         -0.08890  -0.15379   0.00250   0.00600  -0.00019
   7        3PX         0.00088   0.00135   0.13057   0.00108  -0.00008
   8        3PY         0.00123   0.00190   0.00114   0.13111  -0.00026
   9        3PZ         0.00017   0.00029  -0.00020  -0.00045   0.10354
  10        4S         -0.07939  -0.11434  -0.01583  -0.02816   0.00057
  11        4PX         0.00027   0.00161   0.07001  -0.00443  -0.00061
  12        4PY         0.00062   0.00302  -0.00452   0.06545  -0.00105
  13        4PZ        -0.00012  -0.00028  -0.00085  -0.00142   0.09594
  14 2   H  1S         -0.02061  -0.03282   0.03508  -0.06288  -0.00119
  15        2S         -0.02296  -0.03672   0.04918  -0.08774  -0.00090
  16        3S          0.00054  -0.00076   0.02050  -0.03307  -0.00002
  17 3   H  1S         -0.02111  -0.03359  -0.07271  -0.00216  -0.00138
  18        2S         -0.02331  -0.03722  -0.10037  -0.00253  -0.00112
  19        3S          0.00058  -0.00070  -0.03823   0.00091  -0.00010
  20 4   C  1S          0.00604   0.00973  -0.01081  -0.01882  -0.00041
  21        2S          0.00969   0.01515  -0.01730  -0.03014  -0.00068
  22        2PX         0.01035   0.01654  -0.01254  -0.03214   0.00044
  23        2PY         0.01792   0.02865  -0.03201  -0.04971   0.00091
  24        2PZ        -0.00050  -0.00081  -0.00042  -0.00060   0.06426
  25        3S         -0.02606  -0.03957   0.04849   0.08465   0.00205
  26        3PX         0.01595   0.02472  -0.01839  -0.04601   0.00055
  27        3PY         0.02762   0.04280  -0.04560  -0.07145   0.00120
  28        3PZ        -0.00084  -0.00136  -0.00074  -0.00105   0.10287
  29        4S          0.00534   0.00394   0.02112   0.03743   0.00252
  30        4PX         0.00309   0.00637  -0.01323  -0.02125   0.00062
  31        4PY         0.00519   0.01082  -0.02125  -0.03759   0.00135
  32        4PZ        -0.00072  -0.00116  -0.00112  -0.00173   0.09608
  33 5   H  1S          0.00418   0.00686  -0.00170  -0.01247  -0.00047
  34        2S          0.00621   0.01031   0.00362  -0.02504   0.00001
  35        3S          0.00316   0.00461   0.00432  -0.01749   0.00011
  36 6   H  1S          0.00414   0.00680  -0.00990  -0.00762  -0.00049
  37        2S          0.00620   0.01032  -0.02337  -0.00936  -0.00004
  38        3S          0.00315   0.00463  -0.01720  -0.00511   0.00007
                           6         7         8         9        10
   6        3S          0.45246
   7        3PX        -0.00180   0.20251
   8        3PY        -0.00163  -0.00476   0.19655
   9        3PZ        -0.00057  -0.00015  -0.00040   0.16649
  10        4S          0.27351  -0.02653  -0.04801   0.00074   0.18254
  11        4PX        -0.00695   0.10891  -0.01003  -0.00099  -0.01539
  12        4PY        -0.01239  -0.01026   0.09853  -0.00169  -0.02890
  13        4PZ         0.00122  -0.00114  -0.00188   0.15426   0.00219
  14 2   H  1S          0.08775   0.05660  -0.09809  -0.00199   0.06932
  15        2S          0.09832   0.07974  -0.13638  -0.00152   0.08194
  16        3S          0.00622   0.03355  -0.05079  -0.00004   0.01134
  17 3   H  1S          0.08988  -0.11383  -0.00168  -0.00227   0.06956
  18        2S          0.09970  -0.15698  -0.00102  -0.00184   0.08090
  19        3S          0.00618  -0.05956   0.00324  -0.00015   0.01036
  20 4   C  1S         -0.02639  -0.01691  -0.02944  -0.00071   0.00507
  21        2S         -0.03992  -0.02627  -0.04580  -0.00114   0.00379
  22        2PX        -0.04636  -0.01788  -0.04567   0.00076  -0.01755
  23        2PY        -0.08022  -0.04542  -0.07082   0.00155  -0.02994
  24        2PZ         0.00240  -0.00059  -0.00079   0.10332   0.00248
  25        3S          0.10152   0.07128   0.12464   0.00342   0.00099
  26        3PX        -0.06696  -0.02635  -0.06519   0.00097  -0.02602
  27        3PY        -0.11580  -0.06451  -0.10174   0.00206  -0.04432
  28        3PZ         0.00399  -0.00103  -0.00142   0.16541   0.00412
  29        4S          0.00198   0.03198   0.05688   0.00419  -0.03216
  30        4PX        -0.02254  -0.01976  -0.02993   0.00103  -0.00637
  31        4PY        -0.03855  -0.02990  -0.05419   0.00223  -0.01015
  32        4PZ         0.00340  -0.00158  -0.00239   0.15449   0.00384
  33 5   H  1S         -0.02037  -0.00059  -0.01778  -0.00069  -0.01438
  34        2S         -0.03077   0.00881  -0.03669   0.00010  -0.01850
  35        3S         -0.01181   0.00824  -0.02626   0.00019  -0.00316
  36 6   H  1S         -0.02024  -0.01495  -0.00924  -0.00072  -0.01484
  37        2S         -0.03090  -0.03585  -0.01058   0.00003  -0.01963
  38        3S         -0.01193  -0.02660  -0.00610   0.00013  -0.00382
                          11        12        13        14        15
  11        4PX         0.05959
  12        4PY        -0.00889   0.05093
  13        4PZ        -0.00144  -0.00236   0.14296
  14 2   H  1S          0.03350  -0.05392  -0.00103   0.08124
  15        2S          0.04804  -0.07481  -0.00037   0.10950   0.14964
  16        3S          0.02071  -0.02771   0.00022   0.03660   0.05223
  17 3   H  1S         -0.06283   0.00162  -0.00116  -0.01327  -0.02458
  18        2S         -0.08699   0.00386  -0.00051  -0.02452  -0.04221
  19        3S         -0.03326   0.00419   0.00017  -0.01784  -0.02688
  20 4   C  1S         -0.00319  -0.00584  -0.00063   0.00423   0.00679
  21        2S         -0.00659  -0.01188  -0.00101   0.00700   0.01135
  22        2PX        -0.01323  -0.01986   0.00107   0.00178  -0.00264
  23        2PY        -0.01982  -0.03683   0.00208   0.01134   0.02416
  24        2PZ        -0.00084  -0.00125   0.09574  -0.00059  -0.00020
  25        3S          0.02327   0.04166   0.00295  -0.02113  -0.03421
  26        3PX        -0.02028  -0.02821   0.00144   0.00111  -0.00685
  27        3PY        -0.02803  -0.05378   0.00286   0.01699   0.03634
  28        3PZ        -0.00138  -0.00207   0.15328  -0.00086  -0.00022
  29        4S          0.00849   0.01610   0.00381  -0.01816  -0.02512
  30        4PX        -0.01480  -0.01249   0.00129  -0.00151  -0.00809
  31        4PY        -0.01261  -0.02968   0.00263   0.01514   0.02707
  32        4PZ        -0.00163  -0.00255   0.14318  -0.00049   0.00025
  33 5   H  1S          0.00204  -0.01589  -0.00034   0.01117   0.02320
  34        2S          0.00928  -0.02759   0.00049   0.02377   0.04425
  35        3S          0.00755  -0.01583   0.00034   0.01665   0.02781
  36 6   H  1S         -0.01443  -0.00563  -0.00036  -0.00915  -0.01824
  37        2S         -0.02795  -0.00497   0.00045  -0.01890  -0.03430
  38        3S         -0.01711  -0.00110   0.00031  -0.01018  -0.01768
                          16        17        18        19        20
  16        3S          0.02085
  17 3   H  1S         -0.01795   0.08239
  18        2S         -0.02692   0.10969   0.14813
  19        3S         -0.01258   0.03595   0.05080   0.02004
  20 4   C  1S          0.00376   0.00429   0.00675   0.00373   0.65948
  21        2S          0.00557   0.00708   0.01125   0.00548   0.56159
  22        2PX        -0.00335   0.00903   0.02230   0.01677   0.00115
  23        2PY         0.01769   0.00739   0.00973   0.00572   0.00178
  24        2PZ         0.00002  -0.00057  -0.00014   0.00007   0.00009
  25        3S         -0.01450  -0.02126  -0.03372  -0.01409  -0.08931
  26        3PX        -0.00667   0.01431   0.03501   0.02612  -0.00051
  27        3PY         0.02668   0.00957   0.01198   0.00721  -0.00108
  28        3PZ         0.00005  -0.00084  -0.00012   0.00013   0.00018
  29        4S         -0.00626  -0.01776  -0.02394  -0.00559  -0.08009
  30        4PX        -0.00679   0.01408   0.02770   0.01711  -0.00018
  31        4PY         0.01594   0.00675   0.00699   0.00215  -0.00019
  32        4PZ         0.00026  -0.00048   0.00031   0.00031  -0.00004
  33 5   H  1S          0.01613  -0.00899  -0.01798  -0.00932  -0.02020
  34        2S          0.02727  -0.01858  -0.03369  -0.01677  -0.02216
  35        3S          0.01458  -0.01005  -0.01741  -0.00888   0.00063
  36 6   H  1S         -0.00948   0.01118   0.02318   0.01591  -0.01992
  37        2S         -0.01713   0.02370   0.04405   0.02693  -0.02207
  38        3S         -0.00905   0.01657   0.02757   0.01436   0.00054
                          21        22        23        24        25
  21        2S          0.49210
  22        2PX         0.00165   0.08287
  23        2PY         0.00253   0.00357   0.08765
  24        2PZ         0.00013   0.00015   0.00019   0.06416
  25        3S         -0.15434  -0.00534  -0.00827  -0.00017   0.45404
  26        3PX        -0.00077   0.12876   0.00184   0.00010  -0.00012
  27        3PY        -0.00164   0.00184   0.13150   0.00007   0.00079
  28        3PZ         0.00031   0.00023   0.00031   0.10271  -0.00062
  29        4S         -0.11572   0.01329   0.02251   0.00068   0.27841
  30        4PX        -0.00140   0.07336  -0.00513   0.00045   0.00595
  31        4PY        -0.00221  -0.00501   0.06735   0.00084   0.00979
  32        4PZ        -0.00014   0.00080   0.00145   0.09592   0.00080
  33 5   H  1S         -0.03216  -0.03336   0.06389  -0.00134   0.08602
  34        2S         -0.03540  -0.04969   0.08857  -0.00107   0.09470
  35        3S         -0.00055  -0.02269   0.03342  -0.00011   0.00550
  36 6   H  1S         -0.03175   0.07143   0.00252  -0.00117   0.08491
  37        2S         -0.03529   0.10143   0.00052  -0.00083   0.09443
  38        3S         -0.00069   0.04056  -0.00326  -0.00002   0.00580
                          26        27        28        29        30
  26        3PX         0.20038
  27        3PY        -0.00247   0.19783
  28        3PZ         0.00013   0.00010   0.16443
  29        4S          0.02462   0.04137   0.00086   0.18576
  30        4PX         0.11459  -0.01059   0.00070   0.01505   0.06660
  31        4PY        -0.01042   0.10184   0.00135   0.02444  -0.01027
  32        4PZ         0.00101   0.00185   0.15356   0.00206   0.00112
  33 5   H  1S         -0.05317   0.10006  -0.00221   0.06682  -0.03438
  34        2S         -0.07961   0.13822  -0.00178   0.07661  -0.05188
  35        3S         -0.03680   0.05152  -0.00018   0.00893  -0.02412
  36 6   H  1S          0.11270   0.00324  -0.00194   0.06693   0.06591
  37        2S          0.15981  -0.00083  -0.00141   0.07783   0.09394
  38        3S          0.06358  -0.00653  -0.00004   0.00981   0.03773
                          31        32        33        34        35
  31        4PY         0.05392
  32        4PZ         0.00219   0.14343
  33 5   H  1S          0.05596  -0.00115   0.08114
  34        2S          0.07744  -0.00050   0.11008   0.15184
  35        3S          0.02900   0.00015   0.03797   0.05497   0.02274
  36 6   H  1S         -0.00198  -0.00102  -0.01242  -0.02613  -0.02005
  37        2S         -0.00638  -0.00031  -0.02618  -0.04851  -0.03174
  38        3S         -0.00640   0.00022  -0.02018  -0.03179  -0.01567
                          36        37        38
  36 6   H  1S          0.08033
  37        2S          0.10985   0.15264
  38        3S          0.03827   0.05570   0.02312
    Full Mulliken population analysis:
                           1         2         3         4         5
   1 1   C  1S          0.65940
   2        2S          0.49324   0.49197
   3        2PX         0.00000   0.00000   0.08432
   4        2PY         0.00000   0.00000   0.00000   0.08767
   5        2PZ         0.00000   0.00000   0.00000   0.00000   0.06439
   6        3S         -0.02926  -0.06441   0.00000   0.00000   0.00000
   7        3PX         0.00000   0.00000   0.08214   0.00000   0.00000
   8        3PY         0.00000   0.00000   0.00000   0.08248   0.00000
   9        3PZ         0.00000   0.00000   0.00000   0.00000   0.06514
  10        4S         -0.01221  -0.02140   0.00000   0.00000   0.00000
  11        4PX         0.00000   0.00000   0.01542   0.00000   0.00000
  12        4PY         0.00000   0.00000   0.00000   0.01441   0.00000
  13        4PZ         0.00000   0.00000   0.00000   0.00000   0.02113
  14 2   H  1S         -0.00023  -0.00033   0.00186   0.00556   0.00000
  15        2S         -0.00167  -0.00320   0.00440   0.01310   0.00000
  16        3S          0.00004  -0.00007   0.00070   0.00189   0.00000
  17 3   H  1S         -0.00025  -0.00037   0.00788   0.00000   0.00000
  18        2S         -0.00174  -0.00334   0.01771   0.00000   0.00001
  19        3S          0.00005  -0.00007   0.00255  -0.00000   0.00000
  20 4   C  1S          0.00000   0.00000  -0.00002  -0.00006   0.00000
  21        2S          0.00000  -0.00000  -0.00002  -0.00005   0.00000
  22        2PX        -0.00002  -0.00002   0.00011   0.00085   0.00000
  23        2PY        -0.00006  -0.00005   0.00084   0.00195   0.00000
  24        2PZ        -0.00000  -0.00000  -0.00000  -0.00000   0.00041
  25        3S         -0.00058  -0.00098   0.00252   0.00761  -0.00000
  26        3PX        -0.00054  -0.00098   0.00019   0.00554   0.00000
  27        3PY        -0.00161  -0.00295   0.00549   0.01070   0.00000
  28        3PZ        -0.00000  -0.00000  -0.00000  -0.00000   0.00607
  29        4S          0.00034   0.00030   0.00096   0.00294  -0.00000
  30        4PX        -0.00018  -0.00045  -0.00071   0.00147   0.00000
  31        4PY        -0.00052  -0.00133   0.00147   0.00098   0.00000
  32        4PZ        -0.00000  -0.00000  -0.00000  -0.00000   0.00902
  33 5   H  1S          0.00000   0.00000  -0.00000  -0.00000   0.00000
  34        2S          0.00001   0.00002   0.00000  -0.00031  -0.00000
  35        3S          0.00007   0.00013   0.00001  -0.00070  -0.00000
  36 6   H  1S          0.00000   0.00000  -0.00000  -0.00000   0.00000
  37        2S          0.00001   0.00002  -0.00024  -0.00007   0.00000
  38        3S          0.00007   0.00013  -0.00056  -0.00012  -0.00000
                           6         7         8         9        10
   6        3S          0.45246
   7        3PX         0.00000   0.20251
   8        3PY         0.00000   0.00000   0.19655
   9        3PZ         0.00000   0.00000   0.00000   0.16649
  10        4S          0.21189   0.00000   0.00000   0.00000   0.18254
  11        4PX         0.00000   0.07117   0.00000   0.00000   0.00000
  12        4PY         0.00000   0.00000   0.06439   0.00000   0.00000
  13        4PZ         0.00000   0.00000   0.00000   0.10080   0.00000
  14 2   H  1S          0.01610   0.01107   0.03203   0.00002   0.01833
  15        2S          0.04136   0.02000   0.05712   0.00002   0.04722
  16        3S          0.00286   0.00401   0.01014   0.00000   0.00856
  17 3   H  1S          0.01702   0.04425   0.00000   0.00003   0.01861
  18        2S          0.04268   0.07716   0.00000   0.00003   0.04704
  19        3S          0.00287   0.01382  -0.00000   0.00000   0.00786
  20 4   C  1S         -0.00059  -0.00057  -0.00171   0.00000   0.00032
  21        2S         -0.00099  -0.00105  -0.00316   0.00000   0.00029
  22        2PX         0.00241   0.00019   0.00550   0.00000   0.00080
  23        2PY         0.00721   0.00547   0.01060   0.00000   0.00235
  24        2PZ         0.00000  -0.00000  -0.00000   0.00609   0.00000
  25        3S          0.02155   0.01332   0.04035  -0.00000   0.00038
  26        3PX         0.01252  -0.00126   0.01858   0.00000   0.00401
  27        3PY         0.03748   0.01838   0.02861   0.00000   0.01183
  28        3PZ         0.00000  -0.00000  -0.00000   0.03512   0.00000
  29        4S          0.00075   0.00493   0.01518  -0.00000  -0.02017
  30        4PX         0.00633  -0.00404   0.00593   0.00000   0.00193
  31        4PY         0.01874   0.00592   0.00131   0.00000   0.00532
  32        4PZ         0.00000  -0.00000  -0.00000   0.04927   0.00000
  33 5   H  1S         -0.00005  -0.00000  -0.00019   0.00000  -0.00076
  34        2S         -0.00118   0.00007  -0.00319  -0.00000  -0.00309
  35        3S         -0.00192   0.00011  -0.00422  -0.00000  -0.00114
  36 6   H  1S         -0.00005  -0.00013  -0.00005   0.00000  -0.00078
  37        2S         -0.00117  -0.00255  -0.00052  -0.00000  -0.00326
  38        3S         -0.00193  -0.00351  -0.00056  -0.00000  -0.00137
                          11        12        13        14        15
  11        4PX         0.05959
  12        4PY         0.00000   0.05093
  13        4PZ         0.00000   0.00000   0.14296
  14 2   H  1S          0.00644   0.01731   0.00001   0.08124
  15        2S          0.01555   0.04043   0.00001   0.07735   0.14964
  16        3S          0.00525   0.01174  -0.00000   0.01367   0.04121
  17 3   H  1S          0.02354  -0.00000   0.00001  -0.00001  -0.00063
  18        2S          0.05472  -0.00000   0.00001  -0.00063  -0.00520
  19        3S          0.01634  -0.00000  -0.00000  -0.00197  -0.00777
  20 4   C  1S         -0.00019  -0.00059   0.00000   0.00000   0.00002
  21        2S         -0.00047  -0.00146   0.00000   0.00000   0.00003
  22        2PX        -0.00071   0.00138   0.00000  -0.00000   0.00000
  23        2PY         0.00137   0.00096   0.00000  -0.00000  -0.00037
  24        2PZ        -0.00000  -0.00000   0.00899   0.00000   0.00000
  25        3S          0.00653   0.02026  -0.00000  -0.00007  -0.00153
  26        3PX        -0.00415   0.00559   0.00000  -0.00000   0.00003
  27        3PY         0.00555   0.00130   0.00000  -0.00023  -0.00361
  28        3PZ        -0.00000  -0.00000   0.04888   0.00000   0.00000
  29        4S          0.00257   0.00844  -0.00000  -0.00107  -0.00455
  30        4PX        -0.00712   0.00317   0.00000   0.00001   0.00016
  31        4PY         0.00320  -0.00558   0.00000  -0.00242  -0.01026
  32        4PZ        -0.00000  -0.00000   0.08979   0.00000  -0.00000
  33 5   H  1S          0.00003  -0.00234   0.00000   0.00000   0.00000
  34        2S          0.00029  -0.00986  -0.00000   0.00000   0.00016
  35        3S          0.00030  -0.00729  -0.00000   0.00023   0.00147
  36 6   H  1S         -0.00174  -0.00047   0.00000  -0.00000  -0.00004
  37        2S         -0.00821  -0.00101  -0.00000  -0.00005  -0.00094
  38        3S         -0.00649  -0.00029  -0.00000  -0.00047  -0.00249
                          16        17        18        19        20
  16        3S          0.02085
  17 3   H  1S         -0.00198   0.08239
  18        2S         -0.00778   0.07749   0.14813
  19        3S         -0.00650   0.01343   0.04008   0.02004
  20 4   C  1S          0.00009   0.00000   0.00002   0.00009   0.65948
  21        2S          0.00017   0.00000   0.00003   0.00016   0.49332
  22        2PX         0.00001  -0.00000  -0.00028  -0.00059   0.00000
  23        2PY        -0.00075  -0.00000  -0.00008  -0.00013   0.00000
  24        2PZ        -0.00000   0.00000   0.00000  -0.00000   0.00000
  25        3S         -0.00252  -0.00007  -0.00150  -0.00244  -0.02940
  26        3PX         0.00006  -0.00016  -0.00290  -0.00366   0.00000
  27        3PY        -0.00448  -0.00007  -0.00066  -0.00067   0.00000
  28        3PZ        -0.00000   0.00000   0.00000  -0.00000   0.00000
  29        4S         -0.00236  -0.00105  -0.00432  -0.00211  -0.01232
  30        4PX         0.00016  -0.00188  -0.00875  -0.00675   0.00000
  31        4PY        -0.00754  -0.00060  -0.00146  -0.00056   0.00000
  32        4PZ        -0.00000   0.00000  -0.00000  -0.00000   0.00000
  33 5   H  1S          0.00023  -0.00000  -0.00004  -0.00042  -0.00022
  34        2S          0.00144  -0.00004  -0.00089  -0.00232  -0.00160
  35        3S          0.00246  -0.00045  -0.00241  -0.00283   0.00005
  36 6   H  1S         -0.00044   0.00000   0.00000   0.00022  -0.00021
  37        2S         -0.00241   0.00000   0.00016   0.00142  -0.00156
  38        3S         -0.00291   0.00023   0.00145   0.00242   0.00004
                          21        22        23        24        25
  21        2S          0.49210
  22        2PX         0.00000   0.08287
  23        2PY         0.00000   0.00000   0.08765
  24        2PZ         0.00000   0.00000   0.00000   0.06416
  25        3S         -0.06464   0.00000   0.00000   0.00000   0.45404
  26        3PX         0.00000   0.08101   0.00000   0.00000   0.00000
  27        3PY         0.00000   0.00000   0.08273   0.00000   0.00000
  28        3PZ         0.00000   0.00000   0.00000   0.06462   0.00000
  29        4S         -0.02166   0.00000   0.00000   0.00000   0.21569
  30        4PX         0.00000   0.01616   0.00000   0.00000   0.00000
  31        4PY         0.00000   0.00000   0.01483   0.00000   0.00000
  32        4PZ         0.00000   0.00000   0.00000   0.02112   0.00000
  33 5   H  1S         -0.00031   0.00149   0.00580   0.00000   0.01559
  34        2S         -0.00306   0.00379   0.01376   0.00001   0.03957
  35        3S         -0.00005   0.00067   0.00200   0.00000   0.00253
  36 6   H  1S         -0.00029   0.00695   0.00002   0.00000   0.01505
  37        2S         -0.00299   0.01735   0.00001   0.00000   0.03896
  38        3S         -0.00006   0.00271  -0.00001   0.00000   0.00265
                          26        27        28        29        30
  26        3PX         0.20038
  27        3PY         0.00000   0.19783
  28        3PZ         0.00000   0.00000   0.16443
  29        4S          0.00000   0.00000   0.00000   0.18576
  30        4PX         0.07488   0.00000   0.00000   0.00000   0.06660
  31        4PY         0.00000   0.06655   0.00000   0.00000   0.00000
  32        4PZ         0.00000   0.00000   0.10035   0.00000   0.00000
  33 5   H  1S          0.00884   0.03392   0.00003   0.01759   0.00566
  34        2S          0.01707   0.06041   0.00003   0.04399   0.01441
  35        3S          0.00378   0.01077   0.00000   0.00672   0.00526
  36 6   H  1S          0.04183   0.00007   0.00002   0.01747   0.02458
  37        2S          0.07726  -0.00002   0.00002   0.04441   0.05915
  38        3S          0.01481  -0.00009   0.00000   0.00736   0.01870
                          31        32        33        34        35
  31        4PY         0.05392
  32        4PZ         0.00000   0.14343
  33 5   H  1S          0.01879   0.00001   0.08114
  34        2S          0.04382   0.00001   0.07776   0.15184
  35        3S          0.01288  -0.00000   0.01419   0.04337   0.02274
  36 6   H  1S         -0.00005   0.00001  -0.00001  -0.00082  -0.00238
  37        2S         -0.00025   0.00001  -0.00082  -0.00678  -0.00975
  38        3S         -0.00020  -0.00000  -0.00240  -0.00977  -0.00842
                          36        37        38
  36 6   H  1S          0.08033
  37        2S          0.07760   0.15264
  38        3S          0.01430   0.04395   0.02312
     Gross orbital populations:
                           1
   1 1   C  1S          1.10435
   2        2S          0.88586
   3        2PX         0.22703
   4        2PY         0.23585
   5        2PZ         0.16618
   6        3S          0.79269
   7        3PX         0.56143
   8        3PY         0.55516
   9        3PZ         0.42302
  10        4S          0.50509
  11        4PX         0.25878
  12        4PY         0.21141
  13        4PZ         0.41257
  14 2   H  1S          0.27377
  15        2S          0.46701
  16        3S          0.08581
  17 3   H  1S          0.27733
  18        2S          0.46470
  19        3S          0.08254
  20 4   C  1S          1.10441
  21        2S          0.88584
  22        2PX         0.22261
  23        2PY         0.23611
  24        2PZ         0.16540
  25        3S          0.79285
  26        3PX         0.55274
  27        3PY         0.55723
  28        3PZ         0.41956
  29        4S          0.50579
  30        4PX         0.27466
  31        4PY         0.21698
  32        4PZ         0.41301
  33 5   H  1S          0.27350
  34        2S          0.46891
  35        3S          0.08818
  36 6   H  1S          0.27100
  37        2S          0.47036
  38        3S          0.09027
          Condensed to atoms (all electrons):
               1          2          3          4          5          6
     1  C    5.031667   0.387623   0.388384   0.601796  -0.035196  -0.034846
     2  H    0.387623   0.516192  -0.032458  -0.041024   0.005997  -0.009744
     3  H    0.388384  -0.032458   0.512564  -0.040400  -0.009411   0.005898
     4  C    0.601796  -0.041024  -0.040400   5.059122   0.383996   0.383697
     5  H   -0.035196   0.005997  -0.009411   0.383996   0.526358  -0.041152
     6  H   -0.034846  -0.009744   0.005898   0.383697  -0.041152   0.527780
 Mulliken charges:
               1
     1  C   -0.339427
     2  H    0.173415
     3  H    0.175424
     4  C   -0.347187
     5  H    0.169409
     6  H    0.168367
 Sum of Mulliken charges =  -0.00000
 Mulliken charges with hydrogens summed into heavy atoms:
               1
     1  C    0.009412
     4  C   -0.009412
 Electronic spatial extent (au):  <R**2>=             83.7121
 Charge=             -0.0000 electrons
 Dipole moment (field-independent basis, Debye):
    X=              0.0075    Y=              0.0260    Z=             -0.1077  Tot=              0.1111
 Quadrupole moment (field-independent basis, Debye-Ang):
   XX=            -12.1989   YY=            -12.2223   ZZ=            -15.6702
   XY=              0.0084   XZ=              0.0018   YZ=             -0.0037
 Traceless Quadrupole moment (field-independent basis, Debye-Ang):
   XX=              1.1649   YY=              1.1415   ZZ=             -2.3064
   XY=              0.0084   XZ=              0.0018   YZ=             -0.0037
 Octapole moment (field-independent basis, Debye-Ang**2):
  XXX=             -0.3861  YYY=              0.0132  ZZZ=             -0.0647  XYY=              0.2321
  XXY=             -0.0452  XXZ=             -0.1438  XZZ=             -0.0911  YZZ=             -0.0786
  YYZ=             -0.1893  XYZ=             -0.0397
 Hexadecapole moment (field-independent basis, Debye-Ang**3):
 XXXX=            -34.2652 YYYY=            -55.2231 ZZZZ=            -17.8197 XXXY=             -7.2673
 XXXZ=              0.0204 YYYX=            -10.7116 YYYZ=              0.0213 ZZZX=              0.0194
 ZZZY=              0.0433 XXYY=            -16.1879 XXZZ=             -9.9203 YYZZ=            -13.6399
 XXYZ=              0.0115 YYXZ=             -0.0012 ZZXY=             -3.2056
 N-N= 3.306699795743D+01 E-N=-2.478459414287D+02  KE= 7.815480654286D+01
 Orbital energies and kinetic energies (alpha):
                                 1                 2
   1         O               -10.289895         15.977775
   2         O               -10.288259         15.980605
   3         O                -0.863596          1.536231
   4         O                -0.672679          1.272510
   5         O                -0.559811          0.942544
   6         O                -0.508862          1.284746
   7         O                -0.437038          1.045062
   8         O                -0.356529          1.037929
   9         V                 0.079418          1.182388
  10         V                 0.140993          0.588586
  11         V                 0.165077          0.592533
  12         V                 0.170400          0.678832
  13         V                 0.240807          0.582420
  14         V                 0.371885          0.850273
  15         V                 0.394080          0.934399
  16         V                 0.399852          0.787433
  17         V                 0.464818          1.192745
  18         V                 0.488835          1.420331
  19         V                 0.494025          1.302788
  20         V                 0.590931          1.651583
  21         V                 0.666028          1.573523
  22         V                 0.691812          2.147520
  23         V                 0.773150          2.382841
  24         V                 0.775286          2.363078
  25         V                 0.842177          1.085707
  26         V                 0.950630          3.415543
  27         V                 2.231146          3.928307
  28         V                 2.291108          4.026896
  29         V                 2.332559          4.306192
  30         V                 2.406929          4.519065
  31         V                 2.670966          6.300414
  32         V                 2.817734          6.305730
  33         V                 2.878309          6.140331
  34         V                 2.951913          6.225413
  35         V                 3.139922          6.820377
  36         V                 3.320446          6.402920
  37         V                23.353217         60.075192
  38         V                23.704818         60.202789
 Total kinetic energy from orbitals= 7.815480654286D+01
 Calling FoFJK, ICntrl=      2127 FMM=F ISym2X=0 I1Cent= 0 IOpClX= 0 NMat=1 NMatS=1 NMatT=0.
 -------------------------------------------------------------------
 Center     Atomic                   Forces (Hartrees/Bohr)
 Number     Number              X              Y              Z
 -------------------------------------------------------------------
      1        6           0.015165003    0.011364150   -0.004341744
      2        1          -0.010479917    0.005195739    0.002169605
      3        1           0.002622771   -0.005378707    0.001996085
      4        6           0.008016495    0.006965213   -0.004591445
      5        1           0.000308966   -0.012199376    0.002334862
      6        1          -0.015633319   -0.005947019    0.002432637
 -------------------------------------------------------------------
 Cartesian Forces:  Max     0.015633319 RMS     0.007934504

 GradGradGradGradGradGradGradGradGradGradGradGradGradGradGradGradGradGrad
 Berny optimization.
 Search for a local minimum.
 Step number   1 out of a maximum of    2
 All quantities printed in internal units (Hartrees-Bohrs-Radians)
 Second derivative matrix not updated -- first step.
 The second derivative matrix:
                          X1        Y1        Z1        X2        Y2
           X1           0.76022
           Y1           0.09413   0.85314
           Z1           0.00658   0.00961   0.16941
           X2          -0.16689   0.09779   0.00226   0.14437
           Y2           0.10343  -0.28088  -0.00809  -0.11693   0.26948
           Z2           0.00362  -0.01019  -0.05424  -0.00329   0.00833
           X3          -0.35274  -0.00037  -0.00911  -0.00011  -0.00005
           Y3          -0.00600  -0.11053  -0.00218   0.03220   0.01923
           Z3          -0.01163  -0.00210  -0.05589   0.00167   0.00065
           X4          -0.26583  -0.17698  -0.00084   0.02265   0.01355
           Y4          -0.17708  -0.47009  -0.00130  -0.01308  -0.00782
           Z4           0.00141   0.00263  -0.09362  -0.00065  -0.00090
           X5           0.02360  -0.01363   0.00069  -0.00001   0.00000
           Y5           0.01156  -0.00668   0.00094   0.00001  -0.00000
           Z5          -0.00056   0.00035   0.01764   0.00027  -0.00014
           X6           0.00163  -0.00094   0.00041  -0.00001   0.00000
           Y6          -0.02604   0.01504   0.00101   0.00000  -0.00000
           Z6           0.00058  -0.00031   0.01670  -0.00027   0.00014
                          Z2        X3        Y3        Z3        X4
           Z2           0.02826
           X3          -0.00033   0.35281
           Y3           0.00183   0.00046   0.07591
           Z3           0.01055   0.00993   0.00144   0.02929
           X4           0.00054   0.00006  -0.02667  -0.00053   0.71354
           Y4          -0.00029  -0.00004   0.01540   0.00033   0.11985
           Z4           0.01532  -0.00049  -0.00109   0.01616  -0.00549
           X5          -0.00028  -0.00001   0.00001   0.00029  -0.14593
           Y5           0.00018   0.00001  -0.00000  -0.00018   0.09265
           Z5           0.00919   0.00029  -0.00018  -0.00938  -0.00348
           X6          -0.00027  -0.00001   0.00001   0.00027  -0.32449
           Y6           0.00014   0.00000  -0.00000  -0.00014  -0.02239
           Z6          -0.00909  -0.00029   0.00018   0.00928   0.00979
                          Y4        Z4        X5        Y5        Z5
           Y4           0.86060
           Z4          -0.01106   0.17630
           X5           0.08405  -0.00231   0.12443
           Y5          -0.29337   0.00831  -0.10321   0.28401
           Z5           0.01025  -0.05766   0.00310  -0.00887   0.02994
           X6          -0.01370   0.00754  -0.00208  -0.00101   0.00038
           Y6          -0.10472   0.00209   0.03279   0.01604  -0.00141
           Z6           0.00206  -0.05649  -0.00148  -0.00038   0.01027
                          X6        Y6        Z6
           X6           0.32495
           Y6           0.01564   0.07364
           Z6          -0.00833  -0.00169   0.02933
 ITU=  0
     Eigenvalues ---    0.03700   0.04387   0.09186   0.10076   0.13509
     Eigenvalues ---    0.17521   0.26250   0.29131   0.53023   0.70443
     Eigenvalues ---    0.97750   1.55623
 Angle between quadratic step and forces=  35.22 degrees.
 Linear search not attempted -- first point.
 B after Tr=     0.007509    0.007893   -0.011086
         Rot=    1.000000   -0.000060    0.000035   -0.000110 Ang=  -0.01 deg.
 Variable       Old X    -DE/DX   Delta X   Delta X   Delta X     New X
                                 (Linear)    (Quad)   (Total)
    X1       -0.63687   0.01517   0.00000   0.02328   0.03103  -0.60584
    Y1       -1.10109   0.01136   0.00000   0.02533   0.03309  -1.06800
    Z1        0.01355  -0.00434   0.00000  -0.02376  -0.03502  -0.02147
    X2        0.42818  -0.01048   0.00000  -0.04541  -0.03727   0.39091
    Y2       -2.87937   0.00520   0.00000   0.01642   0.02440  -2.85498
    Z2       -0.04526   0.00217   0.00000   0.02899   0.01758  -0.02768
    X3       -2.68763   0.00262   0.00000   0.02933   0.03709  -2.65054
    Y3       -1.10479  -0.00538   0.00000  -0.01819  -0.01089  -1.11567
    Z3       -0.04936   0.00200   0.00000   0.02851   0.01710  -0.03225
    X4        0.62926   0.00802   0.00000   0.00779   0.01505   0.64431
    Y4        1.09160   0.00697   0.00000   0.00737   0.01540   1.10700
    Z4        0.01009  -0.00459   0.00000  -0.02211  -0.03302  -0.02293
    X5       -0.28750   0.00031   0.00000  -0.02258  -0.01571  -0.30321
    Y5        2.95969  -0.01220   0.00000  -0.04295  -0.03512   2.92457
    Z5       -0.05354   0.00233   0.00000   0.02774   0.01698  -0.03656
    X6        2.72169  -0.01563   0.00000  -0.03744  -0.03019   2.69151
    Y6        1.22159  -0.00595   0.00000  -0.03538  -0.02689   1.19470
    Z6       -0.04941   0.00243   0.00000   0.02713   0.01637  -0.03304
         Item               Value     Threshold  Converged?
 Maximum Force            0.015633     0.000450     NO 
 RMS     Force            0.007935     0.000300     NO 
 Maximum Displacement     0.037270     0.001800     NO 
 RMS     Displacement     0.026446     0.001200     NO 
 Predicted change in Energy=-1.629196D-03
 GradGradGradGradGradGradGradGradGradGradGradGradGradGradGradGradGradGrad

 Unable to Open any file for archive entry.
 1\1\GINC-BHD0004\Force\RwB97XD\6-311G\C2H4\BWEIGHT\11-Jan-2023\0\\# WB
 97XD/6-311G SCF=XQC FORCE nosym pop=full guess=read\\MD Step 1000\\0,1
 \C,-0.33701524,-0.58267008,0.00716946\H,0.22658574,-1.52369876,-0.0239
 5004\H,-1.42223036,-0.5846283,-0.02611863\C,0.332988,0.57764983,0.0053
 3714\H,-0.15214073,1.56619973,-0.02833362\H,1.44025835,0.64643605,-0.0
 2614565\\Version=ES64L-G16RevC.01\HF=-78.5555959\RMSD=5.974e-09\RMSF=7
 .935e-03\Dipole=0.0029643,0.0102465,-0.0423808\Quadrupole=0.8660625,0.
 8487118,-1.7147743,0.0062421,0.0013308,-0.0027567\PG=C01 [X(C2H4)]\\@
 The archive entry for this job was punched.


 IF MATHEMATICALLY YOU END UP WITH THE INCORRECT ANSWER,
 TRY MULTIPLYING BY THE PAGE NUMBER.
 Job cpu time:       0 days  0 hours  0 minutes 59.7 seconds.
 Elapsed time:       0 days  0 hours  0 minutes 23.0 seconds.
 File lengths (MBytes):  RWF=    272 Int=      0 D2E=      0 Chk=     32 Scr=     32
 Normal termination of Gaussian 16 at Wed Jan 11 18:32:10 2023.
