 Entering Gaussian System, Link 0=g16
 Initial command:
 /software/gaussian/g16-c01/avx2/g16/l1.exe "/gpfs/fs2/scratch/bweight/software/many_molecule_many_mode_NAMD/src/NAMD/TEST_NVT/TRAJ/traj-8/G16/GS_NEW/Gau-2693.inp" -scrdir="/gpfs/fs2/scratch/bweight/software/many_molecule_many_mode_NAMD/src/NAMD/TEST_NVT/TRAJ/traj-8/G16/GS_NEW/"
 Entering Link 1 = /software/gaussian/g16-c01/avx2/g16/l1.exe PID=      2694.
  
 Copyright (c) 1988-2019, Gaussian, Inc.  All Rights Reserved.
  
 This is part of the Gaussian(R) 16 program.  It is based on
 the Gaussian(R) 09 system (copyright 2009, Gaussian, Inc.),
 the Gaussian(R) 03 system (copyright 2003, Gaussian, Inc.),
 the Gaussian(R) 98 system (copyright 1998, Gaussian, Inc.),
 the Gaussian(R) 94 system (copyright 1995, Gaussian, Inc.),
 the Gaussian 92(TM) system (copyright 1992, Gaussian, Inc.),
 the Gaussian 90(TM) system (copyright 1990, Gaussian, Inc.),
 the Gaussian 88(TM) system (copyright 1988, Gaussian, Inc.),
 the Gaussian 86(TM) system (copyright 1986, Carnegie Mellon
 University), and the Gaussian 82(TM) system (copyright 1983,
 Carnegie Mellon University). Gaussian is a federally registered
 trademark of Gaussian, Inc.
  
 This software contains proprietary and confidential information,
 including trade secrets, belonging to Gaussian, Inc.
  
 This software is provided under written license and may be
 used, copied, transmitted, or stored only in accord with that
 written license.
  
 The following legend is applicable only to US Government
 contracts under FAR:
  
                    RESTRICTED RIGHTS LEGEND
  
 Use, reproduction and disclosure by the US Government is
 subject to restrictions as set forth in subparagraphs (a)
 and (c) of the Commercial Computer Software - Restricted
 Rights clause in FAR 52.227-19.
  
 Gaussian, Inc.
 340 Quinnipiac St., Bldg. 40, Wallingford CT 06492
  
  
 ---------------------------------------------------------------
 Warning -- This program may not be used in any manner that
 competes with the business of Gaussian, Inc. or will provide
 assistance to any competitor of Gaussian, Inc.  The licensee
 of this program is prohibited from giving any competitor of
 Gaussian, Inc. access to this program.  By using this program,
 the user acknowledges that Gaussian, Inc. is engaged in the
 business of creating and licensing software in the field of
 computational chemistry and represents and warrants to the
 licensee that it is not a competitor of Gaussian, Inc. and that
 it will not use this program in any manner prohibited above.
 ---------------------------------------------------------------
  

 Cite this work as:
 Gaussian 16, Revision C.01,
 M. J. Frisch, G. W. Trucks, H. B. Schlegel, G. E. Scuseria, 
 M. A. Robb, J. R. Cheeseman, G. Scalmani, V. Barone, 
 G. A. Petersson, H. Nakatsuji, X. Li, M. Caricato, A. V. Marenich, 
 J. Bloino, B. G. Janesko, R. Gomperts, B. Mennucci, H. P. Hratchian, 
 J. V. Ortiz, A. F. Izmaylov, J. L. Sonnenberg, D. Williams-Young, 
 F. Ding, F. Lipparini, F. Egidi, J. Goings, B. Peng, A. Petrone, 
 T. Henderson, D. Ranasinghe, V. G. Zakrzewski, J. Gao, N. Rega, 
 G. Zheng, W. Liang, M. Hada, M. Ehara, K. Toyota, R. Fukuda, 
 J. Hasegawa, M. Ishida, T. Nakajima, Y. Honda, O. Kitao, H. Nakai, 
 T. Vreven, K. Throssell, J. A. Montgomery, Jr., J. E. Peralta, 
 F. Ogliaro, M. J. Bearpark, J. J. Heyd, E. N. Brothers, K. N. Kudin, 
 V. N. Staroverov, T. A. Keith, R. Kobayashi, J. Normand, 
 K. Raghavachari, A. P. Rendell, J. C. Burant, S. S. Iyengar, 
 J. Tomasi, M. Cossi, J. M. Millam, M. Klene, C. Adamo, R. Cammi, 
 J. W. Ochterski, R. L. Martin, K. Morokuma, O. Farkas, 
 J. B. Foresman, and D. J. Fox, Gaussian, Inc., Wallingford CT, 2019.
 
 ******************************************
 Gaussian 16:  ES64L-G16RevC.01  3-Jul-2019
                11-Jan-2023 
 ******************************************
 %oldchk=../GS_OLD/geometry.chk
 %chk=geometry.chk
 %nprocshared=4
 Will use up to    4 processors via shared memory.
 %mem=5GB
 Copying data from "../GS_OLD/geometry.chk" to current chk file "geometry.chk"
 IOpt=  2 FromEx=T IUOpen= 4 IOptOp= 5 NList=   0 IFRang= 0 IUIn= 4 IUOut= 2.
 -------------------------------------------------------
 # WB97XD/6-311G SCF=XQC FORCE nosym pop=full guess=read
 -------------------------------------------------------
 1/10=7,30=1,38=1/1,3;
 2/12=2,15=1,17=6,18=5,40=1/2;
 3/5=4,6=6,11=2,25=1,30=1,71=1,74=-58,116=-2/1,2,3;
 4/5=1/1;
 5/5=2,8=3,13=1,38=6/2,8;
 6/7=3,28=1/1;
 7/29=1,30=1/1,2,3,16;
 1/10=7,30=1/3;
 99//99;
 -----------
 MD Step 999
 -----------
 Symbolic Z-matrix:
 Charge =  0 Multiplicity = 1
 C                    -0.33526  -0.5801    0.00609 
 H                     0.2135   -1.53234  -0.01732 
 H                    -1.42243  -0.59099  -0.01985 
 C                     0.33248   0.57639   0.00407 
 H                    -0.16308   1.56187  -0.02346 
 H                     1.44446   0.64502  -0.02113 
 

 GradGradGradGradGradGradGradGradGradGradGradGradGradGradGradGradGradGrad
 Berny optimization.
 Initialization pass.
 Trust Radius=3.00D-01 FncErr=1.00D-07 GrdErr=1.00D-07 EigMax=2.50D+02 EigMin=1.00D-04
 Number of steps in this run=      2 maximum allowed number of steps=      2.
 GradGradGradGradGradGradGradGradGradGradGradGradGradGradGradGradGradGrad

                          Input orientation:                          
 ---------------------------------------------------------------------
 Center     Atomic      Atomic             Coordinates (Angstroms)
 Number     Number       Type             X           Y           Z
 ---------------------------------------------------------------------
      1          6           0       -0.335260   -0.580096    0.006094
      2          1           0        0.213505   -1.532344   -0.017325
      3          1           0       -1.422431   -0.590986   -0.019852
      4          6           0        0.332480    0.576386    0.004071
      5          1           0       -0.163075    1.561868   -0.023463
      6          1           0        1.444459    0.645020   -0.021132
 ---------------------------------------------------------------------
                    Distance matrix (angstroms):
                    1          2          3          4          5
     1  C    0.000000
     2  H    1.099303   0.000000
     3  H    1.087535   1.887445   0.000000
     4  C    1.335415   2.112192   2.107853   0.000000
     5  H    2.149077   3.117050   2.494147   1.103407   0.000000
     6  H    2.160798   2.501235   3.121981   1.114379   1.850617
                    6
     6  H    0.000000
 Symmetry turned off by external request.
 Stoichiometry    C2H4
 Framework group  C1[X(C2H4)]
 Deg. of freedom    12
 Full point group                 C1      NOp   1
 Rotational constants (GHZ):         143.4405555          29.7418096          24.6394271
 Standard basis: 6-311G (5D, 7F)
    38 basis functions,    72 primitive gaussians,    38 cartesian basis functions
     8 alpha electrons        8 beta electrons
       nuclear repulsion energy        33.0855808703 Hartrees.
 NAtoms=    6 NActive=    6 NUniq=    6 SFac= 1.00D+00 NAtFMM=   60 NAOKFM=F Big=F
 Integral buffers will be    131072 words long.
 Raffenetti 2 integral format.
 Two-electron integral symmetry is turned off.
 Nuclear repulsion after empirical dispersion term =       33.0847408037 Hartrees.
 One-electron integrals computed using PRISM.
 NBasis=    38 RedAO= T EigKep=  6.37D-03  NBF=    38
 NBsUse=    38 1.00D-06 EigRej= -1.00D+00 NBFU=    38
 Initial guess from the checkpoint file:  "geometry.chk"
 B after Tr=    -0.000191   -0.000251   -0.000793
         Rot=    1.000000    0.000005   -0.000001    0.000005 Ang=   0.00 deg.
 Keep R1 ints in memory in canonical form, NReq=4036876.
 Requested convergence on RMS density matrix=1.00D-08 within  32 cycles.
 Requested convergence on MAX density matrix=1.00D-06.
 Requested convergence on             energy=1.00D-06.
 No special actions if energy rises.
 SCF Done:  E(RwB97XD) =  -78.5559015469     A.U. after    8 cycles
            NFock=  8  Conv=0.67D-08     -V/T= 2.0051
 QCSCF skips out because SCF is already converged.

 **********************************************************************

            Population analysis using the SCF Density.

 **********************************************************************

 Alpha  occ. eigenvalues --  -10.29015 -10.28799  -0.86423  -0.67188  -0.55893
 Alpha  occ. eigenvalues --   -0.51006  -0.43581  -0.35736
 Alpha virt. eigenvalues --    0.08043   0.14096   0.16433   0.16992   0.24090
 Alpha virt. eigenvalues --    0.37541   0.39254   0.39859   0.46338   0.48810
 Alpha virt. eigenvalues --    0.49345   0.59130   0.66514   0.69058   0.77272
 Alpha virt. eigenvalues --    0.77591   0.84305   0.95435   2.23179   2.28952
 Alpha virt. eigenvalues --    2.33305   2.40678   2.67161   2.81770   2.87794
 Alpha virt. eigenvalues --    2.95154   3.14236   3.31832  23.35135  23.70789
     Molecular Orbital Coefficients:
                           1         2         3         4         5
                           O         O         O         O         O
     Eigenvalues --   -10.29015 -10.28799  -0.86423  -0.67188  -0.55893
   1 1   C  1S          0.11922   0.55064  -0.08840   0.06678  -0.00036
   2        2S          0.09832   0.45315  -0.13971   0.10697  -0.00060
   3        2PX         0.00016  -0.00002   0.02620   0.03664   0.13725
   4        2PY         0.00028  -0.00002   0.04685   0.06047  -0.07317
   5        2PZ        -0.00000  -0.00000  -0.00105   0.00149   0.00032
   6        3S          0.00223   0.01447   0.37465  -0.29185   0.00168
   7        3PX        -0.00059   0.00045   0.03438   0.05883   0.21502
   8        3PY        -0.00102   0.00081   0.06120   0.09811  -0.11549
   9        3PZ        -0.00001  -0.00003  -0.00175   0.00268   0.00049
  10        4S          0.00285  -0.01481   0.19136  -0.22707   0.00108
  11        4PX         0.00145  -0.00160   0.00475   0.02350   0.11174
  12        4PY         0.00249  -0.00276   0.00869   0.04069  -0.06096
  13        4PZ         0.00000   0.00007  -0.00061   0.00136   0.00025
  14 2   H  1S         -0.00005  -0.00006   0.05205  -0.08769   0.10122
  15        2S         -0.00030   0.00011   0.05339  -0.10568   0.12829
  16        3S          0.00088   0.00164  -0.00170  -0.01525   0.04155
  17 3   H  1S         -0.00005  -0.00007   0.05347  -0.09096  -0.10475
  18        2S         -0.00030   0.00010   0.05426  -0.10887  -0.13187
  19        3S          0.00090   0.00168  -0.00174  -0.01615  -0.04265
  20 4   C  1S          0.55062  -0.11941  -0.08701  -0.06825  -0.00034
  21        2S          0.45321  -0.09807  -0.13739  -0.10944  -0.00053
  22        2PX        -0.00003  -0.00016  -0.02800   0.03699   0.11862
  23        2PY        -0.00004  -0.00028  -0.04702   0.06677  -0.07436
  24        2PZ        -0.00000   0.00000  -0.00081  -0.00169   0.00031
  25        3S          0.01395  -0.00394   0.36803   0.29898   0.00147
  26        3PX        -0.00019   0.00074  -0.03513   0.06018   0.18591
  27        3PY        -0.00030   0.00127  -0.05886   0.10783  -0.11541
  28        3PZ        -0.00003  -0.00000  -0.00142  -0.00304   0.00047
  29        4S         -0.01203   0.00882   0.18870   0.23736   0.00038
  30        4PX         0.00084  -0.00195  -0.00543   0.02635   0.10206
  31        4PY         0.00139  -0.00339  -0.00904   0.04561  -0.06242
  32        4PZ         0.00005  -0.00001  -0.00059  -0.00155   0.00024
  33 5   H  1S         -0.00007  -0.00004   0.04999   0.09369  -0.09050
  34        2S         -0.00003  -0.00031   0.05107   0.11185  -0.11419
  35        3S          0.00181   0.00009  -0.00113   0.01689  -0.03674
  36 6   H  1S         -0.00005  -0.00004   0.04854   0.09124   0.08623
  37        2S         -0.00004  -0.00032   0.05022   0.10961   0.10941
  38        3S          0.00176   0.00009  -0.00122   0.01619   0.03551
                           6         7         8         9        10
                           O         O         O         V         V
     Eigenvalues --    -0.51006  -0.43581  -0.35736   0.08043   0.14096
   1 1   C  1S         -0.00385   0.00019  -0.00078   0.00217  -0.03324
   2        2S         -0.00578   0.00033  -0.00126   0.00360  -0.05331
   3        2PX         0.09401  -0.11143  -0.00280   0.00127  -0.03148
   4        2PY         0.16827   0.06601  -0.00439   0.00176  -0.06467
   5        2PZ         0.00393  -0.00015   0.17951  -0.18899  -0.00189
   6        3S          0.02159  -0.00073   0.00369  -0.01089   0.11586
   7        3PX         0.13638  -0.17796  -0.00397   0.00192  -0.03702
   8        3PY         0.24578   0.10603  -0.00615   0.00264  -0.07991
   9        3PZ         0.00625  -0.00021   0.28858  -0.27793  -0.00303
  10        4S         -0.05245  -0.00315   0.00549  -0.01222   1.21734
  11        4PX         0.06870  -0.11129  -0.00323   0.01043  -0.19433
  12        4PY         0.12490   0.06679  -0.00497   0.01626  -0.38685
  13        4PZ         0.00356  -0.00010   0.26662  -0.69736  -0.01098
  14 2   H  1S         -0.08104  -0.11547   0.00012   0.00335  -0.01677
  15        2S         -0.11206  -0.17877   0.00159   0.00531  -0.04734
  16        3S         -0.04181  -0.08301   0.00095   0.01420  -0.83338
  17 3   H  1S         -0.07872   0.11330   0.00009   0.00338  -0.01281
  18        2S         -0.10821   0.17457   0.00157   0.00541  -0.03763
  19        3S         -0.04004   0.08082   0.00094   0.01407  -0.76803
  20 4   C  1S         -0.00810  -0.00047  -0.00066  -0.00212  -0.03630
  21        2S         -0.01266  -0.00078  -0.00108  -0.00352  -0.05829
  22        2PX        -0.09824   0.12413   0.00257   0.00128   0.04127
  23        2PY        -0.16240  -0.07290   0.00501   0.00263   0.06153
  24        2PZ         0.00438   0.00027   0.17929   0.18937  -0.00246
  25        3S          0.04106   0.00218   0.00318   0.01055   0.12863
  26        3PX        -0.14525   0.19908   0.00358   0.00196   0.05080
  27        3PY        -0.23834  -0.11602   0.00707   0.00402   0.07298
  28        3PZ         0.00692   0.00040   0.28705   0.27775  -0.00373
  29        4S         -0.03152   0.00338   0.00523   0.01225   1.24770
  30        4PX        -0.07574   0.12756   0.00275   0.01020   0.26504
  31        4PY        -0.12280  -0.07368   0.00560   0.01921   0.41257
  32        4PZ         0.00399   0.00024   0.26684   0.69834  -0.01464
  33 5   H  1S         -0.07476  -0.12416   0.00017  -0.00322  -0.01225
  34        2S         -0.10206  -0.19355   0.00169  -0.00535  -0.03786
  35        3S         -0.03799  -0.09105   0.00094  -0.01407  -0.82210
  36 6   H  1S         -0.08022   0.12396   0.00014  -0.00324  -0.01608
  37        2S         -0.11000   0.19441   0.00165  -0.00546  -0.04711
  38        3S         -0.04113   0.09162   0.00091  -0.01452  -0.88846
                          11        12        13        14        15
                           V         V         V         V         V
     Eigenvalues --     0.16433   0.16992   0.24090   0.37541   0.39254
   1 1   C  1S          0.00202  -0.04543   0.00010   0.01028   0.00120
   2        2S          0.00326  -0.07405   0.00015   0.01428   0.00190
   3        2PX         0.09784  -0.01819   0.10014  -0.03634  -0.02427
   4        2PY        -0.05321  -0.03890  -0.05727  -0.06611   0.00978
   5        2PZ         0.00033  -0.00529   0.00013  -0.00368  -0.00018
   6        3S         -0.00720   0.16745   0.00028   0.03162  -0.00043
   7        3PX         0.14003  -0.00909   0.10641  -0.04679  -0.10684
   8        3PY        -0.07790  -0.02673  -0.06184  -0.09035   0.04856
   9        3PZ         0.00046  -0.00736   0.00011  -0.00744  -0.00025
  10        4S         -0.07898   1.43138  -0.02366  -2.72282  -0.22812
  11        4PX         0.58078  -0.10659   1.16549  -1.58770  -0.54183
  12        4PY        -0.30685  -0.21828  -0.66866  -2.76752   0.13309
  13        4PZ         0.00209  -0.03462   0.00188  -0.03211  -0.00250
  14 2   H  1S         -0.02937  -0.02596   0.01305  -0.05613   0.07666
  15        2S         -0.08058  -0.01971  -0.02356  -0.65017   0.78145
  16        3S         -1.00491  -1.02617  -1.54030  -0.32412  -0.34437
  17 3   H  1S          0.02971  -0.02468  -0.01499  -0.04891  -0.07629
  18        2S          0.08063  -0.01974   0.01803  -0.59137  -0.75970
  19        3S          1.11022  -0.98739   1.57158  -0.39812   0.26377
  20 4   C  1S          0.00051   0.04247  -0.00015  -0.01984  -0.00002
  21        2S          0.00079   0.06915  -0.00027  -0.03247   0.00014
  22        2PX         0.10156  -0.02171  -0.10035  -0.04088  -0.03152
  23        2PY        -0.06049  -0.03838   0.05749  -0.07325   0.01229
  24        2PZ         0.00014   0.00525  -0.00012   0.00284   0.00031
  25        3S         -0.00122  -0.15399   0.00040   0.04002  -0.00383
  26        3PX         0.14611  -0.01604  -0.11367  -0.09206  -0.10956
  27        3PY        -0.08647  -0.02835   0.06375  -0.16775   0.05612
  28        3PZ         0.00019   0.00723  -0.00009   0.00366   0.00063
  29        4S         -0.03821  -1.33635   0.02026   3.38686   0.17466
  30        4PX         0.54001  -0.11095  -1.12723  -1.21381  -0.56863
  31        4PY        -0.32824  -0.20449   0.65129  -2.13864   0.06513
  32        4PZ         0.00081   0.03409  -0.00181   0.03000   0.00224
  33 5   H  1S          0.03097   0.02531   0.00682   0.01161  -0.07902
  34        2S          0.06919   0.02310  -0.03213   0.08266  -0.76991
  35        3S          1.06451   0.95680  -1.52862   0.45807   0.47094
  36 6   H  1S         -0.03229   0.02505  -0.00519   0.00609   0.08846
  37        2S         -0.07112   0.01979   0.03434   0.03398   0.90105
  38        3S         -1.01547   0.92771   1.50381   0.47060  -0.45128
                          16        17        18        19        20
                           V         V         V         V         V
     Eigenvalues --     0.39859   0.46338   0.48810   0.49345   0.59130
   1 1   C  1S         -0.01781   0.01162  -0.04695  -0.00007  -0.00045
   2        2S         -0.03147   0.02751  -0.07871   0.00009  -0.00080
   3        2PX         0.02493  -0.06133   0.01342   0.00103   0.00176
   4        2PY         0.04699  -0.10589   0.01733   0.00121   0.00227
   5        2PZ         0.00006  -0.00042   0.00333  -0.15173  -0.19269
   6        3S          0.07710  -0.33548   0.10102  -0.00758  -0.00029
   7        3PX         0.09819  -0.24172  -0.02726   0.00105   0.00592
   8        3PY         0.18972  -0.41563  -0.05909  -0.00030   0.00766
   9        3PZ        -0.00350  -0.00347   0.01554  -0.62806  -0.68533
  10        4S          2.56115   0.15026   3.15352   0.05824   0.05506
  11        4PX         0.17533   0.23215   0.80904   0.01887   0.01695
  12        4PY         0.35591   0.44037   1.40564   0.03569   0.03132
  13        4PZ        -0.00163  -0.00003  -0.06777   0.68645   1.24181
  14 2   H  1S         -0.02564  -0.03553  -0.07619  -0.00173  -0.00134
  15        2S         -0.53205  -0.33848  -0.90957  -0.01551  -0.00972
  16        3S          0.28187   0.08052   0.64687   0.02115   0.01857
  17 3   H  1S         -0.03561  -0.03852  -0.07358  -0.00168  -0.00126
  18        2S         -0.62437  -0.37391  -0.88062  -0.01530  -0.00820
  19        3S          0.30795   0.08455   0.61087   0.02052   0.01806
  20 4   C  1S         -0.00181  -0.00177   0.05091   0.00219   0.00054
  21        2S         -0.00656   0.00472   0.08838   0.00398   0.00100
  22        2PX         0.00670   0.05531   0.02553  -0.00006   0.00147
  23        2PY         0.01491   0.09569   0.04776  -0.00042   0.00325
  24        2PZ        -0.00292  -0.00146   0.00344  -0.15257   0.19243
  25        3S          0.08181  -0.29078  -0.22455  -0.01568  -0.00175
  26        3PX        -0.04870   0.23456   0.04830  -0.00013   0.00520
  27        3PY        -0.06929   0.41034   0.08859  -0.00174   0.01130
  28        3PZ        -0.00835  -0.00605   0.01242  -0.63098   0.68297
  29        4S         -0.73978   0.73703  -3.12965  -0.07578  -0.04953
  30        4PX         1.18753  -0.35194   0.64661   0.00971   0.01768
  31        4PY         2.17472  -0.57615   1.09075   0.01695   0.02838
  32        4PZ        -0.02711  -0.01172   0.03075   0.69310  -1.23901
  33 5   H  1S         -0.04983  -0.06293   0.06483   0.00163   0.00124
  34        2S         -0.86349  -0.64130   0.81278   0.02515   0.00492
  35        3S         -0.16580   0.26036  -0.55496  -0.00557  -0.01813
  36 6   H  1S         -0.03946  -0.06116   0.06527   0.00168   0.00129
  37        2S         -0.74690  -0.61594   0.80885   0.02488   0.00563
  38        3S         -0.19566   0.27722  -0.58147  -0.00661  -0.01836
                          21        22        23        24        25
                           V         V         V         V         V
     Eigenvalues --     0.66514   0.69058   0.77272   0.77591   0.84305
   1 1   C  1S          0.00087  -0.00024   0.06289   0.06348   0.00073
   2        2S          0.00177  -0.00060   0.13301   0.13545   0.00167
   3        2PX        -0.13166   0.19831  -0.00598   0.11605  -0.00930
   4        2PY         0.07673  -0.11895  -0.01104   0.18995   0.01300
   5        2PZ        -0.00020   0.00038   0.00116   0.00354   0.00010
   6        3S         -0.01344   0.01192  -0.94749  -1.20656  -0.01827
   7        3PX        -0.61312   0.69367  -0.09798   0.46767  -0.22767
   8        3PY         0.35401  -0.41658  -0.17338   0.75856   0.16222
   9        3PZ        -0.00097   0.00138   0.00433   0.01228   0.00018
  10        4S          0.01928  -0.07329   1.11478   2.35032  -0.04310
  11        4PX         1.09833  -0.77509   0.04062  -0.75356   4.48399
  12        4PY        -0.63818   0.46543   0.02029  -1.01991  -2.58089
  13        4PZ         0.00160  -0.00012  -0.00012  -0.04341   0.00748
  14 2   H  1S          0.02303  -0.05889   0.01616   0.03022  -0.02668
  15        2S          0.12518  -0.63211   0.08748   0.07242  -1.55274
  16        3S         -1.03793   1.10088  -0.28790  -1.06951  -1.21878
  17 3   H  1S         -0.02226   0.05868   0.01606   0.03096   0.02967
  18        2S         -0.13618   0.66647   0.11010   0.04088   1.59038
  19        3S          1.02792  -1.07198  -0.28726  -1.20482   1.22079
  20 4   C  1S          0.00105  -0.00026   0.08839   0.01563   0.00040
  21        2S          0.00214  -0.00044   0.18796   0.03256   0.00080
  22        2PX        -0.15206  -0.18519  -0.08509   0.06772   0.01209
  23        2PY         0.08673   0.10255  -0.15481   0.12380   0.00026
  24        2PZ        -0.00020  -0.00034   0.00392  -0.00158  -0.00015
  25        3S         -0.01579  -0.00395  -1.53963  -0.10237  -0.00281
  26        3PX        -0.68465  -0.62444  -0.29583   0.33405   0.24522
  27        3PY         0.39348   0.34373  -0.54417   0.60914  -0.10519
  28        3PZ        -0.00099  -0.00118   0.01381  -0.00593  -0.00029
  29        4S          0.01704   0.05930   2.67799  -0.39471   0.02525
  30        4PX         1.27158   0.72027   0.45014  -0.32184  -4.21071
  31        4PY        -0.72682  -0.39734   0.88594  -0.80754   2.38396
  32        4PZ         0.00171   0.00004  -0.03795   0.02761  -0.00641
  33 5   H  1S         -0.02563  -0.05525   0.03474  -0.00326  -0.02377
  34        2S         -0.15166  -0.57504   0.08423   0.06482  -1.42508
  35        3S          1.11729   0.97033  -1.10205   0.48881  -1.10597
  36 6   H  1S          0.02620   0.05522   0.03429  -0.00251   0.02344
  37        2S          0.14284   0.53913   0.07914   0.01309   1.40745
  38        3S         -1.12056  -0.98867  -1.03013   0.40580   1.11553
                          26        27        28        29        30
                           V         V         V         V         V
     Eigenvalues --     0.95435   2.23179   2.28952   2.33305   2.40678
   1 1   C  1S          0.09565  -0.01019  -0.01426   0.00030  -0.00045
   2        2S          0.19878   0.00143  -0.01434   0.00077  -0.00047
   3        2PX        -0.09221  -0.08261  -0.13449   0.34184  -0.40878
   4        2PY        -0.15980  -0.15390  -0.23152  -0.19544   0.23303
   5        2PZ         0.00022  -0.01053  -0.01416   0.00032  -0.00101
   6        3S         -1.53792  -0.18507  -0.03366  -0.00195  -0.00461
   7        3PX        -0.23809   0.08147   0.21266  -0.41060   0.57039
   8        3PY        -0.40509   0.16435   0.38018   0.23711  -0.32787
   9        3PZ        -0.00177   0.01057   0.01766  -0.00031   0.00126
  10        4S          5.71623  -0.11278  -0.88914  -0.00209  -0.02413
  11        4PX         1.20433   0.05164  -0.19060  -0.03621   0.96834
  12        4PY         1.99660   0.06703  -0.35622   0.01202  -0.54000
  13        4PZ        -0.01567   0.00243   0.00666  -0.00021   0.00215
  14 2   H  1S          0.01562  -0.71429  -0.78422  -0.70827   0.65518
  15        2S         -0.29139   1.01687   1.17658   1.08597  -1.45794
  16        3S         -0.08596  -0.30652  -0.46963  -0.47377   0.37370
  17 3   H  1S          0.01594  -0.70782  -0.78540   0.69410  -0.67626
  18        2S         -0.26272   1.00913   1.18210  -1.06859   1.50172
  19        3S         -0.06905  -0.28626  -0.45687   0.46049  -0.36636
  20 4   C  1S         -0.09409  -0.01030   0.01224   0.00052   0.00032
  21        2S         -0.19523   0.00039   0.01230   0.00077   0.00055
  22        2PX        -0.09326   0.13078  -0.12667   0.30725   0.41660
  23        2PY        -0.16087   0.22884  -0.21121  -0.17807  -0.23802
  24        2PZ         0.00035  -0.01184   0.01417   0.00058   0.00064
  25        3S          1.50734  -0.17023   0.01821  -0.00012   0.00031
  26        3PX        -0.23153  -0.16681   0.21751  -0.38360  -0.58427
  27        3PY        -0.40559  -0.28551   0.35586   0.21954   0.33336
  28        3PZ         0.00313   0.01272  -0.01817  -0.00065  -0.00090
  29        4S         -5.69612  -0.16419   0.88901   0.01766   0.01221
  30        4PX         1.11375  -0.01371  -0.20149   0.09969  -0.86328
  31        4PY         1.99879  -0.03706  -0.32241  -0.05654   0.50362
  32        4PZ         0.00868   0.00365  -0.00494  -0.00004  -0.00191
  33 5   H  1S         -0.01786  -0.78476   0.68094   0.70775   0.68359
  34        2S          0.28780   1.13909  -1.03938  -1.03196  -1.45888
  35        3S          0.05554  -0.35137   0.40421   0.50901   0.42224
  36 6   H  1S         -0.01794  -0.77682   0.70520  -0.69316  -0.68155
  37        2S          0.31108   1.12423  -1.07017   1.00644   1.44692
  38        3S          0.06244  -0.35377   0.43322  -0.50537  -0.43066
                          31        32        33        34        35
                           V         V         V         V         V
     Eigenvalues --     2.67161   2.81770   2.87794   2.95154   3.14236
   1 1   C  1S          0.00040   0.00201  -0.01333   0.00004  -0.00928
   2        2S          0.00031   0.00592  -0.04472  -0.00017  -0.02893
   3        2PX         0.00460   0.05853  -0.46739  -0.73445   0.45427
   4        2PY         0.00553   0.10103  -0.84331   0.41125   0.79263
   5        2PZ        -0.92419  -0.93386  -0.11140  -0.00175   0.00498
   6        3S         -0.00122  -0.04947   0.39568   0.00339   0.24580
   7        3PX        -0.00357  -0.10186   0.83425   0.88312  -0.44270
   8        3PY        -0.00388  -0.17529   1.47812  -0.48161  -0.77047
   9        3PZ         0.93878   1.14242   0.13961   0.00226  -0.00656
  10        4S          0.01029   0.11392  -0.88591  -0.01115  -0.47947
  11        4PX        -0.00145   0.08209  -0.71587  -0.66791   0.23007
  12        4PY        -0.00238   0.14242  -1.27274   0.35528   0.39334
  13        4PZ        -0.33770  -0.61937  -0.08826  -0.00177   0.00415
  14 2   H  1S          0.00954  -0.01699   0.26873  -0.37759  -0.21754
  15        2S         -0.01094   0.01131  -0.22804   0.38935   0.16432
  16        3S         -0.00219   0.03260  -0.29719   0.26959   0.06362
  17 3   H  1S          0.00968  -0.01635   0.25703   0.37955  -0.21857
  18        2S         -0.01132   0.00989  -0.20728  -0.38701   0.16608
  19        3S         -0.00262   0.03316  -0.29951  -0.28616   0.07139
  20 4   C  1S          0.00041  -0.00198   0.01358   0.00059  -0.00726
  21        2S          0.00039  -0.00618   0.04801   0.00136  -0.02314
  22        2PX        -0.00539   0.05210  -0.41363  -0.80169  -0.50005
  23        2PY        -0.01146   0.09464  -0.73758   0.44465  -0.88493
  24        2PZ        -0.92544   0.93198   0.11507  -0.00041   0.01082
  25        3S         -0.00219   0.05327  -0.43353  -0.01018   0.20102
  26        3PX         0.00561  -0.09490   0.77668   0.95482   0.53207
  27        3PY         0.01165  -0.17021   1.37578  -0.52240   0.95026
  28        3PZ         0.94058  -1.14040  -0.14530   0.00049  -0.01354
  29        4S          0.01235  -0.11593   0.91110   0.02852  -0.38343
  30        4PX        -0.00037   0.08080  -0.71300  -0.69577  -0.32201
  31        4PY        -0.00175   0.14303  -1.24870   0.37520  -0.57628
  32        4PZ        -0.33866   0.61821   0.09298  -0.00041   0.01039
  33 5   H  1S          0.00916   0.02181  -0.29332   0.41532  -0.26062
  34        2S         -0.01123  -0.01749   0.26489  -0.42629   0.20363
  35        3S         -0.00121  -0.03112   0.28597  -0.24677   0.12151
  36 6   H  1S          0.00933   0.02221  -0.29221  -0.42579  -0.25025
  37        2S         -0.01177  -0.01858   0.27090   0.43675   0.19671
  38        3S         -0.00085  -0.02927   0.26830   0.24628   0.11495
                          36        37        38
                           V         V         V
     Eigenvalues --     3.31832  23.35135  23.70789
   1 1   C  1S         -0.00039  -1.41647  -1.44988
   2        2S         -0.00053   1.51060   1.56800
   3        2PX         0.78120  -0.00642   0.01203
   4        2PY        -0.43786  -0.01051   0.02119
   5        2PZ         0.00158  -0.00043  -0.00020
   6        3S         -0.00022  -0.29626  -0.39972
   7        3PX        -1.11664   0.02398  -0.05600
   8        3PY         0.62170   0.03987  -0.09764
   9        3PZ        -0.00232   0.00120   0.00063
  10        4S         -0.01267   0.27400   0.77181
  11        4PX         1.96183  -0.02596   0.13366
  12        4PY        -1.09486  -0.04395   0.23091
  13        4PZ         0.00395  -0.00201  -0.00253
  14 2   H  1S          0.55591   0.01297   0.00671
  15        2S         -0.86666   0.00780  -0.01458
  16        3S         -0.45877  -0.08393  -0.03895
  17 3   H  1S         -0.56714   0.01467   0.00791
  18        2S          0.88271   0.00736  -0.01479
  19        3S          0.48273  -0.08592  -0.03935
  20 4   C  1S          0.00023  -1.44503   1.42128
  21        2S          0.00006   1.54114  -1.53715
  22        2PX        -0.71349   0.00582   0.01265
  23        2PY         0.40924   0.01065   0.02140
  24        2PZ        -0.00133  -0.00044   0.00010
  25        3S          0.00305  -0.30221   0.39201
  26        3PX         1.01568  -0.02198  -0.05708
  27        3PY        -0.59072  -0.03959  -0.09784
  28        3PZ         0.00197   0.00128  -0.00022
  29        4S         -0.00608   0.27891  -0.76422
  30        4PX        -1.79289   0.02305   0.13241
  31        4PY         1.04699   0.04290   0.22849
  32        4PZ        -0.00344  -0.00208   0.00163
  33 5   H  1S          0.49174   0.01333  -0.00485
  34        2S         -0.76788   0.00802   0.01379
  35        3S         -0.43156  -0.08332   0.03736
  36 6   H  1S         -0.48484   0.01170  -0.00348
  37        2S          0.76005   0.00932   0.01306
  38        3S          0.41942  -0.08119   0.03640
     Density Matrix:
                           1         2         3         4         5
   1 1   C  1S          0.65941
   2        2S          0.56152   0.49202
   3        2PX        -0.00058  -0.00078   0.08426
   4        2PY        -0.00137  -0.00192   0.00375   0.08780
   5        2PZ         0.00007   0.00011  -0.00009  -0.00024   0.06448
   6        3S         -0.08893  -0.15384   0.00291   0.00670  -0.00016
   7        3PX         0.00087   0.00133   0.13046   0.00131  -0.00006
   8        3PY         0.00118   0.00181   0.00131   0.13127  -0.00022
   9        3PZ         0.00014   0.00023  -0.00016  -0.00037   0.10367
  10        4S         -0.07940  -0.11432  -0.01551  -0.02781   0.00048
  11        4PX         0.00023   0.00154   0.07038  -0.00461  -0.00046
  12        4PY         0.00057   0.00295  -0.00467   0.06555  -0.00076
  13        4PZ        -0.00008  -0.00019  -0.00067  -0.00109   0.09575
  14 2   H  1S         -0.02048  -0.03262   0.03458  -0.06306  -0.00087
  15        2S         -0.02280  -0.03646   0.04903  -0.08788  -0.00060
  16        3S          0.00054  -0.00075   0.02083  -0.03312   0.00002
  17 3   H  1S         -0.02096  -0.03336  -0.07267  -0.00220  -0.00107
  18        2S         -0.02310  -0.03690  -0.10059  -0.00217  -0.00086
  19        3S          0.00058  -0.00071  -0.03853   0.00131  -0.00007
  20 4   C  1S          0.00612   0.00986  -0.01089  -0.01883  -0.00032
  21        2S          0.00983   0.01536  -0.01742  -0.03013  -0.00052
  22        2PX         0.01042   0.01665  -0.01235  -0.03221   0.00036
  23        2PY         0.01818   0.02907  -0.03230  -0.04977   0.00079
  24        2PZ        -0.00039  -0.00064  -0.00032  -0.00039   0.06440
  25        3S         -0.02647  -0.04018   0.04882   0.08452   0.00158
  26        3PX         0.01607   0.02490  -0.01810  -0.04585   0.00046
  27        3PY         0.02800   0.04341  -0.04586  -0.07118   0.00107
  28        3PZ        -0.00066  -0.00107  -0.00057  -0.00071   0.10310
  29        4S          0.00542   0.00403   0.02067   0.03612   0.00194
  30        4PX         0.00309   0.00638  -0.01302  -0.02093   0.00051
  31        4PY         0.00524   0.01091  -0.02097  -0.03730   0.00118
  32        4PZ        -0.00055  -0.00089  -0.00088  -0.00125   0.09583
  33 5   H  1S          0.00421   0.00692  -0.00174  -0.01230  -0.00037
  34        2S          0.00635   0.01055   0.00346  -0.02489   0.00001
  35        3S          0.00328   0.00479   0.00424  -0.01750   0.00009
  36 6   H  1S          0.00415   0.00682  -0.00981  -0.00767  -0.00039
  37        2S          0.00624   0.01039  -0.02332  -0.00942  -0.00004
  38        3S          0.00322   0.00473  -0.01729  -0.00511   0.00005
                           6         7         8         9        10
   6        3S          0.45247
   7        3PX        -0.00172   0.20233
   8        3PY        -0.00137  -0.00456   0.19679
   9        3PZ        -0.00047  -0.00011  -0.00032   0.16666
  10        4S          0.27330  -0.02634  -0.04793   0.00063   0.18241
  11        4PX        -0.00671   0.10952  -0.01041  -0.00074  -0.01510
  12        4PY        -0.01225  -0.01050   0.09874  -0.00121  -0.02877
  13        4PZ         0.00088  -0.00089  -0.00142   0.15394   0.00171
  14 2   H  1S          0.08719   0.05578  -0.09854  -0.00145   0.06919
  15        2S          0.09756   0.07946  -0.13685  -0.00103   0.08160
  16        3S          0.00614   0.03409  -0.05096   0.00003   0.01124
  17 3   H  1S          0.08924  -0.11387  -0.00178  -0.00175   0.06910
  18        2S          0.09884  -0.15745  -0.00045  -0.00142   0.08019
  19        3S          0.00619  -0.06005   0.00391  -0.00011   0.01023
  20 4   C  1S         -0.02671  -0.01696  -0.02935  -0.00055   0.00522
  21        2S         -0.04044  -0.02635  -0.04562  -0.00089   0.00393
  22        2PX        -0.04658  -0.01756  -0.04557   0.00062  -0.01770
  23        2PY        -0.08134  -0.04574  -0.07083   0.00134  -0.03092
  24        2PZ         0.00189  -0.00045  -0.00050   0.10353   0.00197
  25        3S          0.10299   0.07149   0.12394   0.00266   0.00099
  26        3PX        -0.06734  -0.02589  -0.06466   0.00080  -0.02637
  27        3PY        -0.11746  -0.06476  -0.10123   0.00182  -0.04597
  28        3PZ         0.00313  -0.00079  -0.00092   0.16575   0.00326
  29        4S          0.00172   0.03125   0.05478   0.00323  -0.03256
  30        4PX        -0.02259  -0.01947  -0.02929   0.00085  -0.00659
  31        4PY        -0.03885  -0.02942  -0.05380   0.00195  -0.01079
  32        4PZ         0.00261  -0.00124  -0.00170   0.15405   0.00299
  33 5   H  1S         -0.02058  -0.00066  -0.01768  -0.00054  -0.01499
  34        2S         -0.03153   0.00860  -0.03666   0.00009  -0.01954
  35        3S         -0.01232   0.00815  -0.02634   0.00016  -0.00361
  36 6   H  1S         -0.02024  -0.01485  -0.00922  -0.00057  -0.01504
  37        2S         -0.03102  -0.03581  -0.01048   0.00002  -0.01998
  38        3S         -0.01214  -0.02675  -0.00598   0.00010  -0.00399
                          11        12        13        14        15
  11        4PX         0.06036
  12        4PY        -0.00929   0.05109
  13        4PZ        -0.00110  -0.00171   0.14220
  14 2   H  1S          0.03356  -0.05424  -0.00074   0.08109
  15        2S          0.04859  -0.07520  -0.00020   0.10951   0.14999
  16        3S          0.02127  -0.02788   0.00021   0.03686   0.05276
  17 3   H  1S         -0.06321   0.00177  -0.00090  -0.01309  -0.02481
  18        2S         -0.08781   0.00444  -0.00039  -0.02473  -0.04319
  19        3S         -0.03380   0.00464   0.00014  -0.01816  -0.02763
  20 4   C  1S         -0.00314  -0.00570  -0.00050   0.00423   0.00667
  21        2S         -0.00650  -0.01169  -0.00080   0.00698   0.01114
  22        2PX        -0.01316  -0.01992   0.00084   0.00187  -0.00273
  23        2PY        -0.02005  -0.03667   0.00173   0.01150   0.02427
  24        2PZ        -0.00063  -0.00084   0.09563  -0.00045  -0.00016
  25        3S          0.02307   0.04116   0.00235  -0.02098  -0.03349
  26        3PX        -0.02025  -0.02811   0.00113   0.00099  -0.00738
  27        3PY        -0.02826  -0.05329   0.00240   0.01703   0.03624
  28        3PZ        -0.00105  -0.00140   0.15311  -0.00067  -0.00017
  29        4S          0.00786   0.01497   0.00298  -0.01758  -0.02404
  30        4PX        -0.01481  -0.01229   0.00103  -0.00171  -0.00859
  31        4PY        -0.01239  -0.02938   0.00223   0.01535   0.02726
  32        4PZ        -0.00125  -0.00179   0.14232  -0.00038   0.00020
  33 5   H  1S          0.00202  -0.01574  -0.00027   0.01125   0.02347
  34        2S          0.00927  -0.02745   0.00040   0.02383   0.04460
  35        3S          0.00762  -0.01582   0.00028   0.01667   0.02795
  36 6   H  1S         -0.01459  -0.00572  -0.00029  -0.00912  -0.01832
  37        2S         -0.02831  -0.00507   0.00035  -0.01892  -0.03458
  38        3S         -0.01736  -0.00107   0.00024  -0.01027  -0.01798
                          16        17        18        19        20
  16        3S          0.02121
  17 3   H  1S         -0.01834   0.08227
  18        2S         -0.02775   0.10983   0.14874
  19        3S         -0.01311   0.03630   0.05146   0.02044
  20 4   C  1S          0.00368   0.00430   0.00674   0.00370   0.65947
  21        2S          0.00542   0.00711   0.01124   0.00543   0.56157
  22        2PX        -0.00356   0.00902   0.02223   0.01672   0.00122
  23        2PY         0.01764   0.00745   0.00968   0.00558   0.00183
  24        2PZ         0.00001  -0.00044  -0.00009   0.00006   0.00006
  25        3S         -0.01402  -0.02131  -0.03367  -0.01398  -0.08922
  26        3PX        -0.00716   0.01433   0.03500   0.02614  -0.00045
  27        3PY         0.02653   0.00950   0.01167   0.00692  -0.00107
  28        3PZ         0.00004  -0.00064  -0.00007   0.00011   0.00014
  29        4S         -0.00575  -0.01735  -0.02328  -0.00527  -0.08009
  30        4PX        -0.00715   0.01408   0.02769   0.01715  -0.00023
  31        4PY         0.01596   0.00645   0.00642   0.00181  -0.00021
  32        4PZ         0.00020  -0.00035   0.00027   0.00025  -0.00004
  33 5   H  1S          0.01632  -0.00911  -0.01828  -0.00956  -0.02016
  34        2S          0.02760  -0.01875  -0.03418  -0.01716  -0.02220
  35        3S          0.01474  -0.01015  -0.01768  -0.00908   0.00059
  36 6   H  1S         -0.00965   0.01125   0.02330   0.01599  -0.01982
  37        2S         -0.01750   0.02388   0.04441   0.02719  -0.02214
  38        3S         -0.00931   0.01672   0.02787   0.01456   0.00048
                          21        22        23        24        25
  21        2S          0.49207
  22        2PX         0.00176   0.08257
  23        2PY         0.00261   0.00377   0.08782
  24        2PZ         0.00009   0.00012   0.00014   0.06434
  25        3S         -0.15420  -0.00565  -0.00852  -0.00011   0.45349
  26        3PX        -0.00068   0.12850   0.00188   0.00008  -0.00038
  27        3PY        -0.00163   0.00196   0.13149   0.00004   0.00077
  28        3PZ         0.00024   0.00018   0.00023   0.10300  -0.00046
  29        4S         -0.11566   0.01414   0.02369   0.00049   0.27789
  30        4PX        -0.00153   0.07303  -0.00512   0.00037   0.00645
  31        4PY        -0.00229  -0.00506   0.06691   0.00072   0.01013
  32        4PZ        -0.00012   0.00062   0.00116   0.09572   0.00066
  33 5   H  1S         -0.03211  -0.03347   0.06366  -0.00111   0.08587
  34        2S         -0.03548  -0.04966   0.08850  -0.00092   0.09493
  35        3S         -0.00062  -0.02254   0.03345  -0.00012   0.00570
  36 6   H  1S         -0.03160   0.07102   0.00278  -0.00092   0.08449
  37        2S         -0.03540   0.10114   0.00104  -0.00065   0.09465
  38        3S         -0.00077   0.04052  -0.00299  -0.00002   0.00596
                          26        27        28        29        30
  26        3PX         0.20032
  27        3PY        -0.00270   0.19745
  28        3PZ         0.00011   0.00007   0.16491
  29        4S          0.02601   0.04323   0.00059   0.18641
  30        4PX         0.11431  -0.01070   0.00058   0.01615   0.06633
  31        4PY        -0.01071   0.10101   0.00115   0.02540  -0.01039
  32        4PZ         0.00079   0.00149   0.15326   0.00158   0.00090
  33 5   H  1S         -0.05360   0.09966  -0.00183   0.06715  -0.03443
  34        2S         -0.07998   0.13805  -0.00153   0.07743  -0.05188
  35        3S         -0.03676   0.05150  -0.00019   0.00931  -0.02406
  36 6   H  1S          0.11229   0.00354  -0.00154   0.06759   0.06566
  37        2S          0.15972  -0.00018  -0.00112   0.07933   0.09384
  38        3S          0.06367  -0.00620  -0.00004   0.01043   0.03773
                          31        32        33        34        35
  31        4PY         0.05322
  32        4PZ         0.00182   0.14244
  33 5   H  1S          0.05560  -0.00096   0.08094
  34        2S          0.07715  -0.00047   0.11006   0.15208
  35        3S          0.02891   0.00009   0.03799   0.05506   0.02275
  36 6   H  1S         -0.00188  -0.00080  -0.01245  -0.02593  -0.01984
  37        2S         -0.00618  -0.00025  -0.02608  -0.04814  -0.03149
  38        3S         -0.00632   0.00017  -0.02012  -0.03168  -0.01561
                          36        37        38
  36 6   H  1S          0.07983
  37        2S          0.10959   0.15281
  38        3S          0.03827   0.05587   0.02323
    Full Mulliken population analysis:
                           1         2         3         4         5
   1 1   C  1S          0.65941
   2        2S          0.49326   0.49202
   3        2PX         0.00000   0.00000   0.08426
   4        2PY         0.00000   0.00000   0.00000   0.08780
   5        2PZ         0.00000   0.00000   0.00000   0.00000   0.06448
   6        3S         -0.02927  -0.06443   0.00000   0.00000   0.00000
   7        3PX         0.00000   0.00000   0.08208   0.00000   0.00000
   8        3PY         0.00000   0.00000   0.00000   0.08258   0.00000
   9        3PZ         0.00000   0.00000   0.00000   0.00000   0.06522
  10        4S         -0.01221  -0.02140   0.00000   0.00000   0.00000
  11        4PX         0.00000   0.00000   0.01550   0.00000   0.00000
  12        4PY         0.00000   0.00000   0.00000   0.01444   0.00000
  13        4PZ         0.00000   0.00000   0.00000   0.00000   0.02109
  14 2   H  1S         -0.00023  -0.00032   0.00177   0.00559   0.00000
  15        2S         -0.00165  -0.00317   0.00425   0.01322   0.00000
  16        3S          0.00004  -0.00007   0.00069   0.00192  -0.00000
  17 3   H  1S         -0.00025  -0.00036   0.00782   0.00000   0.00000
  18        2S         -0.00172  -0.00330   0.01771   0.00000   0.00000
  19        3S          0.00005  -0.00007   0.00257  -0.00000   0.00000
  20 4   C  1S          0.00000   0.00000  -0.00002  -0.00006   0.00000
  21        2S          0.00000  -0.00000  -0.00002  -0.00006   0.00000
  22        2PX        -0.00002  -0.00002   0.00011   0.00087   0.00000
  23        2PY        -0.00006  -0.00005   0.00087   0.00200   0.00000
  24        2PZ        -0.00000  -0.00000  -0.00000  -0.00000   0.00042
  25        3S         -0.00060  -0.00101   0.00257   0.00769  -0.00000
  26        3PX        -0.00055  -0.00101   0.00019   0.00557   0.00000
  27        3PY        -0.00165  -0.00304   0.00558   0.01072   0.00000
  28        3PZ        -0.00000  -0.00000  -0.00000  -0.00000   0.00618
  29        4S          0.00034   0.00031   0.00094   0.00284  -0.00000
  30        4PX        -0.00018  -0.00045  -0.00071   0.00145   0.00000
  31        4PY        -0.00053  -0.00134   0.00145   0.00095   0.00000
  32        4PZ        -0.00000  -0.00000  -0.00000  -0.00000   0.00905
  33 5   H  1S          0.00000   0.00000  -0.00000  -0.00000   0.00000
  34        2S          0.00001   0.00002   0.00000  -0.00032  -0.00000
  35        3S          0.00008   0.00013   0.00001  -0.00070  -0.00000
  36 6   H  1S          0.00000   0.00000  -0.00000  -0.00000   0.00000
  37        2S          0.00001   0.00002  -0.00024  -0.00007   0.00000
  38        3S          0.00007   0.00013  -0.00057  -0.00012  -0.00000
                           6         7         8         9        10
   6        3S          0.45247
   7        3PX         0.00000   0.20233
   8        3PY         0.00000   0.00000   0.19679
   9        3PZ         0.00000   0.00000   0.00000   0.16666
  10        4S          0.21173   0.00000   0.00000   0.00000   0.18241
  11        4PX         0.00000   0.07157   0.00000   0.00000   0.00000
  12        4PY         0.00000   0.00000   0.06452   0.00000   0.00000
  13        4PZ         0.00000   0.00000   0.00000   0.10059   0.00000
  14 2   H  1S          0.01591   0.01057   0.03239   0.00001   0.01826
  15        2S          0.04091   0.01935   0.05782   0.00001   0.04695
  16        3S          0.00283   0.00396   0.01028  -0.00000   0.00847
  17 3   H  1S          0.01681   0.04412   0.00001   0.00002   0.01845
  18        2S          0.04220   0.07732   0.00000   0.00002   0.04656
  19        3S          0.00287   0.01394  -0.00001   0.00000   0.00776
  20 4   C  1S         -0.00061  -0.00058  -0.00173   0.00000   0.00033
  21        2S         -0.00102  -0.00106  -0.00319   0.00000   0.00030
  22        2PX         0.00245   0.00018   0.00554   0.00000   0.00080
  23        2PY         0.00740   0.00556   0.01067   0.00000   0.00243
  24        2PZ         0.00000  -0.00000  -0.00000   0.00620   0.00000
  25        3S          0.02209   0.01346   0.04040  -0.00000   0.00038
  26        3PX         0.01267  -0.00128   0.01849   0.00000   0.00407
  27        3PY         0.03829   0.01852   0.02843   0.00000   0.01228
  28        3PZ         0.00000  -0.00000  -0.00000   0.03555   0.00000
  29        4S          0.00065   0.00482   0.01464  -0.00000  -0.02048
  30        4PX         0.00635  -0.00402   0.00579   0.00000   0.00199
  31        4PY         0.01892   0.00582   0.00119   0.00000   0.00566
  32        4PZ         0.00000  -0.00000  -0.00000   0.04937   0.00000
  33 5   H  1S         -0.00006  -0.00000  -0.00019   0.00000  -0.00081
  34        2S         -0.00124   0.00006  -0.00326  -0.00000  -0.00330
  35        3S         -0.00202   0.00011  -0.00426  -0.00000  -0.00131
  36 6   H  1S         -0.00005  -0.00013  -0.00005   0.00000  -0.00079
  37        2S         -0.00117  -0.00255  -0.00051  -0.00000  -0.00331
  38        3S         -0.00196  -0.00354  -0.00054  -0.00000  -0.00143
                          11        12        13        14        15
  11        4PX         0.06036
  12        4PY         0.00000   0.05109
  13        4PZ         0.00000   0.00000   0.14220
  14 2   H  1S          0.00627   0.01759   0.00001   0.08109
  15        2S          0.01529   0.04107   0.00000   0.07736   0.14999
  16        3S          0.00525   0.01194  -0.00000   0.01377   0.04162
  17 3   H  1S          0.02368  -0.00001   0.00001  -0.00001  -0.00066
  18        2S          0.05525  -0.00003   0.00001  -0.00066  -0.00544
  19        3S          0.01662  -0.00002  -0.00000  -0.00203  -0.00807
  20 4   C  1S         -0.00018  -0.00058   0.00000   0.00000   0.00002
  21        2S         -0.00046  -0.00144   0.00000   0.00000   0.00003
  22        2PX        -0.00072   0.00138   0.00000  -0.00000   0.00000
  23        2PY         0.00139   0.00094   0.00000  -0.00000  -0.00036
  24        2PZ        -0.00000  -0.00000   0.00903   0.00000   0.00000
  25        3S          0.00649   0.02004  -0.00000  -0.00007  -0.00146
  26        3PX        -0.00418   0.00556   0.00000  -0.00000   0.00004
  27        3PY         0.00559   0.00118   0.00000  -0.00022  -0.00353
  28        3PZ        -0.00000  -0.00000   0.04906   0.00000   0.00000
  29        4S          0.00238   0.00785  -0.00000  -0.00102  -0.00430
  30        4PX        -0.00716   0.00310   0.00000   0.00002   0.00018
  31        4PY         0.00313  -0.00563   0.00000  -0.00243  -0.01024
  32        4PZ        -0.00000  -0.00000   0.08952   0.00000  -0.00000
  33 5   H  1S          0.00002  -0.00235   0.00000   0.00000   0.00000
  34        2S          0.00027  -0.00990  -0.00000   0.00000   0.00016
  35        3S          0.00028  -0.00732  -0.00000   0.00023   0.00147
  36 6   H  1S         -0.00177  -0.00048   0.00000  -0.00000  -0.00004
  37        2S         -0.00833  -0.00103  -0.00000  -0.00004  -0.00091
  38        3S         -0.00660  -0.00028  -0.00000  -0.00046  -0.00248
                          16        17        18        19        20
  16        3S          0.02121
  17 3   H  1S         -0.00205   0.08227
  18        2S         -0.00811   0.07758   0.14874
  19        3S         -0.00682   0.01356   0.04060   0.02044
  20 4   C  1S          0.00009   0.00000   0.00002   0.00009   0.65947
  21        2S          0.00016   0.00000   0.00003   0.00016   0.49331
  22        2PX         0.00001  -0.00000  -0.00028  -0.00059   0.00000
  23        2PY        -0.00074  -0.00000  -0.00008  -0.00013   0.00000
  24        2PZ        -0.00000   0.00000   0.00000  -0.00000   0.00000
  25        3S         -0.00241  -0.00007  -0.00149  -0.00242  -0.02937
  26        3PX         0.00007  -0.00016  -0.00288  -0.00365   0.00000
  27        3PY        -0.00443  -0.00007  -0.00064  -0.00064   0.00000
  28        3PZ        -0.00000   0.00000   0.00000  -0.00000   0.00000
  29        4S         -0.00215  -0.00102  -0.00419  -0.00198  -0.01231
  30        4PX         0.00019  -0.00187  -0.00872  -0.00675   0.00000
  31        4PY        -0.00752  -0.00057  -0.00134  -0.00047   0.00000
  32        4PZ        -0.00000   0.00000  -0.00000  -0.00000   0.00000
  33 5   H  1S          0.00023  -0.00000  -0.00004  -0.00043  -0.00022
  34        2S          0.00145  -0.00004  -0.00092  -0.00239  -0.00160
  35        3S          0.00248  -0.00046  -0.00246  -0.00290   0.00005
  36 6   H  1S         -0.00043   0.00000   0.00000   0.00022  -0.00020
  37        2S         -0.00241   0.00000   0.00015   0.00141  -0.00155
  38        3S         -0.00295   0.00023   0.00145   0.00244   0.00004
                          21        22        23        24        25
  21        2S          0.49207
  22        2PX         0.00000   0.08257
  23        2PY         0.00000   0.00000   0.08782
  24        2PZ         0.00000   0.00000   0.00000   0.06434
  25        3S         -0.06458   0.00000   0.00000   0.00000   0.45349
  26        3PX         0.00000   0.08084   0.00000   0.00000   0.00000
  27        3PY         0.00000   0.00000   0.08273   0.00000   0.00000
  28        3PZ         0.00000   0.00000   0.00000   0.06480   0.00000
  29        4S         -0.02165   0.00000   0.00000   0.00000   0.21528
  30        4PX         0.00000   0.01608   0.00000   0.00000   0.00000
  31        4PY         0.00000   0.00000   0.01474   0.00000   0.00000
  32        4PZ         0.00000   0.00000   0.00000   0.02108   0.00000
  33 5   H  1S         -0.00031   0.00151   0.00571   0.00000   0.01549
  34        2S         -0.00305   0.00385   0.01366   0.00000   0.03956
  35        3S         -0.00006   0.00068   0.00200   0.00000   0.00261
  36 6   H  1S         -0.00028   0.00678   0.00002   0.00000   0.01479
  37        2S         -0.00296   0.01721   0.00001   0.00000   0.03878
  38        3S         -0.00007   0.00270  -0.00001   0.00000   0.00271
                          26        27        28        29        30
  26        3PX         0.20032
  27        3PY         0.00000   0.19745
  28        3PZ         0.00000   0.00000   0.16491
  29        4S          0.00000   0.00000   0.00000   0.18641
  30        4PX         0.07470   0.00000   0.00000   0.00000   0.06633
  31        4PY         0.00000   0.06601   0.00000   0.00000   0.00000
  32        4PZ         0.00000   0.00000   0.10015   0.00000   0.00000
  33 5   H  1S          0.00906   0.03352   0.00002   0.01764   0.00578
  34        2S          0.01748   0.05999   0.00002   0.04440   0.01470
  35        3S          0.00385   0.01072   0.00000   0.00701   0.00535
  36 6   H  1S          0.04134   0.00008   0.00001   0.01756   0.02448
  37        2S          0.07700  -0.00001   0.00001   0.04510   0.05913
  38        3S          0.01485  -0.00009   0.00000   0.00781   0.01873
                          31        32        33        34        35
  31        4PY         0.05322
  32        4PZ         0.00000   0.14244
  33 5   H  1S          0.01858   0.00001   0.08094
  34        2S          0.04346   0.00001   0.07774   0.15208
  35        3S          0.01279  -0.00000   0.01420   0.04344   0.02275
  36 6   H  1S         -0.00004   0.00001  -0.00001  -0.00078  -0.00232
  37        2S         -0.00024   0.00000  -0.00079  -0.00656  -0.00956
  38        3S         -0.00019  -0.00000  -0.00236  -0.00962  -0.00833
                          36        37        38
  36 6   H  1S          0.07983
  37        2S          0.07741   0.15281
  38        3S          0.01430   0.04408   0.02323
     Gross orbital populations:
                           1
   1 1   C  1S          1.10435
   2        2S          0.88586
   3        2PX         0.22680
   4        2PY         0.23632
   5        2PZ         0.16645
   6        3S          0.79274
   7        3PX         0.56060
   8        3PY         0.55579
   9        3PZ         0.42365
  10        4S          0.50380
  11        4PX         0.25994
  12        4PY         0.21163
  13        4PZ         0.41151
  14 2   H  1S          0.27333
  15        2S          0.46743
  16        3S          0.08657
  17 3   H  1S          0.27698
  18        2S          0.46537
  19        3S          0.08335
  20 4   C  1S          1.10440
  21        2S          0.88584
  22        2PX         0.22196
  23        2PY         0.23651
  24        2PZ         0.16588
  25        3S          0.79235
  26        3PX         0.55240
  27        3PY         0.55675
  28        3PZ         0.42072
  29        4S          0.50687
  30        4PX         0.27451
  31        4PY         0.21535
  32        4PZ         0.41163
  33 5   H  1S          0.27291
  34        2S          0.46940
  35        3S          0.08853
  36 6   H  1S          0.26945
  37        2S          0.47090
  38        3S          0.09117
          Condensed to atoms (all electrons):
               1          2          3          4          5          6
     1  C    5.032816   0.387165   0.388037   0.602734  -0.036027  -0.035291
     2  H    0.387165   0.517795  -0.033833  -0.040086   0.006015  -0.009728
     3  H    0.388037  -0.033833   0.514942  -0.039702  -0.009645   0.005908
     4  C    0.602734  -0.040086  -0.039702   5.054464   0.384276   0.383491
     5  H   -0.036027   0.006015  -0.009645   0.384276   0.526534  -0.040321
     6  H   -0.035291  -0.009728   0.005908   0.383491  -0.040321   0.527461
 Mulliken charges:
               1
     1  C   -0.339435
     2  H    0.172672
     3  H    0.174292
     4  C   -0.345178
     5  H    0.169168
     6  H    0.168480
 Sum of Mulliken charges =   0.00000
 Mulliken charges with hydrogens summed into heavy atoms:
               1
     1  C    0.007530
     4  C   -0.007530
 Electronic spatial extent (au):  <R**2>=             83.6809
 Charge=              0.0000 electrons
 Dipole moment (field-independent basis, Debye):
    X=             -0.0012    Y=              0.0189    Z=             -0.0844  Tot=              0.0865
 Quadrupole moment (field-independent basis, Debye-Ang):
   XX=            -12.2088   YY=            -12.2133   ZZ=            -15.6664
   XY=              0.0215   XZ=              0.0011   YZ=             -0.0066
 Traceless Quadrupole moment (field-independent basis, Debye-Ang):
   XX=              1.1540   YY=              1.1496   ZZ=             -2.3036
   XY=              0.0215   XZ=              0.0011   YZ=             -0.0066
 Octapole moment (field-independent basis, Debye-Ang**2):
  XXX=             -0.3104  YYY=             -0.0453  ZZZ=             -0.0570  XYY=              0.1598
  XXY=             -0.0241  XXZ=             -0.1151  XZZ=             -0.0874  YZZ=             -0.0715
  YYZ=             -0.1507  XYZ=             -0.0317
 Hexadecapole moment (field-independent basis, Debye-Ang**3):
 XXXX=            -34.3102 YYYY=            -55.1381 ZZZZ=            -17.7908 XXXY=             -7.2204
 XXXZ=              0.0168 YYYX=            -10.6854 YYYZ=              0.0250 ZZZX=              0.0205
 ZZZY=              0.0483 XXYY=            -16.1876 XXZZ=             -9.9311 YYZZ=            -13.6329
 XXYZ=              0.0117 YYXZ=              0.0034 ZZXY=             -3.2010
 N-N= 3.308474080368D+01 E-N=-2.478817099741D+02  KE= 7.815352550785D+01
 Orbital energies and kinetic energies (alpha):
                                 1                 2
   1         O               -10.290149         15.978101
   2         O               -10.287986         15.980090
   3         O                -0.864228          1.541864
   4         O                -0.671876          1.269886
   5         O                -0.558931          0.941456
   6         O                -0.510062          1.283799
   7         O                -0.435815          1.042160
   8         O                -0.357355          1.039406
   9         V                 0.080434          1.181298
  10         V                 0.140964          0.589342
  11         V                 0.164330          0.596854
  12         V                 0.169915          0.680205
  13         V                 0.240902          0.583666
  14         V                 0.375406          0.851463
  15         V                 0.392535          0.932683
  16         V                 0.398594          0.778452
  17         V                 0.463376          1.191172
  18         V                 0.488098          1.422695
  19         V                 0.493449          1.300161
  20         V                 0.591298          1.654254
  21         V                 0.665138          1.569164
  22         V                 0.690580          2.148696
  23         V                 0.772720          2.492470
  24         V                 0.775911          2.244205
  25         V                 0.843046          1.085882
  26         V                 0.954348          3.439195
  27         V                 2.231794          3.924447
  28         V                 2.289518          4.031767
  29         V                 2.333052          4.301451
  30         V                 2.406778          4.516978
  31         V                 2.671606          6.301851
  32         V                 2.817695          6.306022
  33         V                 2.877941          6.134697
  34         V                 2.951541          6.227613
  35         V                 3.142355          6.821823
  36         V                 3.318317          6.401490
  37         V                23.351346         60.073525
  38         V                23.707885         60.205478
 Total kinetic energy from orbitals= 7.815352550785D+01
 Calling FoFJK, ICntrl=      2127 FMM=F ISym2X=0 I1Cent= 0 IOpClX= 0 NMat=1 NMatS=1 NMatT=0.
 -------------------------------------------------------------------
 Center     Atomic                   Forces (Hartrees/Bohr)
 Number     Number              X              Y              Z
 -------------------------------------------------------------------
      1        6           0.010696132    0.003802624   -0.003415149
      2        1          -0.009181819    0.007300367    0.001725991
      3        1           0.003594369   -0.003815749    0.001601597
      4        6           0.011324644    0.010787324   -0.003776290
      5        1           0.002062212   -0.012671504    0.001877520
      6        1          -0.018495538   -0.005403061    0.001986332
 -------------------------------------------------------------------
 Cartesian Forces:  Max     0.018495538 RMS     0.007865529

 GradGradGradGradGradGradGradGradGradGradGradGradGradGradGradGradGradGrad
 Berny optimization.
 Search for a local minimum.
 Step number   1 out of a maximum of    2
 All quantities printed in internal units (Hartrees-Bohrs-Radians)
 Second derivative matrix not updated -- first step.
 The second derivative matrix:
                          X1        Y1        Z1        X2        Y2
           X1           0.75712
           Y1           0.10286   0.86236
           Z1           0.00510   0.00691   0.17277
           X2          -0.16231   0.09473   0.00161   0.13977
           Y2           0.10095  -0.28281  -0.00602  -0.11394   0.27178
           Z2           0.00262  -0.00764  -0.05535  -0.00235   0.00624
           X3          -0.35069  -0.00238  -0.00701  -0.00035  -0.00020
           Y3          -0.00846  -0.10981  -0.00163   0.03244   0.01866
           Z3          -0.00892  -0.00157  -0.05651   0.00124   0.00046
           X4          -0.26926  -0.18069  -0.00059   0.02290   0.01319
           Y4          -0.18114  -0.47794  -0.00084  -0.01323  -0.00762
           Z4           0.00118   0.00226  -0.09542  -0.00049  -0.00068
           X5           0.02353  -0.01358   0.00056  -0.00001   0.00000
           Y5           0.01182  -0.00682   0.00077   0.00000  -0.00000
           Z5          -0.00046   0.00030   0.01753   0.00021  -0.00011
           X6           0.00162  -0.00093   0.00034  -0.00000   0.00000
           Y6          -0.02602   0.01503   0.00080   0.00000  -0.00000
           Z6           0.00048  -0.00025   0.01699  -0.00021   0.00011
                          Z2        X3        Y3        Z3        X4
           Z2           0.02876
           X3          -0.00026   0.35078
           Y3           0.00137   0.00273   0.07573
           Z3           0.01052   0.00766   0.00110   0.02962
           X4           0.00045   0.00028  -0.02672  -0.00043   0.71337
           Y4          -0.00023  -0.00016   0.01542   0.00027   0.12267
           Z4           0.01600  -0.00038  -0.00085   0.01644  -0.00427
           X5          -0.00023  -0.00001   0.00000   0.00023  -0.14740
           Y5           0.00015   0.00000  -0.00000  -0.00015   0.09329
           Z5           0.00938   0.00023  -0.00015  -0.00953  -0.00286
           X6          -0.00022  -0.00001   0.00000   0.00022  -0.31989
           Y6           0.00011   0.00000  -0.00000  -0.00011  -0.02174
           Z6          -0.00932  -0.00023   0.00015   0.00947   0.00770
                          Y4        Z4        X5        Y5        Z5
           Y4           0.86449
           Z4          -0.00917   0.17724
           X5           0.08522  -0.00193   0.12591
           Y5          -0.29000   0.00673  -0.10410   0.28053
           Z5           0.00827  -0.05751   0.00257  -0.00718   0.02990
           X6          -0.01336   0.00589  -0.00203  -0.00101   0.00030
           Y6          -0.10437   0.00171   0.03246   0.01629  -0.00114
           Z6           0.00169  -0.05676  -0.00121  -0.00032   0.01023
                          X6        Y6        Z6
           X6           0.32031
           Y6           0.01530   0.07305
           Z6          -0.00653  -0.00138   0.02939
 ITU=  0
     Eigenvalues ---    0.03773   0.04377   0.09308   0.10032   0.13538
     Eigenvalues ---    0.17399   0.26667   0.28899   0.52790   0.69805
     Eigenvalues ---    0.97146   1.57435
 Angle between quadratic step and forces=  34.23 degrees.
 Linear search not attempted -- first point.
 B after Tr=     0.006003    0.006316   -0.008619
         Rot=    1.000000   -0.000024    0.000012   -0.000110 Ang=  -0.01 deg.
 Variable       Old X    -DE/DX   Delta X   Delta X   Delta X     New X
                                 (Linear)    (Quad)   (Total)
    X1       -0.63355   0.01070   0.00000   0.01816   0.02440  -0.60915
    Y1       -1.09622   0.00380   0.00000   0.01855   0.02473  -1.07149
    Z1        0.01152  -0.00342   0.00000  -0.01814  -0.02683  -0.01531
    X2        0.40347  -0.00918   0.00000  -0.03266  -0.02603   0.37744
    Y2       -2.89571   0.00730   0.00000   0.02570   0.03210  -2.86361
    Z2       -0.03274   0.00173   0.00000   0.02217   0.01342  -0.01932
    X3       -2.68801   0.00359   0.00000   0.02778   0.03403  -2.65397
    Y3       -1.11680  -0.00382   0.00000  -0.01529  -0.00956  -1.12636
    Z3       -0.03752   0.00160   0.00000   0.02199   0.01325  -0.02427
    X4        0.62830   0.01132   0.00000   0.00668   0.01244   0.64073
    Y4        1.08921   0.01079   0.00000   0.00761   0.01406   1.10327
    Z4        0.00769  -0.00378   0.00000  -0.01753  -0.02608  -0.01839
    X5       -0.30817   0.00206   0.00000  -0.00739  -0.00203  -0.31020
    Y5        2.95150  -0.01267   0.00000  -0.03969  -0.03344   2.91806
    Z5       -0.04434   0.00188   0.00000   0.02174   0.01326  -0.03108
    X6        2.72963  -0.01850   0.00000  -0.04855  -0.04280   2.68683
    Y6        1.21891  -0.00540   0.00000  -0.03480  -0.02789   1.19102
    Z6       -0.03993   0.00199   0.00000   0.02148   0.01298  -0.02695
         Item               Value     Threshold  Converged?
 Maximum Force            0.018496     0.000450     NO 
 RMS     Force            0.007866     0.000300     NO 
 Maximum Displacement     0.042803     0.001800     NO 
 RMS     Displacement     0.023978     0.001200     NO 
 Predicted change in Energy=-1.463395D-03
 GradGradGradGradGradGradGradGradGradGradGradGradGradGradGradGradGradGrad

 Unable to Open any file for archive entry.
 1\1\GINC-BHD0002\Force\RwB97XD\6-311G\C2H4\BWEIGHT\11-Jan-2023\0\\# WB
 97XD/6-311G SCF=XQC FORCE nosym pop=full guess=read\\MD Step 999\\0,1\
 C,-0.33525985,-0.58009644,0.00609371\H,0.21350467,-1.53234434,-0.01732
 457\H,-1.42243104,-0.59098571,-0.01985216\C,0.33248038,0.57638603,0.00
 407086\H,-0.16307548,1.56186781,-0.02346263\H,1.44445865,0.64501964,-0
 .02113173\\Version=ES64L-G16RevC.01\HF=-78.5559015\RMSD=6.705e-09\RMSF
 =7.866e-03\Dipole=-0.0004762,0.0074456,-0.0332158\Quadrupole=0.8579842
 ,0.8546633,-1.7126475,0.0159662,0.0008204,-0.0048969\PG=C01 [X(C2H4)]\
 \@
 The archive entry for this job was punched.


 DO YOU KNOW THAT THE LETTERS IN "EPISCOPAL", WHEN
 REARRANGED, SPELL "PEPSI COLA"?
 Job cpu time:       0 days  0 hours  1 minutes  4.7 seconds.
 Elapsed time:       0 days  0 hours  0 minutes 22.2 seconds.
 File lengths (MBytes):  RWF=    272 Int=      0 D2E=      0 Chk=     32 Scr=     32
 Normal termination of Gaussian 16 at Wed Jan 11 18:31:01 2023.
