 Entering Gaussian System, Link 0=g16
 Initial command:
 /software/gaussian/g16-c01/avx2/g16/l1.exe "/gpfs/fs2/scratch/bweight/software/many_molecule_many_mode_NAMD/src/NAMD/TEST_NVT/TRAJ/traj-29/G16/GS_NEW/Gau-15648.inp" -scrdir="/gpfs/fs2/scratch/bweight/software/many_molecule_many_mode_NAMD/src/NAMD/TEST_NVT/TRAJ/traj-29/G16/GS_NEW/"
 Entering Link 1 = /software/gaussian/g16-c01/avx2/g16/l1.exe PID=     15649.
  
 Copyright (c) 1988-2019, Gaussian, Inc.  All Rights Reserved.
  
 This is part of the Gaussian(R) 16 program.  It is based on
 the Gaussian(R) 09 system (copyright 2009, Gaussian, Inc.),
 the Gaussian(R) 03 system (copyright 2003, Gaussian, Inc.),
 the Gaussian(R) 98 system (copyright 1998, Gaussian, Inc.),
 the Gaussian(R) 94 system (copyright 1995, Gaussian, Inc.),
 the Gaussian 92(TM) system (copyright 1992, Gaussian, Inc.),
 the Gaussian 90(TM) system (copyright 1990, Gaussian, Inc.),
 the Gaussian 88(TM) system (copyright 1988, Gaussian, Inc.),
 the Gaussian 86(TM) system (copyright 1986, Carnegie Mellon
 University), and the Gaussian 82(TM) system (copyright 1983,
 Carnegie Mellon University). Gaussian is a federally registered
 trademark of Gaussian, Inc.
  
 This software contains proprietary and confidential information,
 including trade secrets, belonging to Gaussian, Inc.
  
 This software is provided under written license and may be
 used, copied, transmitted, or stored only in accord with that
 written license.
  
 The following legend is applicable only to US Government
 contracts under FAR:
  
                    RESTRICTED RIGHTS LEGEND
  
 Use, reproduction and disclosure by the US Government is
 subject to restrictions as set forth in subparagraphs (a)
 and (c) of the Commercial Computer Software - Restricted
 Rights clause in FAR 52.227-19.
  
 Gaussian, Inc.
 340 Quinnipiac St., Bldg. 40, Wallingford CT 06492
  
  
 ---------------------------------------------------------------
 Warning -- This program may not be used in any manner that
 competes with the business of Gaussian, Inc. or will provide
 assistance to any competitor of Gaussian, Inc.  The licensee
 of this program is prohibited from giving any competitor of
 Gaussian, Inc. access to this program.  By using this program,
 the user acknowledges that Gaussian, Inc. is engaged in the
 business of creating and licensing software in the field of
 computational chemistry and represents and warrants to the
 licensee that it is not a competitor of Gaussian, Inc. and that
 it will not use this program in any manner prohibited above.
 ---------------------------------------------------------------
  

 Cite this work as:
 Gaussian 16, Revision C.01,
 M. J. Frisch, G. W. Trucks, H. B. Schlegel, G. E. Scuseria, 
 M. A. Robb, J. R. Cheeseman, G. Scalmani, V. Barone, 
 G. A. Petersson, H. Nakatsuji, X. Li, M. Caricato, A. V. Marenich, 
 J. Bloino, B. G. Janesko, R. Gomperts, B. Mennucci, H. P. Hratchian, 
 J. V. Ortiz, A. F. Izmaylov, J. L. Sonnenberg, D. Williams-Young, 
 F. Ding, F. Lipparini, F. Egidi, J. Goings, B. Peng, A. Petrone, 
 T. Henderson, D. Ranasinghe, V. G. Zakrzewski, J. Gao, N. Rega, 
 G. Zheng, W. Liang, M. Hada, M. Ehara, K. Toyota, R. Fukuda, 
 J. Hasegawa, M. Ishida, T. Nakajima, Y. Honda, O. Kitao, H. Nakai, 
 T. Vreven, K. Throssell, J. A. Montgomery, Jr., J. E. Peralta, 
 F. Ogliaro, M. J. Bearpark, J. J. Heyd, E. N. Brothers, K. N. Kudin, 
 V. N. Staroverov, T. A. Keith, R. Kobayashi, J. Normand, 
 K. Raghavachari, A. P. Rendell, J. C. Burant, S. S. Iyengar, 
 J. Tomasi, M. Cossi, J. M. Millam, M. Klene, C. Adamo, R. Cammi, 
 J. W. Ochterski, R. L. Martin, K. Morokuma, O. Farkas, 
 J. B. Foresman, and D. J. Fox, Gaussian, Inc., Wallingford CT, 2019.
 
 ******************************************
 Gaussian 16:  ES64L-G16RevC.01  3-Jul-2019
                11-Jan-2023 
 ******************************************
 %oldchk=../GS_OLD/geometry.chk
 %chk=geometry.chk
 %nprocshared=4
 Will use up to    4 processors via shared memory.
 %mem=5GB
 Copying data from "../GS_OLD/geometry.chk" to current chk file "geometry.chk"
 IOpt=  2 FromEx=T IUOpen= 4 IOptOp= 5 NList=   0 IFRang= 0 IUIn= 4 IUOut= 2.
 -------------------------------------------------------
 # WB97XD/6-311G SCF=XQC FORCE nosym pop=full guess=read
 -------------------------------------------------------
 1/10=7,30=1,38=1/1,3;
 2/12=2,15=1,17=6,18=5,40=1/2;
 3/5=4,6=6,11=2,25=1,30=1,71=1,74=-58,116=-2/1,2,3;
 4/5=1/1;
 5/5=2,8=3,13=1,38=6/2,8;
 6/7=3,28=1/1;
 7/29=1,30=1/1,2,3,16;
 1/10=7,30=1/3;
 99//99;
 ------------
 MD Step 1000
 ------------
 Symbolic Z-matrix:
 Charge =  0 Multiplicity = 1
 C                    -0.33577  -0.58126   0.00804 
 H                     0.21064  -1.53049  -0.03194 
 H                    -1.42102  -0.59384  -0.03313 
 C                     0.33351   0.578     0.0069 
 H                    -0.16703   1.56447  -0.03634 
 H                     1.44611   0.64056  -0.03496 
 

 GradGradGradGradGradGradGradGradGradGradGradGradGradGradGradGradGradGrad
 Berny optimization.
 Initialization pass.
 Trust Radius=3.00D-01 FncErr=1.00D-07 GrdErr=1.00D-07 EigMax=2.50D+02 EigMin=1.00D-04
 Number of steps in this run=      2 maximum allowed number of steps=      2.
 GradGradGradGradGradGradGradGradGradGradGradGradGradGradGradGradGradGrad

                          Input orientation:                          
 ---------------------------------------------------------------------
 Center     Atomic      Atomic             Coordinates (Angstroms)
 Number     Number       Type             X           Y           Z
 ---------------------------------------------------------------------
      1          6           0       -0.335774   -0.581265    0.008044
      2          1           0        0.210645   -1.530487   -0.031936
      3          1           0       -1.421018   -0.593840   -0.033131
      4          6           0        0.333513    0.577996    0.006904
      5          1           0       -0.167032    1.564469   -0.036339
      6          1           0        1.446111    0.640558   -0.034963
 ---------------------------------------------------------------------
                    Distance matrix (angstroms):
                    1          2          3          4          5
     1  C    0.000000
     2  H    1.095991   0.000000
     3  H    1.086097   1.881392   0.000000
     4  C    1.338594   2.112417   2.110256   0.000000
     5  H    2.152816   3.117918   2.496154   1.107043   0.000000
     6  H    2.160976   2.497964   3.121565   1.115142   1.858990
                    6
     6  H    0.000000
 Symmetry turned off by external request.
 Stoichiometry    C2H4
 Framework group  C1[X(C2H4)]
 Deg. of freedom    12
 Full point group                 C1      NOp   1
 Rotational constants (GHZ):         143.1207608          29.6520300          24.5772463
 Standard basis: 6-311G (5D, 7F)
    38 basis functions,    72 primitive gaussians,    38 cartesian basis functions
     8 alpha electrons        8 beta electrons
       nuclear repulsion energy        33.0480339387 Hartrees.
 NAtoms=    6 NActive=    6 NUniq=    6 SFac= 1.00D+00 NAtFMM=   60 NAOKFM=F Big=F
 Integral buffers will be    131072 words long.
 Raffenetti 2 integral format.
 Two-electron integral symmetry is turned off.
 Nuclear repulsion after empirical dispersion term =       33.0471921657 Hartrees.
 One-electron integrals computed using PRISM.
 NBasis=    38 RedAO= T EigKep=  6.45D-03  NBF=    38
 NBsUse=    38 1.00D-06 EigRej= -1.00D+00 NBFU=    38
 Initial guess from the checkpoint file:  "geometry.chk"
 B after Tr=    -0.000343   -0.000499   -0.000451
         Rot=    1.000000    0.000001    0.000001    0.000006 Ang=   0.00 deg.
 Keep R1 ints in memory in canonical form, NReq=4036876.
 Requested convergence on RMS density matrix=1.00D-08 within  32 cycles.
 Requested convergence on MAX density matrix=1.00D-06.
 Requested convergence on             energy=1.00D-06.
 No special actions if energy rises.
 SCF Done:  E(RwB97XD) =  -78.5556322651     A.U. after    8 cycles
            NFock=  8  Conv=0.55D-08     -V/T= 2.0052
 QCSCF skips out because SCF is already converged.

 **********************************************************************

            Population analysis using the SCF Density.

 **********************************************************************

 Alpha  occ. eigenvalues --  -10.29106 -10.28796  -0.86362  -0.67199  -0.55888
 Alpha  occ. eigenvalues --   -0.50944  -0.43641  -0.35681
 Alpha virt. eigenvalues --    0.07945   0.14082   0.16444   0.17000   0.24077
 Alpha virt. eigenvalues --    0.37544   0.39262   0.39742   0.46390   0.48793
 Alpha virt. eigenvalues --    0.49381   0.59094   0.66518   0.69025   0.77210
 Alpha virt. eigenvalues --    0.77580   0.83919   0.95175   2.23203   2.28968
 Alpha virt. eigenvalues --    2.33247   2.40518   2.67110   2.81688   2.87974
 Alpha virt. eigenvalues --    2.95138   3.13950   3.31631  23.35182  23.70528
     Molecular Orbital Coefficients:
                           1         2         3         4         5
                           O         O         O         O         O
     Eigenvalues --   -10.29106 -10.28796  -0.86362  -0.67199  -0.55888
   1 1   C  1S          0.08014   0.55766  -0.08847   0.06666  -0.00031
   2        2S          0.06616   0.45895  -0.13983   0.10677  -0.00051
   3        2PX         0.00016  -0.00001   0.02597   0.03711   0.13698
   4        2PY         0.00028  -0.00001   0.04612   0.06164  -0.07401
   5        2PZ         0.00000  -0.00001  -0.00163   0.00253   0.00026
   6        3S          0.00121   0.01458   0.37504  -0.29140   0.00141
   7        3PX        -0.00062   0.00040   0.03418   0.05939   0.21450
   8        3PY        -0.00107   0.00072   0.06038   0.09955  -0.11660
   9        3PZ        -0.00002  -0.00004  -0.00273   0.00451   0.00038
  10        4S          0.00386  -0.01452   0.19191  -0.22711   0.00092
  11        4PX         0.00155  -0.00148   0.00475   0.02386   0.11148
  12        4PY         0.00267  -0.00254   0.00851   0.04106  -0.06133
  13        4PZ         0.00000   0.00010  -0.00098   0.00227   0.00019
  14 2   H  1S         -0.00005  -0.00006   0.05267  -0.08840   0.10184
  15        2S         -0.00030   0.00010   0.05383  -0.10617   0.12894
  16        3S          0.00076   0.00171  -0.00165  -0.01539   0.04180
  17 3   H  1S         -0.00005  -0.00007   0.05380  -0.09133  -0.10462
  18        2S         -0.00030   0.00008   0.05453  -0.10899  -0.13164
  19        3S          0.00078   0.00174  -0.00169  -0.01614  -0.04263
  20 4   C  1S          0.55767  -0.08034  -0.08675  -0.06853  -0.00017
  21        2S          0.45899  -0.06591  -0.13699  -0.10988  -0.00027
  22        2PX        -0.00002  -0.00016  -0.02769   0.03659   0.11872
  23        2PY        -0.00002  -0.00028  -0.04694   0.06525  -0.07353
  24        2PZ        -0.00000   0.00000  -0.00142  -0.00265   0.00026
  25        3S          0.01416  -0.00293   0.36714   0.30025   0.00072
  26        3PX        -0.00024   0.00072  -0.03491   0.05951   0.18614
  27        3PY        -0.00039   0.00124  -0.05909   0.10556  -0.11436
  28        3PZ        -0.00004  -0.00001  -0.00244  -0.00478   0.00040
  29        4S         -0.01257   0.00788   0.18914   0.23838  -0.00025
  30        4PX         0.00096  -0.00187  -0.00542   0.02585   0.10215
  31        4PY         0.00163  -0.00327  -0.00917   0.04473  -0.06210
  32        4PZ         0.00009  -0.00002  -0.00099  -0.00246   0.00020
  33 5   H  1S         -0.00006  -0.00004   0.04964   0.09277  -0.09017
  34        2S         -0.00001  -0.00031   0.05090   0.11116  -0.11409
  35        3S          0.00179   0.00022  -0.00119   0.01665  -0.03670
  36 6   H  1S         -0.00005  -0.00004   0.04860   0.09099   0.08645
  37        2S         -0.00001  -0.00032   0.05029   0.10955   0.10983
  38        3S          0.00175   0.00021  -0.00125   0.01615   0.03561
                           6         7         8         9        10
                           O         O         O         V         V
     Eigenvalues --    -0.50944  -0.43641  -0.35681   0.07945   0.14082
   1 1   C  1S         -0.00433   0.00015  -0.00123   0.00346  -0.03263
   2        2S         -0.00657   0.00026  -0.00201   0.00575  -0.05232
   3        2PX         0.09415  -0.11173  -0.00442   0.00189  -0.03172
   4        2PY         0.16749   0.06612  -0.00753   0.00313  -0.06361
   5        2PZ         0.00667   0.00000   0.17927  -0.18888  -0.00287
   6        3S          0.02385  -0.00059   0.00585  -0.01745   0.11349
   7        3PX         0.13699  -0.17808  -0.00625   0.00287  -0.03766
   8        3PY         0.24503   0.10580  -0.01062   0.00470  -0.07870
   9        3PZ         0.01055   0.00004   0.28826  -0.27782  -0.00462
  10        4S         -0.04851  -0.00270   0.00887  -0.01865   1.20075
  11        4PX         0.06927  -0.11094  -0.00504   0.01624  -0.19634
  12        4PY         0.12478   0.06646  -0.00860   0.02722  -0.38281
  13        4PZ         0.00598   0.00008   0.26717  -0.69372  -0.01689
  14 2   H  1S         -0.08013  -0.11548   0.00023   0.00537  -0.01572
  15        2S         -0.11058  -0.17843   0.00263   0.00843  -0.04555
  16        3S         -0.04138  -0.08260   0.00159   0.02219  -0.81778
  17 3   H  1S         -0.07859   0.11339   0.00014   0.00539  -0.01242
  18        2S         -0.10788   0.17455   0.00251   0.00854  -0.03757
  19        3S         -0.04007   0.08063   0.00152   0.02196  -0.76359
  20 4   C  1S         -0.00771  -0.00041  -0.00111  -0.00350  -0.03697
  21        2S         -0.01203  -0.00068  -0.00182  -0.00580  -0.05939
  22        2PX        -0.09806   0.12404   0.00427   0.00219   0.04082
  23        2PY        -0.16276  -0.07297   0.00783   0.00401   0.06242
  24        2PZ         0.00688   0.00026   0.17912   0.18937  -0.00425
  25        3S          0.03945   0.00195   0.00537   0.01734   0.13139
  26        3PX        -0.14500   0.19890   0.00596   0.00334   0.04994
  27        3PY        -0.23920  -0.11637   0.01099   0.00612   0.07407
  28        3PZ         0.01091   0.00038   0.28664   0.27752  -0.00643
  29        4S         -0.03347   0.00263   0.00863   0.02106   1.26185
  30        4PX        -0.07546   0.12717   0.00466   0.01684   0.26143
  31        4PY        -0.12323  -0.07375   0.00873   0.03007   0.41342
  32        4PZ         0.00633   0.00023   0.26724   0.69479  -0.02490
  33 5   H  1S         -0.07533  -0.12410   0.00028  -0.00532  -0.01353
  34        2S         -0.10329  -0.19381   0.00277  -0.00894  -0.03966
  35        3S         -0.03857  -0.09100   0.00153  -0.02338  -0.83606
  36 6   H  1S         -0.08025   0.12375   0.00018  -0.00533  -0.01666
  37        2S         -0.11040   0.19414   0.00261  -0.00899  -0.04747
  38        3S         -0.04137   0.09121   0.00143  -0.02376  -0.89161
                          11        12        13        14        15
                           V         V         V         V         V
     Eigenvalues --     0.16444   0.17000   0.24077   0.37544   0.39262
   1 1   C  1S          0.00130  -0.04574   0.00005   0.01137   0.00129
   2        2S          0.00211  -0.07453   0.00007   0.01615   0.00213
   3        2PX         0.09686  -0.01976   0.10048  -0.03769  -0.02423
   4        2PY        -0.05345  -0.03839  -0.05756  -0.06832   0.00909
   5        2PZ         0.00022  -0.00859   0.00004  -0.00601  -0.00022
   6        3S         -0.00460   0.16794   0.00023   0.02790  -0.00254
   7        3PX         0.13876  -0.01120   0.10709  -0.05112  -0.10753
   8        3PY        -0.07774  -0.02586  -0.06212  -0.09726   0.04558
   9        3PZ         0.00030  -0.01188  -0.00001  -0.01177  -0.00013
  10        4S         -0.05437   1.45386  -0.01567  -2.80285  -0.22383
  11        4PX         0.57519  -0.11575   1.16440  -1.59452  -0.53943
  12        4PY        -0.30951  -0.21492  -0.66607  -2.78291   0.16107
  13        4PZ         0.00147  -0.05630   0.00102  -0.05676  -0.00283
  14 2   H  1S         -0.02948  -0.02529   0.01302  -0.05334   0.07703
  15        2S         -0.08027  -0.01823  -0.02231  -0.61603   0.79109
  16        3S         -1.01926  -1.02464  -1.55258  -0.35334  -0.33618
  17 3   H  1S          0.02932  -0.02459  -0.01472  -0.04677  -0.07581
  18        2S          0.07997  -0.01967   0.01758  -0.56347  -0.75412
  19        3S          1.09102  -1.01275   1.57611  -0.41656   0.26004
  20 4   C  1S          0.00079   0.04212  -0.00009  -0.01997   0.00008
  21        2S          0.00126   0.06857  -0.00016  -0.03255   0.00036
  22        2PX         0.10205  -0.02183  -0.10007  -0.04235  -0.03106
  23        2PY        -0.06109  -0.03701   0.05736  -0.07529   0.01330
  24        2PZ         0.00016   0.00844  -0.00005   0.00476   0.00051
  25        3S         -0.00236  -0.15276   0.00032   0.03795  -0.00551
  26        3PX         0.14672  -0.01642  -0.11319  -0.09274  -0.10713
  27        3PY        -0.08709  -0.02677   0.06384  -0.16766   0.05944
  28        3PZ         0.00023   0.01166  -0.00001   0.00647   0.00115
  29        4S         -0.04292  -1.32200   0.01085   3.40215   0.15120
  30        4PX         0.54525  -0.10898  -1.12077  -1.26481  -0.56455
  31        4PY        -0.33107  -0.19238   0.64914  -2.22011   0.06300
  32        4PZ         0.00106   0.05468  -0.00109   0.04603   0.00388
  33 5   H  1S          0.03123   0.02526   0.00646   0.01378  -0.07881
  34        2S          0.06945   0.02273  -0.03292   0.11422  -0.76644
  35        3S          1.07185   0.93432  -1.51280   0.46388   0.47167
  36 6   H  1S         -0.03173   0.02547  -0.00522   0.00902   0.08811
  37        2S         -0.07038   0.02055   0.03425   0.07163   0.90147
  38        3S         -1.01557   0.92497   1.49722   0.47631  -0.45057
                          16        17        18        19        20
                           V         V         V         V         V
     Eigenvalues --     0.39742   0.46390   0.48793   0.49381   0.59094
   1 1   C  1S         -0.01691   0.01285  -0.04665   0.00042  -0.00073
   2        2S         -0.03006   0.02955  -0.07801   0.00107  -0.00131
   3        2PX         0.02262  -0.06162   0.01183   0.00133   0.00272
   4        2PY         0.04320  -0.10697   0.01592   0.00194   0.00418
   5        2PZ        -0.00005  -0.00074   0.00373  -0.15172  -0.19256
   6        3S          0.07623  -0.33689   0.09204  -0.01389  -0.00046
   7        3PX         0.09349  -0.24169  -0.03317   0.00124   0.00912
   8        3PY         0.18246  -0.41815  -0.06650   0.00089   0.01410
   9        3PZ        -0.00588  -0.00594   0.01792  -0.62807  -0.68511
  10        4S          2.37001   0.03441   3.15532   0.05913   0.08788
  11        4PX         0.08070   0.20482   0.80048   0.02163   0.02709
  12        4PY         0.20214   0.38350   1.38559   0.03966   0.04748
  13        4PZ        -0.00383   0.00213  -0.10025   0.68509   1.24050
  14 2   H  1S         -0.02739  -0.03414  -0.07694  -0.00201  -0.00214
  15        2S         -0.55196  -0.32117  -0.92659  -0.01601  -0.01538
  16        3S          0.25302   0.06011   0.63684   0.02672   0.02970
  17 3   H  1S         -0.03812  -0.03618  -0.07509  -0.00197  -0.00206
  18        2S         -0.65363  -0.34486  -0.90259  -0.01593  -0.01384
  19        3S          0.28034   0.06238   0.60962   0.02613   0.02922
  20 4   C  1S         -0.00312  -0.00324   0.05090   0.00300   0.00087
  21        2S         -0.00865   0.00222   0.08856   0.00550   0.00162
  22        2PX         0.00501   0.05459   0.02775  -0.00038   0.00256
  23        2PY         0.01246   0.09416   0.05023  -0.00085   0.00494
  24        2PZ        -0.00458  -0.00212   0.00394  -0.15285   0.19218
  25        3S          0.08222  -0.28407  -0.23294  -0.02353  -0.00285
  26        3PX        -0.05245   0.23499   0.05551  -0.00076   0.00894
  27        3PY        -0.07451   0.40897   0.09856  -0.00225   0.01713
  28        3PZ        -0.01347  -0.00867   0.01308  -0.63173   0.68192
  29        4S         -0.53247   0.82775  -3.05861  -0.08463  -0.07849
  30        4PX         1.10365  -0.38393   0.63536   0.00799   0.02809
  31        4PY         2.02382  -0.64422   1.08293   0.01327   0.04728
  32        4PZ        -0.03897  -0.02183   0.05898   0.69513  -1.23706
  33 5   H  1S         -0.05168  -0.06377   0.06330   0.00186   0.00204
  34        2S         -0.87044  -0.64582   0.78834   0.03054   0.00823
  35        3S         -0.11600   0.28450  -0.55681  -0.00252  -0.02941
  36 6   H  1S         -0.04034  -0.06276   0.06336   0.00189   0.00209
  37        2S         -0.74557  -0.63140   0.78444   0.03019   0.00878
  38        3S         -0.15946   0.29867  -0.57339  -0.00355  -0.02979
                          21        22        23        24        25
                           V         V         V         V         V
     Eigenvalues --     0.66518   0.69025   0.77210   0.77580   0.83919
   1 1   C  1S          0.00068  -0.00042   0.05076   0.07358   0.00084
   2        2S          0.00141  -0.00093   0.10706   0.15689   0.00193
   3        2PX        -0.12486   0.20290  -0.02755   0.11309  -0.00976
   4        2PY         0.07253  -0.12096  -0.04696   0.18610   0.01294
   5        2PZ        -0.00007   0.00020   0.00072   0.00632   0.00017
   6        3S         -0.01096   0.01254  -0.71791  -1.35387  -0.02070
   7        3PX        -0.59056   0.71578  -0.18256   0.43986  -0.22556
   8        3PY         0.34019  -0.42683  -0.31257   0.71529   0.15909
   9        3PZ        -0.00043   0.00079   0.00268   0.02219   0.00058
  10        4S          0.01539  -0.05714   0.69288   2.47027  -0.01140
  11        4PX         1.09283  -0.79508   0.17692  -0.74037   4.45743
  12        4PY        -0.63120   0.48208   0.22723  -1.02370  -2.55231
  13        4PZ         0.00056   0.00111   0.01324  -0.07051   0.00435
  14 2   H  1S          0.02082  -0.05982   0.01033   0.03247  -0.02583
  15        2S          0.09813  -0.64859   0.07470   0.09446  -1.54284
  16        3S         -1.00511   1.13792  -0.08276  -1.11439  -1.21950
  17 3   H  1S         -0.02016   0.05943   0.01025   0.03304   0.02875
  18        2S         -0.10749   0.67535   0.09757   0.06557   1.57644
  19        3S          0.99808  -1.10665  -0.06421  -1.23717   1.21680
  20 4   C  1S          0.00086  -0.00032   0.08350   0.03199   0.00051
  21        2S          0.00176  -0.00060   0.17776   0.06732   0.00102
  22        2PX        -0.15851  -0.17917  -0.09735   0.05167   0.01339
  23        2PY         0.09076   0.09994  -0.17499   0.09425  -0.00124
  24        2PZ        -0.00012  -0.00023   0.00650  -0.00123  -0.00017
  25        3S         -0.01317  -0.00087  -1.48750  -0.39043  -0.00403
  26        3PX        -0.70459  -0.59636  -0.35491   0.27459   0.25122
  27        3PY         0.40583   0.33042  -0.64280   0.49924  -0.11256
  28        3PZ        -0.00063  -0.00079   0.02295  -0.00463  -0.00048
  29        4S          0.01353   0.03581   2.67116   0.15822  -0.00110
  30        4PX         1.27336   0.66101   0.51941  -0.24638  -4.19543
  31        4PY        -0.73031  -0.36143   1.01732  -0.64714   2.39301
  32        4PZ         0.00100  -0.00086  -0.06790   0.03156  -0.00387
  33 5   H  1S         -0.02787  -0.05438   0.03477   0.00303  -0.02288
  34        2S         -0.17745  -0.56753   0.06736   0.07484  -1.41934
  35        3S          1.14259   0.92550  -1.15868   0.27639  -1.10350
  36 6   H  1S          0.02837   0.05432   0.03436   0.00353   0.02259
  37        2S          0.17027   0.54172   0.07238   0.02371   1.40709
  38        3S         -1.14549  -0.94218  -1.09306   0.21156   1.11350
                          26        27        28        29        30
                           V         V         V         V         V
     Eigenvalues --     0.95175   2.23203   2.28968   2.33247   2.40518
   1 1   C  1S          0.09559  -0.01051  -0.01439   0.00026  -0.00040
   2        2S          0.19861   0.00085  -0.01471   0.00064  -0.00046
   3        2PX        -0.09123  -0.08518  -0.13208   0.33709  -0.41088
   4        2PY        -0.15803  -0.15771  -0.22872  -0.19237   0.23313
   5        2PZ         0.00008  -0.01749  -0.02301  -0.00001  -0.00083
   6        3S         -1.53913  -0.18321  -0.03175  -0.00138  -0.00382
   7        3PX        -0.23225   0.08511   0.20974  -0.40268   0.57285
   8        3PY        -0.39616   0.16874   0.37465   0.23179  -0.32694
   9        3PZ        -0.00357   0.01751   0.02886   0.00013   0.00094
  10        4S          5.71746  -0.12551  -0.89298  -0.00220  -0.01589
  11        4PX         1.19234   0.04980  -0.18937  -0.02344   0.95508
  12        4PY         1.98761   0.06743  -0.35317   0.00564  -0.53114
  13        4PZ        -0.02225   0.00435   0.01029  -0.00023   0.00173
  14 2   H  1S          0.01555  -0.72336  -0.77620  -0.69785   0.66694
  15        2S         -0.29091   1.03211   1.16648   1.06455  -1.47009
  16        3S         -0.09365  -0.30834  -0.46359  -0.46769   0.38200
  17 3   H  1S          0.01585  -0.71569  -0.77732   0.68713  -0.68522
  18        2S         -0.26653   1.02201   1.17211  -1.05131   1.50801
  19        3S         -0.07766  -0.28960  -0.45184   0.45704  -0.37521
  20 4   C  1S         -0.09415  -0.00992   0.01220   0.00041   0.00023
  21        2S         -0.19533   0.00100   0.01189   0.00056   0.00044
  22        2PX        -0.09219   0.12800  -0.12655   0.31320   0.41200
  23        2PY        -0.15919   0.22375  -0.21193  -0.18143  -0.23677
  24        2PZ         0.00024  -0.01895   0.02314   0.00049   0.00037
  25        3S          1.51162  -0.17148   0.02212   0.00036  -0.00021
  26        3PX        -0.22619  -0.16246   0.21631  -0.39310  -0.57800
  27        3PY        -0.39542  -0.27983   0.35717   0.22569   0.33248
  28        3PZ         0.00425   0.02038  -0.02948  -0.00054  -0.00052
  29        4S         -5.69465  -0.15063   0.88376   0.01456   0.00314
  30        4PX         1.11246  -0.01531  -0.20204   0.08905  -0.85015
  31        4PY         1.98761  -0.03433  -0.32553  -0.05089   0.49714
  32        4PZ         0.01853   0.00553  -0.00856  -0.00015  -0.00150
  33 5   H  1S         -0.01793  -0.77688   0.69282   0.71537   0.67339
  34        2S          0.29001   1.12481  -1.05517  -1.04860  -1.43779
  35        3S          0.06254  -0.35082   0.41267   0.51429   0.42032
  36 6   H  1S         -0.01796  -0.77042   0.71286  -0.70186  -0.67327
  37        2S          0.30970   1.11316  -1.07988   1.02576   1.43097
  38        3S          0.07007  -0.35102   0.43711  -0.51024  -0.42727
                          31        32        33        34        35
                           V         V         V         V         V
     Eigenvalues --     2.67110   2.81688   2.87974   2.95138   3.13950
   1 1   C  1S          0.00063   0.00318  -0.01309  -0.00001  -0.00950
   2        2S          0.00047   0.00928  -0.04391  -0.00027  -0.02895
   3        2PX         0.00680   0.09087  -0.45935  -0.73601   0.45762
   4        2PY         0.01058   0.16006  -0.82933   0.41360   0.79760
   5        2PZ        -0.92297  -0.92474  -0.17627  -0.00139   0.00974
   6        3S         -0.00178  -0.07710   0.38706   0.00394   0.24281
   7        3PX        -0.00495  -0.15847   0.82066   0.88707  -0.44886
   8        3PY        -0.00759  -0.27683   1.45620  -0.48613  -0.78047
   9        3PZ         0.93792   1.12952   0.22172   0.00190  -0.01237
  10        4S          0.01617   0.17737  -0.86335  -0.01183  -0.47075
  11        4PX        -0.00263   0.12797  -0.70763  -0.66716   0.23518
  12        4PY        -0.00377   0.22428  -1.25675   0.35637   0.40386
  13        4PZ        -0.33752  -0.60987  -0.14122  -0.00151   0.00777
  14 2   H  1S          0.01545  -0.02610   0.26666  -0.37835  -0.21943
  15        2S         -0.01774   0.01704  -0.22545   0.38698   0.16592
  16        3S         -0.00377   0.05157  -0.29693   0.27213   0.06692
  17 3   H  1S          0.01566  -0.02536   0.25711   0.38006  -0.22039
  18        2S         -0.01825   0.01533  -0.20925  -0.38488   0.16687
  19        3S         -0.00425   0.05183  -0.29689  -0.28706   0.07469
  20 4   C  1S          0.00067  -0.00318   0.01362   0.00049  -0.00748
  21        2S          0.00066  -0.00972   0.04738   0.00113  -0.02351
  22        2PX        -0.00933   0.08318  -0.41395  -0.79914  -0.49659
  23        2PY        -0.01720   0.14817  -0.73497   0.44315  -0.87951
  24        2PZ        -0.92621   0.92048   0.17998   0.00036   0.01586
  25        3S         -0.00379   0.08292  -0.42414  -0.00854   0.20270
  26        3PX         0.00982  -0.15034   0.77252   0.95085   0.52495
  27        3PY         0.01781  -0.26579   1.36282  -0.52012   0.93750
  28        3PZ         0.94223  -1.12523  -0.22641  -0.00042  -0.02005
  29        4S          0.02074  -0.18157   0.89406   0.02471  -0.38777
  30        4PX        -0.00110   0.12703  -0.70538  -0.69601  -0.31289
  31        4PY        -0.00267   0.22266  -1.23350   0.37608  -0.56226
  32        4PZ        -0.33980   0.60787   0.14468   0.00023   0.01552
  33 5   H  1S          0.01518   0.03317  -0.29087   0.41619  -0.25708
  34        2S         -0.01866  -0.02628   0.26298  -0.42964   0.20145
  35        3S         -0.00179  -0.04841   0.28098  -0.24345   0.11693
  36 6   H  1S          0.01536   0.03339  -0.28809  -0.42622  -0.24638
  37        2S         -0.01930  -0.02731   0.26501   0.43907   0.19305
  38        3S         -0.00131  -0.04627   0.26779   0.24498   0.11044
                          36        37        38
                           V         V         V
     Eigenvalues --     3.31631  23.35182  23.70528
   1 1   C  1S         -0.00030  -1.41389  -1.45237
   2        2S         -0.00042   1.50786   1.57053
   3        2PX         0.78053  -0.00663   0.01210
   4        2PY        -0.43733  -0.01096   0.02121
   5        2PZ         0.00114  -0.00071  -0.00029
   6        3S         -0.00048  -0.29573  -0.39928
   7        3PX        -1.11555   0.02431  -0.05553
   8        3PY         0.62144   0.04068  -0.09661
   9        3PZ        -0.00174   0.00202   0.00084
  10        4S         -0.00634   0.27217   0.76878
  11        4PX         1.94368  -0.02664   0.13280
  12        4PY        -1.08340  -0.04544   0.22881
  13        4PZ         0.00290  -0.00332  -0.00370
  14 2   H  1S          0.55427   0.01348   0.00717
  15        2S         -0.85775   0.00754  -0.01497
  16        3S         -0.45983  -0.08433  -0.03968
  17 3   H  1S         -0.56392   0.01491   0.00809
  18        2S          0.87160   0.00729  -0.01494
  19        3S          0.48143  -0.08608  -0.03975
  20 4   C  1S          0.00010  -1.44760   1.41864
  21        2S         -0.00011   1.54395  -1.53419
  22        2PX        -0.71579   0.00595   0.01269
  23        2PY         0.41084   0.01070   0.02162
  24        2PZ        -0.00097  -0.00071   0.00020
  25        3S          0.00358  -0.30326   0.39055
  26        3PX         1.01716  -0.02188  -0.05655
  27        3PY        -0.59134  -0.03896  -0.09724
  28        3PZ         0.00147   0.00202  -0.00055
  29        4S         -0.01290   0.28144  -0.75948
  30        4PX        -1.77789   0.02259   0.13131
  31        4PY         1.03990   0.04136   0.22743
  32        4PZ        -0.00250  -0.00335   0.00312
  33 5   H  1S          0.48961   0.01281  -0.00449
  34        2S         -0.76094   0.00825   0.01347
  35        3S         -0.42569  -0.08296   0.03724
  36 6   H  1S         -0.48484   0.01161  -0.00352
  37        2S          0.75562   0.00922   0.01310
  38        3S          0.41613  -0.08133   0.03676
     Density Matrix:
                           1         2         3         4         5
   1 1   C  1S          0.65941
   2        2S          0.56152   0.49202
   3        2PX        -0.00056  -0.00074   0.08437
   4        2PY        -0.00128  -0.00177   0.00352   0.08777
   5        2PZ         0.00012   0.00018  -0.00016  -0.00034   0.06438
   6        3S         -0.08898  -0.15391   0.00281   0.00629  -0.00028
   7        3PX         0.00086   0.00132   0.13059   0.00116  -0.00011
   8        3PY         0.00123   0.00189   0.00117   0.13133  -0.00030
   9        3PZ         0.00023   0.00039  -0.00027  -0.00055   0.10352
  10        4S         -0.07942  -0.11439  -0.01524  -0.02717   0.00076
  11        4PX         0.00025   0.00155   0.07044  -0.00451  -0.00072
  12        4PY         0.00056   0.00290  -0.00459   0.06564  -0.00127
  13        4PZ        -0.00012  -0.00030  -0.00108  -0.00185   0.09588
  14 2   H  1S         -0.02059  -0.03278   0.03479  -0.06323  -0.00155
  15        2S         -0.02280  -0.03646   0.04927  -0.08789  -0.00118
  16        3S          0.00058  -0.00070   0.02087  -0.03305  -0.00003
  17 3   H  1S         -0.02101  -0.03342  -0.07278  -0.00214  -0.00169
  18        2S         -0.02308  -0.03686  -0.10066  -0.00201  -0.00134
  19        3S          0.00061  -0.00067  -0.03854   0.00138  -0.00009
  20 4   C  1S          0.00607   0.00978  -0.01081  -0.01873  -0.00056
  21        2S          0.00976   0.01524  -0.01729  -0.02998  -0.00092
  22        2PX         0.01040   0.01662  -0.01242  -0.03213   0.00056
  23        2PY         0.01809   0.02894  -0.03215  -0.04969   0.00108
  24        2PZ        -0.00060  -0.00098  -0.00054  -0.00085   0.06430
  25        3S         -0.02629  -0.03992   0.04850   0.08417   0.00277
  26        3PX         0.01606   0.02490  -0.01821  -0.04580   0.00072
  27        3PY         0.02793   0.04331  -0.04570  -0.07119   0.00142
  28        3PZ        -0.00102  -0.00164  -0.00094  -0.00148   0.10290
  29        4S          0.00536   0.00399   0.02048   0.03587   0.00324
  30        4PX         0.00309   0.00639  -0.01305  -0.02096   0.00087
  31        4PY         0.00527   0.01094  -0.02097  -0.03730   0.00171
  32        4PZ        -0.00088  -0.00141  -0.00140  -0.00230   0.09589
  33 5   H  1S          0.00420   0.00690  -0.00170  -0.01229  -0.00065
  34        2S          0.00636   0.01057   0.00347  -0.02499  -0.00005
  35        3S          0.00329   0.00482   0.00418  -0.01760   0.00010
  36 6   H  1S          0.00416   0.00683  -0.00981  -0.00761  -0.00066
  37        2S          0.00629   0.01047  -0.02336  -0.00946  -0.00009
  38        3S          0.00325   0.00477  -0.01729  -0.00521   0.00006
                           6         7         8         9        10
   6        3S          0.45278
   7        3PX        -0.00169   0.20245
   8        3PY        -0.00160  -0.00448   0.19700
   9        3PZ        -0.00080  -0.00021  -0.00047   0.16646
  10        4S          0.27369  -0.02592  -0.04682   0.00099   0.18215
  11        4PX        -0.00669   0.10954  -0.01010  -0.00118  -0.01496
  12        4PY        -0.01202  -0.01023   0.09889  -0.00204  -0.02802
  13        4PZ         0.00136  -0.00144  -0.00244   0.15418   0.00275
  14 2   H  1S          0.08763   0.05596  -0.09870  -0.00258   0.06896
  15        2S          0.09758   0.07961  -0.13671  -0.00199   0.08085
  16        3S          0.00605   0.03405  -0.05080  -0.00006   0.01088
  17 3   H  1S          0.08940  -0.11397  -0.00182  -0.00277   0.06896
  18        2S          0.09873  -0.15745  -0.00040  -0.00220   0.07976
  19        3S          0.00608  -0.06003   0.00392  -0.00013   0.01004
  20 4   C  1S         -0.02650  -0.01686  -0.02923  -0.00096   0.00520
  21        2S         -0.04012  -0.02619  -0.04543  -0.00155   0.00392
  22        2PX        -0.04654  -0.01771  -0.04564   0.00097  -0.01811
  23        2PY        -0.08104  -0.04571  -0.07090   0.00186  -0.03146
  24        2PZ         0.00290  -0.00074  -0.00114   0.10340   0.00317
  25        3S          0.10229   0.07110   0.12354   0.00463   0.00099
  26        3PX        -0.06740  -0.02610  -0.06488   0.00126  -0.02701
  27        3PY        -0.11727  -0.06479  -0.10153   0.00247  -0.04684
  28        3PZ         0.00483  -0.00129  -0.00200   0.16546   0.00526
  29        4S          0.00164   0.03095   0.05437   0.00539  -0.03262
  30        4PX        -0.02259  -0.01951  -0.02951   0.00144  -0.00685
  31        4PY        -0.03891  -0.02957  -0.05391   0.00284  -0.01134
  32        4PZ         0.00412  -0.00196  -0.00319   0.15419   0.00487
  33 5   H  1S         -0.02053  -0.00072  -0.01769  -0.00094  -0.01527
  34        2S         -0.03160   0.00843  -0.03680   0.00004  -0.02004
  35        3S         -0.01241   0.00797  -0.02646   0.00019  -0.00382
  36 6   H  1S         -0.02030  -0.01485  -0.00932  -0.00096  -0.01540
  37        2S         -0.03129  -0.03586  -0.01081  -0.00001  -0.02054
  38        3S         -0.01230  -0.02673  -0.00625   0.00014  -0.00420
                          11        12        13        14        15
  11        4PX         0.06031
  12        4PY        -0.00899   0.05119
  13        4PZ        -0.00174  -0.00294   0.14284
  14 2   H  1S          0.03351  -0.05420  -0.00132   0.08143
  15        2S          0.04844  -0.07498  -0.00049   0.10964   0.14974
  16        3S          0.02115  -0.02776   0.00029   0.03677   0.05251
  17 3   H  1S         -0.06322   0.00170  -0.00141  -0.01309  -0.02488
  18        2S         -0.08774   0.00436  -0.00058  -0.02482  -0.04335
  19        3S         -0.03375   0.00456   0.00026  -0.01821  -0.02765
  20 4   C  1S         -0.00313  -0.00566  -0.00084   0.00423   0.00666
  21        2S         -0.00648  -0.01160  -0.00136   0.00699   0.01112
  22        2PX        -0.01320  -0.02008   0.00139   0.00186  -0.00269
  23        2PY        -0.02016  -0.03687   0.00258   0.01149   0.02421
  24        2PZ        -0.00099  -0.00160   0.09579  -0.00071  -0.00020
  25        3S          0.02301   0.04092   0.00399  -0.02103  -0.03345
  26        3PX        -0.02027  -0.02839   0.00189   0.00102  -0.00727
  27        3PY        -0.02846  -0.05367   0.00354   0.01704   0.03622
  28        3PZ        -0.00163  -0.00264   0.15328  -0.00104  -0.00019
  29        4S          0.00775   0.01457   0.00493  -0.01751  -0.02380
  30        4PX        -0.01475  -0.01249   0.00177  -0.00161  -0.00840
  31        4PY        -0.01258  -0.02955   0.00338   0.01526   0.02711
  32        4PZ        -0.00195  -0.00323   0.14287  -0.00057   0.00039
  33 5   H  1S          0.00189  -0.01578  -0.00048   0.01120   0.02334
  34        2S          0.00902  -0.02760   0.00058   0.02379   0.04448
  35        3S          0.00744  -0.01589   0.00041   0.01666   0.02788
  36 6   H  1S         -0.01450  -0.00588  -0.00050  -0.00908  -0.01821
  37        2S         -0.02820  -0.00541   0.00055  -0.01885  -0.03438
  38        3S         -0.01728  -0.00128   0.00037  -0.01017  -0.01777
                          16        17        18        19        20
  16        3S          0.02106
  17 3   H  1S         -0.01834   0.08243
  18        2S         -0.02773   0.10986   0.14859
  19        3S         -0.01305   0.03627   0.05136   0.02039
  20 4   C  1S          0.00365   0.00429   0.00669   0.00366   0.65947
  21        2S          0.00538   0.00709   0.01114   0.00537   0.56154
  22        2PX        -0.00347   0.00904   0.02223   0.01666   0.00116
  23        2PY         0.01755   0.00746   0.00970   0.00562   0.00180
  24        2PZ         0.00006  -0.00070  -0.00014   0.00010   0.00010
  25        3S         -0.01395  -0.02125  -0.03341  -0.01382  -0.08920
  26        3PX        -0.00699   0.01432   0.03497   0.02604  -0.00049
  27        3PY         0.02645   0.00950   0.01170   0.00698  -0.00105
  28        3PZ         0.00013  -0.00102  -0.00011   0.00019   0.00022
  29        4S         -0.00561  -0.01728  -0.02308  -0.00517  -0.08028
  30        4PX        -0.00699   0.01402   0.02758   0.01704  -0.00022
  31        4PY         0.01586   0.00649   0.00648   0.00188  -0.00023
  32        4PZ         0.00038  -0.00057   0.00043   0.00041  -0.00008
  33 5   H  1S          0.01618  -0.00904  -0.01814  -0.00945  -0.02009
  34        2S          0.02745  -0.01867  -0.03400  -0.01700  -0.02224
  35        3S          0.01466  -0.01006  -0.01754  -0.00898   0.00057
  36 6   H  1S         -0.00954   0.01120   0.02322   0.01591  -0.01984
  37        2S         -0.01729   0.02380   0.04430   0.02709  -0.02220
  38        3S         -0.00915   0.01665   0.02774   0.01448   0.00047
                          21        22        23        24        25
  21        2S          0.49201
  22        2PX         0.00166   0.08244
  23        2PY         0.00256   0.00380   0.08749
  24        2PZ         0.00015   0.00019   0.00027   0.06428
  25        3S         -0.15415  -0.00540  -0.00843  -0.00016   0.45347
  26        3PX        -0.00073   0.12832   0.00194   0.00012  -0.00024
  27        3PY        -0.00159   0.00198   0.13116   0.00013   0.00061
  28        3PZ         0.00038   0.00029   0.00043   0.10287  -0.00072
  29        4S         -0.11601   0.01420   0.02403   0.00083   0.27909
  30        4PX        -0.00150   0.07284  -0.00506   0.00063   0.00632
  31        4PY        -0.00232  -0.00502   0.06685   0.00115   0.01019
  32        4PZ        -0.00022   0.00102   0.00183   0.09584   0.00117
  33 5   H  1S         -0.03200  -0.03338   0.06335  -0.00168   0.08560
  34        2S         -0.03554  -0.04958   0.08846  -0.00132   0.09509
  35        3S         -0.00065  -0.02243   0.03354  -0.00013   0.00574
  36 6   H  1S         -0.03163   0.07093   0.00266  -0.00155   0.08461
  37        2S         -0.03550   0.10114   0.00107  -0.00115   0.09494
  38        3S         -0.00078   0.04046  -0.00283  -0.00007   0.00598
                          26        27        28        29        30
  26        3PX         0.20007
  27        3PY        -0.00267   0.19718
  28        3PZ         0.00016   0.00018   0.16463
  29        4S          0.02595   0.04365   0.00102   0.18804
  30        4PX         0.11401  -0.01066   0.00098   0.01597   0.06605
  31        4PY        -0.01065   0.10103   0.00183   0.02581  -0.01034
  32        4PZ         0.00129   0.00234   0.15337   0.00264   0.00152
  33 5   H  1S         -0.05351   0.09927  -0.00278   0.06745  -0.03436
  34        2S         -0.07991   0.13813  -0.00222   0.07824  -0.05179
  35        3S         -0.03659   0.05171  -0.00022   0.00960  -0.02393
  36 6   H  1S          0.11212   0.00329  -0.00259   0.06775   0.06543
  37        2S          0.15969  -0.00025  -0.00196   0.07965   0.09362
  38        3S          0.06356  -0.00599  -0.00013   0.01044   0.03758
                          31        32        33        34        35
  31        4PY         0.05331
  32        4PZ         0.00285   0.14293
  33 5   H  1S          0.05546  -0.00145   0.08055
  34        2S          0.07727  -0.00061   0.10992   0.15241
  35        3S          0.02903   0.00019   0.03799   0.05521   0.02280
  36 6   H  1S         -0.00196  -0.00137  -0.01251  -0.02594  -0.01976
  37        2S         -0.00614  -0.00051  -0.02604  -0.04802  -0.03134
  38        3S         -0.00618   0.00022  -0.01995  -0.03146  -0.01547
                          36        37        38
  36 6   H  1S          0.07974
  37        2S          0.10958   0.15295
  38        3S          0.03819   0.05579   0.02313
    Full Mulliken population analysis:
                           1         2         3         4         5
   1 1   C  1S          0.65941
   2        2S          0.49327   0.49202
   3        2PX         0.00000   0.00000   0.08437
   4        2PY         0.00000   0.00000   0.00000   0.08777
   5        2PZ         0.00000   0.00000   0.00000   0.00000   0.06438
   6        3S         -0.02929  -0.06446   0.00000   0.00000   0.00000
   7        3PX         0.00000   0.00000   0.08216   0.00000   0.00000
   8        3PY         0.00000   0.00000   0.00000   0.08262   0.00000
   9        3PZ         0.00000   0.00000   0.00000   0.00000   0.06513
  10        4S         -0.01221  -0.02141   0.00000   0.00000   0.00000
  11        4PX         0.00000   0.00000   0.01551   0.00000   0.00000
  12        4PY         0.00000   0.00000   0.00000   0.01446   0.00000
  13        4PZ         0.00000   0.00000   0.00000   0.00000   0.02112
  14 2   H  1S         -0.00023  -0.00033   0.00180   0.00568   0.00001
  15        2S         -0.00167  -0.00319   0.00428   0.01327   0.00001
  16        3S          0.00005  -0.00007   0.00069   0.00191   0.00000
  17 3   H  1S         -0.00025  -0.00037   0.00788   0.00000   0.00001
  18        2S         -0.00173  -0.00330   0.01775   0.00000   0.00001
  19        3S          0.00005  -0.00006   0.00257  -0.00000   0.00000
  20 4   C  1S          0.00000   0.00000  -0.00002  -0.00006   0.00000
  21        2S          0.00000  -0.00000  -0.00002  -0.00005   0.00000
  22        2PX        -0.00002  -0.00002   0.00011   0.00085   0.00000
  23        2PY        -0.00006  -0.00005   0.00085   0.00196   0.00000
  24        2PZ        -0.00000  -0.00000  -0.00000  -0.00000   0.00041
  25        3S         -0.00059  -0.00099   0.00253   0.00759  -0.00000
  26        3PX        -0.00054  -0.00099   0.00019   0.00553   0.00000
  27        3PY        -0.00163  -0.00300   0.00552   0.01068   0.00000
  28        3PZ        -0.00000  -0.00000  -0.00000  -0.00000   0.00610
  29        4S          0.00034   0.00030   0.00093   0.00282  -0.00000
  30        4PX        -0.00018  -0.00045  -0.00070   0.00145   0.00000
  31        4PY        -0.00053  -0.00135   0.00145   0.00097   0.00000
  32        4PZ        -0.00000  -0.00000  -0.00000  -0.00000   0.00902
  33 5   H  1S          0.00000   0.00000  -0.00000  -0.00000   0.00000
  34        2S          0.00001   0.00002   0.00000  -0.00032   0.00000
  35        3S          0.00008   0.00013   0.00001  -0.00071  -0.00000
  36 6   H  1S          0.00000   0.00000  -0.00000  -0.00000   0.00000
  37        2S          0.00001   0.00002  -0.00024  -0.00007   0.00000
  38        3S          0.00007   0.00013  -0.00057  -0.00012  -0.00000
                           6         7         8         9        10
   6        3S          0.45278
   7        3PX         0.00000   0.20245
   8        3PY         0.00000   0.00000   0.19700
   9        3PZ         0.00000   0.00000   0.00000   0.16646
  10        4S          0.21203   0.00000   0.00000   0.00000   0.18215
  11        4PX         0.00000   0.07158   0.00000   0.00000   0.00000
  12        4PY         0.00000   0.00000   0.06462   0.00000   0.00000
  13        4PZ         0.00000   0.00000   0.00000   0.10075   0.00000
  14 2   H  1S          0.01613   0.01065   0.03263   0.00004   0.01826
  15        2S          0.04113   0.01940   0.05787   0.00004   0.04664
  16        3S          0.00279   0.00395   0.01024   0.00000   0.00821
  17 3   H  1S          0.01691   0.04426   0.00001   0.00004   0.01844
  18        2S          0.04224   0.07735   0.00000   0.00004   0.04637
  19        3S          0.00282   0.01392  -0.00001   0.00000   0.00761
  20 4   C  1S         -0.00059  -0.00057  -0.00171   0.00000   0.00033
  21        2S         -0.00100  -0.00105  -0.00314   0.00000   0.00030
  22        2PX         0.00242   0.00019   0.00551   0.00000   0.00082
  23        2PY         0.00731   0.00552   0.01063   0.00000   0.00247
  24        2PZ         0.00000  -0.00000  -0.00000   0.00613   0.00000
  25        3S          0.02178   0.01331   0.04007  -0.00000   0.00037
  26        3PX         0.01262  -0.00126   0.01851   0.00000   0.00416
  27        3PY         0.03804   0.01848   0.02854   0.00000   0.01250
  28        3PZ         0.00000  -0.00000  -0.00000   0.03523   0.00000
  29        4S          0.00062   0.00477   0.01451  -0.00000  -0.02048
  30        4PX         0.00634  -0.00400   0.00584   0.00000   0.00208
  31        4PY         0.01893   0.00585   0.00127   0.00000   0.00595
  32        4PZ         0.00000  -0.00000  -0.00000   0.04924   0.00000
  33 5   H  1S         -0.00005  -0.00000  -0.00019   0.00000  -0.00082
  34        2S         -0.00122   0.00006  -0.00324  -0.00000  -0.00337
  35        3S         -0.00202   0.00010  -0.00427  -0.00000  -0.00138
  36 6   H  1S         -0.00005  -0.00013  -0.00005   0.00000  -0.00081
  37        2S         -0.00118  -0.00256  -0.00053   0.00000  -0.00341
  38        3S         -0.00199  -0.00354  -0.00057  -0.00000  -0.00150
                          11        12        13        14        15
  11        4PX         0.06031
  12        4PY         0.00000   0.05119
  13        4PZ         0.00000   0.00000   0.14284
  14 2   H  1S          0.00626   0.01758   0.00002   0.08143
  15        2S          0.01522   0.04092   0.00001   0.07744   0.14974
  16        3S          0.00520   0.01187  -0.00001   0.01374   0.04143
  17 3   H  1S          0.02368  -0.00001   0.00002  -0.00001  -0.00067
  18        2S          0.05517  -0.00003   0.00001  -0.00067  -0.00553
  19        3S          0.01658  -0.00003  -0.00000  -0.00205  -0.00813
  20 4   C  1S         -0.00018  -0.00057   0.00000   0.00000   0.00002
  21        2S         -0.00046  -0.00143   0.00000   0.00000   0.00003
  22        2PX        -0.00071   0.00139   0.00000  -0.00000   0.00000
  23        2PY         0.00140   0.00096   0.00000  -0.00000  -0.00036
  24        2PZ        -0.00000  -0.00000   0.00901   0.00000   0.00000
  25        3S          0.00646   0.01991  -0.00000  -0.00007  -0.00146
  26        3PX        -0.00416   0.00562   0.00000  -0.00000   0.00004
  27        3PY         0.00563   0.00127   0.00000  -0.00022  -0.00353
  28        3PZ        -0.00000  -0.00000   0.04895   0.00000   0.00000
  29        4S          0.00235   0.00764  -0.00000  -0.00102  -0.00425
  30        4PX        -0.00710   0.00316   0.00000   0.00001   0.00018
  31        4PY         0.00319  -0.00559   0.00000  -0.00241  -0.01018
  32        4PZ        -0.00000  -0.00000   0.08967   0.00000  -0.00000
  33 5   H  1S          0.00002  -0.00234   0.00000   0.00000   0.00000
  34        2S          0.00025  -0.00991  -0.00000   0.00000   0.00016
  35        3S          0.00027  -0.00734  -0.00000   0.00023   0.00146
  36 6   H  1S         -0.00176  -0.00049   0.00000  -0.00000  -0.00004
  37        2S         -0.00831  -0.00109  -0.00000  -0.00004  -0.00091
  38        3S         -0.00658  -0.00033  -0.00000  -0.00046  -0.00246
                          16        17        18        19        20
  16        3S          0.02106
  17 3   H  1S         -0.00207   0.08243
  18        2S         -0.00815   0.07761   0.14859
  19        3S         -0.00682   0.01355   0.04052   0.02039
  20 4   C  1S          0.00009   0.00000   0.00002   0.00009   0.65947
  21        2S          0.00016   0.00000   0.00003   0.00016   0.49328
  22        2PX         0.00001  -0.00000  -0.00027  -0.00058   0.00000
  23        2PY        -0.00073  -0.00000  -0.00008  -0.00013   0.00000
  24        2PZ        -0.00000   0.00000   0.00000  -0.00000   0.00000
  25        3S         -0.00240  -0.00007  -0.00147  -0.00238  -0.02936
  26        3PX         0.00007  -0.00016  -0.00285  -0.00363   0.00000
  27        3PY        -0.00441  -0.00007  -0.00064  -0.00065   0.00000
  28        3PZ        -0.00000   0.00000   0.00000  -0.00000   0.00000
  29        4S         -0.00210  -0.00101  -0.00414  -0.00194  -0.01234
  30        4PX         0.00019  -0.00185  -0.00865  -0.00669   0.00000
  31        4PY        -0.00747  -0.00057  -0.00136  -0.00049   0.00000
  32        4PZ        -0.00000   0.00000  -0.00000  -0.00000   0.00000
  33 5   H  1S          0.00022  -0.00000  -0.00004  -0.00043  -0.00021
  34        2S          0.00144  -0.00004  -0.00091  -0.00236  -0.00158
  35        3S          0.00246  -0.00046  -0.00243  -0.00286   0.00004
  36 6   H  1S         -0.00043   0.00000   0.00000   0.00022  -0.00020
  37        2S         -0.00239   0.00000   0.00015   0.00141  -0.00155
  38        3S         -0.00291   0.00023   0.00144   0.00242   0.00004
                          21        22        23        24        25
  21        2S          0.49201
  22        2PX         0.00000   0.08244
  23        2PY         0.00000   0.00000   0.08749
  24        2PZ         0.00000   0.00000   0.00000   0.06428
  25        3S         -0.06456   0.00000   0.00000   0.00000   0.45347
  26        3PX         0.00000   0.08073   0.00000   0.00000   0.00000
  27        3PY         0.00000   0.00000   0.08252   0.00000   0.00000
  28        3PZ         0.00000   0.00000   0.00000   0.06472   0.00000
  29        4S         -0.02171   0.00000   0.00000   0.00000   0.21621
  30        4PX         0.00000   0.01604   0.00000   0.00000   0.00000
  31        4PY         0.00000   0.00000   0.01472   0.00000   0.00000
  32        4PZ         0.00000   0.00000   0.00000   0.02111   0.00000
  33 5   H  1S         -0.00030   0.00149   0.00558   0.00001   0.01529
  34        2S         -0.00303   0.00386   0.01356   0.00001   0.03941
  35        3S         -0.00006   0.00068   0.00200   0.00000   0.00263
  36 6   H  1S         -0.00028   0.00675   0.00001   0.00001   0.01478
  37        2S         -0.00297   0.01719   0.00001   0.00001   0.03886
  38        3S         -0.00007   0.00270  -0.00001   0.00000   0.00272
                          26        27        28        29        30
  26        3PX         0.20007
  27        3PY         0.00000   0.19718
  28        3PZ         0.00000   0.00000   0.16463
  29        4S          0.00000   0.00000   0.00000   0.18804
  30        4PX         0.07450   0.00000   0.00000   0.00000   0.06605
  31        4PY         0.00000   0.06602   0.00000   0.00000   0.00000
  32        4PZ         0.00000   0.00000   0.10022   0.00000   0.00000
  33 5   H  1S          0.00905   0.03309   0.00004   0.01765   0.00581
  34        2S          0.01754   0.05974   0.00004   0.04474   0.01478
  35        3S          0.00386   0.01075   0.00000   0.00721   0.00537
  36 6   H  1S          0.04121   0.00007   0.00004   0.01759   0.02438
  37        2S          0.07694  -0.00001   0.00004   0.04525   0.05899
  38        3S          0.01483  -0.00008   0.00000   0.00781   0.01866
                          31        32        33        34        35
  31        4PY         0.05331
  32        4PZ         0.00000   0.14293
  33 5   H  1S          0.01848   0.00002   0.08055
  34        2S          0.04345   0.00002   0.07764   0.15241
  35        3S          0.01283  -0.00000   0.01419   0.04355   0.02280
  36 6   H  1S         -0.00004   0.00002  -0.00001  -0.00076  -0.00229
  37        2S         -0.00022   0.00001  -0.00076  -0.00643  -0.00943
  38        3S         -0.00017  -0.00000  -0.00231  -0.00947  -0.00821
                          36        37        38
  36 6   H  1S          0.07974
  37        2S          0.07741   0.15295
  38        3S          0.01427   0.04402   0.02313
     Gross orbital populations:
                           1
   1 1   C  1S          1.10435
   2        2S          0.88586
   3        2PX         0.22705
   4        2PY         0.23626
   5        2PZ         0.16618
   6        3S          0.79304
   7        3PX         0.56090
   8        3PY         0.55618
   9        3PZ         0.42309
  10        4S          0.50332
  11        4PX         0.25982
  12        4PY         0.21142
  13        4PZ         0.41238
  14 2   H  1S          0.27439
  15        2S          0.46690
  16        3S          0.08582
  17 3   H  1S          0.27746
  18        2S          0.46505
  19        3S          0.08306
  20 4   C  1S          1.10442
  21        2S          0.88584
  22        2PX         0.22157
  23        2PY         0.23558
  24        2PZ         0.16568
  25        3S          0.79204
  26        3PX         0.55187
  27        3PY         0.55580
  28        3PZ         0.42000
  29        4S          0.50979
  30        4PX         0.27422
  31        4PY         0.21604
  32        4PZ         0.41224
  33 5   H  1S          0.27168
  34        2S          0.47005
  35        3S          0.08921
  36 6   H  1S          0.26915
  37        2S          0.47117
  38        3S          0.09113
          Condensed to atoms (all electrons):
               1          2          3          4          5          6
     1  C    5.034886   0.387252   0.387949   0.601616  -0.036218  -0.035633
     2  H    0.387252   0.517448  -0.034098  -0.039821   0.005980  -0.009651
     3  H    0.387949  -0.034098   0.514759  -0.039393  -0.009530   0.005884
     4  C    0.601616  -0.039821  -0.039393   5.055564   0.383826   0.383299
     5  H   -0.036218   0.005980  -0.009530   0.383826   0.526544  -0.039666
     6  H   -0.035633  -0.009651   0.005884   0.383299  -0.039666   0.527208
 Mulliken charges:
               1
     1  C   -0.339852
     2  H    0.172890
     3  H    0.174428
     4  C   -0.345091
     5  H    0.169065
     6  H    0.168559
 Sum of Mulliken charges =  -0.00000
 Mulliken charges with hydrogens summed into heavy atoms:
               1
     1  C    0.007467
     4  C   -0.007467
 Electronic spatial extent (au):  <R**2>=             83.7977
 Charge=             -0.0000 electrons
 Dipole moment (field-independent basis, Debye):
    X=             -0.0018    Y=              0.0122    Z=             -0.1376  Tot=              0.1382
 Quadrupole moment (field-independent basis, Debye-Ang):
   XX=            -12.2093   YY=            -12.2207   ZZ=            -15.6728
   XY=              0.0149   XZ=             -0.0008   YZ=             -0.0053
 Traceless Quadrupole moment (field-independent basis, Debye-Ang):
   XX=              1.1583   YY=              1.1469   ZZ=             -2.3052
   XY=              0.0149   XZ=             -0.0008   YZ=             -0.0053
 Octapole moment (field-independent basis, Debye-Ang**2):
  XXX=             -0.2912  YYY=             -0.0775  ZZZ=             -0.0557  XYY=              0.1210
  XXY=             -0.0417  XXZ=             -0.1774  XZZ=             -0.0891  YZZ=             -0.0858
  YYZ=             -0.2364  XYZ=             -0.0509
 Hexadecapole moment (field-independent basis, Debye-Ang**3):
 XXXX=            -34.3339 YYYY=            -55.2658 ZZZZ=            -17.8300 XXXY=             -7.2501
 XXXZ=              0.0123 YYYX=            -10.7290 YYYZ=              0.0152 ZZZX=              0.0209
 ZZZY=              0.0396 XXYY=            -16.2223 XXZZ=             -9.9387 YYZZ=            -13.6564
 XXYZ=              0.0068 YYXZ=             -0.0000 ZZXY=             -3.2092
 N-N= 3.304719216572D+01 E-N=-2.477994102286D+02  KE= 7.814543454727D+01
 Orbital energies and kinetic energies (alpha):
                                 1                 2
   1         O               -10.291062         15.979011
   2         O               -10.287958         15.979579
   3         O                -0.863616          1.538167
   4         O                -0.671992          1.270892
   5         O                -0.558881          0.941211
   6         O                -0.509436          1.282723
   7         O                -0.436405          1.042389
   8         O                -0.356810          1.038745
   9         V                 0.079449          1.182319
  10         V                 0.140819          0.589938
  11         V                 0.164441          0.596377
  12         V                 0.170005          0.680202
  13         V                 0.240769          0.583861
  14         V                 0.375439          0.858862
  15         V                 0.392620          0.931774
  16         V                 0.397417          0.775294
  17         V                 0.463904          1.193831
  18         V                 0.487934          1.422586
  19         V                 0.493806          1.301978
  20         V                 0.590938          1.652855
  21         V                 0.665185          1.573281
  22         V                 0.690253          2.144874
  23         V                 0.772095          2.420832
  24         V                 0.775801          2.321425
  25         V                 0.839186          1.081257
  26         V                 0.951749          3.421298
  27         V                 2.232033          3.923344
  28         V                 2.289679          4.030582
  29         V                 2.332470          4.301751
  30         V                 2.405178          4.513530
  31         V                 2.671098          6.300538
  32         V                 2.816881          6.303115
  33         V                 2.879745          6.139554
  34         V                 2.951379          6.225894
  35         V                 3.139500          6.821930
  36         V                 3.316309          6.402846
  37         V                23.351822         60.074526
  38         V                23.705280         60.203497
 Total kinetic energy from orbitals= 7.814543454727D+01
 Calling FoFJK, ICntrl=      2127 FMM=F ISym2X=0 I1Cent= 0 IOpClX= 0 NMat=1 NMatS=1 NMatT=0.
 -------------------------------------------------------------------
 Center     Atomic                   Forces (Hartrees/Bohr)
 Number     Number              X              Y              Z
 -------------------------------------------------------------------
      1        6           0.012046516    0.008166392   -0.005384070
      2        1          -0.007862386    0.005570231    0.002752686
      3        1           0.002566717   -0.003468770    0.002542597
      4        6           0.008629352    0.008705509   -0.006287600
      5        1           0.003641372   -0.014370542    0.003125601
      6        1          -0.019021571   -0.004602820    0.003250786
 -------------------------------------------------------------------
 Cartesian Forces:  Max     0.019021571 RMS     0.008093909

 GradGradGradGradGradGradGradGradGradGradGradGradGradGradGradGradGradGrad
 Berny optimization.
 Search for a local minimum.
 Step number   1 out of a maximum of    2
 All quantities printed in internal units (Hartrees-Bohrs-Radians)
 Second derivative matrix not updated -- first step.
 The second derivative matrix:
                          X1        Y1        Z1        X2        Y2
           X1           0.75722
           Y1           0.09913   0.85956
           Z1           0.00812   0.01269   0.17186
           X2          -0.16326   0.09593   0.00292   0.14081
           Y2           0.10229  -0.28553  -0.01036  -0.11523   0.27451
           Z2           0.00457  -0.01297  -0.05536  -0.00416   0.01076
           X3          -0.35203  -0.00271  -0.01121  -0.00046  -0.00024
           Y3          -0.00900  -0.10987  -0.00274   0.03253   0.01863
           Z3          -0.01430  -0.00265  -0.05648   0.00207   0.00075
           X4          -0.26677  -0.17800  -0.00127   0.02293   0.01317
           Y4          -0.17829  -0.47232  -0.00211  -0.01324  -0.00761
           Z4           0.00160   0.00291  -0.09375  -0.00083  -0.00115
           X5           0.02336  -0.01349   0.00089  -0.00001   0.00001
           Y5           0.01182  -0.00682   0.00120   0.00001  -0.00000
           Z5          -0.00069   0.00042   0.01712   0.00034  -0.00019
           X6           0.00149  -0.00086   0.00055  -0.00001   0.00001
           Y6          -0.02595   0.01498   0.00133   0.00001  -0.00000
           Z6           0.00070  -0.00039   0.01660  -0.00034   0.00019
                          Z2        X3        Y3        Z3        X4
           Z2           0.02894
           X3          -0.00043   0.35218
           Y3           0.00221   0.00314   0.07584
           Z3           0.01054   0.01223   0.00189   0.02973
           X4           0.00074   0.00034  -0.02669  -0.00073   0.70934
           Y4          -0.00041  -0.00020   0.01541   0.00044   0.11936
           Z4           0.01582  -0.00060  -0.00135   0.01626  -0.00704
           X5          -0.00036  -0.00001   0.00001   0.00037  -0.14684
           Y5           0.00022   0.00001  -0.00001  -0.00022   0.09231
           Z5           0.00921   0.00036  -0.00022  -0.00935  -0.00446
           X6          -0.00036  -0.00001   0.00001   0.00036  -0.31900
           Y6           0.00020   0.00001  -0.00000  -0.00020  -0.02016
           Z6          -0.00916  -0.00036   0.00021   0.00930   0.01276
                          Y4        Z4        X5        Y5        Z5
           Y4           0.85421
           Z4          -0.01356   0.17445
           X5           0.08445  -0.00293   0.12539
           Y5          -0.28573   0.01045  -0.10322   0.27629
           Z5           0.01299  -0.05672   0.00396  -0.01112   0.02959
           X6          -0.01208   0.00980  -0.00188  -0.00094   0.00049
           Y6          -0.10395   0.00269   0.03224   0.01627  -0.00188
           Z6           0.00265  -0.05606  -0.00192  -0.00053   0.01015
                          X6        Y6        Z6
           X6           0.31943
           Y6           0.01386   0.07270
           Z6          -0.01085  -0.00213   0.02917
 ITU=  0
     Eigenvalues ---    0.03709   0.04373   0.09046   0.10163   0.13489
     Eigenvalues ---    0.17409   0.26239   0.28917   0.52790   0.69782
     Eigenvalues ---    0.97188   1.55923
 Angle between quadratic step and forces=  35.73 degrees.
 Linear search not attempted -- first point.
 B after Tr=     0.005645    0.006199   -0.014154
         Rot=    1.000000   -0.000015    0.000007   -0.000102 Ang=  -0.01 deg.
 Variable       Old X    -DE/DX   Delta X   Delta X   Delta X     New X
                                 (Linear)    (Quad)   (Total)
    X1       -0.63452   0.01205   0.00000   0.01879   0.02466  -0.60987
    Y1       -1.09843   0.00817   0.00000   0.02104   0.02712  -1.07131
    Z1        0.01520  -0.00538   0.00000  -0.02941  -0.04360  -0.02840
    X2        0.39806  -0.00786   0.00000  -0.02776  -0.02153   0.37653
    Y2       -2.89220   0.00557   0.00000   0.02140   0.02767  -2.86453
    Z2       -0.06035   0.00275   0.00000   0.03644   0.02221  -0.03814
    X3       -2.68534   0.00257   0.00000   0.02412   0.03000  -2.65534
    Y3       -1.12219  -0.00347   0.00000  -0.01022  -0.00457  -1.12676
    Z3       -0.06261   0.00254   0.00000   0.03562   0.02140  -0.04121
    X4        0.63025   0.00863   0.00000   0.00456   0.00999   0.64023
    Y4        1.09225   0.00871   0.00000   0.00463   0.01096   1.10321
    Z4        0.01305  -0.00629   0.00000  -0.02918  -0.04329  -0.03025
    X5       -0.31565   0.00364   0.00000  -0.00191   0.00314  -0.31250
    Y5        2.95642  -0.01437   0.00000  -0.04548  -0.03935   2.91707
    Z5       -0.06867   0.00313   0.00000   0.03615   0.02208  -0.04659
    X6        2.73275  -0.01902   0.00000  -0.05166  -0.04626   2.68650
    Y6        1.21048  -0.00460   0.00000  -0.02858  -0.02184   1.18864
    Z6       -0.06607   0.00325   0.00000   0.03530   0.02121  -0.04486
         Item               Value     Threshold  Converged?
 Maximum Force            0.019022     0.000450     NO 
 RMS     Force            0.008094     0.000300     NO 
 Maximum Displacement     0.046255     0.001800     NO 
 RMS     Displacement     0.027438     0.001200     NO 
 Predicted change in Energy=-1.716989D-03
 GradGradGradGradGradGradGradGradGradGradGradGradGradGradGradGradGradGrad

 Unable to Open any file for archive entry.
 1\1\GINC-BHD0006\Force\RwB97XD\6-311G\C2H4\BWEIGHT\11-Jan-2023\0\\# WB
 97XD/6-311G SCF=XQC FORCE nosym pop=full guess=read\\MD Step 1000\\0,1
 \C,-0.33577441,-0.58126471,0.00804356\H,0.21064493,-1.53048714,-0.0319
 3624\H,-1.42101819,-0.5938396,-0.03313126\C,0.33351291,0.5779963,0.006
 90356\H,-0.16703237,1.56446891,-0.03633877\H,1.44611112,0.64055774,-0.
 03496289\\Version=ES64L-G16RevC.01\HF=-78.5556323\RMSD=5.476e-09\RMSF=
 8.094e-03\Dipole=-0.0006978,0.004794,-0.0541434\Quadrupole=0.8611825,0
 .8526933,-1.7138758,0.0110653,-0.0006132,-0.0039762\PG=C01 [X(C2H4)]\\
 @
 The archive entry for this job was punched.


 BLACK HOLES SUCK.
 Job cpu time:       0 days  0 hours  0 minutes 42.0 seconds.
 Elapsed time:       0 days  0 hours  0 minutes 16.0 seconds.
 File lengths (MBytes):  RWF=    272 Int=      0 D2E=      0 Chk=     32 Scr=     32
 Normal termination of Gaussian 16 at Wed Jan 11 18:39:25 2023.
