6
MD Step 0
C  -0.33763715 -0.58748864 0.00000000
H  0.19552659 -1.51519357 0.00000000
H  -1.40763715 -0.58748864 0.00000000
C  0.33763715 0.58748865 0.00000000
H  -0.19552659 1.51519357 0.00000000
H  1.40763715 0.58748865 0.00000000
6
MD Step 1
C  -0.33800565 -0.58783584 -0.00039501
H  0.19788778 -1.51298793 0.00235437
H  -1.40541866 -0.58520865 0.00235145
C  0.33721660 0.58704674 -0.00039459
H  -0.19318547 1.51769044 0.00235299
H  1.41011861 0.58990907 0.00235007
6
MD Step 2
C  -0.33831774 -0.58808620 -0.00078980
H  0.20027094 -1.51109217 0.00470746
H  -1.40352154 -0.58307889 0.00470169
C  0.33674877 0.58651325 -0.00078894
H  -0.19086187 1.52045367 0.00470458
H  1.41280827 0.59246070 0.00469864
6
MD Step 3
C  -0.33856668 -0.58823564 -0.00118110
H  0.20265528 -1.50953614 0.00703961
H  -1.40200982 -0.58112586 0.00703136
C  0.33624201 0.58589546 -0.00117969
H  -0.18856801 1.52343355 0.00703475
H  1.41562341 0.59511410 0.00702545
6
MD Step 4
C  -0.33875479 -0.58828952 -0.00157390
H  0.20506608 -1.50829303 0.00938048
H  -1.40088837 -0.57932572 0.00937056
C  0.33569662 0.58519336 -0.00157169
H  -0.18626465 1.52662442 0.00937263
H  1.41852817 0.59788828 0.00935922
6
MD Step 5
C  -0.33887886 -0.58824789 -0.00196685
H  0.20748749 -1.50736690 0.01172187
H  -1.40018971 -0.57769160 0.01171166
C  0.33511952 0.58441416 -0.00196342
H  -0.18394878 1.52997802 0.01170923
H  1.42144743 0.60076338 0.01169049
6
MD Step 6
C  -0.33893443 -0.58810974 -0.00235643
H  0.20988772 -1.50676787 0.01404262
H  -1.39994795 -0.57624861 0.01403423
C  0.33451985 0.58356806 -0.00235117
H  -0.18162906 1.53342951 0.01402248
H  1.42429353 0.60370581 0.01399657
6
MD Step 7
C  -0.33892600 -0.58788302 -0.00274705
H  0.21227941 -1.50645218 0.01636876
H  -1.40013766 -0.57497362 0.01636505
C  0.33389884 0.58265799 -0.00273909
H  -0.17926633 1.53695879 0.01633735
H  1.42702841 0.60672855 0.01630187
6
MD Step 8
C  -0.33884620 -0.58756376 -0.00313024
H  0.21459619 -1.50644684 0.01864968
H  -1.40079820 -0.57391915 0.01865438
C  0.33327045 0.58170032 -0.00311850
H  -0.17689779 1.54046755 0.01860213
H  1.42954055 0.60976732 0.01855400
6
MD Step 9
C  -0.33870141 -0.58716157 -0.00351019
H  0.21684514 -1.50669792 0.02091017
H  -1.40188086 -0.57306116 0.02092768
C  0.33263581 0.58069913 -0.00349334
H  -0.17448565 1.54393273 0.02084042
H  1.43179924 0.61283298 0.02077603
6
MD Step 10
C  -0.33849300 -0.58668084 -0.00388501
H  0.21899581 -1.50718307 0.02313890
H  -1.40336168 -0.57241062 0.02317431
C  0.33200186 0.57966489 -0.00386152
H  -0.17202900 1.54729593 0.02303974
H  1.43374347 0.61590001 0.02295499
6
MD Step 11
C  -0.33822036 -0.58612372 -0.00424986
H  0.22099950 -1.50789363 0.02530711
H  -1.40522359 -0.57199472 0.02536613
C  0.33137814 0.57861113 -0.00421807
H  -0.16954551 1.55048307 0.02517030
H  1.43530173 0.61892542 0.02506054
6
MD Step 12
C  -0.33789116 -0.58550030 -0.00460722
H  0.22285072 -1.50877450 0.02742958
H  -1.40739633 -0.57179591 0.02751815
C  0.33076652 0.57754413 -0.00456528
H  -0.16701105 1.55346649 0.02724583
H  1.43645397 0.62190991 0.02710626
6
MD Step 13
C  -0.33750241 -0.58480976 -0.00494805
H  0.22447612 -1.50983683 0.02945288
H  -1.40987007 -0.57186344 0.02957746
C  0.33017994 0.57648148 -0.00489417
H  -0.16447145 1.55615399 0.02921226
H  1.43712021 0.62478625 0.02903751
6
MD Step 14
C  -0.33706443 -0.58406422 -0.00527589
H  0.22587784 -1.51101583 0.03139841
H  -1.41255337 -0.57217057 0.03156512
C  0.32961826 0.57542806 -0.00520821
H  -0.16190023 1.55853272 0.03109023
H  1.43730454 0.62756250 0.03087512
6
MD Step 15
C  -0.33658874 -0.58327679 -0.00559498
H  0.22706331 -1.51224265 0.03329154
H  -1.41534641 -0.57268529 0.03350575
C  0.32908023 0.57438774 -0.00551158
H  -0.15926942 1.56059884 0.03290448
H  1.43702413 0.63025126 0.03264438
6
MD Step 16
C  -0.33608139 -0.58245482 -0.00590359
H  0.22800671 -1.51348444 0.03512255
H  -1.41818256 -0.57340939 0.03538903
C  0.32857006 0.57336995 -0.00580267
H  -0.15658869 1.56231879 0.03464500
H  1.43626982 0.63283057 0.03433557
6
MD Step 17
C  -0.33554604 -0.58160305 -0.00619729
H  0.22866866 -1.51472582 0.03686588
H  -1.42101080 -0.57435918 0.03718895
C  0.32809412 0.57238628 -0.00607731
H  -0.15388612 1.56364901 0.03628632
H  1.43502558 0.63526335 0.03592336
6
MD Step 18
C  -0.33499202 -0.58073178 -0.00647731
H  0.22904556 -1.51592050 0.03852937
H  -1.42374805 -0.57551663 0.03891210
C  0.32765269 0.57144220 -0.00633687
H  -0.15115949 1.56458540 0.03783628
H  1.43331770 0.63754664 0.03741646
6
MD Step 19
C  -0.33442470 -0.57984713 -0.00674081
H  0.22911288 -1.51704903 0.04009696
H  -1.42633806 -0.57688632 0.04054156
C  0.32724956 0.57054658 -0.00657886
H  -0.14843313 1.56510646 0.03927931
H  1.43115748 0.63965448 0.03879976
6
MD Step 20
C  -0.33385572 -0.57896144 -0.00699154
H  0.22888772 -1.51805697 0.04159138
H  -1.42869024 -0.57843337 0.04209806
C  0.32688149 0.56970114 -0.00680715
H  -0.14569583 1.56523577 0.04063835
H  1.42860347 0.64160053 0.04009781
6
MD Step 21
C  -0.33328660 -0.57807674 -0.00722309
H  0.22833118 -1.51895328 0.04297582
H  -1.43077919 -0.58018106 0.04354434
C  0.32655476 0.56891682 -0.00701596
H  -0.14299809 1.56494418 0.04187772
H  1.42566298 0.64334005 0.04127507
6
MD Step 22
C  -0.33272524 -0.57720142 -0.00743598
H  0.22744802 -1.51971105 0.04425398
H  -1.43254562 -0.58211169 0.04488260
C  0.32626831 0.56819704 -0.00720614
H  -0.14035301 1.56424945 0.04300199
H  1.42239159 0.64486974 0.04233737
6
MD Step 23
C  -0.33218556 -0.57634985 -0.00763745
H  0.22628528 -1.52026932 0.04546871
H  -1.43389892 -0.58416817 0.04615262
C  0.32601406 0.56753791 -0.00738488
H  -0.13773758 1.56321455 0.04405446
H  1.41889089 0.64622635 0.04333076
6
MD Step 24
C  -0.33166607 -0.57552086 -0.00781936
H  0.22480434 -1.52066146 0.04657320
H  -1.43484641 -0.58638175 0.04730768
C  0.32579855 0.56694968 -0.00754491
H  -0.13521978 1.56181933 0.04499014
H  1.41517929 0.64735832 0.04421016
6
MD Step 25
C  -0.33116581 -0.57471370 -0.00797466
H  0.22297656 -1.52091945 0.04752725
H  -1.43539757 -0.58877671 0.04830776
C  0.32562678 0.56644066 -0.00768013
H  -0.13286310 1.56005608 0.04577077
H  1.41128739 0.64822184 0.04493718
6
MD Step 26
C  -0.33069408 -0.57393793 -0.00810764
H  0.22084177 -1.52101521 0.04835621
H  -1.43550533 -0.59131205 0.04917587
C  0.32549233 0.56600741 -0.00779494
H  -0.13066818 1.55798794 0.04642284
H  1.40731595 0.64883960 0.04554070
6
MD Step 27
C  -0.33024881 -0.57319161 -0.00821137
H  0.21837880 -1.52099005 0.04902077
H  -1.43519599 -0.59401050 0.04987323
C  0.32539929 0.56565642 -0.00788347
H  -0.12870102 1.55561899 0.04690926
H  1.40330529 0.64917116 0.04598336
6
MD Step 28
C  -0.32983840 -0.57248332 -0.00829063
H  0.21563633 -1.52082343 0.04954884
H  -1.43443797 -0.59682812 0.05042556
C  0.32534017 0.56538218 -0.00795056
H  -0.12696242 1.55302470 0.04725932
H  1.39936510 0.64924424 0.04629678
6
MD Step 29
C  -0.32946893 -0.57181931 -0.00834855
H  0.21265654 -1.52050906 0.04995891
H  -1.43321844 -0.59973030 0.05084966
C  0.32530888 0.56518003 -0.00799956
H  -0.12546315 1.55027487 0.04749304
H  1.39559635 0.64907829 0.04650293
6
MD Step 30
C  -0.32914326 -0.57120258 -0.00838573
H  0.20946945 -1.52006032 0.05025453
H  -1.43154908 -0.60269742 0.05114819
C  0.32530180 0.56504716 -0.00803138
H  -0.12422889 1.54742704 0.04761574
H  1.39208355 0.64867881 0.04660830
6
MD Step 31
C  -0.32886038 -0.57063227 -0.00839948
H  0.20608898 -1.51951353 0.05042061
H  -1.42946967 -0.60572864 0.05130643
C  0.32531850 0.56498331 -0.00804401
H  -0.12330325 1.54452171 0.04761433
H  1.38888905 0.64803365 0.04659980
6
MD Step 32
C  -0.32862668 -0.57011512 -0.00839588
H  0.20258046 -1.51885968 0.05049175
H  -1.42697980 -0.60877431 0.05135706
C  0.32535043 0.56497952 -0.00804322
H  -0.12267972 1.54164914 0.04752465
H  1.38611895 0.64718085 0.04651538
6
MD Step 33
C  -0.32843711 -0.56964639 -0.00836970
H  0.19894702 -1.51815742 0.05043819
H  -1.42415230 -0.61184917 0.05127185
C  0.32540016 0.56503723 -0.00802459
H  -0.12241367 1.53883453 0.04731882
H  1.38380735 0.64609496 0.04632596
6
MD Step 34
C  -0.32829157 -0.56922654 -0.00832182
H  0.19522758 -1.51743377 0.05026486
H  -1.42103380 -0.61493417 0.05105584
C  0.32546485 0.56515193 -0.00798911
H  -0.12252376 1.53613537 0.04700305
H  1.38201324 0.64478570 0.04603781
6
MD Step 35
C  -0.32818925 -0.56885547 -0.00825319
H  0.19146210 -1.51671786 0.04997680
H  -1.41767837 -0.61801076 0.05071454
C  0.32554216 0.56531900 -0.00793774
H  -0.12302543 1.53360582 0.04658347
H  1.38078449 0.64326345 0.04565675
6
MD Step 36
C  -0.32813002 -0.56853398 -0.00816624
H  0.18769924 -1.51603191 0.04958745
H  -1.41413857 -0.62105283 0.05026168
C  0.32562892 0.56553246 -0.00787267
H  -0.12392203 1.53130352 0.04607429
H  1.38016450 0.64154744 0.04519671
6
MD Step 37
C  -0.32811109 -0.56826049 -0.00806133
H  0.18397570 -1.51541070 0.04909829
H  -1.41048475 -0.62404694 0.04969985
C  0.32572463 0.56578854 -0.00779415
H  -0.12522438 1.52926806 0.04547755
H  1.38017060 0.63964544 0.04465865
6
MD Step 38
C  -0.32812511 -0.56802906 -0.00793460
H  0.18030386 -1.51491256 0.04848702
H  -1.40681565 -0.62700428 0.04900915
C  0.32583343 0.56608772 -0.00769859
H  -0.12696203 1.52750801 0.04477122
H  1.38078158 0.63754192 0.04401823
6
MD Step 39
C  -0.32816850 -0.56783787 -0.00778673
H  0.17672040 -1.51456888 0.04775697
H  -1.40320715 -0.62991120 0.04819445
C  0.32595576 0.56642657 -0.00758643
H  -0.12913364 1.52604965 0.04395853
H  1.38198750 0.63524752 0.04327714
6
MD Step 40
C  -0.32824140 -0.56768900 -0.00762277
H  0.17328436 -1.51438461 0.04693554
H  -1.39971200 -0.63273065 0.04728385
C  0.32608859 0.56679799 -0.00746177
H  -0.13170805 1.52493480 0.04306664
H  1.38378858 0.63279772 0.04246182
6
MD Step 41
C  -0.32833566 -0.56757656 -0.00743927
H  0.17000523 -1.51440905 0.04600286
H  -1.39642999 -0.63547378 0.04626017
C  0.32623734 0.56720335 -0.00732127
H  -0.13469547 1.52414872 0.04207491
H  1.38612394 0.63018132 0.04154913
6
MD Step 42
C  -0.32844917 -0.56750086 -0.00723933
H  0.16692612 -1.51465093 0.04497543
H  -1.39342174 -0.63811586 0.04514132
C  0.32640168 0.56763836 -0.00716727
H  -0.13806366 1.52370400 0.04099914
H  1.38895722 0.62742436 0.04055357
6
MD Step 43
C  -0.32857994 -0.56746248 -0.00702622
H  0.16408779 -1.51511332 0.04387065
H  -1.39074255 -0.64063187 0.04394610
C  0.32658145 0.56809906 -0.00700221
H  -0.14177355 1.52360508 0.03985594
H  1.39224237 0.62455466 0.03949061
6
MD Step 44
C  -0.32871994 -0.56745612 -0.00679671
H  0.16149102 -1.51583050 0.04266966
H  -1.38847805 -0.64303395 0.04265803
C  0.32678275 0.56858811 -0.00682282
H  -0.14581701 1.52381117 0.03862508
H  1.39588766 0.62156448 0.03833798
6
MD Step 45
C  -0.32886111 -0.56747648 -0.00654722
H  0.15913099 -1.51683243 0.04135207
H  -1.38670708 -0.64533638 0.04125887
C  0.32701196 0.56910885 -0.00662557
H  -0.15018242 1.52427199 0.03728457
H  1.39979315 0.61844541 0.03707190
6
MD Step 46
C  -0.32900205 -0.56752473 -0.00628072
H  0.15703514 -1.51810594 0.03993387
H  -1.38546107 -0.64751691 0.03976569
C  0.32726919 0.56965874 -0.00641276
H  -0.15481692 1.52496735 0.03584950
H  1.40389169 0.61522668 0.03570676
6
MD Step 47
C  -0.32914512 -0.56760560 -0.00600357
H  0.15524536 -1.51961241 0.03844978
H  -1.38474060 -0.64953446 0.03821366
C  0.32755121 0.57023224 -0.00618964
H  -0.15964468 1.52589041 0.03435430
H  1.40813299 0.61195731 0.03427690
6
MD Step 48
C  -0.32928054 -0.56771162 -0.00570872
H  0.15372458 -1.52138194 0.03686051
H  -1.38460880 -0.65142351 0.03656497
C  0.32786693 0.57083668 -0.00594978
H  -0.16466197 1.52695462 0.03275774
H  1.41239074 0.60861247 0.03273989
6
MD Step 49
C  -0.32940880 -0.56784507 -0.00539917
H  0.15248739 -1.52338207 0.03518249
H  -1.38505860 -0.65316213 0.03483628
C  0.32821549 0.57146987 -0.00569566
H  -0.16980622 1.52812675 0.03107578
H  1.41659690 0.60522419 0.03111170
6
MD Step 50
C  -0.32953173 -0.56800918 -0.00507851
H  0.15154765 -1.52557108 0.03343569
H  -1.38606556 -0.65472497 0.03304750
C  0.32859497 0.57212901 -0.00543036
H  -0.17500985 1.52937530 0.02932833
H  1.42069021 0.60182867 0.02941242
6
MD Step 51
C  -0.32964788 -0.56820347 -0.00474619
H  0.15089194 -1.52792572 0.03161706
H  -1.38761541 -0.65611051 0.03119542
C  0.32900685 0.57281511 -0.00515332
H  -0.18022818 1.53064456 0.02751177
H  1.42459016 0.59843916 0.02763858
6
MD Step 52
C  -0.32975180 -0.56842311 -0.00439673
H  0.15047597 -1.53044587 0.02969671
H  -1.38970865 -0.65734521 0.02924993
C  0.32945663 0.57353364 -0.00485976
H  -0.18544435 1.53185190 0.02559486
H  1.42819439 0.59504188 0.02575904
6
MD Step 53
C  -0.32985103 -0.56867545 -0.00403752
H  0.15032397 -1.53305542 0.02771600
H  -1.39226130 -0.65838309 0.02725147
C  0.32993720 0.57427751 -0.00455633
H  -0.19056982 1.53298894 0.02362010
H  1.43148033 0.59169518 0.02381704
6
MD Step 54
C  -0.32994787 -0.56896223 -0.00366996
H  0.15042375 -1.53570958 0.02568316
H  -1.39521321 -0.65921279 0.02520739
C  0.33044655 0.57504502 -0.00424442
H  -0.19555173 1.53401609 0.02159593
H  1.43439888 0.58842362 0.02182156
6
MD Step 55
C  -0.33004369 -0.56928381 -0.00329406
H  0.15075293 -1.53836992 0.02359882
H  -1.39850400 -0.65983163 0.02311741
C  0.33098340 0.57583538 -0.00392421
H  -0.20034752 1.53488924 0.01952297
H  1.43690094 0.58524362 0.01977384
6
MD Step 56
C  -0.33014228 -0.56964245 -0.00291202
H  0.15129947 -1.54098516 0.02147581
H  -1.40205473 -0.66022549 0.02099335
C  0.33154394 0.57664533 -0.00359784
H  -0.20490522 1.53558080 0.01741461
H  1.43895824 0.58218333 0.01768786
6
MD Step 57
C  -0.33024281 -0.57003546 -0.00252110
H  0.15202211 -1.54353247 0.01929958
H  -1.40581027 -0.66040955 0.01881972
C  0.33212848 0.57747584 -0.00326307
H  -0.20920452 1.53603987 0.01525584
H  1.44052302 0.57924235 0.01554921
6
MD Step 58
C  -0.33034905 -0.57046429 -0.00212329
H  0.15290495 -1.54596371 0.01708170
H  -1.40968642 -0.66037352 0.01660716
C  0.33273245 0.57832295 -0.00292185
H  -0.21320247 1.53624742 0.01305871
H  1.44158337 0.57644583 0.01337051
6
MD Step 59
C  -0.33046108 -0.57092642 -0.00171675
H  0.15391023 -1.54825428 0.01481270
H  -1.41361978 -0.66013009 0.01434541
C  0.33335437 0.57918581 -0.00257276
H  -0.21688206 1.53616866 0.01081343
H  1.44211502 0.57379657 0.01114246
6
MD Step 60
C  -0.33058694 -0.57142680 -0.00130810
H  0.15504742 -1.55033467 0.01252998
H  -1.41750032 -0.65964549 0.01207114
C  0.33398446 0.58005501 -0.00222192
H  -0.22018311 1.53582250 0.00855859
H  1.44215096 0.57134365 0.00890412
6
MD Step 61
C  -0.33072573 -0.57196139 -0.00089495
H  0.15627560 -1.55218999 0.01022075
H  -1.42127203 -0.65893886 0.00977104
C  0.33462100 0.58092930 -0.00186732
H  -0.22310163 1.53518286 0.00628090
H  1.44168191 0.56908409 0.00664251
6
MD Step 62
C  -0.33087961 -0.57252892 -0.00047840
H  0.15757418 -1.55378963 0.00789165
H  -1.42486328 -0.65801108 0.00745132
C  0.33525864 0.58180363 -0.00151005
H  -0.22561894 1.53424975 0.00398699
H  1.44072742 0.56703322 0.00436453
6
MD Step 63
C  -0.33104718 -0.57312446 -0.00005628
H  0.15890501 -1.55512610 0.00553094
H  -1.42822641 -0.65688341 0.00509999
C  0.33589482 0.58267566 -0.00114825
H  -0.22774035 1.53301081 0.00166438
H  1.43929711 0.56518635 0.00205784
6
MD Step 64
C  -0.33123706 -0.57375276 0.00036282
H  0.16029225 -1.55613528 0.00318725
H  -1.43125849 -0.65551693 0.00276562
C  0.33651652 0.58353221 -0.00078978
H  -0.22941481 1.53152160 -0.00063727
H  1.43747092 0.56359838 -0.00022793
6
MD Step 65
C  -0.33143980 -0.57440073 0.00078844
H  0.16165862 -1.55686193 0.00080703
H  -1.43396762 -0.65397852 0.00039463
C  0.33712771 0.58437730 -0.00042587
H  -0.23070075 1.52973999 -0.00297362
H  1.43523245 0.56221945 -0.00254847
6
MD Step 66
C  -0.33166233 -0.57507132 0.00121283
H  0.16302718 -1.55725674 -0.00156559
H  -1.43627008 -0.65223677 -0.00196862
C  0.33771573 0.58519778 -0.00006364
H  -0.23156231 1.52772940 -0.00530011
H  1.43267267 0.56109687 -0.00485950
6
MD Step 67
C  -0.33190512 -0.57576107 0.00163438
H  0.16438800 -1.55731097 -0.00392125
H  -1.43812559 -0.65029702 -0.00431451
C  0.33827367 0.58598620 0.00029549
H  -0.23200415 1.52552385 -0.00760805
H  1.42985389 0.56024127 -0.00715268
6
MD Step 68
C  -0.33216770 -0.57646565 0.00205194
H  0.16573073 -1.55702389 -0.00625326
H  -1.43950518 -0.64816848 -0.00663595
C  0.33879504 0.58673526 0.00065059
H  -0.23203853 1.52316026 -0.00989160
H  1.42684147 0.55965913 -0.00942262
6
MD Step 69
C  -0.33244906 -0.57718019 0.00246443
H  0.16704685 -1.55640059 -0.00855546
H  -1.44038929 -0.64586194 -0.00892631
C  0.33927352 0.58743760 0.00100082
H  -0.23168286 1.52068015 -0.01214559
H  1.42370480 0.55935485 -0.01166473
6
MD Step 70
C  -0.33274077 -0.57789266 0.00287780
H  0.16828974 -1.55549199 -0.01086198
H  -1.44080801 -0.64343000 -0.01121939
C  0.33970973 0.58809255 0.00135205
H  -0.23099976 1.51808892 -0.01440612
H  1.42047580 0.55929081 -0.01391556
6
MD Step 71
C  -0.33304008 -0.57859667 0.00329188
H  0.16945058 -1.55431812 -0.01317184
H  -1.44076431 -0.64089027 -0.01351373
C  0.34009858 0.58869343 0.00170436
H  -0.23002012 1.51543171 -0.01667359
H  1.41722459 0.55946346 -0.01617614
6
MD Step 72
C  -0.33335180 -0.57929353 0.00369839
H  0.17056994 -1.55285616 -0.01543737
H  -1.44022225 -0.63821347 -0.01576089
C  0.34042744 0.58922555 0.00205013
H  -0.22873096 1.51280434 -0.01890096
H  1.41406970 0.55991505 -0.01840035
6
MD Step 73
C  -0.33366881 -0.57997295 0.00410076
H  0.17162280 -1.55115577 -0.01767852
H  -1.43922285 -0.63543930 -0.01798051
C  0.34069554 0.58968591 0.00239299
H  -0.22719055 1.51023662 -0.02111013
H  1.41105983 0.56061855 -0.02061059
6
MD Step 74
C  -0.33399088 -0.58063172 0.00449513
H  0.17262918 -1.54922740 -0.01987279
H  -1.43777248 -0.63256469 -0.02014947
C  0.34089552 0.59006446 0.00272948
H  -0.22541628 1.50780265 -0.02327993
H  1.40828376 0.56158863 -0.02278641
6
MD Step 75
C  -0.33431988 -0.58126902 0.00487520
H  0.17362560 -1.54707043 -0.02198337
H  -1.43587127 -0.62957231 -0.02223025
C  0.34101829 0.59034909 0.00305372
H  -0.22341242 1.50559106 -0.02537468
H  1.40583958 0.56285328 -0.02489300
6
MD Step 76
C  -0.33464919 -0.58187602 0.00524285
H  0.17460286 -1.54473518 -0.02402110
H  -1.43357558 -0.62649304 -0.02423353
C  0.34106364 0.59053624 0.00336781
H  -0.22123173 1.50364115 -0.02740701
H  1.40376969 0.56439169 -0.02694317
6
MD Step 77
C  -0.33497169 -0.58244380 0.00560014
H  0.17555202 -1.54227574 -0.02599829
H  -1.43095076 -0.62335917 -0.02617172
C  0.34103251 0.59062320 0.00367407
H  -0.21892795 1.50198816 -0.02939090
H  1.40210589 0.56618074 -0.02895080
6
MD Step 78
C  -0.33528125 -0.58296486 0.00594793
H  0.17647294 -1.53974035 -0.02792000
H  -1.42806135 -0.62019538 -0.02805009
C  0.34092554 0.59060676 0.00397358
H  -0.21654612 1.50067079 -0.03133284
H  1.40087704 0.56820384 -0.03092205
6
MD Step 79
C  -0.33557115 -0.58343164 0.00628749
H  0.17736408 -1.53718046 -0.02979382
H  -1.42497988 -0.61702846 -0.02987673
C  0.34074478 0.59048497 0.00426780
H  -0.21413153 1.49971999 -0.03324162
H  1.40009824 0.57044121 -0.03286503
6
MD Step 80
C  -0.33583966 -0.58384200 0.00661516
H  0.17825445 -1.53461744 -0.03159756
H  -1.42175320 -0.61385466 -0.03162958
C  0.34048823 0.59025182 0.00455305
H  -0.21169644 1.49919024 -0.03509570
H  1.39980267 0.57290228 -0.03475787
6
MD Step 81
C  -0.33608190 -0.58419122 0.00693034
H  0.17915503 -1.53209033 -0.03332741
H  -1.41844994 -0.61068810 -0.03330545
C  0.34015795 0.58990548 0.00482868
H  -0.20926765 1.49910976 -0.03689174
H  1.39999227 0.57557738 -0.03659625
6
MD Step 82
C  -0.33629046 -0.58447258 0.00723497
H  0.18006126 -1.52965210 -0.03499490
H  -1.41515626 -0.60755774 -0.03491723
C  0.33975951 0.58944796 0.00509665
H  -0.20688295 1.49948243 -0.03864150
H  1.40064073 0.57844066 -0.03839030
6
MD Step 83
C  -0.33646130 -0.58468321 0.00752791
H  0.18098697 -1.52733438 -0.03659273
H  -1.41193962 -0.60447282 -0.03645865
C  0.33929615 0.58887934 0.00535555
H  -0.20455621 1.50032155 -0.04033730
H  1.40172863 0.58148440 -0.04013097
6
MD Step 84
C  -0.33659022 -0.58482057 0.00780844
H  0.18194255 -1.52516814 -0.03811599
H  -1.40886855 -0.60144419 -0.03792604
C  0.33877230 0.58820146 0.00560429
H  -0.20229846 1.50162784 -0.04197338
H  1.40322276 0.58469763 -0.04181099
6
MD Step 85
C  -0.33667071 -0.58488018 0.00807842
H  0.18292073 -1.52319699 -0.03957602
H  -1.40602491 -0.59849830 -0.03933281
C  0.33819576 0.58742027 0.00584459
H  -0.20013180 1.50337532 -0.04355988
H  1.40506336 0.58805217 -0.04343828
6
MD Step 86
C  -0.33670313 -0.58486482 0.00833370
H  0.18395040 -1.52142209 -0.04094624
H  -1.40344755 -0.59562269 -0.04065312
C  0.33756852 0.58653670 0.00607137
H  -0.19803512 1.50556585 -0.04506834
H  1.40722023 0.59155684 -0.04498358
6
MD Step 87
C  -0.33668600 -0.58477568 0.00857249
H  0.18504372 -1.51985463 -0.04221468
H  -1.40118370 -0.59281887 -0.04187612
C  0.33689546 0.58555547 0.00628202
H  -0.19599716 1.50817672 -0.04648449
H  1.40964114 0.59520480 -0.04643155
6
MD Step 88
C  -0.33661017 -0.58460650 0.00880079
H  0.18616094 -1.51855061 -0.04341899
H  -1.39932273 -0.59013749 -0.04304288
C  0.33619018 0.58449098 0.00648279
H  -0.19405204 1.51112623 -0.04784354
H  1.41221845 0.59893837 -0.04781417
6
MD Step 89
C  -0.33647321 -0.58435778 0.00901906
H  0.18729441 -1.51752574 -0.04456214
H  -1.39790924 -0.58759363 -0.04415829
C  0.33546063 0.58335293 0.00667373
H  -0.19219550 1.51435952 -0.04914550
H  1.41487625 0.60273367 -0.04912983
6
MD Step 90
C  -0.33627912 -0.58403645 0.00922272
H  0.18846653 -1.51675730 -0.04561432
H  -1.39694382 -0.58516890 -0.04519271
C  0.33470937 0.58214654 0.00684892
H  -0.19038772 1.51784785 -0.05035738
H  1.41757025 0.60659864 -0.05034578
6
MD Step 91
C  -0.33603183 -0.58364931 0.00940814
H  0.18969090 -1.51622344 -0.04655193
H  -1.39642174 -0.58285059 -0.04612271
C  0.33394001 0.58087901 0.00700357
H  -0.18859302 1.52155079 -0.05145231
H  1.42025003 0.61053414 -0.05143547
6
MD Step 92
C  -0.33573412 -0.58320184 0.00957364
H  0.19096618 -1.51590979 -0.04736385
H  -1.39633933 -0.58063797 -0.04693764
C  0.33315827 0.57956042 0.00713510
H  -0.18678693 1.52541134 -0.05241590
H  1.42285392 0.61452764 -0.05238448
6
MD Step 93
C  -0.33539048 -0.58270107 0.00971684
H  0.19229330 -1.51579282 -0.04803439
H  -1.39667705 -0.57852534 -0.04762170
C  0.33236903 0.57820068 0.00724015
H  -0.18494001 1.52937442 -0.05322931
H  1.42532744 0.61857044 -0.05317454
6
MD Step 94
C  -0.33500180 -0.58215017 0.00983942
H  0.19364435 -1.51587180 -0.04857496
H  -1.39743156 -0.57653350 -0.04818727
C  0.33158154 0.57681468 0.00732033
H  -0.18304992 1.53335691 -0.05390070
H  1.42759297 0.62262626 -0.05381320
6
MD Step 95
C  -0.33457339 -0.58155651 0.00993986
H  0.19501089 -1.51612107 -0.04897568
H  -1.39856787 -0.57466159 -0.04862397
C  0.33080132 0.57541400 0.00737342
H  -0.18109420 1.53729731 -0.05441738
H  1.42959927 0.62667966 -0.05428855
6
MD Step 96
C  -0.33410749 -0.58092406 0.01002012
H  0.19636000 -1.51653502 -0.04925009
H  -1.40006488 -0.57293144 -0.04894565
C  0.33003750 0.57401420 0.00740155
H  -0.17907513 1.54111278 -0.05479012
H  1.43127805 0.63069174 -0.05461118
6
MD Step 97
C  -0.33360373 -0.58025387 0.01008506
H  0.19763780 -1.51712534 -0.04943204
H  -1.40191293 -0.57138420 -0.04918727
C  0.32930228 0.57263407 0.00741072
H  -0.17701695 1.54470368 -0.05504988
H  1.43254834 0.63460364 -0.05481095
6
MD Step 98
C  -0.33307087 -0.57955591 0.01013201
H  0.19884046 -1.51785080 -0.04950448
H  -1.40404387 -0.57000988 -0.04932993
C  0.32859886 0.57128365 0.00739760
H  -0.17489617 1.54802554 -0.05517800
H  1.43338817 0.63840764 -0.05487094
6
MD Step 99
C  -0.33251359 -0.57883576 0.01016240
H  0.19993653 -1.51869609 -0.04947823
H  -1.40641102 -0.56882514 -0.04938373
C  0.32793463 0.56997712 0.00736411
H  -0.17271952 1.55101190 -0.05518362
H  1.43375693 0.64206905 -0.05480082
6
MD Step 100
C  -0.33193657 -0.57809872 0.01017800
H  0.20089219 -1.51964752 -0.04936700
H  -1.40896577 -0.56784839 -0.04936167
C  0.32731692 0.56872851 0.00731280
H  -0.17049940 1.55360011 -0.05507900
H  1.43362080 0.64555144 -0.05461324
6
MD Step 101
C  -0.33135564 -0.57736125 0.01017091
H  0.20174024 -1.52062525 -0.04911809
H  -1.41159065 -0.56703179 -0.04920704
C  0.32674131 0.56754013 0.00723402
H  -0.16818630 1.55580037 -0.05481238
H  1.43302127 0.64888545 -0.05426009
6
MD Step 102
C  -0.33077830 -0.57663120 0.01014084
H  0.20246386 -1.52160074 -0.04873027
H  -1.41421854 -0.56637712 -0.04891682
C  0.32621139 0.56642194 0.00712762
H  -0.16578435 1.55757968 -0.05438270
H  1.43195847 0.65205201 -0.05374169
6
MD Step 103
C  -0.33020364 -0.57590767 0.01009489
H  0.20299719 -1.52259704 -0.04825380
H  -1.41683398 -0.56593532 -0.04854170
C  0.32573873 0.56539133 0.00700313
H  -0.16335098 1.55886265 -0.05383891
H  1.43039169 0.65498277 -0.05310621
6
MD Step 104
C  -0.32964191 -0.57520109 0.01003018
H  0.20334480 -1.52357015 -0.04766975
H  -1.41935470 -0.56568841 -0.04806023
C  0.32532258 0.56445322 0.00685732
H  -0.16087921 1.55965073 -0.05316359
H  1.42835829 0.65767969 -0.05233838
6
MD Step 105
C  -0.32909804 -0.57451632 0.00994836
H  0.20348261 -1.52450868 -0.04699062
H  -1.42173245 -0.56564780 -0.04748368
C  0.32496669 0.56361649 0.00669281
H  -0.15839566 1.55992347 -0.05236999
H  1.42587482 0.66011576 -0.05145236
6
MD Step 106
C  -0.32857907 -0.57386034 0.00984895
H  0.20340387 -1.52538863 -0.04621401
H  -1.42390826 -0.56580904 -0.04680802
C  0.32467151 0.56288626 0.00650954
H  -0.15591534 1.55968425 -0.05145739
H  1.42298234 0.66228089 -0.05044886
6
MD Step 107
C  -0.32809375 -0.57324186 0.00972956
H  0.20311784 -1.52617528 -0.04532414
H  -1.42581508 -0.56615339 -0.04601552
C  0.32443447 0.56226416 0.00630505
H  -0.15344306 1.55895877 -0.05041265
H  1.41974449 0.66418050 -0.04931654
6
MD Step 108
C  -0.32764912 -0.57266775 0.00958891
H  0.20262937 -1.52684423 -0.04431281
H  -1.42739949 -0.56666826 -0.04509648
C  0.32425347 0.56175163 0.00607829
H  -0.15099356 1.55777436 -0.04923024
H  1.41622631 0.66581491 -0.04805128
6
MD Step 109
C  -0.32725027 -0.57214295 0.00942696
H  0.20193850 -1.52738218 -0.04317989
H  -1.42862298 -0.56734768 -0.04404967
C  0.32412702 0.56135007 0.00582970
H  -0.14859173 1.55615932 -0.04791263
H  1.41249293 0.66717884 -0.04665664
6
MD Step 110
C  -0.32690001 -0.57166998 0.00924514
H  0.20103835 -1.52778924 -0.04193557
H  -1.42946477 -0.56819452 -0.04288474
C  0.32405463 0.56106109 0.00556167
H  -0.14627450 1.55414042 -0.04647228
H  1.40860656 0.66825926 -0.04514576
6
MD Step 111
C  -0.32660562 -0.57125601 0.00904027
H  0.19995695 -1.52803758 -0.04055788
H  -1.42988036 -0.56917941 -0.04157852
C  0.32402976 0.56087972 0.00527068
H  -0.14404949 1.55178402 -0.04489130
H  1.40466686 0.66907717 -0.04350202
6
MD Step 112
C  -0.32636360 -0.57089712 0.00881830
H  0.19866424 -1.52816388 -0.03908713
H  -1.42989482 -0.57033230 -0.04017171
C  0.32405571 0.56080974 0.00496454
H  -0.14198590 1.54910313 -0.04321115
H  1.40071736 0.66959451 -0.04176665
6
MD Step 113
C  -0.32617770 -0.57059687 0.00857791
H  0.19718210 -1.52815978 -0.03751412
H  -1.42949267 -0.57163407 -0.03865469
C  0.32412695 0.56084559 0.00464205
H  -0.14010602 1.54616613 -0.04142615
H  1.39685342 0.66982430 -0.03993453
6
MD Step 114
C  -0.32604962 -0.57035676 0.00831901
H  0.19552744 -1.52802821 -0.03583769
H  -1.42867472 -0.57307255 -0.03702627
C  0.32423891 0.56098179 0.00430349
H  -0.13844041 1.54303942 -0.03953831
H  1.39316423 0.66977372 -0.03800784
6
MD Step 115
C  -0.32597971 -0.57017696 0.00804206
H  0.19371660 -1.52777887 -0.03406022
H  -1.42745359 -0.57463817 -0.03528904
C  0.32438730 0.56121238 0.00394969
H  -0.13702299 1.53979079 -0.03755293
H  1.38973518 0.66944842 -0.03599176
6
MD Step 116
C  -0.32596652 -0.57005590 0.00774846
H  0.19176222 -1.52743084 -0.03219052
H  -1.42585649 -0.57632683 -0.03345228
C  0.32456878 0.56153149 0.00358260
H  -0.13589316 1.53648524 -0.03548129
H  1.38664293 0.66884945 -0.03389712
6
MD Step 117
C  -0.32600845 -0.56999194 0.00743911
H  0.18968305 -1.52700238 -0.03023363
H  -1.42391494 -0.57813020 -0.03152163
C  0.32477936 0.56193188 0.00320344
H  -0.13508528 1.53319338 -0.03333090
H  1.38396308 0.66798304 -0.03173082
6
MD Step 118
C  -0.32610170 -0.56998133 0.00711632
H  0.18749085 -1.52652323 -0.02820380
H  -1.42167712 -0.58004837 -0.02951211
C  0.32501671 0.56240723 0.00281500
H  -0.13464045 1.52997716 -0.03111786
H  1.38175542 0.66684772 -0.02950810
6
MD Step 119
C  -0.32623891 -0.57001685 0.00678508
H  0.18518161 -1.52604256 -0.02613306
H  -1.41921558 -0.58209823 -0.02745678
C  0.32528175 0.56295372 0.00242314
H  -0.13461402 1.52687970 -0.02887496
H  1.38005351 0.66542556 -0.02726061
6
MD Step 120
C  -0.32642394 -0.57010292 0.00643928
H  0.18282469 -1.52553926 -0.02398050
H  -1.41653688 -0.58422517 -0.02531535
C  0.32556348 0.56355544 0.00202079
H  -0.13498660 1.52401258 -0.02656461
H  1.37895200 0.66377176 -0.02494995
6
MD Step 121
C  -0.32665006 -0.57023333 0.00608226
H  0.18042956 -1.52505391 -0.02176684
H  -1.41371406 -0.58643451 -0.02310958
C  0.32586175 0.56420663 0.00161165
H  -0.13579409 1.52142153 -0.02420816
H  1.37847211 0.66188128 -0.02259630
6
MD Step 122
C  -0.32690879 -0.57040030 0.00571857
H  0.17799869 -1.52463512 -0.01952046
H  -1.41083226 -0.58873889 -0.02086891
C  0.32617823 0.56490301 0.00120070
H  -0.13707439 1.51913767 -0.02183401
H  1.37861338 0.65974213 -0.02022684
6
MD Step 123
C  -0.32719670 -0.57060138 0.00534755
H  0.17556773 -1.52429824 -0.01723631
H  -1.40794653 -0.59111810 -0.01858917
C  0.32650953 0.56563529 0.00078701
H  -0.13882649 1.51721646 -0.01943789
H  1.37939367 0.65737602 -0.01783630
6
MD Step 124
C  -0.32750963 -0.57083359 0.00496895
H  0.17316935 -1.52406033 -0.01491201
H  -1.40511628 -0.59355446 -0.01626883
C  0.32685329 0.56639516 0.00037010
H  -0.14104508 1.51570059 -0.01701769
H  1.38081303 0.65480258 -0.01542174
6
MD Step 125
C  -0.32784423 -0.57109489 0.00458151
H  0.17084151 -1.52393096 -0.01253911
H  -1.40239534 -0.59602434 -0.01390015
C  0.32720670 0.56717411 -0.00005160
H  -0.14371152 1.51462747 -0.01456513
H  1.38286224 0.65204797 -0.01297417