 Entering Gaussian System, Link 0=g16
 Initial command:
 /software/gaussian/g16-c01/avx2/g16/l1.exe "/gpfs/fs2/scratch/bweight/software/many_molecule_many_mode_NAMD/src/NAMD/TEST_NVT/TRAJ/traj-90/G16/GS_NEW/Gau-22659.inp" -scrdir="/gpfs/fs2/scratch/bweight/software/many_molecule_many_mode_NAMD/src/NAMD/TEST_NVT/TRAJ/traj-90/G16/GS_NEW/"
 Entering Link 1 = /software/gaussian/g16-c01/avx2/g16/l1.exe PID=     22660.
  
 Copyright (c) 1988-2019, Gaussian, Inc.  All Rights Reserved.
  
 This is part of the Gaussian(R) 16 program.  It is based on
 the Gaussian(R) 09 system (copyright 2009, Gaussian, Inc.),
 the Gaussian(R) 03 system (copyright 2003, Gaussian, Inc.),
 the Gaussian(R) 98 system (copyright 1998, Gaussian, Inc.),
 the Gaussian(R) 94 system (copyright 1995, Gaussian, Inc.),
 the Gaussian 92(TM) system (copyright 1992, Gaussian, Inc.),
 the Gaussian 90(TM) system (copyright 1990, Gaussian, Inc.),
 the Gaussian 88(TM) system (copyright 1988, Gaussian, Inc.),
 the Gaussian 86(TM) system (copyright 1986, Carnegie Mellon
 University), and the Gaussian 82(TM) system (copyright 1983,
 Carnegie Mellon University). Gaussian is a federally registered
 trademark of Gaussian, Inc.
  
 This software contains proprietary and confidential information,
 including trade secrets, belonging to Gaussian, Inc.
  
 This software is provided under written license and may be
 used, copied, transmitted, or stored only in accord with that
 written license.
  
 The following legend is applicable only to US Government
 contracts under FAR:
  
                    RESTRICTED RIGHTS LEGEND
  
 Use, reproduction and disclosure by the US Government is
 subject to restrictions as set forth in subparagraphs (a)
 and (c) of the Commercial Computer Software - Restricted
 Rights clause in FAR 52.227-19.
  
 Gaussian, Inc.
 340 Quinnipiac St., Bldg. 40, Wallingford CT 06492
  
  
 ---------------------------------------------------------------
 Warning -- This program may not be used in any manner that
 competes with the business of Gaussian, Inc. or will provide
 assistance to any competitor of Gaussian, Inc.  The licensee
 of this program is prohibited from giving any competitor of
 Gaussian, Inc. access to this program.  By using this program,
 the user acknowledges that Gaussian, Inc. is engaged in the
 business of creating and licensing software in the field of
 computational chemistry and represents and warrants to the
 licensee that it is not a competitor of Gaussian, Inc. and that
 it will not use this program in any manner prohibited above.
 ---------------------------------------------------------------
  

 Cite this work as:
 Gaussian 16, Revision C.01,
 M. J. Frisch, G. W. Trucks, H. B. Schlegel, G. E. Scuseria, 
 M. A. Robb, J. R. Cheeseman, G. Scalmani, V. Barone, 
 G. A. Petersson, H. Nakatsuji, X. Li, M. Caricato, A. V. Marenich, 
 J. Bloino, B. G. Janesko, R. Gomperts, B. Mennucci, H. P. Hratchian, 
 J. V. Ortiz, A. F. Izmaylov, J. L. Sonnenberg, D. Williams-Young, 
 F. Ding, F. Lipparini, F. Egidi, J. Goings, B. Peng, A. Petrone, 
 T. Henderson, D. Ranasinghe, V. G. Zakrzewski, J. Gao, N. Rega, 
 G. Zheng, W. Liang, M. Hada, M. Ehara, K. Toyota, R. Fukuda, 
 J. Hasegawa, M. Ishida, T. Nakajima, Y. Honda, O. Kitao, H. Nakai, 
 T. Vreven, K. Throssell, J. A. Montgomery, Jr., J. E. Peralta, 
 F. Ogliaro, M. J. Bearpark, J. J. Heyd, E. N. Brothers, K. N. Kudin, 
 V. N. Staroverov, T. A. Keith, R. Kobayashi, J. Normand, 
 K. Raghavachari, A. P. Rendell, J. C. Burant, S. S. Iyengar, 
 J. Tomasi, M. Cossi, J. M. Millam, M. Klene, C. Adamo, R. Cammi, 
 J. W. Ochterski, R. L. Martin, K. Morokuma, O. Farkas, 
 J. B. Foresman, and D. J. Fox, Gaussian, Inc., Wallingford CT, 2019.
 
 ******************************************
 Gaussian 16:  ES64L-G16RevC.01  3-Jul-2019
                11-Jan-2023 
 ******************************************
 %oldchk=../GS_OLD/geometry.chk
 %chk=geometry.chk
 %nprocshared=4
 Will use up to    4 processors via shared memory.
 %mem=5GB
 Copying data from "../GS_OLD/geometry.chk" to current chk file "geometry.chk"
 IOpt=  2 FromEx=T IUOpen= 4 IOptOp= 5 NList=   0 IFRang= 0 IUIn= 4 IUOut= 2.
 -------------------------------------------------------
 # WB97XD/6-311G SCF=XQC FORCE nosym pop=full guess=read
 -------------------------------------------------------
 1/10=7,30=1,38=1/1,3;
 2/12=2,15=1,17=6,18=5,40=1/2;
 3/5=4,6=6,11=2,25=1,30=1,71=1,74=-58,116=-2/1,2,3;
 4/5=1/1;
 5/5=2,8=3,13=1,38=6/2,8;
 6/7=3,28=1/1;
 7/29=1,30=1/1,2,3,16;
 1/10=7,30=1/3;
 99//99;
 ------------
 MD Step 1000
 ------------
 Symbolic Z-matrix:
 Charge =  0 Multiplicity = 1
 C                    -0.33764  -0.58472   0.00946 
 H                     0.22957  -1.51902  -0.03439 
 H                    -1.42146  -0.56773  -0.03502 
 C                     0.33238   0.57539   0.00576 
 H                    -0.15185   1.57211  -0.03822 
 H                     1.44292   0.66232  -0.03728 
 

 GradGradGradGradGradGradGradGradGradGradGradGradGradGradGradGradGradGrad
 Berny optimization.
 Initialization pass.
 Trust Radius=3.00D-01 FncErr=1.00D-07 GrdErr=1.00D-07 EigMax=2.50D+02 EigMin=1.00D-04
 Number of steps in this run=      2 maximum allowed number of steps=      2.
 GradGradGradGradGradGradGradGradGradGradGradGradGradGradGradGradGradGrad

                          Input orientation:                          
 ---------------------------------------------------------------------
 Center     Atomic      Atomic             Coordinates (Angstroms)
 Number     Number       Type             X           Y           Z
 ---------------------------------------------------------------------
      1          6           0       -0.337639   -0.584720    0.009462
      2          1           0        0.229571   -1.519019   -0.034389
      3          1           0       -1.421459   -0.567731   -0.035016
      4          6           0        0.332379    0.575390    0.005763
      5          1           0       -0.151847    1.572113   -0.038218
      6          1           0        1.442922    0.662318   -0.037284
 ---------------------------------------------------------------------
                    Distance matrix (angstroms):
                    1          2          3          4          5
     1  C    0.000000
     2  H    1.093876   0.000000
     3  H    1.084865   1.905479   0.000000
     4  C    1.339699   2.097315   2.093880   0.000000
     5  H    2.165346   3.114577   2.488143   1.108993   0.000000
     6  H    2.174325   2.496090   3.117323   1.114772   1.836033
                    6
     6  H    0.000000
 Symmetry turned off by external request.
 Stoichiometry    C2H4
 Framework group  C1[X(C2H4)]
 Deg. of freedom    12
 Full point group                 C1      NOp   1
 Rotational constants (GHZ):         142.9665939          29.6549448          24.5762539
 Standard basis: 6-311G (5D, 7F)
    38 basis functions,    72 primitive gaussians,    38 cartesian basis functions
     8 alpha electrons        8 beta electrons
       nuclear repulsion energy        33.0474049000 Hartrees.
 NAtoms=    6 NActive=    6 NUniq=    6 SFac= 1.00D+00 NAtFMM=   60 NAOKFM=F Big=F
 Integral buffers will be    131072 words long.
 Raffenetti 2 integral format.
 Two-electron integral symmetry is turned off.
 Nuclear repulsion after empirical dispersion term =       33.0465606895 Hartrees.
 One-electron integrals computed using PRISM.
 NBasis=    38 RedAO= T EigKep=  6.45D-03  NBF=    38
 NBsUse=    38 1.00D-06 EigRej= -1.00D+00 NBFU=    38
 Initial guess from the checkpoint file:  "geometry.chk"
 B after Tr=    -0.000192   -0.000294   -0.000389
         Rot=    1.000000    0.000002   -0.000000    0.000006 Ang=   0.00 deg.
 Keep R1 ints in memory in canonical form, NReq=4036876.
 Requested convergence on RMS density matrix=1.00D-08 within  32 cycles.
 Requested convergence on MAX density matrix=1.00D-06.
 Requested convergence on             energy=1.00D-06.
 No special actions if energy rises.
 SCF Done:  E(RwB97XD) =  -78.5545613483     A.U. after    8 cycles
            NFock=  8  Conv=0.63D-08     -V/T= 2.0052
 QCSCF skips out because SCF is already converged.

 **********************************************************************

            Population analysis using the SCF Density.

 **********************************************************************

 Alpha  occ. eigenvalues --  -10.29093 -10.28819  -0.86376  -0.67204  -0.56001
 Alpha  occ. eigenvalues --   -0.50851  -0.43610  -0.35668
 Alpha virt. eigenvalues --    0.07918   0.14063   0.16458   0.17002   0.24056
 Alpha virt. eigenvalues --    0.36895   0.39375   0.40225   0.46365   0.48930
 Alpha virt. eigenvalues --    0.49392   0.59083   0.66537   0.69121   0.77183
 Alpha virt. eigenvalues --    0.77543   0.83840   0.95056   2.23073   2.29178
 Alpha virt. eigenvalues --    2.33246   2.40480   2.67089   2.81678   2.87797
 Alpha virt. eigenvalues --    2.95120   3.14010   3.31778  23.35207  23.70458
     Molecular Orbital Coefficients:
                           1         2         3         4         5
                           O         O         O         O         O
     Eigenvalues --   -10.29093 -10.28819  -0.86376  -0.67204  -0.56001
   1 1   C  1S          0.09020   0.55613  -0.08860   0.06649  -0.00036
   2        2S          0.07443   0.45768  -0.14008   0.10645  -0.00059
   3        2PX         0.00016  -0.00000   0.02597   0.03494   0.14005
   4        2PY         0.00028   0.00001   0.04615   0.05791  -0.07719
   5        2PZ        -0.00000  -0.00001  -0.00191   0.00273   0.00019
   6        3S          0.00148   0.01457   0.37588  -0.29047   0.00165
   7        3PX        -0.00061   0.00042   0.03480   0.05615   0.21988
   8        3PY        -0.00104   0.00075   0.06158   0.09392  -0.12174
   9        3PZ        -0.00002  -0.00005  -0.00321   0.00483   0.00027
  10        4S          0.00350  -0.01462   0.19261  -0.22393   0.00158
  11        4PX         0.00150  -0.00152   0.00481   0.02244   0.11261
  12        4PY         0.00261  -0.00264   0.00859   0.03872  -0.06299
  13        4PZ         0.00000   0.00012  -0.00108   0.00239   0.00013
  14 2   H  1S         -0.00004  -0.00007   0.05343  -0.08657   0.10658
  15        2S         -0.00030   0.00010   0.05467  -0.10457   0.13471
  16        3S          0.00081   0.00171  -0.00195  -0.01485   0.04342
  17 3   H  1S         -0.00004  -0.00008   0.05456  -0.08920  -0.10843
  18        2S         -0.00030   0.00009   0.05540  -0.10716  -0.13631
  19        3S          0.00082   0.00174  -0.00194  -0.01558  -0.04397
  20 4   C  1S          0.55613  -0.09039  -0.08650  -0.06866  -0.00016
  21        2S          0.45773  -0.07419  -0.13656  -0.11014  -0.00025
  22        2PX        -0.00001  -0.00017  -0.02756   0.03887   0.11501
  23        2PY        -0.00001  -0.00029  -0.04680   0.06856  -0.07012
  24        2PZ        -0.00000   0.00000  -0.00132  -0.00276   0.00020
  25        3S          0.01408  -0.00318   0.36576   0.30112   0.00071
  26        3PX        -0.00022   0.00072  -0.03427   0.06279   0.17977
  27        3PY        -0.00036   0.00125  -0.05798   0.11043  -0.10893
  28        3PZ        -0.00004  -0.00001  -0.00230  -0.00498   0.00030
  29        4S         -0.01234   0.00814   0.18836   0.24024  -0.00015
  30        4PX         0.00091  -0.00189  -0.00556   0.02770   0.10020
  31        4PY         0.00152  -0.00328  -0.00923   0.04759  -0.06001
  32        4PZ         0.00009  -0.00002  -0.00100  -0.00260   0.00015
  33 5   H  1S         -0.00006  -0.00004   0.04902   0.09431  -0.08526
  34        2S         -0.00001  -0.00032   0.05024   0.11253  -0.10737
  35        3S          0.00178   0.00017  -0.00094   0.01695  -0.03440
  36 6   H  1S         -0.00005  -0.00005   0.04815   0.09333   0.08224
  37        2S         -0.00002  -0.00032   0.04977   0.11162   0.10378
  38        3S          0.00174   0.00017  -0.00100   0.01657   0.03346
                           6         7         8         9        10
                           O         O         O         V         V
     Eigenvalues --    -0.50851  -0.43610  -0.35668   0.07918   0.14063
   1 1   C  1S         -0.00220   0.00007  -0.00153   0.00382  -0.03283
   2        2S         -0.00314   0.00013  -0.00248   0.00635  -0.05266
   3        2PX         0.09585  -0.10718  -0.00458   0.00197  -0.03302
   4        2PY         0.16830   0.06387  -0.00790   0.00340  -0.06342
   5        2PZ         0.00697   0.00007   0.17933  -0.18884  -0.00358
   6        3S          0.01430  -0.00017   0.00726  -0.01918   0.11423
   7        3PX         0.13921  -0.17104  -0.00648   0.00296  -0.03969
   8        3PY         0.24547   0.10232  -0.01117   0.00504  -0.07852
   9        3PZ         0.01107   0.00014   0.28859  -0.27778  -0.00570
  10        4S         -0.05989  -0.00234   0.00972  -0.02284   1.21784
  11        4PX         0.07004  -0.10719  -0.00548   0.01694  -0.19342
  12        4PY         0.12418   0.06419  -0.00950   0.02917  -0.36510
  13        4PZ         0.00632   0.00013   0.26717  -0.69230  -0.02086
  14 2   H  1S         -0.08089  -0.11181   0.00014   0.00605  -0.01714
  15        2S         -0.11258  -0.17202   0.00275   0.00966  -0.04699
  16        3S         -0.04217  -0.07928   0.00163   0.02483  -0.80790
  17 3   H  1S         -0.08037   0.10984   0.00003   0.00605  -0.01476
  18        2S         -0.11135   0.16830   0.00260   0.00964  -0.04157
  19        3S         -0.04146   0.07726   0.00155   0.02433  -0.76999
  20 4   C  1S         -0.00983  -0.00037  -0.00097  -0.00348  -0.03691
  21        2S         -0.01548  -0.00061  -0.00158  -0.00576  -0.05929
  22        2PX        -0.09665   0.12804   0.00459   0.00231   0.03926
  23        2PY        -0.16158  -0.07548   0.00834   0.00416   0.06266
  24        2PZ         0.00739   0.00025   0.17891   0.18946  -0.00394
  25        3S          0.04913   0.00174   0.00469   0.01731   0.13140
  26        3PX        -0.14333   0.20478   0.00640   0.00358   0.04755
  27        3PY        -0.23848  -0.12006   0.01169   0.00646   0.07443
  28        3PZ         0.01166   0.00038   0.28609   0.27767  -0.00599
  29        4S         -0.02119   0.00212   0.00880   0.01807   1.24609
  30        4PX        -0.07529   0.13248   0.00479   0.01783   0.26300
  31        4PY        -0.12433  -0.07742   0.00890   0.03135   0.43068
  32        4PZ         0.00676   0.00024   0.26764   0.69402  -0.02337
  33 5   H  1S         -0.07389  -0.12731   0.00040  -0.00524  -0.01261
  34        2S         -0.10081  -0.19893   0.00297  -0.00871  -0.03978
  35        3S         -0.03785  -0.09381   0.00168  -0.02296  -0.84475
  36 6   H  1S         -0.07851   0.12641   0.00028  -0.00524  -0.01479
  37        2S         -0.10738   0.19831   0.00278  -0.00880  -0.04529
  38        3S         -0.04038   0.09360   0.00156  -0.02328  -0.88337
                          11        12        13        14        15
                           V         V         V         V         V
     Eigenvalues --     0.16458   0.17002   0.24056   0.36895   0.39375
   1 1   C  1S          0.00063  -0.04614   0.00011   0.00766  -0.00017
   2        2S          0.00103  -0.07522   0.00016   0.00980  -0.00046
   3        2PX         0.09531  -0.01962   0.09994  -0.03492  -0.02018
   4        2PY        -0.05398  -0.03641  -0.05718  -0.06231   0.01237
   5        2PZ         0.00007  -0.00925   0.00001  -0.00643  -0.00017
   6        3S         -0.00228   0.17070   0.00021   0.03808   0.00460
   7        3PX         0.13649  -0.01095   0.10467  -0.04043  -0.09718
   8        3PY        -0.07797  -0.02267  -0.06051  -0.07550   0.06063
   9        3PZ         0.00010  -0.01290  -0.00004  -0.01369  -0.00040
  10        4S         -0.02995   1.45631  -0.02244  -2.29103  -0.02892
  11        4PX         0.58678  -0.11308   1.17115  -1.48225  -0.50872
  12        4PY        -0.32578  -0.20439  -0.67494  -2.57635   0.19521
  13        4PZ         0.00063  -0.06029   0.00068  -0.05705  -0.00257
  14 2   H  1S         -0.02870  -0.02570   0.01554  -0.06355   0.07239
  15        2S         -0.08381  -0.01898  -0.02123  -0.70065   0.72796
  16        3S         -1.04945  -1.01921  -1.54762  -0.25430  -0.26199
  17 3   H  1S          0.02802  -0.02556  -0.01709  -0.05867  -0.07549
  18        2S          0.08280  -0.02047   0.01617  -0.66063  -0.77061
  19        3S          1.08745  -1.02002   1.57499  -0.30870   0.23816
  20 4   C  1S          0.00078   0.04170  -0.00013  -0.02006  -0.00004
  21        2S          0.00124   0.06785  -0.00022  -0.03330  -0.00014
  22        2PX         0.10310  -0.02340  -0.10066  -0.03919  -0.03246
  23        2PY        -0.06110  -0.03797   0.05771  -0.07015   0.01550
  24        2PZ         0.00018   0.00865  -0.00003   0.00410   0.00016
  25        3S         -0.00241  -0.14977   0.00033   0.05245   0.00196
  26        3PX         0.14776  -0.01881  -0.11611  -0.09219  -0.11222
  27        3PY        -0.08694  -0.02875   0.06564  -0.16658   0.05438
  28        3PZ         0.00025   0.01188  -0.00001   0.00418   0.00022
  29        4S         -0.03725  -1.32327   0.01500   3.09343   0.07294
  30        4PX         0.53659  -0.11808  -1.11426  -1.03710  -0.48656
  31        4PY        -0.32138  -0.19368   0.64056  -1.81669   0.23885
  32        4PZ         0.00113   0.05631  -0.00074   0.04669   0.00103
  33 5   H  1S          0.03168   0.02478   0.00357   0.00361  -0.08474
  34        2S          0.06586   0.02185  -0.03774  -0.01454  -0.85271
  35        3S          1.06080   0.92313  -1.51638   0.43051   0.50071
  36 6   H  1S         -0.03183   0.02535  -0.00277  -0.00068   0.08721
  37        2S         -0.06646   0.02178   0.03837  -0.04800   0.86950
  38        3S         -1.01027   0.93563   1.50061   0.44533  -0.50262
                          16        17        18        19        20
                           V         V         V         V         V
     Eigenvalues --     0.40225   0.46365   0.48930   0.49392   0.59083
   1 1   C  1S         -0.01999   0.01455   0.04497  -0.00279  -0.00070
   2        2S         -0.03462   0.03234   0.07460  -0.00424  -0.00123
   3        2PX         0.03269  -0.06206  -0.00796   0.00195   0.00269
   4        2PY         0.05674  -0.10690  -0.00919   0.00278   0.00416
   5        2PZ         0.00114  -0.00060  -0.01489  -0.15103  -0.19248
   6        3S          0.06979  -0.33802  -0.06751  -0.01003  -0.00184
   7        3PX         0.11628  -0.23852   0.05200  -0.00278   0.00883
   8        3PY         0.20403  -0.40959   0.09970  -0.00640   0.01382
   9        3PZ        -0.00343  -0.00616  -0.06406  -0.62476  -0.68513
  10        4S          3.07843   0.04829  -3.03946   0.28177   0.09697
  11        4PX         0.46603   0.21584  -0.83533   0.08517   0.03066
  12        4PY         0.78239   0.40334  -1.45857   0.15047   0.05173
  13        4PZ        -0.00217   0.00585   0.15760   0.67476   1.24026
  14 2   H  1S         -0.02610  -0.02815   0.07595  -0.00764  -0.00234
  15        2S         -0.52966  -0.26692   0.90396  -0.08217  -0.01866
  16        3S          0.37997   0.03023  -0.64010   0.07641   0.03218
  17 3   H  1S         -0.02572  -0.03067   0.07405  -0.00747  -0.00223
  18        2S         -0.51569  -0.29688   0.88560  -0.08093  -0.01645
  19        3S          0.37178   0.03527  -0.61257   0.07374   0.03166
  20 4   C  1S          0.00230  -0.00572  -0.05075   0.00685   0.00103
  21        2S          0.00016  -0.00222  -0.08893   0.01226   0.00193
  22        2PX         0.01348   0.05245  -0.03014   0.00174   0.00290
  23        2PY         0.02272   0.09159  -0.05432   0.00307   0.00549
  24        2PZ        -0.00533  -0.00285  -0.01492  -0.15229   0.19208
  25        3S          0.07561  -0.26929   0.25359  -0.04326  -0.00455
  26        3PX        -0.03132   0.22865  -0.07226   0.00427   0.01026
  27        3PY        -0.05604   0.40109  -0.12858   0.00712   0.01913
  28        3PZ        -0.01432  -0.01110  -0.05847  -0.62980   0.68145
  29        4S         -1.33468   0.86185   3.04090  -0.31139  -0.08197
  30        4PX         1.44296  -0.33514  -0.56161   0.04955   0.02882
  31        4PY         2.53292  -0.55367  -0.94727   0.08293   0.05035
  32        4PZ        -0.04799  -0.02472  -0.00948   0.69830  -1.23627
  33 5   H  1S         -0.03977  -0.06929  -0.06048   0.00637   0.00208
  34        2S         -0.78690  -0.72152  -0.78262   0.08936   0.00685
  35        3S         -0.29164   0.30330   0.51991  -0.04135  -0.03080
  36 6   H  1S         -0.04010  -0.06767  -0.06080   0.00646   0.00215
  37        2S         -0.78475  -0.69808  -0.77711   0.08875   0.00788
  38        3S         -0.27806   0.31237   0.53543  -0.04354  -0.03114
                          21        22        23        24        25
                           V         V         V         V         V
     Eigenvalues --     0.66537   0.69121   0.77183   0.77543   0.83840
   1 1   C  1S          0.00049  -0.00044   0.04428   0.07700   0.00093
   2        2S          0.00101  -0.00099   0.09322   0.16411   0.00204
   3        2PX        -0.12917   0.20124  -0.03588   0.10953  -0.01091
   4        2PY         0.07533  -0.11939  -0.06190   0.18120   0.01095
   5        2PZ        -0.00004   0.00017   0.00039   0.00671   0.00017
   6        3S         -0.00805   0.01276  -0.59865  -1.40187  -0.01839
   7        3PX        -0.60167   0.71116  -0.21169   0.41754  -0.23262
   8        3PY         0.34850  -0.42120  -0.36627   0.68390   0.15191
   9        3PZ        -0.00026   0.00068   0.00174   0.02336   0.00073
  10        4S          0.01713  -0.06176   0.48828   2.47391  -0.05248
  11        4PX         1.04260  -0.80208   0.19210  -0.69281   4.55456
  12        4PY        -0.60507   0.47161   0.30429  -1.00207  -2.63102
  13        4PZ         0.00004   0.00096   0.01865  -0.07412   0.00265
  14 2   H  1S          0.02324  -0.05933   0.00688   0.03380  -0.02760
  15        2S          0.13746  -0.65485   0.07847   0.09345  -1.61189
  16        3S         -1.02222   1.11576   0.00604  -1.12527  -1.24716
  17 3   H  1S         -0.02283   0.05897   0.00670   0.03441   0.02999
  18        2S         -0.14716   0.68034   0.08611   0.07581   1.64184
  19        3S          1.01479  -1.09445   0.01436  -1.22483   1.24978
  20 4   C  1S          0.00071  -0.00053   0.08076   0.03940   0.00072
  21        2S          0.00142  -0.00104   0.17203   0.08308   0.00154
  22        2PX        -0.15462  -0.18119  -0.10294   0.04471   0.00778
  23        2PY         0.08869   0.10197  -0.18245   0.08096  -0.00094
  24        2PZ        -0.00007  -0.00021   0.00692  -0.00090  -0.00015
  25        3S         -0.00974   0.00285  -1.45199  -0.52313  -0.01120
  26        3PX        -0.69560  -0.60902  -0.38374   0.25129   0.22331
  27        3PY         0.40054   0.34076  -0.68162   0.45165  -0.10861
  28        3PZ        -0.00038  -0.00074   0.02461  -0.00373  -0.00049
  29        4S          0.00607   0.03446   2.66846   0.39853   0.03739
  30        4PX         1.32422   0.73684   0.57914  -0.24812  -4.08225
  31        4PY        -0.75711  -0.41954   1.06172  -0.58555   2.30348
  32        4PZ         0.00083  -0.00037  -0.07230   0.02841  -0.00206
  33 5   H  1S         -0.02580  -0.05440   0.03408   0.00642  -0.02109
  34        2S         -0.13945  -0.53540   0.06760   0.07046  -1.36623
  35        3S          1.13053   0.97233  -1.16084   0.18706  -1.06589
  36 6   H  1S          0.02614   0.05404   0.03382   0.00704   0.02172
  37        2S          0.13669   0.51249   0.06680   0.03425   1.36184
  38        3S         -1.13185  -0.97587  -1.12439   0.14144   1.07201
                          26        27        28        29        30
                           V         V         V         V         V
     Eigenvalues --     0.95056   2.23073   2.29178   2.33246   2.40480
   1 1   C  1S          0.09628  -0.00984  -0.01493   0.00023  -0.00035
   2        2S          0.20014   0.00216  -0.01466   0.00060  -0.00032
   3        2PX        -0.09062  -0.06706  -0.13253   0.35651  -0.40093
   4        2PY        -0.15706  -0.12509  -0.22844  -0.20408   0.23014
   5        2PZ         0.00047  -0.01856  -0.02571  -0.00016  -0.00067
   6        3S         -1.55340  -0.18966  -0.04277  -0.00163  -0.00395
   7        3PX        -0.22978   0.05755   0.20904  -0.42620   0.56025
   8        3PY        -0.39323   0.11911   0.37117   0.24565  -0.32414
   9        3PZ        -0.00298   0.01852   0.03183   0.00030   0.00076
  10        4S          5.71660  -0.09235  -0.87963  -0.00100  -0.02565
  11        4PX         1.18524   0.05714  -0.19713  -0.09090   0.98260
  12        4PY         2.00243   0.07776  -0.35756   0.04541  -0.55657
  13        4PZ        -0.02841   0.00382   0.01162  -0.00030   0.00129
  14 2   H  1S          0.01489  -0.68859  -0.81473  -0.71177   0.64629
  15        2S         -0.27789   0.97345   1.21740   1.11795  -1.45802
  16        3S         -0.10012  -0.28767  -0.48219  -0.45995   0.35258
  17 3   H  1S          0.01497  -0.68106  -0.81691   0.70060  -0.66432
  18        2S         -0.26036   0.96433   1.22200  -1.10469   1.49420
  19        3S         -0.09221  -0.26900  -0.47374   0.44886  -0.34833
  20 4   C  1S         -0.09352  -0.01036   0.01187   0.00031   0.00018
  21        2S         -0.19387  -0.00016   0.01181   0.00039   0.00030
  22        2PX        -0.09215   0.14423  -0.11728   0.29417   0.41930
  23        2PY        -0.15893   0.25290  -0.19753  -0.16992  -0.23838
  24        2PZ         0.00062  -0.01967   0.02344   0.00037   0.00024
  25        3S          1.49902  -0.16380   0.01606   0.00035  -0.00048
  26        3PX        -0.22478  -0.18726   0.20319  -0.36975  -0.58877
  27        3PY        -0.39083  -0.32589   0.33887   0.21190   0.33434
  28        3PZ         0.00523   0.02139  -0.03006  -0.00043  -0.00036
  29        4S         -5.68253  -0.18424   0.88702   0.01242   0.01098
  30        4PX         1.11260  -0.01186  -0.18748   0.14206  -0.82359
  31        4PY         1.95746  -0.02412  -0.31194  -0.08207   0.47183
  32        4PZ         0.01475   0.00649  -0.00803  -0.00008  -0.00096
  33 5   H  1S         -0.01814  -0.80410   0.65331   0.70046   0.69507
  34        2S          0.30108   1.17307  -1.00024  -1.00254  -1.45158
  35        3S          0.06560  -0.36912   0.39123   0.51650   0.44843
  36 6   H  1S         -0.01821  -0.79775   0.67305  -0.68731  -0.69521
  37        2S          0.31254   1.16239  -1.02738   0.98080   1.44791
  38        3S          0.06525  -0.36714   0.41129  -0.51160  -0.45176
                          31        32        33        34        35
                           V         V         V         V         V
     Eigenvalues --     2.67089   2.81678   2.87797   2.95120   3.14010
   1 1   C  1S          0.00072   0.00347  -0.01319  -0.00002  -0.01022
   2        2S          0.00060   0.00973  -0.04267  -0.00024  -0.03102
   3        2PX         0.00640   0.10029  -0.48425  -0.71253   0.43000
   4        2PY         0.01044   0.17630  -0.86611   0.39549   0.75758
   5        2PZ        -0.92377  -0.92171  -0.18721  -0.00117   0.00750
   6        3S         -0.00263  -0.07907   0.37029   0.00333   0.25835
   7        3PX        -0.00461  -0.17135   0.84164   0.85846  -0.39826
   8        3PY        -0.00759  -0.29897   1.48458  -0.46543  -0.70383
   9        3PZ         0.93913   1.12581   0.23448   0.00162  -0.00989
  10        4S          0.01873   0.18824  -0.85443  -0.01250  -0.51015
  11        4PX        -0.00281   0.13594  -0.70803  -0.66150   0.18592
  12        4PY        -0.00389   0.23770  -1.25226   0.35193   0.32908
  13        4PZ        -0.33824  -0.60776  -0.14814  -0.00130   0.00520
  14 2   H  1S          0.01679  -0.02254   0.25028  -0.36286  -0.20693
  15        2S         -0.01887   0.01134  -0.20179   0.37665   0.15678
  16        3S         -0.00455   0.05618  -0.30023   0.28072   0.04493
  17 3   H  1S          0.01694  -0.02149   0.24021   0.36616  -0.20274
  18        2S         -0.01926   0.00929  -0.18460  -0.37574   0.15287
  19        3S         -0.00506   0.05662  -0.30095  -0.29566   0.04757
  20 4   C  1S          0.00065  -0.00332   0.01352   0.00046  -0.00686
  21        2S          0.00060  -0.01041   0.04799   0.00114  -0.02125
  22        2PX        -0.01039   0.08395  -0.38338  -0.82035  -0.51882
  23        2PY        -0.01861   0.15047  -0.68906   0.45960  -0.91336
  24        2PZ        -0.92530   0.91906   0.19110   0.00052   0.01958
  25        3S         -0.00341   0.08974  -0.43227  -0.00917   0.18261
  26        3PX         0.01070  -0.15527   0.73877   0.97800   0.56948
  27        3PY         0.01896  -0.27543   1.31221  -0.53914   1.00802
  28        3PZ         0.94130  -1.12265  -0.24114  -0.00066  -0.02463
  29        4S          0.02011  -0.19251   0.89261   0.02538  -0.34590
  30        4PX        -0.00130   0.13381  -0.69265  -0.70565  -0.36042
  31        4PY        -0.00285   0.23545  -1.21676   0.38090  -0.63895
  32        4PZ        -0.33931   0.60560   0.15418   0.00044   0.01978
  33 5   H  1S          0.01531   0.03854  -0.29589   0.42916  -0.27304
  34        2S         -0.01913  -0.03258   0.27525  -0.43968   0.21690
  35        3S         -0.00140  -0.05019   0.27369  -0.23682   0.13699
  36 6   H  1S          0.01550   0.03892  -0.29368  -0.43675  -0.26637
  37        2S         -0.01975  -0.03369   0.27763   0.44666   0.21212
  38        3S         -0.00098  -0.04769   0.26018   0.23986   0.13432
                          36        37        38
                           V         V         V
     Eigenvalues --     3.31778  23.35207  23.70458
   1 1   C  1S         -0.00039  -1.40835  -1.45778
   2        2S         -0.00064   1.50199   1.57635
   3        2PX         0.80091  -0.00651   0.01210
   4        2PY        -0.45130  -0.01076   0.02126
   5        2PZ         0.00078  -0.00076  -0.00038
   6        3S          0.00186  -0.29510  -0.40063
   7        3PX        -1.14215   0.02382  -0.05538
   8        3PY         0.64251   0.03986  -0.09649
   9        3PZ        -0.00122   0.00215   0.00117
  10        4S         -0.02032   0.27414   0.76822
  11        4PX         1.98192  -0.02550   0.13254
  12        4PY        -1.12104  -0.04342   0.23007
  13        4PZ         0.00201  -0.00367  -0.00454
  14 2   H  1S          0.57751   0.01339   0.00794
  15        2S         -0.89274   0.00740  -0.01485
  16        3S         -0.47513  -0.08494  -0.03990
  17 3   H  1S         -0.58643   0.01469   0.00895
  18        2S          0.90533   0.00714  -0.01534
  19        3S          0.49290  -0.08643  -0.04054
  20 4   C  1S          0.00010  -1.45300   1.41305
  21        2S         -0.00004   1.54971  -1.52809
  22        2PX        -0.69415   0.00616   0.01275
  23        2PY         0.39394   0.01095   0.02170
  24        2PZ        -0.00059  -0.00073   0.00014
  25        3S          0.00208  -0.30408   0.38838
  26        3PX         0.98945  -0.02239  -0.05644
  27        3PY        -0.56715  -0.03954  -0.09693
  28        3PZ         0.00090   0.00212  -0.00031
  29        4S         -0.00312   0.27948  -0.75665
  30        4PX        -1.73086   0.02347   0.13098
  31        4PY         0.99496   0.04268   0.22510
  32        4PZ        -0.00151  -0.00337   0.00265
  33 5   H  1S          0.46273   0.01279  -0.00397
  34        2S         -0.71733   0.00844   0.01363
  35        3S         -0.41495  -0.08214   0.03724
  36 6   H  1S         -0.46051   0.01190  -0.00312
  37        2S          0.71569   0.00942   0.01291
  38        3S          0.41156  -0.08108   0.03625
     Density Matrix:
                           1         2         3         4         5
   1 1   C  1S          0.65938
   2        2S          0.56148   0.49196
   3        2PX        -0.00045  -0.00059   0.08441
   4        2PY        -0.00107  -0.00146   0.00347   0.08782
   5        2PZ         0.00011   0.00017  -0.00018  -0.00037   0.06444
   6        3S         -0.08884  -0.15372   0.00240   0.00548  -0.00022
   7        3PX         0.00088   0.00135   0.13073   0.00088  -0.00015
   8        3PY         0.00127   0.00196   0.00089   0.13123  -0.00034
   9        3PZ         0.00023   0.00038  -0.00030  -0.00059   0.10370
  10        4S         -0.07931  -0.11417  -0.01627  -0.02901   0.00069
  11        4PX         0.00032   0.00169   0.06981  -0.00437  -0.00086
  12        4PY         0.00069   0.00317  -0.00436   0.06515  -0.00151
  13        4PZ        -0.00020  -0.00044  -0.00112  -0.00192   0.09593
  14 2   H  1S         -0.02080  -0.03312   0.03504  -0.06306  -0.00173
  15        2S         -0.02317  -0.03705   0.04853  -0.08777  -0.00133
  16        3S          0.00056  -0.00075   0.01992  -0.03295  -0.00007
  17 3   H  1S         -0.02117  -0.03369  -0.07272  -0.00158  -0.00183
  18        2S         -0.02342  -0.03741  -0.10024  -0.00228  -0.00144
  19        3S          0.00058  -0.00073  -0.03803   0.00069  -0.00011
  20 4   C  1S          0.00604   0.00974  -0.01095  -0.01894  -0.00053
  21        2S          0.00968   0.01515  -0.01753  -0.03033  -0.00086
  22        2PX         0.01021   0.01632  -0.01252  -0.03205   0.00068
  23        2PY         0.01781   0.02847  -0.03215  -0.04971   0.00125
  24        2PZ        -0.00071  -0.00115  -0.00048  -0.00078   0.06426
  25        3S         -0.02600  -0.03951   0.04925   0.08522   0.00261
  26        3PX         0.01570   0.02431  -0.01847  -0.04583   0.00087
  27        3PY         0.02736   0.04238  -0.04589  -0.07154   0.00164
  28        3PZ        -0.00120  -0.00192  -0.00085  -0.00138   0.10275
  29        4S          0.00546   0.00408   0.02193   0.03823   0.00345
  30        4PX         0.00299   0.00622  -0.01316  -0.02127   0.00090
  31        4PY         0.00515   0.01073  -0.02128  -0.03795   0.00172
  32        4PZ        -0.00102  -0.00165  -0.00140  -0.00234   0.09608
  33 5   H  1S          0.00416   0.00683  -0.00162  -0.01253  -0.00061
  34        2S          0.00619   0.01028   0.00369  -0.02514   0.00001
  35        3S          0.00310   0.00454   0.00434  -0.01756   0.00015
  36 6   H  1S          0.00412   0.00676  -0.01009  -0.00773  -0.00062
  37        2S          0.00608   0.01011  -0.02366  -0.00935  -0.00001
  38        3S          0.00305   0.00446  -0.01734  -0.00500   0.00012
                           6         7         8         9        10
   6        3S          0.45227
   7        3PX        -0.00178   0.20277
   8        3PY        -0.00183  -0.00521   0.19657
   9        3PZ        -0.00071  -0.00027  -0.00054   0.16688
  10        4S          0.27290  -0.02707  -0.04885   0.00089   0.18231
  11        4PX        -0.00713   0.10861  -0.01004  -0.00139  -0.01578
  12        4PY        -0.01292  -0.01002   0.09798  -0.00243  -0.02950
  13        4PZ         0.00186  -0.00150  -0.00255   0.15438   0.00294
  14 2   H  1S          0.08853   0.05659  -0.09823  -0.00286   0.06991
  15        2S          0.09918   0.07876  -0.13624  -0.00224   0.08266
  16        3S          0.00620   0.03265  -0.05056  -0.00013   0.01145
  17 3   H  1S          0.09014  -0.11385  -0.00062  -0.00300   0.06974
  18        2S          0.10025  -0.15673  -0.00040  -0.00238   0.08150
  19        3S          0.00631  -0.05922   0.00296  -0.00016   0.01068
  20 4   C  1S         -0.02643  -0.01715  -0.02969  -0.00090   0.00512
  21        2S         -0.03995  -0.02668  -0.04620  -0.00145   0.00392
  22        2PX        -0.04567  -0.01774  -0.04545   0.00116  -0.01659
  23        2PY        -0.07972  -0.04567  -0.07077   0.00214  -0.02907
  24        2PZ         0.00342  -0.00066  -0.00105   0.10341   0.00332
  25        3S          0.10146   0.07259   0.12578   0.00436   0.00043
  26        3PX        -0.06571  -0.02632  -0.06480   0.00150  -0.02445
  27        3PY        -0.11468  -0.06501  -0.10178   0.00282  -0.04282
  28        3PZ         0.00565  -0.00118  -0.00188   0.16535   0.00551
  29        4S          0.00176   0.03330   0.05823   0.00572  -0.03266
  30        4PX        -0.02212  -0.01956  -0.02984   0.00149  -0.00568
  31        4PY        -0.03827  -0.02994  -0.05467   0.00285  -0.00952
  32        4PZ         0.00484  -0.00196  -0.00326   0.15461   0.00517
  33 5   H  1S         -0.02029  -0.00051  -0.01783  -0.00089  -0.01417
  34        2S         -0.03074   0.00886  -0.03680   0.00013  -0.01831
  35        3S         -0.01168   0.00824  -0.02638   0.00026  -0.00305
  36 6   H  1S         -0.02004  -0.01511  -0.00924  -0.00090  -0.01417
  37        2S         -0.03019  -0.03613  -0.01037   0.00010  -0.01849
  38        3S         -0.01142  -0.02678  -0.00587   0.00022  -0.00327
                          11        12        13        14        15
  11        4PX         0.05928
  12        4PY        -0.00861   0.05038
  13        4PZ        -0.00195  -0.00334   0.14285
  14 2   H  1S          0.03327  -0.05366  -0.00148   0.08151
  15        2S          0.04725  -0.07423  -0.00058   0.10934   0.14869
  16        3S          0.02016  -0.02734   0.00026   0.03617   0.05137
  17 3   H  1S         -0.06271   0.00183  -0.00154  -0.01340  -0.02428
  18        2S         -0.08669   0.00373  -0.00064  -0.02420  -0.04107
  19        3S         -0.03301   0.00389   0.00024  -0.01745  -0.02604
  20 4   C  1S         -0.00329  -0.00588  -0.00080   0.00425   0.00684
  21        2S         -0.00673  -0.01196  -0.00129   0.00704   0.01143
  22        2PX        -0.01366  -0.01961   0.00154   0.00185  -0.00242
  23        2PY        -0.01971  -0.03664   0.00280   0.01120   0.02405
  24        2PZ        -0.00107  -0.00179   0.09568  -0.00082  -0.00028
  25        3S          0.02371   0.04194   0.00378  -0.02124  -0.03444
  26        3PX        -0.02108  -0.02781   0.00208   0.00118  -0.00659
  27        3PY        -0.02793  -0.05360   0.00383   0.01690   0.03628
  28        3PZ        -0.00176  -0.00295   0.15300  -0.00121  -0.00031
  29        4S          0.00898   0.01659   0.00518  -0.01854  -0.02559
  30        4PX        -0.01524  -0.01234   0.00181  -0.00148  -0.00801
  31        4PY        -0.01237  -0.02988   0.00340   0.01541   0.02754
  32        4PZ        -0.00213  -0.00361   0.14309  -0.00070   0.00034
  33 5   H  1S          0.00244  -0.01582  -0.00043   0.01116   0.02311
  34        2S          0.00985  -0.02753   0.00066   0.02380   0.04419
  35        3S          0.00780  -0.01584   0.00047   0.01674   0.02789
  36 6   H  1S         -0.01493  -0.00558  -0.00045  -0.00905  -0.01791
  37        2S         -0.02872  -0.00484   0.00064  -0.01886  -0.03398
  38        3S         -0.01747  -0.00098   0.00044  -0.01024  -0.01766
                          16        17        18        19        20
  16        3S          0.02036
  17 3   H  1S         -0.01762   0.08243
  18        2S         -0.02616   0.10959   0.14773
  19        3S         -0.01209   0.03574   0.05036   0.01975
  20 4   C  1S          0.00384   0.00431   0.00688   0.00384   0.65949
  21        2S          0.00566   0.00713   0.01149   0.00566   0.56159
  22        2PX        -0.00319   0.00878   0.02191   0.01659   0.00122
  23        2PY         0.01768   0.00726   0.00986   0.00597   0.00197
  24        2PZ         0.00002  -0.00082  -0.00024   0.00005   0.00011
  25        3S         -0.01470  -0.02148  -0.03455  -0.01465  -0.08937
  26        3PX        -0.00648   0.01410   0.03462   0.02592  -0.00047
  27        3PY         0.02668   0.00956   0.01236   0.00763  -0.00097
  28        3PZ         0.00007  -0.00120  -0.00025   0.00011   0.00025
  29        4S         -0.00640  -0.01840  -0.02509  -0.00609  -0.08037
  30        4PX        -0.00674   0.01393   0.02751   0.01707  -0.00015
  31        4PY         0.01619   0.00650   0.00681   0.00220  -0.00015
  32        4PZ         0.00036  -0.00070   0.00037   0.00038  -0.00002
  33 5   H  1S          0.01602  -0.00908  -0.01794  -0.00918  -0.01991
  34        2S          0.02719  -0.01880  -0.03377  -0.01663  -0.02194
  35        3S          0.01459  -0.01019  -0.01750  -0.00885   0.00060
  36 6   H  1S         -0.00924   0.01116   0.02295   0.01572  -0.01977
  37        2S         -0.01688   0.02384   0.04397   0.02676  -0.02198
  38        3S         -0.00901   0.01673   0.02772   0.01437   0.00052
                          21        22        23        24        25
  21        2S          0.49209
  22        2PX         0.00175   0.08251
  23        2PY         0.00282   0.00376   0.08736
  24        2PZ         0.00017   0.00018   0.00028   0.06414
  25        3S         -0.15440  -0.00560  -0.00910  -0.00023   0.45421
  26        3PX        -0.00070   0.12832   0.00212   0.00009  -0.00032
  27        3PY        -0.00146   0.00219   0.13123   0.00010   0.00017
  28        3PZ         0.00042   0.00028   0.00043   0.10257  -0.00085
  29        4S         -0.11624   0.01297   0.02200   0.00101   0.28008
  30        4PX        -0.00137   0.07403  -0.00532   0.00057   0.00590
  31        4PY        -0.00214  -0.00531   0.06782   0.00105   0.00948
  32        4PZ        -0.00013   0.00110   0.00196   0.09588   0.00088
  33 5   H  1S         -0.03172  -0.03330   0.06340  -0.00170   0.08484
  34        2S         -0.03506  -0.05014   0.08844  -0.00132   0.09380
  35        3S         -0.00058  -0.02324   0.03366  -0.00011   0.00549
  36 6   H  1S         -0.03151   0.07107   0.00305  -0.00161   0.08427
  37        2S         -0.03513   0.10137   0.00090  -0.00120   0.09395
  38        3S         -0.00069   0.04083  -0.00338  -0.00007   0.00571
                          26        27        28        29        30
  26        3PX         0.19991
  27        3PY        -0.00198   0.19770
  28        3PZ         0.00011   0.00014   0.16402
  29        4S          0.02428   0.04108   0.00128   0.18788
  30        4PX         0.11578  -0.01086   0.00090   0.01497   0.06817
  31        4PY        -0.01093   0.10274   0.00167   0.02441  -0.01098
  32        4PZ         0.00138   0.00248   0.15333   0.00280   0.00151
  33 5   H  1S         -0.05312   0.09954  -0.00281   0.06641  -0.03501
  34        2S         -0.08045   0.13834  -0.00222   0.07650  -0.05334
  35        3S         -0.03773   0.05196  -0.00018   0.00899  -0.02508
  36 6   H  1S          0.11227   0.00421  -0.00268   0.06682   0.06643
  37        2S          0.15995  -0.00007  -0.00204   0.07779   0.09517
  38        3S          0.06411  -0.00669  -0.00012   0.00967   0.03853
                          31        32        33        34        35
  31        4PY         0.05499
  32        4PZ         0.00280   0.14337
  33 5   H  1S          0.05640  -0.00146   0.08047
  34        2S          0.07859  -0.00059   0.11001   0.15292
  35        3S          0.02973   0.00025   0.03845   0.05607   0.02342
  36 6   H  1S         -0.00192  -0.00141  -0.01228  -0.02628  -0.02036
  37        2S         -0.00671  -0.00052  -0.02638  -0.04939  -0.03252
  38        3S         -0.00684   0.00026  -0.02054  -0.03264  -0.01623
                          36        37        38
  36 6   H  1S          0.07987
  37        2S          0.10969   0.15314
  38        3S          0.03851   0.05635   0.02358
    Full Mulliken population analysis:
                           1         2         3         4         5
   1 1   C  1S          0.65938
   2        2S          0.49323   0.49196
   3        2PX         0.00000   0.00000   0.08441
   4        2PY         0.00000   0.00000   0.00000   0.08782
   5        2PZ         0.00000   0.00000   0.00000   0.00000   0.06444
   6        3S         -0.02925  -0.06438   0.00000   0.00000   0.00000
   7        3PX         0.00000   0.00000   0.08224   0.00000   0.00000
   8        3PY         0.00000   0.00000   0.00000   0.08256   0.00000
   9        3PZ         0.00000   0.00000   0.00000   0.00000   0.06524
  10        4S         -0.01219  -0.02137   0.00000   0.00000   0.00000
  11        4PX         0.00000   0.00000   0.01538   0.00000   0.00000
  12        4PY         0.00000   0.00000   0.00000   0.01435   0.00000
  13        4PZ         0.00000   0.00000   0.00000   0.00000   0.02113
  14 2   H  1S         -0.00024  -0.00034   0.00190   0.00564   0.00001
  15        2S         -0.00170  -0.00326   0.00440   0.01311   0.00001
  16        3S          0.00004  -0.00007   0.00069   0.00188   0.00000
  17 3   H  1S         -0.00026  -0.00037   0.00791  -0.00000   0.00001
  18        2S         -0.00176  -0.00336   0.01769  -0.00001   0.00001
  19        3S          0.00005  -0.00007   0.00253   0.00000   0.00000
  20 4   C  1S          0.00000   0.00000  -0.00002  -0.00006   0.00000
  21        2S          0.00000  -0.00000  -0.00002  -0.00005   0.00000
  22        2PX        -0.00002  -0.00002   0.00011   0.00084   0.00000
  23        2PY        -0.00006  -0.00005   0.00085   0.00195   0.00000
  24        2PZ        -0.00000  -0.00000  -0.00000  -0.00000   0.00041
  25        3S         -0.00058  -0.00098   0.00256   0.00767  -0.00000
  26        3PX        -0.00053  -0.00097   0.00020   0.00552   0.00000
  27        3PY        -0.00159  -0.00292   0.00553   0.01071   0.00000
  28        3PZ        -0.00000  -0.00000  -0.00000  -0.00000   0.00606
  29        4S          0.00034   0.00031   0.00099   0.00300  -0.00000
  30        4PX        -0.00017  -0.00044  -0.00071   0.00147   0.00000
  31        4PY        -0.00052  -0.00132   0.00148   0.00099   0.00000
  32        4PZ        -0.00000  -0.00000  -0.00000  -0.00000   0.00902
  33 5   H  1S          0.00000   0.00000  -0.00000  -0.00000   0.00000
  34        2S          0.00001   0.00002   0.00000  -0.00030  -0.00000
  35        3S          0.00007   0.00012   0.00001  -0.00069  -0.00000
  36 6   H  1S          0.00000   0.00000  -0.00000  -0.00000   0.00000
  37        2S          0.00001   0.00002  -0.00023  -0.00006   0.00000
  38        3S          0.00007   0.00012  -0.00056  -0.00011  -0.00000
                           6         7         8         9        10
   6        3S          0.45227
   7        3PX         0.00000   0.20277
   8        3PY         0.00000   0.00000   0.19657
   9        3PZ         0.00000   0.00000   0.00000   0.16688
  10        4S          0.21142   0.00000   0.00000   0.00000   0.18231
  11        4PX         0.00000   0.07097   0.00000   0.00000   0.00000
  12        4PY         0.00000   0.00000   0.06402   0.00000   0.00000
  13        4PZ         0.00000   0.00000   0.00000   0.10088   0.00000
  14 2   H  1S          0.01640   0.01124   0.03215   0.00004   0.01855
  15        2S          0.04194   0.01999   0.05695   0.00004   0.04776
  16        3S          0.00286   0.00394   0.01004   0.00000   0.00865
  17 3   H  1S          0.01711   0.04430  -0.00000   0.00005   0.01867
  18        2S          0.04297   0.07704  -0.00000   0.00005   0.04742
  19        3S          0.00293   0.01373   0.00001   0.00000   0.00811
  20 4   C  1S         -0.00059  -0.00058  -0.00173   0.00000   0.00032
  21        2S         -0.00099  -0.00106  -0.00318   0.00000   0.00030
  22        2PX         0.00237   0.00019   0.00548   0.00000   0.00075
  23        2PY         0.00717   0.00550   0.01059   0.00000   0.00228
  24        2PZ         0.00000  -0.00000  -0.00000   0.00610   0.00000
  25        3S          0.02155   0.01357   0.04072  -0.00000   0.00016
  26        3PX         0.01229  -0.00126   0.01847   0.00000   0.00377
  27        3PY         0.03713   0.01853   0.02861   0.00000   0.01143
  28        3PZ         0.00001  -0.00000  -0.00000   0.03512   0.00000
  29        4S          0.00067   0.00513   0.01554  -0.00000  -0.02048
  30        4PX         0.00621  -0.00400   0.00591   0.00000   0.00172
  31        4PY         0.01861   0.00593   0.00132   0.00000   0.00500
  32        4PZ         0.00001  -0.00000  -0.00000   0.04932   0.00001
  33 5   H  1S         -0.00005  -0.00000  -0.00018   0.00000  -0.00074
  34        2S         -0.00115   0.00007  -0.00313  -0.00000  -0.00302
  35        3S         -0.00187   0.00011  -0.00420  -0.00000  -0.00109
  36 6   H  1S         -0.00005  -0.00012  -0.00005   0.00000  -0.00073
  37        2S         -0.00110  -0.00247  -0.00050  -0.00000  -0.00300
  38        3S         -0.00181  -0.00348  -0.00053  -0.00000  -0.00115
                          11        12        13        14        15
  11        4PX         0.05928
  12        4PY         0.00000   0.05038
  13        4PZ         0.00000   0.00000   0.14285
  14 2   H  1S          0.00646   0.01716   0.00002   0.08151
  15        2S          0.01543   0.03994   0.00001   0.07724   0.14869
  16        3S          0.00516   0.01152  -0.00001   0.01352   0.04053
  17 3   H  1S          0.02348   0.00001   0.00002  -0.00001  -0.00061
  18        2S          0.05449   0.00004   0.00002  -0.00060  -0.00497
  19        3S          0.01620   0.00003  -0.00000  -0.00191  -0.00746
  20 4   C  1S         -0.00019  -0.00059   0.00000   0.00000   0.00002
  21        2S         -0.00048  -0.00147   0.00000   0.00000   0.00003
  22        2PX        -0.00074   0.00136   0.00000  -0.00000   0.00000
  23        2PY         0.00137   0.00096   0.00000  -0.00000  -0.00037
  24        2PZ        -0.00000  -0.00000   0.00898   0.00000   0.00000
  25        3S          0.00666   0.02039  -0.00001  -0.00008  -0.00157
  26        3PX        -0.00431   0.00551   0.00000  -0.00000   0.00003
  27        3PY         0.00553   0.00129   0.00000  -0.00024  -0.00367
  28        3PZ        -0.00000  -0.00000   0.04880   0.00000   0.00000
  29        4S          0.00272   0.00870  -0.00001  -0.00111  -0.00468
  30        4PX        -0.00733   0.00313   0.00000   0.00001   0.00015
  31        4PY         0.00314  -0.00563   0.00000  -0.00249  -0.01051
  32        4PZ        -0.00000  -0.00001   0.08974   0.00000  -0.00000
  33 5   H  1S          0.00003  -0.00230   0.00000   0.00000   0.00000
  34        2S          0.00030  -0.00975  -0.00001   0.00000   0.00016
  35        3S          0.00031  -0.00727  -0.00000   0.00023   0.00147
  36 6   H  1S         -0.00176  -0.00046   0.00000  -0.00000  -0.00004
  37        2S         -0.00828  -0.00098  -0.00000  -0.00004  -0.00091
  38        3S         -0.00656  -0.00026  -0.00000  -0.00046  -0.00245
                          16        17        18        19        20
  16        3S          0.02036
  17 3   H  1S         -0.00192   0.08243
  18        2S         -0.00750   0.07741   0.14773
  19        3S         -0.00621   0.01336   0.03973   0.01975
  20 4   C  1S          0.00010   0.00000   0.00002   0.00010   0.65949
  21        2S          0.00017   0.00000   0.00003   0.00017   0.49332
  22        2PX         0.00001  -0.00000  -0.00029  -0.00059   0.00000
  23        2PY        -0.00075  -0.00000  -0.00008  -0.00014   0.00000
  24        2PZ        -0.00000   0.00000   0.00000  -0.00000   0.00000
  25        3S         -0.00258  -0.00008  -0.00159  -0.00258  -0.02942
  26        3PX         0.00005  -0.00017  -0.00296  -0.00368   0.00000
  27        3PY        -0.00451  -0.00007  -0.00069  -0.00071   0.00000
  28        3PZ        -0.00000   0.00000   0.00000  -0.00000   0.00000
  29        4S         -0.00243  -0.00111  -0.00461  -0.00232  -0.01236
  30        4PX         0.00016  -0.00190  -0.00884  -0.00680   0.00000
  31        4PY        -0.00768  -0.00058  -0.00143  -0.00057   0.00000
  32        4PZ        -0.00000   0.00000  -0.00000  -0.00000   0.00000
  33 5   H  1S          0.00022  -0.00000  -0.00004  -0.00042  -0.00021
  34        2S          0.00143  -0.00005  -0.00092  -0.00233  -0.00156
  35        3S          0.00246  -0.00047  -0.00246  -0.00284   0.00005
  36 6   H  1S         -0.00042   0.00000   0.00000   0.00022  -0.00020
  37        2S         -0.00234   0.00000   0.00015   0.00140  -0.00154
  38        3S         -0.00287   0.00023   0.00145   0.00242   0.00004
                          21        22        23        24        25
  21        2S          0.49209
  22        2PX         0.00000   0.08251
  23        2PY         0.00000   0.00000   0.08736
  24        2PZ         0.00000   0.00000   0.00000   0.06414
  25        3S         -0.06466   0.00000   0.00000   0.00000   0.45421
  26        3PX         0.00000   0.08073   0.00000   0.00000   0.00000
  27        3PY         0.00000   0.00000   0.08256   0.00000   0.00000
  28        3PZ         0.00000   0.00000   0.00000   0.06453   0.00000
  29        4S         -0.02175   0.00000   0.00000   0.00000   0.21698
  30        4PX         0.00000   0.01630   0.00000   0.00000   0.00000
  31        4PY         0.00000   0.00000   0.01494   0.00000   0.00000
  32        4PZ         0.00000   0.00000   0.00000   0.02112   0.00000
  33 5   H  1S         -0.00029   0.00142   0.00558   0.00001   0.01507
  34        2S         -0.00297   0.00376   0.01364   0.00001   0.03876
  35        3S         -0.00005   0.00068   0.00202   0.00000   0.00251
  36 6   H  1S         -0.00028   0.00676   0.00002   0.00001   0.01474
  37        2S         -0.00294   0.01721   0.00001   0.00001   0.03847
  38        3S         -0.00006   0.00272  -0.00002   0.00000   0.00260
                          26        27        28        29        30
  26        3PX         0.19991
  27        3PY         0.00000   0.19770
  28        3PZ         0.00000   0.00000   0.16402
  29        4S          0.00000   0.00000   0.00000   0.18788
  30        4PX         0.07566   0.00000   0.00000   0.00000   0.06817
  31        4PY         0.00000   0.06714   0.00000   0.00000   0.00000
  32        4PZ         0.00000   0.00000   0.10019   0.00000   0.00000
  33 5   H  1S          0.00864   0.03334   0.00004   0.01735   0.00571
  34        2S          0.01703   0.06028   0.00004   0.04368   0.01470
  35        3S          0.00385   0.01090   0.00000   0.00675   0.00544
  36 6   H  1S          0.04123   0.00012   0.00004   0.01735   0.02472
  37        2S          0.07696  -0.00000   0.00004   0.04421   0.05987
  38        3S          0.01493  -0.00012   0.00000   0.00724   0.01910
                          31        32        33        34        35
  31        4PY         0.05499
  32        4PZ         0.00000   0.14337
  33 5   H  1S          0.01895   0.00002   0.08047
  34        2S          0.04458   0.00001   0.07771   0.15292
  35        3S          0.01327  -0.00000   0.01437   0.04424   0.02342
  36 6   H  1S         -0.00006   0.00002  -0.00001  -0.00083  -0.00243
  37        2S         -0.00033   0.00001  -0.00084  -0.00695  -0.01002
  38        3S         -0.00027  -0.00000  -0.00245  -0.01006  -0.00875
                          36        37        38
  36 6   H  1S          0.07987
  37        2S          0.07749   0.15314
  38        3S          0.01439   0.04446   0.02358
     Gross orbital populations:
                           1
   1 1   C  1S          1.10435
   2        2S          0.88586
   3        2PX         0.22735
   4        2PY         0.23621
   5        2PZ         0.16634
   6        3S          0.79267
   7        3PX         0.56229
   8        3PY         0.55542
   9        3PZ         0.42373
  10        4S          0.50486
  11        4PX         0.25726
  12        4PY         0.21008
  13        4PZ         0.41243
  14 2   H  1S          0.27457
  15        2S          0.46570
  16        3S          0.08451
  17 3   H  1S          0.27741
  18        2S          0.46415
  19        3S          0.08209
  20 4   C  1S          1.10442
  21        2S          0.88584
  22        2PX         0.22155
  23        2PY         0.23534
  24        2PZ         0.16532
  25        3S          0.79249
  26        3PX         0.55090
  27        3PY         0.55629
  28        3PZ         0.41889
  29        4S          0.50798
  30        4PX         0.27825
  31        4PY         0.21896
  32        4PZ         0.41281
  33 5   H  1S          0.27142
  34        2S          0.47032
  35        3S          0.09013
  36 6   H  1S          0.26954
  37        2S          0.47093
  38        3S          0.09135
          Condensed to atoms (all electrons):
               1          2          3          4          5          6
     1  C    5.029767   0.388331   0.389041   0.600446  -0.034701  -0.034053
     2  H    0.388331   0.513120  -0.031180  -0.041936   0.005984  -0.009539
     3  H    0.389041  -0.031180   0.510910  -0.041473  -0.009529   0.005884
     4  C    0.600446  -0.041936  -0.041473   5.066388   0.382998   0.382610
     5  H   -0.034701   0.005984  -0.009529   0.382998   0.529446  -0.042326
     6  H   -0.034053  -0.009539   0.005884   0.382610  -0.042326   0.529253
 Mulliken charges:
               1
     1  C   -0.338831
     2  H    0.175219
     3  H    0.176347
     4  C   -0.349033
     5  H    0.168128
     6  H    0.168171
 Sum of Mulliken charges =  -0.00000
 Mulliken charges with hydrogens summed into heavy atoms:
               1
     1  C    0.012735
     4  C   -0.012735
 Electronic spatial extent (au):  <R**2>=             83.7831
 Charge=             -0.0000 electrons
 Dipole moment (field-independent basis, Debye):
    X=              0.0099    Y=              0.0311    Z=             -0.1459  Tot=              0.1495
 Quadrupole moment (field-independent basis, Debye-Ang):
   XX=            -12.2077   YY=            -12.2360   ZZ=            -15.6760
   XY=              0.0015   XZ=              0.0004   YZ=             -0.0018
 Traceless Quadrupole moment (field-independent basis, Debye-Ang):
   XX=              1.1655   YY=              1.1373   ZZ=             -2.3028
   XY=              0.0015   XZ=              0.0004   YZ=             -0.0018
 Octapole moment (field-independent basis, Debye-Ang**2):
  XXX=             -0.4292  YYY=             -0.0527  ZZZ=             -0.0467  XYY=              0.3168
  XXY=             -0.0167  XXZ=             -0.1839  XZZ=             -0.0955  YZZ=             -0.1107
  YYZ=             -0.2462  XYZ=             -0.0533
 Hexadecapole moment (field-independent basis, Debye-Ang**3):
 XXXX=            -34.3484 YYYY=            -55.3227 ZZZZ=            -17.8435 XXXY=             -7.2769
 XXXZ=              0.0397 YYYX=            -10.7165 YYYZ=              0.0503 ZZZX=              0.0427
 ZZZY=              0.0752 XXYY=            -16.2131 XXZZ=             -9.9375 YYZZ=            -13.6593
 XXYZ=              0.0169 YYXZ=             -0.0018 ZZXY=             -3.2072
 N-N= 3.304656068945D+01 E-N=-2.477963835223D+02  KE= 7.814589388261D+01
 Orbital energies and kinetic energies (alpha):
                                 1                 2
   1         O               -10.290934         15.978966
   2         O               -10.288191         15.979659
   3         O                -0.863762          1.536599
   4         O                -0.672036          1.270795
   5         O                -0.560006          0.942259
   6         O                -0.508509          1.283987
   7         O                -0.436103          1.042309
   8         O                -0.356677          1.038373
   9         V                 0.079175          1.182752
  10         V                 0.140626          0.590733
  11         V                 0.164582          0.594834
  12         V                 0.170025          0.681008
  13         V                 0.240560          0.584653
  14         V                 0.368949          0.845709
  15         V                 0.393750          0.934027
  16         V                 0.402255          0.794673
  17         V                 0.463647          1.198784
  18         V                 0.489299          1.408788
  19         V                 0.493922          1.303926
  20         V                 0.590834          1.652103
  21         V                 0.665375          1.572739
  22         V                 0.691209          2.145772
  23         V                 0.771833          2.390395
  24         V                 0.775426          2.352921
  25         V                 0.838399          1.079753
  26         V                 0.950557          3.416318
  27         V                 2.230728          3.929978
  28         V                 2.291782          4.022063
  29         V                 2.332457          4.306870
  30         V                 2.404800          4.509868
  31         V                 2.670891          6.300188
  32         V                 2.816782          6.302734
  33         V                 2.877971          6.145572
  34         V                 2.951201          6.226328
  35         V                 3.140101          6.818832
  36         V                 3.317783          6.404029
  37         V                23.352067         60.074908
  38         V                23.704580         60.202848
 Total kinetic energy from orbitals= 7.814589388261D+01
 Calling FoFJK, ICntrl=      2127 FMM=F ISym2X=0 I1Cent= 0 IOpClX= 0 NMat=1 NMatS=1 NMatT=0.
 -------------------------------------------------------------------
 Center     Atomic                   Forces (Hartrees/Bohr)
 Number     Number              X              Y              Z
 -------------------------------------------------------------------
      1        6           0.015786361    0.015516710   -0.005977589
      2        1          -0.010674680    0.002697256    0.002903674
      3        1           0.001975849   -0.007433274    0.002682367
      4        6           0.009909506    0.013636279   -0.006200098
      5        1           0.000956993   -0.016258491    0.003250348
      6        1          -0.017954030   -0.008158479    0.003341298
 -------------------------------------------------------------------
 Cartesian Forces:  Max     0.017954030 RMS     0.009775809

 GradGradGradGradGradGradGradGradGradGradGradGradGradGradGradGradGradGrad
 Berny optimization.
 Search for a local minimum.
 Step number   1 out of a maximum of    2
 All quantities printed in internal units (Hartrees-Bohrs-Radians)
 Second derivative matrix not updated -- first step.
 The second derivative matrix:
                          X1        Y1        Z1        X2        Y2
           X1           0.76377
           Y1           0.08794   0.85493
           Z1           0.00832   0.01326   0.16854
           X2          -0.17008   0.10005   0.00332   0.14706
           Y2           0.10515  -0.28226  -0.01156  -0.11914   0.27080
           Z2           0.00523  -0.01451  -0.05453  -0.00481   0.01187
           X3          -0.35350   0.00393  -0.01231   0.00041   0.00026
           Y3          -0.00105  -0.11080  -0.00295   0.03215   0.01940
           Z3          -0.01583  -0.00280  -0.05530   0.00240   0.00096
           X4          -0.26576  -0.17716  -0.00079   0.02264   0.01371
           Y4          -0.17753  -0.47026  -0.00131  -0.01308  -0.00792
           Z4           0.00223   0.00397  -0.09326  -0.00090  -0.00127
           X5           0.02350  -0.01357   0.00090  -0.00001   0.00001
           Y5           0.01138  -0.00657   0.00121   0.00001  -0.00000
           Z5          -0.00078   0.00051   0.01740   0.00039  -0.00019
           X6           0.00206  -0.00119   0.00056  -0.00002   0.00001
           Y6          -0.02590   0.01496   0.00136   0.00001  -0.00000
           Z6           0.00083  -0.00043   0.01716  -0.00039   0.00019
                          Z2        X3        Y3        Z3        X4
           Z2           0.02858
           X3          -0.00039   0.35351
           Y3           0.00257  -0.00444   0.07600
           Z3           0.01057   0.01336   0.00184   0.02922
           X4           0.00069  -0.00039  -0.02669  -0.00066   0.70411
           Y4          -0.00035   0.00022   0.01541   0.00043   0.12630
           Z4           0.01537  -0.00066  -0.00146   0.01551  -0.00781
           X5          -0.00035  -0.00001   0.00001   0.00036  -0.14212
           Y5           0.00023   0.00001  -0.00001  -0.00024   0.08966
           Z5           0.00915   0.00038  -0.00025  -0.00926  -0.00435
           X6          -0.00037  -0.00002   0.00001   0.00037  -0.31848
           Y6           0.00018   0.00001  -0.00000  -0.00019  -0.02583
           Z6          -0.00915  -0.00038   0.00025   0.00925   0.01291
                          Y4        Z4        X5        Y5        Z5
           Y4           0.85405
           Z4          -0.01458   0.17672
           X5           0.08095  -0.00287   0.12126
           Y5          -0.28717   0.01051  -0.09982   0.27808
           Z5           0.01301  -0.05726   0.00384  -0.01125   0.02983
           X6          -0.01687   0.01001  -0.00261  -0.00124   0.00054
           Y6          -0.10411   0.00282   0.03242   0.01567  -0.00182
           Z6           0.00280  -0.05708  -0.00188  -0.00046   0.01014
                          X6        Y6        Z6
           X6           0.31906
           Y6           0.01928   0.07349
           Z6          -0.01111  -0.00236   0.02968
 ITU=  0
     Eigenvalues ---    0.03691   0.04369   0.08988   0.10180   0.13470
     Eigenvalues ---    0.17411   0.26122   0.29107   0.52686   0.69660
     Eigenvalues ---    0.97681   1.55322
 Angle between quadratic step and forces=  37.10 degrees.
 Linear search not attempted -- first point.
 B after Tr=     0.008141    0.011753   -0.015148
         Rot=    1.000000   -0.000133    0.000074   -0.000116 Ang=  -0.02 deg.
 Variable       Old X    -DE/DX   Delta X   Delta X   Delta X     New X
                                 (Linear)    (Quad)   (Total)
    X1       -0.63805   0.01579   0.00000   0.02449   0.03288  -0.60516
    Y1       -1.10496   0.01552   0.00000   0.03291   0.04453  -1.06043
    Z1        0.01788  -0.00598   0.00000  -0.03318  -0.04871  -0.03082
    X2        0.43383  -0.01067   0.00000  -0.04716  -0.03835   0.39547
    Y2       -2.87053   0.00270   0.00000   0.01306   0.02491  -2.84562
    Z2       -0.06499   0.00290   0.00000   0.04036   0.02451  -0.04047
    X3       -2.68617   0.00198   0.00000   0.02666   0.03507  -2.65110
    Y3       -1.07286  -0.00743   0.00000  -0.03545  -0.02431  -1.09716
    Z3       -0.06617   0.00268   0.00000   0.03924   0.02340  -0.04277
    X4        0.62810   0.00991   0.00000   0.00920   0.01708   0.64519
    Y4        1.08733   0.01364   0.00000   0.01579   0.02769   1.11502
    Z4        0.01089  -0.00620   0.00000  -0.02947  -0.04423  -0.03334
    X5       -0.28695   0.00096   0.00000  -0.02055  -0.01309  -0.30004
    Y5        2.97086  -0.01626   0.00000  -0.04728  -0.03559   2.93527
    Z5       -0.07222   0.00325   0.00000   0.03750   0.02308  -0.04914
    X6        2.72673  -0.01795   0.00000  -0.04146  -0.03359   2.69313
    Y6        1.25160  -0.00816   0.00000  -0.04961  -0.03723   1.21437
    Z6       -0.07046   0.00334   0.00000   0.03637   0.02194  -0.04852
         Item               Value     Threshold  Converged?
 Maximum Force            0.017954     0.000450     NO 
 RMS     Force            0.009776     0.000300     NO 
 Maximum Displacement     0.048706     0.001800     NO 
 RMS     Displacement     0.032040     0.001200     NO 
 Predicted change in Energy=-2.401730D-03
 GradGradGradGradGradGradGradGradGradGradGradGradGradGradGradGradGradGrad

 Unable to Open any file for archive entry.
 1\1\GINC-BHD0014\Force\RwB97XD\6-311G\C2H4\BWEIGHT\11-Jan-2023\0\\# WB
 97XD/6-311G SCF=XQC FORCE nosym pop=full guess=read\\MD Step 1000\\0,1
 \C,-0.33763934,-0.58472041,0.00946222\H,0.22957051,-1.51901925,-0.0343
 8885\H,-1.42145904,-0.56773053,-0.0350164\C,0.33237877,0.5753901,0.005
 76304\H,-0.15184738,1.57211294,-0.03821826\H,1.442922,0.66231832,-0.03
 728428\\Version=ES64L-G16RevC.01\HF=-78.5545613\RMSD=6.309e-09\RMSF=9.
 776e-03\Dipole=0.0039116,0.0122311,-0.057389\Quadrupole=0.86654,0.8455
 27,-1.712067,0.001079,0.0002608,-0.0013527\PG=C01 [X(C2H4)]\\@
 The archive entry for this job was punched.


 CHILDREN YOU ARE VERY LITTLE,
 AND YOUR BONES ARE VERY BRITTLE;
 IF YOU WOULD GROW GREAT AND STATELY
 YOU MUST TRY TO WALK SEDATELY.
 YOU MUST STILL BE BRIGHT AND QUIET,
 AND CONTENT WITH SIMPLE DIET;
 AND REMAIN, THROUGH ALL BEWILD'RING
 INNOCENT AND HONEST CHILDREN.
     -- A CHILD'S GARDEN OF VERSE,
        ROBERT LOUIS STEVENSON
 Job cpu time:       0 days  0 hours  0 minutes 11.6 seconds.
 Elapsed time:       0 days  0 hours  0 minutes  3.1 seconds.
 File lengths (MBytes):  RWF=    272 Int=      0 D2E=      0 Chk=     32 Scr=     32
 Normal termination of Gaussian 16 at Wed Jan 11 19:43:45 2023.
