6
MD Step 0
C  -0.33763715 -0.58748864 0.00000000
H  0.19552659 -1.51519357 0.00000000
H  -1.40763715 -0.58748864 0.00000000
C  0.33763715 0.58748865 0.00000000
H  -0.19552659 1.51519357 0.00000000
H  1.40763715 0.58748865 0.00000000
6
MD Step 1
C  -0.33790511 -0.58782211 -0.00026133
H  0.19753506 -1.51276695 0.00244072
H  -1.40556525 -0.58505821 0.00226058
C  0.33721005 0.58706769 -0.00051788
H  -0.19341700 1.51742957 0.00231943
H  1.40972959 0.58938533 0.00226439
6
MD Step 2
C  -0.33822495 -0.58820747 -0.00061133
H  0.19971106 -1.51081968 0.00448685
H  -1.40316258 -0.58287041 0.00413255
C  0.33676638 0.58676357 -0.00085400
H  -0.19134181 1.51972070 0.00448470
H  1.41217375 0.59117498 0.00435688
6
MD Step 3
C  -0.33863915 -0.58851016 -0.00114190
H  0.20175421 -1.50885632 0.00628382
H  -1.40096318 -0.58065216 0.00634532
C  0.33652551 0.58638362 -0.00099821
H  -0.18932700 1.52154921 0.00648612
H  1.41372222 0.59329921 0.00638640
6
MD Step 4
C  -0.33890331 -0.58878721 -0.00158887
H  0.20362762 -1.50701616 0.00844492
H  -1.39906524 -0.57873781 0.00834271
C  0.33614666 0.58599935 -0.00117774
H  -0.18742253 1.52318271 0.00781061
H  1.41570858 0.59579144 0.00836875
6
MD Step 5
C  -0.33923315 -0.58902949 -0.00199661
H  0.20531297 -1.50568112 0.01036708
H  -1.39728603 -0.57681677 0.01066153
C  0.33586303 0.58566858 -0.00137637
H  -0.18538294 1.52489422 0.00936959
H  1.41751442 0.59765239 0.00979439
6
MD Step 6
C  -0.33938634 -0.58929685 -0.00239036
H  0.20675284 -1.50417376 0.01210052
H  -1.39593440 -0.57506999 0.01314726
C  0.33543295 0.58537698 -0.00153829
H  -0.18315897 1.52649587 0.01029211
H  1.41944925 0.59945714 0.01127395
6
MD Step 7
C  -0.33947793 -0.58951235 -0.00258038
H  0.20810929 -1.50267074 0.01393900
H  -1.39449736 -0.57328815 0.01503594
C  0.33494051 0.58507985 -0.00181352
H  -0.18117007 1.52811741 0.01107249
H  1.42162614 0.60065928 0.01231038
6
MD Step 8
C  -0.33961396 -0.58978031 -0.00304814
H  0.20974096 -1.50138656 0.01541994
H  -1.39393005 -0.57248844 0.01709107
C  0.33463278 0.58503386 -0.00174606
H  -0.17970878 1.52898596 0.01147852
H  1.42325377 0.60144788 0.01313822
6
MD Step 9
C  -0.33935013 -0.58980812 -0.00325206
H  0.21085037 -1.50045694 0.01684056
H  -1.39283622 -0.57126447 0.01881305
C  0.33388372 0.58471610 -0.00192568
H  -0.17791471 1.53035777 0.01188735
H  1.42503846 0.60204034 0.01415718
6
MD Step 10
C  -0.33936232 -0.58976705 -0.00352716
H  0.21181026 -1.49933415 0.01831140
H  -1.39137081 -0.56953143 0.02067579
C  0.33330738 0.58419541 -0.00208664
H  -0.17584516 1.53163779 0.01258509
H  1.42755661 0.60361971 0.01532187
6
MD Step 11
C  -0.33946962 -0.58991011 -0.00359097
H  0.21299685 -1.49843117 0.01953912
H  -1.39077626 -0.56779794 0.02201933
C  0.33291578 0.58397759 -0.00235758
H  -0.17415593 1.53215755 0.01357190
H  1.43003110 0.60476369 0.01575270
6
MD Step 12
C  -0.33958225 -0.59001704 -0.00373180
H  0.21408765 -1.49835195 0.02111931
H  -1.39022231 -0.56639671 0.02344934
C  0.33256753 0.58383718 -0.00250960
H  -0.17256332 1.53251693 0.01374977
H  1.43228557 0.60587111 0.01605428
6
MD Step 13
C  -0.33950769 -0.58984002 -0.00399099
H  0.21493270 -1.49782219 0.02291355
H  -1.38964910 -0.56511771 0.02475048
C  0.33204080 0.58340831 -0.00262551
H  -0.17061511 1.53278274 0.01470323
H  1.43430727 0.60679762 0.01647507
6
MD Step 14
C  -0.33956185 -0.58981682 -0.00445222
H  0.21586080 -1.49777390 0.02466037
H  -1.38891561 -0.56418962 0.02604507
C  0.33163756 0.58320367 -0.00246775
H  -0.16869714 1.53267664 0.01510074
H  1.43617805 0.60808933 0.01665235
6
MD Step 15
C  -0.33945403 -0.58962688 -0.00498751
H  0.21700110 -1.49781459 0.02646068
H  -1.38866163 -0.56276782 0.02797361
C  0.33109261 0.58277048 -0.00234489
H  -0.16674657 1.53268271 0.01579307
H  1.43804207 0.60960074 0.01714574
6
MD Step 16
C  -0.33969753 -0.58951226 -0.00538355
H  0.21793289 -1.49739679 0.02853297
H  -1.38794170 -0.56191576 0.02948399
C  0.33094681 0.58245182 -0.00224290
H  -0.16542685 1.53276316 0.01590937
H  1.43970952 0.61068179 0.01695067
6
MD Step 17
C  -0.33966935 -0.58960134 -0.00574019
H  0.21894949 -1.49749981 0.03030268
H  -1.38766729 -0.56119278 0.03044477
C  0.33056792 0.58232099 -0.00211497
H  -0.16400179 1.53345412 0.01643552
H  1.44117249 0.61199132 0.01641942
6
MD Step 18
C  -0.33946120 -0.58937881 -0.00587625
H  0.21986100 -1.49758294 0.03215960
H  -1.38740267 -0.56062005 0.03160902
C  0.32998002 0.58193191 -0.00230944
H  -0.16215554 1.53411755 0.01726283
H  1.44267525 0.61282288 0.01650945
6
MD Step 19
C  -0.33957743 -0.58889238 -0.00623361
H  0.22101755 -1.49743356 0.03376162
H  -1.38711835 -0.56117641 0.03268931
C  0.32978598 0.58144623 -0.00234163
H  -0.16061867 1.53417279 0.01829971
H  1.44339467 0.61316563 0.01743210
6
MD Step 20
C  -0.33949226 -0.58880453 -0.00647654
H  0.22184793 -1.49640683 0.03544009
H  -1.38748268 -0.56092687 0.03425066
C  0.32947496 0.58116319 -0.00251717
H  -0.15921059 1.53416562 0.01931101
H  1.44421177 0.61422248 0.01816750
6
MD Step 21
C  -0.33930665 -0.58870406 -0.00698191
H  0.22322390 -1.49525856 0.03741296
H  -1.38744166 -0.56100827 0.03621267
C  0.32894823 0.58092604 -0.00256890
H  -0.15747053 1.53436652 0.02078164
H  1.44511954 0.61458352 0.01940046
6
MD Step 22
C  -0.33909471 -0.58855642 -0.00705004
H  0.22454369 -1.49389602 0.03918735
H  -1.38730605 -0.56012839 0.03808542
C  0.32835550 0.58047543 -0.00293484
H  -0.15550723 1.53498430 0.02140375
H  1.44623835 0.61533338 0.02030360
6
MD Step 23
C  -0.33908854 -0.58840786 -0.00752621
H  0.22661550 -1.49228168 0.04109245
H  -1.38706012 -0.55904379 0.04019053
C  0.32791633 0.57993566 -0.00286628
H  -0.15366255 1.53589981 0.02154538
H  1.44723557 0.61638065 0.02100888
6
MD Step 24
C  -0.33932705 -0.58811507 -0.00801246
H  0.22840534 -1.49128112 0.04323030
H  -1.38712298 -0.55841088 0.04236577
C  0.32785541 0.57937217 -0.00278478
H  -0.15199951 1.53638793 0.02179672
H  1.44741348 0.61748471 0.02126745
6
MD Step 25
C  -0.33937758 -0.58770225 -0.00849646
H  0.22952225 -1.49081997 0.04577374
H  -1.38735264 -0.55789942 0.04472550
C  0.32765198 0.57881427 -0.00268242
H  -0.15036244 1.53626735 0.02165704
H  1.44791550 0.61836141 0.02105153
6
MD Step 26
C  -0.33944974 -0.58735752 -0.00899310
H  0.23064453 -1.49012997 0.04828160
H  -1.38765382 -0.55759279 0.04727424
C  0.32746902 0.57824208 -0.00268651
H  -0.14869493 1.53650359 0.02218593
H  1.44846679 0.61983900 0.02143279
6
MD Step 27
C  -0.33947231 -0.58688277 -0.00972735
H  0.23125988 -1.48965774 0.05086949
H  -1.38803201 -0.55705729 0.04983725
C  0.32728117 0.57761538 -0.00237860
H  -0.14732016 1.53636474 0.02219516
H  1.44936218 0.62078075 0.02135303
6
MD Step 28
C  -0.33933075 -0.58659261 -0.01033710
H  0.23156275 -1.48936086 0.05292173
H  -1.38872922 -0.55680128 0.05234956
C  0.32697356 0.57724226 -0.00220083
H  -0.14564440 1.53635356 0.02249264
H  1.45005956 0.62122768 0.02163842
6
MD Step 29
C  -0.33909197 -0.58659354 -0.01059307
H  0.23211206 -1.48914892 0.05480956
H  -1.38981113 -0.55659902 0.05453838
C  0.32656812 0.57714387 -0.00227992
H  -0.14386676 1.53617444 0.02195099
H  1.45080036 0.62217603 0.02209603
6
MD Step 30
C  -0.33878903 -0.58631574 -0.01102700
H  0.23264053 -1.48895539 0.05684107
H  -1.39105487 -0.55651382 0.05672340
C  0.32611604 0.57681533 -0.00223215
H  -0.14203590 1.53545056 0.02188886
H  1.45146196 0.62322588 0.02254312
6
MD Step 31
C  -0.33868910 -0.58657792 -0.01145839
H  0.23288631 -1.48864085 0.05842548
H  -1.39227036 -0.55550953 0.05856648
C  0.32586064 0.57691024 -0.00200573
H  -0.14016939 1.53552623 0.02134145
H  1.45241774 0.62382443 0.02210546
6
MD Step 32
C  -0.33868830 -0.58692768 -0.01161665
H  0.23315334 -1.48815065 0.05966981
H  -1.39324018 -0.55470542 0.06027457
C  0.32567062 0.57708665 -0.00203554
H  -0.13835286 1.53566222 0.02055411
H  1.45355879 0.62445994 0.02218146
6
MD Step 33
C  -0.33874935 -0.58712453 -0.01183745
H  0.23355498 -1.48768243 0.06068958
H  -1.39393263 -0.55401229 0.06200416
C  0.32552183 0.57714252 -0.00201937
H  -0.13630533 1.53596680 0.02055386
H  1.45430243 0.62467391 0.02187063
6
MD Step 34
C  -0.33868285 -0.58736551 -0.01210553
H  0.23324531 -1.48710703 0.06219836
H  -1.39501664 -0.55300703 0.06356361
C  0.32526094 0.57726766 -0.00194728
H  -0.13402762 1.53573941 0.02004988
H  1.45573485 0.62470102 0.02164192
6
MD Step 35
C  -0.33849910 -0.58739191 -0.01241353
H  0.23328318 -1.48661365 0.06371234
H  -1.39559834 -0.55197461 0.06524145
C  0.32472741 0.57717147 -0.00185870
H  -0.13134339 1.53558998 0.01997886
H  1.45776244 0.62478544 0.02113570
6
MD Step 36
C  -0.33820132 -0.58724830 -0.01270361
H  0.23341434 -1.48643930 0.06537505
H  -1.39637534 -0.55120097 0.06717057
C  0.32419595 0.57699091 -0.00179339
H  -0.12965913 1.53488994 0.01967601
H  1.45950847 0.62497771 0.02052512
6
MD Step 37
C  -0.33816075 -0.58754617 -0.01317190
H  0.23294196 -1.48583270 0.06722404
H  -1.39729919 -0.55074748 0.06821755
C  0.32396776 0.57728975 -0.00141050
H  -0.12775561 1.53390629 0.01890720
H  1.46123692 0.62488967 0.01941557
6
MD Step 38
C  -0.33781362 -0.58744799 -0.01341058
H  0.23250838 -1.48603553 0.06832724
H  -1.39798625 -0.54976656 0.06924670
C  0.32338702 0.57719213 -0.00112242
H  -0.12593087 1.53321862 0.01765034
H  1.46331654 0.62479253 0.01795139
6
MD Step 39
C  -0.33762797 -0.58775173 -0.01364747
H  0.23220777 -1.48594183 0.06928888
H  -1.39850846 -0.54839091 0.07011886
C  0.32290659 0.57736169 -0.00085253
H  -0.12430019 1.53323648 0.01669071
H  1.46602121 0.62490424 0.01668395
6
MD Step 40
C  -0.33774013 -0.58805547 -0.01381732
H  0.23161692 -1.48546079 0.06950467
H  -1.39940742 -0.54759183 0.07035010
C  0.32292328 0.57753851 -0.00063850
H  -0.12324354 1.53291220 0.01610185
H  1.46759208 0.62546082 0.01629939
6
MD Step 41
C  -0.33783309 -0.58860474 -0.01426233
H  0.23112535 -1.48576481 0.06990562
H  -1.40035066 -0.54714715 0.07095011
C  0.32283282 0.57808732 -0.00018147
H  -0.12183924 1.53262262 0.01551943
H  1.46980824 0.62561522 0.01573767
6
MD Step 42
C  -0.33796880 -0.58959019 -0.01448539
H  0.23008385 -1.48544886 0.07034236
H  -1.40111891 -0.54671939 0.07159455
C  0.32290375 0.57897495 0.00005268
H  -0.12090238 1.53267339 0.01492097
H  1.47145302 0.62598637 0.01512271
6
MD Step 43
C  -0.33793330 -0.59017466 -0.01447988
H  0.22954081 -1.48505022 0.07096378
H  -1.40143878 -0.54598486 0.07258738
C  0.32268726 0.57940260 -0.00002586
H  -0.11942598 1.53317660 0.01430347
H  1.47299623 0.62621863 0.01499611
6
MD Step 44
C  -0.33798369 -0.59083177 -0.01443932
H  0.22906795 -1.48455360 0.07050839
H  -1.40203390 -0.54524300 0.07263603
C  0.32262324 0.57988633 0.00007275
H  -0.11864907 1.53327137 0.01391168
H  1.47465057 0.62695136 0.01413628
6
MD Step 45
C  -0.33816242 -0.59152563 -0.01438722
H  0.22809734 -1.48438938 0.07042102
H  -1.40274871 -0.54478105 0.07246262
C  0.32281475 0.58042217 0.00011440
H  -0.11779400 1.53365601 0.01312831
H  1.47532863 0.62782353 0.01406342
6
MD Step 46
C  -0.33863313 -0.59272147 -0.01432887
H  0.22810457 -1.48370807 0.06994238
H  -1.40324003 -0.54388901 0.07229854
C  0.32312407 0.58132720 0.00026830
H  -0.11678303 1.53429940 0.01205048
H  1.47672493 0.62907222 0.01325467
6
MD Step 47
C  -0.33911812 -0.59332120 -0.01440463
H  0.22803331 -1.48298047 0.06957823
H  -1.40398633 -0.54345678 0.07255448
C  0.32346004 0.58175087 0.00055209
H  -0.11550676 1.53428926 0.01078929
H  1.47804185 0.63002045 0.01214532
6
MD Step 48
C  -0.33942854 -0.59409259 -0.01450163
H  0.22810518 -1.48201412 0.06888720
H  -1.40445692 -0.54266022 0.07250906
C  0.32361031 0.58218956 0.00082412
H  -0.11435627 1.53508519 0.00998666
H  1.47919848 0.63142601 0.01159872
6
MD Step 49
C  -0.33991333 -0.59459375 -0.01436173
H  0.22842509 -1.48144907 0.06849655
H  -1.40443958 -0.54275389 0.07214608
C  0.32383618 0.58246586 0.00086290
H  -0.11322179 1.53523349 0.00908040
H  1.48081213 0.63348570 0.01112941
6
MD Step 50
C  -0.34043542 -0.59530851 -0.01416709
H  0.22931467 -1.48111865 0.06715333
H  -1.40407352 -0.54253132 0.07132051
C  0.32396407 0.58297801 0.00097391
H  -0.11178925 1.53596664 0.00817345
H  1.48282115 0.63461393 0.01056296
6
MD Step 51
C  -0.34061270 -0.59605140 -0.01392074
H  0.22907232 -1.48040150 0.06603549
H  -1.40366793 -0.54257052 0.07018538
C  0.32395769 0.58352633 0.00103917
H  -0.11127573 1.53649579 0.00739770
H  1.48433288 0.63572532 0.00987857
6
MD Step 52
C  -0.34064054 -0.59637229 -0.01371962
H  0.22908063 -1.47977295 0.06586756
H  -1.40345372 -0.54265276 0.06993126
C  0.32376327 0.58362278 0.00090308
H  -0.11054099 1.53722790 0.00714884
H  1.48602405 0.63712139 0.00977460
6
MD Step 53
C  -0.34080179 -0.59683027 -0.01361625
H  0.22908928 -1.47954138 0.06483515
H  -1.40326886 -0.54275081 0.06864410
C  0.32376999 0.58394972 0.00103205
H  -0.11028332 1.53755421 0.00670152
H  1.48741427 0.63822304 0.00977289
6
MD Step 54
C  -0.34109705 -0.59728264 -0.01356998
H  0.22915527 -1.47901440 0.06418394
H  -1.40279965 -0.54302043 0.06760317
C  0.32392490 0.58415601 0.00117526
H  -0.11032263 1.53855802 0.00630614
H  1.48859084 0.63989415 0.00960255
6
MD Step 55
C  -0.34158791 -0.59780619 -0.01334234
H  0.22960926 -1.47901310 0.06364757
H  -1.40162057 -0.54340614 0.06669819
C  0.32410588 0.58457179 0.00111702
H  -0.11017568 1.53904649 0.00606357
H  1.49050341 0.64107421 0.00926788
6
MD Step 56
C  -0.34214710 -0.59853201 -0.01330351
H  0.23006249 -1.47908545 0.06340468
H  -1.40073989 -0.54312129 0.06703837
C  0.32442991 0.58511400 0.00104856
H  -0.11003984 1.54004102 0.00605086
H  1.49183588 0.64205503 0.00953643
6
MD Step 57
C  -0.34249268 -0.59897920 -0.01322292
H  0.23020899 -1.47872856 0.06245863
H  -1.39974887 -0.54294476 0.06656787
C  0.32448353 0.58532179 0.00117868
H  -0.10944491 1.54113411 0.00538113
H  1.49358228 0.64328132 0.00911181
6
MD Step 58
C  -0.34295213 -0.59949151 -0.01329563
H  0.23053733 -1.47834760 0.06226170
H  -1.39851586 -0.54252037 0.06642877
C  0.32466603 0.58553820 0.00140613
H  -0.10902795 1.54234568 0.00430919
H  1.49490408 0.64479037 0.00867600
6
MD Step 59
C  -0.34348772 -0.60004116 -0.01324910
H  0.23063481 -1.47782347 0.06250114
H  -1.39697013 -0.54217621 0.06673701
C  0.32489849 0.58578636 0.00139910
H  -0.10834765 1.54359769 0.00369072
H  1.49619282 0.64626260 0.00827611
6
MD Step 60
C  -0.34422697 -0.60081085 -0.01348465
H  0.23129243 -1.47681095 0.06221519
H  -1.39544649 -0.54185481 0.06725566
C  0.32531247 0.58614577 0.00174247
H  -0.10806298 1.54509561 0.00258241
H  1.49760275 0.64831971 0.00786683
6
MD Step 61
C  -0.34437745 -0.60121708 -0.01376557
H  0.23163372 -1.47596740 0.06185302
H  -1.39391702 -0.54147665 0.06741678
C  0.32517922 0.58617079 0.00218449
H  -0.10801972 1.54674984 0.00156586
H  1.49906970 0.64998623 0.00716483
6
MD Step 62
C  -0.34483446 -0.60157037 -0.01359529
H  0.23187388 -1.47516757 0.06146380
H  -1.39289334 -0.54120736 0.06777137
C  0.32535655 0.58616640 0.00208502
H  -0.10750289 1.54825336 0.00070143
H  1.50062164 0.65167575 0.00722012
6
MD Step 63
C  -0.34543027 -0.60211166 -0.01365057
H  0.23227198 -1.47435682 0.06106256
H  -1.39141736 -0.54141053 0.06727205
C  0.32566376 0.58640837 0.00219876
H  -0.10742795 1.54976936 0.00080232
H  1.50211170 0.65311878 0.00732315
6
MD Step 64
C  -0.34569833 -0.60242940 -0.01348720
H  0.23259391 -1.47373011 0.06073476
H  -1.39036013 -0.54151409 0.06717709
C  0.32569043 0.58653502 0.00206868
H  -0.10731579 1.55060631 0.00054852
H  1.50349665 0.65403579 0.00760304
6
MD Step 65
C  -0.34629554 -0.60298411 -0.01347925
H  0.23309131 -1.47290695 0.06019287
H  -1.38935496 -0.54140094 0.06734791
C  0.32601154 0.58683581 0.00204518
H  -0.10726615 1.55163007 0.00041731
H  1.50523454 0.65510146 0.00829068
6
MD Step 66
C  -0.34672136 -0.60342729 -0.01331687
H  0.23369491 -1.47222554 0.05950867
H  -1.38849810 -0.54139701 0.06676353
C  0.32622949 0.58705238 0.00199193
H  -0.10757139 1.55237298 0.00034040
H  1.50655629 0.65637354 0.00833568
6
MD Step 67
C  -0.34703375 -0.60375250 -0.01326770
H  0.23367397 -1.47149257 0.05906157
H  -1.38793475 -0.54116847 0.06677839
C  0.32645183 0.58714331 0.00194298
H  -0.10795008 1.55314770 0.00055438
H  1.50746558 0.65742894 0.00855132
6
MD Step 68
C  -0.34736900 -0.60397583 -0.01299722
H  0.23375735 -1.47043091 0.05860522
H  -1.38662618 -0.54042801 0.06685462
C  0.32656793 0.58706083 0.00163884
H  -0.10798473 1.55390992 0.00084478
H  1.50871972 0.65850870 0.00904214
6
MD Step 69
C  -0.34727944 -0.60437032 -0.01266944
H  0.23371121 -1.46903118 0.05795068
H  -1.38584993 -0.54010258 0.06699151
C  0.32627623 0.58723829 0.00131284
H  -0.10757948 1.55438687 0.00090446
H  1.50999299 0.65889266 0.00947888
6
MD Step 70
C  -0.34758827 -0.60483622 -0.01273403
H  0.23371033 -1.46752902 0.05769640
H  -1.38536150 -0.53956289 0.06747034
C  0.32644414 0.58746077 0.00139938
H  -0.10803376 1.55479548 0.00052140
H  1.51163895 0.65934282 0.00937585
6
MD Step 71
C  -0.34760230 -0.60515389 -0.01299955
H  0.23357057 -1.46631707 0.05804711
H  -1.38545756 -0.53926004 0.06809314
C  0.32644055 0.58749422 0.00155147
H  -0.10897444 1.55535059 0.00031480
H  1.51302550 0.66065969 0.00996060
6
MD Step 72
C  -0.34801294 -0.60577749 -0.01287060
H  0.23370294 -1.46563422 0.05768938
H  -1.38598189 -0.53879425 0.06857039
C  0.32683098 0.58790971 0.00139411
H  -0.10955587 1.55604381 -0.00016554
H  1.51423975 0.66129769 0.01065995
6
MD Step 73
C  -0.34839708 -0.60627549 -0.01280002
H  0.23391279 -1.46430340 0.05649049
H  -1.38556437 -0.53902694 0.06857951
C  0.32708156 0.58822236 0.00142526
H  -0.10997088 1.55625383 -0.00091819
H  1.51561884 0.66219814 0.01139019
6
MD Step 74
C  -0.34872869 -0.60659414 -0.01278538
H  0.23466486 -1.46370990 0.05575261
H  -1.38567167 -0.53863006 0.06795798
C  0.32728992 0.58841985 0.00152169
H  -0.11009533 1.55656815 -0.00132977
H  1.51656713 0.66233727 0.01183760
6
MD Step 75
C  -0.34911616 -0.60683238 -0.01266028
H  0.23565900 -1.46296332 0.05470618
H  -1.38544296 -0.53850850 0.06770745
C  0.32753494 0.58852374 0.00151640
H  -0.11057589 1.55692331 -0.00172779
H  1.51752224 0.66271484 0.01210492
6
MD Step 76
C  -0.34939814 -0.60719729 -0.01217733
H  0.23594441 -1.46211271 0.05351317
H  -1.38575066 -0.53868785 0.06719259
C  0.32783645 0.58885299 0.00115352
H  -0.11139213 1.55638042 -0.00188676
H  1.51812813 0.66301137 0.01254098
6
MD Step 77
C  -0.34976033 -0.60742061 -0.01195469
H  0.23649846 -1.46154821 0.05212184
H  -1.38574702 -0.53867185 0.06649818
C  0.32810585 0.58904023 0.00102298
H  -0.11176553 1.55549858 -0.00168763
H  1.51904953 0.66374265 0.01333022
6
MD Step 78
C  -0.35024772 -0.60758698 -0.01167408
H  0.23746100 -1.46115178 0.05109413
H  -1.38519694 -0.53845841 0.06647453
C  0.32832695 0.58916531 0.00080473
H  -0.11137252 1.55481445 -0.00195594
H  1.52031692 0.66430886 0.01390685
6
MD Step 79
C  -0.35069256 -0.60815723 -0.01152052
H  0.23834757 -1.46093458 0.05033526
H  -1.38541135 -0.53803268 0.06637693
C  0.32865343 0.58967395 0.00069106
H  -0.11167499 1.55430346 -0.00216535
H  1.52135776 0.66491116 0.01449740
6
MD Step 80
C  -0.35108890 -0.60865914 -0.01158938
H  0.23917910 -1.46025038 0.04943014
H  -1.38510522 -0.53758928 0.06649127
C  0.32891840 0.59007298 0.00080822
H  -0.11238563 1.55356906 -0.00258848
H  1.52249606 0.66574379 0.01513579
6
MD Step 81
C  -0.35120791 -0.60902667 -0.01125720
H  0.23984154 -1.45941491 0.04829681
H  -1.38446064 -0.53739686 0.06647935
C  0.32878307 0.59040754 0.00060259
H  -0.11196105 1.55267165 -0.00341434
H  1.52379517 0.66600625 0.01559884
6
MD Step 82
C  -0.35128465 -0.60929356 -0.01124518
H  0.24020757 -1.45858039 0.04709034
H  -1.38393676 -0.53706916 0.06614179
C  0.32877081 0.59053640 0.00077852
H  -0.11233401 1.55236503 -0.00426625
H  1.52433882 0.66679545 0.01575522
6
MD Step 83
C  -0.35150763 -0.60968214 -0.01087023
H  0.23983710 -1.45783009 0.04550091
H  -1.38357009 -0.53618337 0.06603550
C  0.32893259 0.59080280 0.00052973
H  -0.11244440 1.55151449 -0.00513813
H  1.52518232 0.66746572 0.01681939
6
MD Step 84
C  -0.35146874 -0.60966771 -0.01083515
H  0.23974068 -1.45678299 0.04396197
H  -1.38387675 -0.53504008 0.06610620
C  0.32886801 0.59061292 0.00060361
H  -0.11234407 1.55118675 -0.00562586
H  1.52579117 0.66769372 0.01747703
6
MD Step 85
C  -0.35160098 -0.61008542 -0.01056253
H  0.24002509 -1.45588849 0.04250434
H  -1.38355469 -0.53345206 0.06636772
C  0.32889849 0.59079408 0.00045183
H  -0.11229694 1.55119605 -0.00654199
H  1.52635005 0.66802073 0.01814932
6
MD Step 86
C  -0.35186678 -0.61073828 -0.01043034
H  0.23982161 -1.45506840 0.04120750
H  -1.38341767 -0.53196504 0.06675961
C  0.32905069 0.59127177 0.00040197
H  -0.11163966 1.55090279 -0.00762344
H  1.52711299 0.66809412 0.01915467
6
MD Step 87
C  -0.35207320 -0.61134521 -0.01019554
H  0.23960280 -1.45435799 0.03968536
H  -1.38359407 -0.53013176 0.06674013
C  0.32918813 0.59168427 0.00026757
H  -0.11120146 1.55074255 -0.00802632
H  1.52789194 0.66802760 0.01990276
6
MD Step 88
C  -0.35219023 -0.61191059 -0.01014781
H  0.23906556 -1.45360250 0.03831496
H  -1.38414331 -0.52893796 0.06711381
C  0.32936976 0.59209300 0.00025729
H  -0.11129770 1.55090651 -0.00860168
H  1.52830489 0.66778095 0.02102857
6
MD Step 89
C  -0.35210046 -0.61252608 -0.00992573
H  0.23805206 -1.45304063 0.03681368
H  -1.38482175 -0.52850610 0.06717760
C  0.32935557 0.59264820 0.00007832
H  -0.11119314 1.55105025 -0.00876742
H  1.52899161 0.66736187 0.02211812
6
MD Step 90
C  -0.35208778 -0.61284888 -0.00980269
H  0.23659902 -1.45223933 0.03546385
H  -1.38589705 -0.52760041 0.06756841
C  0.32951606 0.59293784 -0.00000065
H  -0.11126970 1.55057092 -0.00916722
H  1.52953304 0.66652941 0.02295182
6
MD Step 91
C  -0.35202254 -0.61350427 -0.00967659
H  0.23632057 -1.45203112 0.03386444
H  -1.38590705 -0.52692892 0.06742171
C  0.32931590 0.59368871 -0.00007398
H  -0.11053933 1.54978452 -0.00910610
H  1.53069886 0.66529831 0.02400809
6
MD Step 92
C  -0.35192587 -0.61376299 -0.00929285
H  0.23603447 -1.45077738 0.03272178
H  -1.38593425 -0.52613012 0.06733858
C  0.32907138 0.59390249 -0.00051641
H  -0.11001239 1.54886201 -0.00841860
H  1.53224694 0.66470377 0.02524574
6
MD Step 93
C  -0.35156748 -0.61408358 -0.00875261
H  0.23497995 -1.45006590 0.03105812
H  -1.38662350 -0.52493734 0.06708260
C  0.32873336 0.59423016 -0.00100682
H  -0.10948061 1.54780174 -0.00793986
H  1.53321628 0.66377542 0.02609271
6
MD Step 94
C  -0.35163130 -0.61441939 -0.00858884
H  0.23416762 -1.44956574 0.02934751
H  -1.38656655 -0.52396091 0.06686331
C  0.32869708 0.59458293 -0.00116799
H  -0.10899558 1.54706124 -0.00747515
H  1.53467932 0.66283735 0.02752704
6
MD Step 95
C  -0.35154645 -0.61479166 -0.00840144
H  0.23313639 -1.44840281 0.02804539
H  -1.38694715 -0.52310695 0.06641576
C  0.32862088 0.59492660 -0.00139407
H  -0.10869975 1.54642541 -0.00690748
H  1.53569228 0.66179693 0.02916992
6
MD Step 96
C  -0.35167351 -0.61535686 -0.00837665
H  0.23266909 -1.44780264 0.02671796
H  -1.38722066 -0.52173815 0.06595805
C  0.32870517 0.59549944 -0.00144134
H  -0.10847463 1.54521225 -0.00626055
H  1.53671764 0.66095017 0.03057600
6
MD Step 97
C  -0.35158994 -0.61582599 -0.00803271
H  0.23205762 -1.44724983 0.02517605
H  -1.38741949 -0.52039669 0.06530629
C  0.32856878 0.59598830 -0.00171154
H  -0.10804069 1.54394935 -0.00599671
H  1.53772339 0.66008375 0.03162711
6
MD Step 98
C  -0.35183584 -0.61643745 -0.00763990
H  0.23114504 -1.44649216 0.02362063
H  -1.38795372 -0.51936884 0.06428569
C  0.32889891 0.59654076 -0.00198721
H  -0.10779392 1.54298113 -0.00560895
H  1.53791973 0.65996948 0.03241945
6
MD Step 99
C  -0.35200087 -0.61677294 -0.00731843
H  0.23017549 -1.44578518 0.02237077
H  -1.38861757 -0.51875957 0.06297409
C  0.32914281 0.59679165 -0.00212012
H  -0.10738655 1.54249782 -0.00554610
H  1.53820592 0.66014455 0.03267128
6
MD Step 100
C  -0.35204369 -0.61733464 -0.00701920
H  0.22925349 -1.44428974 0.02146031
H  -1.38886302 -0.51791143 0.06178499
C  0.32921822 0.59717511 -0.00222428
H  -0.10715243 1.54211809 -0.00565995
H  1.53875088 0.66030459 0.03256014
6
MD Step 101
C  -0.35204719 -0.61768540 -0.00675253
H  0.22854403 -1.44322039 0.02063722
H  -1.38964188 -0.51703496 0.06050749
C  0.32928642 0.59736022 -0.00235168
H  -0.10677907 1.54211117 -0.00542647
H  1.53909487 0.66033966 0.03276772
6
MD Step 102
C  -0.35174704 -0.61829352 -0.00638329
H  0.22760153 -1.44192753 0.01977688
H  -1.38986667 -0.51571334 0.05948289
C  0.32902350 0.59772105 -0.00255748
H  -0.10637980 1.54237310 -0.00544091
H  1.53941920 0.66040994 0.03271966
6
MD Step 103
C  -0.35178120 -0.61901831 -0.00618679
H  0.22640415 -1.44116589 0.01930711
H  -1.39056249 -0.51462036 0.05850763
C  0.32906361 0.59833388 -0.00259960
H  -0.10548070 1.54189698 -0.00553025
H  1.54034247 0.66036550 0.03241429
6
MD Step 104
C  -0.35178525 -0.61982812 -0.00589576
H  0.22522888 -1.44010071 0.01836982
H  -1.39147917 -0.51310867 0.05758401
C  0.32915688 0.59895972 -0.00278731
H  -0.10483347 1.54144983 -0.00505846
H  1.54072401 0.66042810 0.03257242
6
MD Step 105
C  -0.35181909 -0.62077711 -0.00565490
H  0.22419851 -1.43895611 0.01736045
H  -1.39178099 -0.51188393 0.05664302
C  0.32918483 0.59968998 -0.00287811
H  -0.10384067 1.54151243 -0.00459270
H  1.54113368 0.66060241 0.03226879
6
MD Step 106
C  -0.35158367 -0.62140198 -0.00545513
H  0.22337711 -1.43774276 0.01678593
H  -1.39247978 -0.51089076 0.05581188
C  0.32897977 0.60006947 -0.00299746
H  -0.10330913 1.54146662 -0.00429108
H  1.54176051 0.66136572 0.03241461
6
MD Step 107
C  -0.35161929 -0.62199422 -0.00527892
H  0.22307520 -1.43665625 0.01620936
H  -1.39250432 -0.50910935 0.05477472
C  0.32892098 0.60040077 -0.00314248
H  -0.10233438 1.54156718 -0.00338188
H  1.54223722 0.66150660 0.03274744
6
MD Step 108
C  -0.35155506 -0.62250235 -0.00487446
H  0.22256581 -1.43558152 0.01519978
H  -1.39325868 -0.50834888 0.05330585
C  0.32889957 0.60069248 -0.00332963
H  -0.10212435 1.54174688 -0.00324478
H  1.54278070 0.66207052 0.03249933
6
MD Step 109
C  -0.35167249 -0.62282666 -0.00455604
H  0.22265315 -1.43400332 0.01463181
H  -1.39403963 -0.50738428 0.05184180
C  0.32903391 0.60076980 -0.00355642
H  -0.10188609 1.54173033 -0.00244711
H  1.54303453 0.66248743 0.03264177
6
MD Step 110
C  -0.35179597 -0.62324310 -0.00435983
H  0.22246534 -1.43203038 0.01444934
H  -1.39483016 -0.50658862 0.05118772
C  0.32924364 0.60081793 -0.00380412
H  -0.10204941 1.54248691 -0.00119464
H  1.54314842 0.66335104 0.03283941
6
MD Step 111
C  -0.35200929 -0.62378578 -0.00411065
H  0.22278897 -1.43061644 0.01402601
H  -1.39545769 -0.50532703 0.05042483
C  0.32940703 0.60097393 -0.00413623
H  -0.10179363 1.54346896 0.00021969
H  1.54379153 0.66430125 0.03359956
6
MD Step 112
C  -0.35210152 -0.62394133 -0.00381388
H  0.22304685 -1.42924856 0.01335213
H  -1.39539697 -0.50472413 0.04940304
C  0.32938104 0.60087924 -0.00449820
H  -0.10116868 1.54393147 0.00174658
H  1.54425672 0.66484982 0.03454528
6
MD Step 113
C  -0.35218844 -0.62435807 -0.00361452
H  0.22345032 -1.42777399 0.01330730
H  -1.39558277 -0.50389738 0.04904549
C  0.32932942 0.60100089 -0.00487914
H  -0.10047949 1.54456544 0.00321953
H  1.54500074 0.66543078 0.03563836
6
MD Step 114
C  -0.35238055 -0.62505012 -0.00336963
H  0.22403697 -1.42590341 0.01249158
H  -1.39576213 -0.50293479 0.04811744
C  0.32939580 0.60127815 -0.00520546
H  -0.10010696 1.54548884 0.00480876
H  1.54571906 0.66661685 0.03676328
6
MD Step 115
C  -0.35252172 -0.62548816 -0.00279376
H  0.22392353 -1.42438775 0.01196969
H  -1.39625958 -0.50170130 0.04783122
C  0.32952823 0.60133720 -0.00588144
H  -0.09985053 1.54630695 0.00598162
H  1.54617767 0.66756559 0.03759135
6
MD Step 116
C  -0.35250367 -0.62581718 -0.00261034
H  0.22373233 -1.42343317 0.01145602
H  -1.39644879 -0.50010496 0.04737293
C  0.32945421 0.60136000 -0.00615957
H  -0.09921202 1.54698166 0.00732282
H  1.54658643 0.66798888 0.03835072
6
MD Step 117
C  -0.35263732 -0.62617333 -0.00221558
H  0.22430456 -1.42270836 0.01095359
H  -1.39630464 -0.49886881 0.04617307
C  0.32942859 0.60149041 -0.00660322
H  -0.09841626 1.54741740 0.00863250
H  1.54697222 0.66828218 0.03932601
6
MD Step 118
C  -0.35291734 -0.62660572 -0.00191267
H  0.22495361 -1.42199630 0.01002467
H  -1.39620183 -0.49793230 0.04528585
C  0.32953535 0.60172083 -0.00699017
H  -0.09804046 1.54794899 0.01025206
H  1.54790917 0.66850861 0.04052382
6
MD Step 119
C  -0.35304472 -0.62753274 -0.00131249
H  0.22455207 -1.42141814 0.00877810
H  -1.39614117 -0.49637865 0.04471816
C  0.32966462 0.60240291 -0.00769877
H  -0.09756423 1.54854723 0.01205488
H  1.54775138 0.66869737 0.04182739
6
MD Step 120
C  -0.35311012 -0.62786771 -0.00111546
H  0.22434172 -1.42023375 0.00857717
H  -1.39559550 -0.49490465 0.04494214
C  0.32957783 0.60248578 -0.00812281
H  -0.09711129 1.54915240 0.01344550
H  1.54877656 0.66843787 0.04311866
6
MD Step 121
C  -0.35304109 -0.62826190 -0.00103985
H  0.22439828 -1.41979145 0.00782716
H  -1.39485054 -0.49369754 0.04449267
C  0.32926443 0.60278448 -0.00835106
H  -0.09617676 1.54934130 0.01476186
H  1.54995232 0.66773740 0.04482074
6
MD Step 122
C  -0.35259569 -0.62876097 -0.00076937
H  0.22433464 -1.41894672 0.00725787
H  -1.39396237 -0.49206242 0.04406132
C  0.32866067 0.60306892 -0.00869063
H  -0.09552299 1.54952630 0.01540101
H  1.55036112 0.66763003 0.04600551
6
MD Step 123
C  -0.35264532 -0.62934982 -0.00057985
H  0.22424080 -1.41823229 0.00600316
H  -1.39379539 -0.49086440 0.04326961
C  0.32866681 0.60350369 -0.00894807
H  -0.09512662 1.54965317 0.01658993
H  1.55040979 0.66742675 0.04767225
6
MD Step 124
C  -0.35271474 -0.62949358 -0.00037211
H  0.22412395 -1.41785544 0.00452122
H  -1.39336333 -0.48925802 0.04248006
C  0.32862501 0.60349492 -0.00917323
H  -0.09462797 1.55014004 0.01773121
H  1.55092130 0.66677416 0.04901009
6
MD Step 125
C  -0.35291577 -0.62973661 -0.00014558
H  0.22437701 -1.41698749 0.00350911
H  -1.39267120 -0.48753017 0.04215584
C  0.32862012 0.60351685 -0.00953215
H  -0.09387768 1.55037330 0.01929842
H  1.55167945 0.66657985 0.05035671
6
MD Step 126
C  -0.35281552 -0.63003587 0.00004710
H  0.22462313 -1.41616604 0.00234605
H  -1.39212921 -0.48633715 0.04190400