 Entering Gaussian System, Link 0=g16
 Initial command:
 /software/gaussian/g16-c01/avx2/g16/l1.exe "/gpfs/fs2/scratch/bweight/software/many_molecule_many_mode_NAMD/src/NAMD/TESTING/G16/TD_NEW_S1/Gau-14600.inp" -scrdir="/gpfs/fs2/scratch/bweight/software/many_molecule_many_mode_NAMD/src/NAMD/TESTING/G16/TD_NEW_S1/"
 Entering Link 1 = /software/gaussian/g16-c01/avx2/g16/l1.exe PID=     14601.
  
 Copyright (c) 1988-2019, Gaussian, Inc.  All Rights Reserved.
  
 This is part of the Gaussian(R) 16 program.  It is based on
 the Gaussian(R) 09 system (copyright 2009, Gaussian, Inc.),
 the Gaussian(R) 03 system (copyright 2003, Gaussian, Inc.),
 the Gaussian(R) 98 system (copyright 1998, Gaussian, Inc.),
 the Gaussian(R) 94 system (copyright 1995, Gaussian, Inc.),
 the Gaussian 92(TM) system (copyright 1992, Gaussian, Inc.),
 the Gaussian 90(TM) system (copyright 1990, Gaussian, Inc.),
 the Gaussian 88(TM) system (copyright 1988, Gaussian, Inc.),
 the Gaussian 86(TM) system (copyright 1986, Carnegie Mellon
 University), and the Gaussian 82(TM) system (copyright 1983,
 Carnegie Mellon University). Gaussian is a federally registered
 trademark of Gaussian, Inc.
  
 This software contains proprietary and confidential information,
 including trade secrets, belonging to Gaussian, Inc.
  
 This software is provided under written license and may be
 used, copied, transmitted, or stored only in accord with that
 written license.
  
 The following legend is applicable only to US Government
 contracts under FAR:
  
                    RESTRICTED RIGHTS LEGEND
  
 Use, reproduction and disclosure by the US Government is
 subject to restrictions as set forth in subparagraphs (a)
 and (c) of the Commercial Computer Software - Restricted
 Rights clause in FAR 52.227-19.
  
 Gaussian, Inc.
 340 Quinnipiac St., Bldg. 40, Wallingford CT 06492
  
  
 ---------------------------------------------------------------
 Warning -- This program may not be used in any manner that
 competes with the business of Gaussian, Inc. or will provide
 assistance to any competitor of Gaussian, Inc.  The licensee
 of this program is prohibited from giving any competitor of
 Gaussian, Inc. access to this program.  By using this program,
 the user acknowledges that Gaussian, Inc. is engaged in the
 business of creating and licensing software in the field of
 computational chemistry and represents and warrants to the
 licensee that it is not a competitor of Gaussian, Inc. and that
 it will not use this program in any manner prohibited above.
 ---------------------------------------------------------------
  

 Cite this work as:
 Gaussian 16, Revision C.01,
 M. J. Frisch, G. W. Trucks, H. B. Schlegel, G. E. Scuseria, 
 M. A. Robb, J. R. Cheeseman, G. Scalmani, V. Barone, 
 G. A. Petersson, H. Nakatsuji, X. Li, M. Caricato, A. V. Marenich, 
 J. Bloino, B. G. Janesko, R. Gomperts, B. Mennucci, H. P. Hratchian, 
 J. V. Ortiz, A. F. Izmaylov, J. L. Sonnenberg, D. Williams-Young, 
 F. Ding, F. Lipparini, F. Egidi, J. Goings, B. Peng, A. Petrone, 
 T. Henderson, D. Ranasinghe, V. G. Zakrzewski, J. Gao, N. Rega, 
 G. Zheng, W. Liang, M. Hada, M. Ehara, K. Toyota, R. Fukuda, 
 J. Hasegawa, M. Ishida, T. Nakajima, Y. Honda, O. Kitao, H. Nakai, 
 T. Vreven, K. Throssell, J. A. Montgomery, Jr., J. E. Peralta, 
 F. Ogliaro, M. J. Bearpark, J. J. Heyd, E. N. Brothers, K. N. Kudin, 
 V. N. Staroverov, T. A. Keith, R. Kobayashi, J. Normand, 
 K. Raghavachari, A. P. Rendell, J. C. Burant, S. S. Iyengar, 
 J. Tomasi, M. Cossi, J. M. Millam, M. Klene, C. Adamo, R. Cammi, 
 J. W. Ochterski, R. L. Martin, K. Morokuma, O. Farkas, 
 J. B. Foresman, and D. J. Fox, Gaussian, Inc., Wallingford CT, 2019.
 
 ******************************************
 Gaussian 16:  ES64L-G16RevC.01  3-Jul-2019
                29-Dec-2022 
 ******************************************
 %oldchk=../GS_NEW/geometry.chk
 %chk=geometry.chk
 %nprocshared=1
 Will use up to    1 processors via shared memory.
 %mem=5GB
 Copying data from "../GS_NEW/geometry.chk" to current chk file "geometry.chk"
 IOpt=  2 FromEx=T IUOpen= 4 IOptOp= 5 NList=   0 IFRang= 0 IUIn= 4 IUOut= 2.
 ----------------------------------------------------------------------
 # BLYP/STO-3G SCF=XQC TD=(singlets,nstates=2,root=1) FORCE nosym pop=f
 ull guess=read
 ----------------------------------------------------------------------
 1/10=7,30=1,38=1/1,3;
 2/12=2,15=1,17=6,18=5,40=1/2;
 3/6=3,11=9,25=1,30=1,71=1,74=402,116=-2/1,2,3,8;
 4/5=1/1;
 5/5=2,8=3,13=1,38=6/2,8;
 8/6=1,10=1,107=1,108=2/1;
 9/8=1,15=2,41=2,42=1,48=1,70=2/14;
 10/5=4,28=1,31=1/2;
 6/7=3,18=1/1;
 7/12=6,13=5,14=1,29=1,30=1/1,2,3,16;
 1/10=7,30=1/3;
 99//99;
 ---------
 MD Step 0
 ---------
 Symbolic Z-matrix:
 Charge =  0 Multiplicity = 1
 C                    -0.93249   0.12586   0. 
 C                     0.46267   0.12586   0. 
 C                     1.1602    1.33361   0. 
 C                     0.46255   2.54212  -0.0012 
 C                    -0.93228   2.54204  -0.00168 
 C                    -1.62988   1.33383  -0.00068 
 H                    -1.48225  -0.82646   0.00045 
 H                     1.01217  -0.82665   0.00132 
 H                     1.01275   3.49426  -0.00126 
 H                    -1.4824    3.49432  -0.00263 
 N                     2.6302    1.33372   0.00085 
 H                     2.9631    0.86269   0.81774 
 H                     2.96404   0.86199  -0.81525 
 N                    -3.09988   1.33408  -0.00092 
 H                    -3.43326   1.80405   0.81638 
 H                    -3.433     1.80703  -0.81661 
 

 GradGradGradGradGradGradGradGradGradGradGradGradGradGradGradGradGradGrad
 Berny optimization.
 Initialization pass.
 Trust Radius=3.00D-01 FncErr=1.00D-07 GrdErr=1.00D-07 EigMax=2.50D+02 EigMin=1.00D-04
 Number of steps in this run=      2 maximum allowed number of steps=      2.
 GradGradGradGradGradGradGradGradGradGradGradGradGradGradGradGradGradGrad

                          Input orientation:                          
 ---------------------------------------------------------------------
 Center     Atomic      Atomic             Coordinates (Angstroms)
 Number     Number       Type             X           Y           Z
 ---------------------------------------------------------------------
      1          6           0       -0.932494    0.125858    0.000000
      2          6           0        0.462666    0.125858    0.000000
      3          6           0        1.160204    1.333609    0.000000
      4          6           0        0.462550    2.542118   -0.001199
      5          6           0       -0.932275    2.542040   -0.001678
      6          6           0       -1.629876    1.333834   -0.000682
      7          1           0       -1.482253   -0.826459    0.000450
      8          1           0        1.012174   -0.826655    0.001315
      9          1           0        1.012750    3.494261   -0.001258
     10          1           0       -1.482397    3.494321   -0.002631
     11          7           0        2.630203    1.333716    0.000848
     12          1           0        2.963100    0.862686    0.817739
     13          1           0        2.964041    0.861986   -0.815255
     14          7           0       -3.099876    1.334079   -0.000923
     15          1           0       -3.433265    1.804049    0.816378
     16          1           0       -3.432997    1.807027   -0.816613
 ---------------------------------------------------------------------
                    Distance matrix (angstroms):
                    1          2          3          4          5
     1  C    0.000000
     2  C    1.395160   0.000000
     3  C    2.416205   1.394712   0.000000
     4  C    2.790065   2.416260   1.395427   0.000000
     5  C    2.416183   2.789946   2.416356   1.394825   0.000000
     6  C    1.394829   2.416183   2.790080   2.416236   1.395138
     7  H    1.099610   2.165553   3.412986   3.889675   3.413102
     8  H    2.165414   1.099655   2.165330   3.413316   3.889601
     9  H    3.889745   3.413024   2.165678   1.099680   2.165606
    10  H    3.413055   3.889707   3.413506   2.165528   1.099761
    11  N    3.761879   2.481359   1.470000   2.481726   3.761822
    12  H    4.048119   2.731992   2.034920   3.121522   4.320373
    13  H    4.048396   2.731923   2.034920   3.121377   4.320390
    14  N    2.481399   3.761848   4.260080   3.761680   2.481464
    15  H    3.120361   4.319846   4.689109   4.048524   2.732910
    16  H    3.121810   4.320807   4.689187   4.047288   2.730929
                    6          7          8          9         10
     6  C    0.000000
     7  H    2.165331   0.000000
     8  H    3.412938   2.494427   0.000000
     9  H    3.413344   4.989355   4.320917   0.000000
    10  H    2.165516   4.320781   4.989362   2.495147   0.000000
    11  N    4.260080   4.645283   2.699115   2.698910   4.645612
    12  H    4.689053   4.825177   2.706757   3.376360   5.230770
    13  H    4.689376   4.825532   2.707043   3.376241   5.230714
    14  N    1.470000   2.699005   4.645183   4.645436   2.698683
    15  H    2.034920   3.375168   5.229422   4.826219   2.708077
    16  H    2.034920   3.377609   5.231140   4.824544   2.704509
                   11         12         13         14         15
    11  N    0.000000
    12  H    1.000000   0.000000
    13  H    1.000000   1.632993   0.000000
    14  N    5.730080   6.136130   6.136539   0.000000
    15  H    6.136119   6.465265   6.668976   1.000000   0.000000
    16  H    6.136340   6.668803   6.466468   1.000000   1.632993
                   16
    16  H    0.000000
 Symmetry turned off by external request.
 Stoichiometry    C6H8N2
 Framework group  C1[X(C6H8N2)]
 Deg. of freedom    42
 Full point group                 C1      NOp   1
 Rotational constants (GHZ):           5.4746041           1.4427494           1.1558730
 Standard basis: STO-3G (5D, 7F)
    48 basis functions,   144 primitive gaussians,    48 cartesian basis functions
    29 alpha electrons       29 beta electrons
       nuclear repulsion energy       342.1284489380 Hartrees.
 NAtoms=   16 NActive=   16 NUniq=   16 SFac= 1.00D+00 NAtFMM=   60 NAOKFM=F Big=F
 Integral buffers will be    131072 words long.
 Regular integral format.
 Two-electron integral symmetry is turned off.
 One-electron integrals computed using PRISM.
 NBasis=    48 RedAO= T EigKep=  1.72D-01  NBF=    48
 NBsUse=    48 1.00D-06 EigRej= -1.00D+00 NBFU=    48
 Initial guess from the checkpoint file:  "geometry.chk"
 B after Tr=     0.000000    0.000000    0.000000
         Rot=    1.000000    0.000000    0.000000    0.000000 Ang=   0.00 deg.
 Keep J ints in memory in canonical form, NReq=1566317.
 Requested convergence on RMS density matrix=1.00D-08 within  32 cycles.
 Requested convergence on MAX density matrix=1.00D-06.
 Requested convergence on             energy=1.00D-06.
 No special actions if energy rises.
 SCF Done:  E(RB-LYP) =  -338.410940092     A.U. after    1 cycles
            NFock=  1  Conv=0.38D-08     -V/T= 2.0159
 QCSCF skips out because SCF is already converged.
 DoSCS=F DFT=T ScalE2(SS,OS)=  1.000000  1.000000
 ExpMin= 1.69D-01 ExpMax= 9.91D+01 ExpMxC= 9.91D+01 IAcc=3 IRadAn=         5 AccDes= 0.00D+00
 HarFok:  IExCor=  205 AccDes= 0.00D+00 IRadAn=         5 IDoV=-2 UseB2=F ITyADJ=14
 ICtDFT= 12500011 ScaDFX=  1.000000  1.000000  1.000000  1.000000
 Range of M.O.s used for correlation:     9    48
 NBasis=    48 NAE=    29 NBE=    29 NFC=     8 NFV=     0
 NROrb=     40 NOA=    21 NOB=    21 NVA=    19 NVB=    19
 Keep J ints in memory in canonical form, NReq=1718736.
     8 initial guesses have been made.
 Convergence on wavefunction:    0.000001000000000
 Iteration     1 Dimension     8 NMult     0 NNew      8
 CISAX will form     8 AO SS matrices at one time.
 Iteration     2 Dimension    16 NMult     8 NNew      8
 Iteration     3 Dimension    18 NMult    16 NNew      2
 Iteration     4 Dimension    20 NMult    18 NNew      2
 Iteration     5 Dimension    22 NMult    20 NNew      2
 Iteration     6 Dimension    24 NMult    22 NNew      2
 Iteration     7 Dimension    26 NMult    24 NNew      2
