 Entering Gaussian System, Link 0=g16
 Initial command:
 /software/gaussian/g16-c01/avx2/g16/l1.exe "/gpfs/fs2/scratch/bweight/software/many_molecule_many_mode_NAMD/src/NAMD/TESTING/G16/TD_NEW_S1/Gau-21417.inp" -scrdir="/gpfs/fs2/scratch/bweight/software/many_molecule_many_mode_NAMD/src/NAMD/TESTING/G16/TD_NEW_S1/"
 Entering Link 1 = /software/gaussian/g16-c01/avx2/g16/l1.exe PID=     21418.
  
 Copyright (c) 1988-2019, Gaussian, Inc.  All Rights Reserved.
  
 This is part of the Gaussian(R) 16 program.  It is based on
 the Gaussian(R) 09 system (copyright 2009, Gaussian, Inc.),
 the Gaussian(R) 03 system (copyright 2003, Gaussian, Inc.),
 the Gaussian(R) 98 system (copyright 1998, Gaussian, Inc.),
 the Gaussian(R) 94 system (copyright 1995, Gaussian, Inc.),
 the Gaussian 92(TM) system (copyright 1992, Gaussian, Inc.),
 the Gaussian 90(TM) system (copyright 1990, Gaussian, Inc.),
 the Gaussian 88(TM) system (copyright 1988, Gaussian, Inc.),
 the Gaussian 86(TM) system (copyright 1986, Carnegie Mellon
 University), and the Gaussian 82(TM) system (copyright 1983,
 Carnegie Mellon University). Gaussian is a federally registered
 trademark of Gaussian, Inc.
  
 This software contains proprietary and confidential information,
 including trade secrets, belonging to Gaussian, Inc.
  
 This software is provided under written license and may be
 used, copied, transmitted, or stored only in accord with that
 written license.
  
 The following legend is applicable only to US Government
 contracts under FAR:
  
                    RESTRICTED RIGHTS LEGEND
  
 Use, reproduction and disclosure by the US Government is
 subject to restrictions as set forth in subparagraphs (a)
 and (c) of the Commercial Computer Software - Restricted
 Rights clause in FAR 52.227-19.
  
 Gaussian, Inc.
 340 Quinnipiac St., Bldg. 40, Wallingford CT 06492
  
  
 ---------------------------------------------------------------
 Warning -- This program may not be used in any manner that
 competes with the business of Gaussian, Inc. or will provide
 assistance to any competitor of Gaussian, Inc.  The licensee
 of this program is prohibited from giving any competitor of
 Gaussian, Inc. access to this program.  By using this program,
 the user acknowledges that Gaussian, Inc. is engaged in the
 business of creating and licensing software in the field of
 computational chemistry and represents and warrants to the
 licensee that it is not a competitor of Gaussian, Inc. and that
 it will not use this program in any manner prohibited above.
 ---------------------------------------------------------------
  

 Cite this work as:
 Gaussian 16, Revision C.01,
 M. J. Frisch, G. W. Trucks, H. B. Schlegel, G. E. Scuseria, 
 M. A. Robb, J. R. Cheeseman, G. Scalmani, V. Barone, 
 G. A. Petersson, H. Nakatsuji, X. Li, M. Caricato, A. V. Marenich, 
 J. Bloino, B. G. Janesko, R. Gomperts, B. Mennucci, H. P. Hratchian, 
 J. V. Ortiz, A. F. Izmaylov, J. L. Sonnenberg, D. Williams-Young, 
 F. Ding, F. Lipparini, F. Egidi, J. Goings, B. Peng, A. Petrone, 
 T. Henderson, D. Ranasinghe, V. G. Zakrzewski, J. Gao, N. Rega, 
 G. Zheng, W. Liang, M. Hada, M. Ehara, K. Toyota, R. Fukuda, 
 J. Hasegawa, M. Ishida, T. Nakajima, Y. Honda, O. Kitao, H. Nakai, 
 T. Vreven, K. Throssell, J. A. Montgomery, Jr., J. E. Peralta, 
 F. Ogliaro, M. J. Bearpark, J. J. Heyd, E. N. Brothers, K. N. Kudin, 
 V. N. Staroverov, T. A. Keith, R. Kobayashi, J. Normand, 
 K. Raghavachari, A. P. Rendell, J. C. Burant, S. S. Iyengar, 
 J. Tomasi, M. Cossi, J. M. Millam, M. Klene, C. Adamo, R. Cammi, 
 J. W. Ochterski, R. L. Martin, K. Morokuma, O. Farkas, 
 J. B. Foresman, and D. J. Fox, Gaussian, Inc., Wallingford CT, 2019.
 
 ******************************************
 Gaussian 16:  ES64L-G16RevC.01  3-Jul-2019
                29-Dec-2022 
 ******************************************
 %oldchk=../GS_NEW/geometry.chk
 %chk=geometry.chk
 %nprocshared=1
 Will use up to    1 processors via shared memory.
 %mem=5GB
 Copying data from "../GS_NEW/geometry.chk" to current chk file "geometry.chk"
 IOpt=  2 FromEx=T IUOpen= 4 IOptOp= 5 NList=   0 IFRang= 0 IUIn= 4 IUOut= 2.
 ----------------------------------------------------------------------
 # BLYP/STO-3G SCF=XQC TD=(singlets,nstates=2,root=1) FORCE nosym pop=f
 ull guess=read
 ----------------------------------------------------------------------
 1/10=7,30=1,38=1/1,3;
 2/12=2,15=1,17=6,18=5,40=1/2;
 3/6=3,11=9,25=1,30=1,71=1,74=402,116=-2/1,2,3,8;
 4/5=1/1;
 5/5=2,8=3,13=1,38=6/2,8;
 8/6=1,10=1,107=1,108=2/1;
 9/8=1,15=2,41=2,42=1,48=1,70=2/14;
 10/5=4,28=1,31=1/2;
 6/7=3,18=1/1;
 7/12=6,13=5,14=1,29=1,30=1/1,2,3,16;
 1/10=7,30=1/3;
 99//99;
 ---------
 MD Step 3
 ---------
 Symbolic Z-matrix:
 Charge =  0 Multiplicity = 1
 H                     0.03508   0.8317   -0.78874 
 H                     0.03563   0.85952   0.8864 
 O                     0.00791  -0.03109   0.00622 
 

 GradGradGradGradGradGradGradGradGradGradGradGradGradGradGradGradGradGrad
 Berny optimization.
 Initialization pass.
 Trust Radius=3.00D-01 FncErr=1.00D-07 GrdErr=1.00D-07 EigMax=2.50D+02 EigMin=1.00D-04
 Number of steps in this run=      2 maximum allowed number of steps=      2.
 GradGradGradGradGradGradGradGradGradGradGradGradGradGradGradGradGradGrad

                          Input orientation:                          
 ---------------------------------------------------------------------
 Center     Atomic      Atomic             Coordinates (Angstroms)
 Number     Number       Type             X           Y           Z
 ---------------------------------------------------------------------
      1          1           0        0.035078    0.831705   -0.788740
      2          1           0        0.035633    0.859516    0.886397
      3          8           0        0.007914   -0.031086    0.006221
 ---------------------------------------------------------------------
                    Distance matrix (angstroms):
                    1          2          3
     1  H    0.000000
     2  H    1.675368   0.000000
     3  O    1.173502   1.252458   0.000000
 Symmetry turned off by external request.
 Stoichiometry    H2O
 Framework group  CS[SG(H2O)]
 Deg. of freedom     3
 Full point group                 CS      NOp   2
 Rotational constants (GHZ):         387.2955068         339.1904008         180.8251431
 Standard basis: STO-3G (5D, 7F)
     7 basis functions,    21 primitive gaussians,     7 cartesian basis functions
     5 alpha electrons        5 beta electrons
       nuclear repulsion energy         7.3034515130 Hartrees.
 NAtoms=    3 NActive=    3 NUniq=    3 SFac= 1.00D+00 NAtFMM=   60 NAOKFM=F Big=F
 Integral buffers will be    131072 words long.
 Regular integral format.
 Two-electron integral symmetry is turned off.
 One-electron integrals computed using PRISM.
 NBasis=     7 RedAO= T EigKep=  4.98D-01  NBF=     7
 NBsUse=     7 1.00D-06 EigRej= -1.00D+00 NBFU=     7
 Initial guess from the checkpoint file:  "geometry.chk"
 B after Tr=     0.000000    0.000000    0.000000
         Rot=    1.000000    0.000000    0.000000    0.000000 Ang=   0.00 deg.
 Keep J ints in memory in canonical form, NReq=851188.
 Requested convergence on RMS density matrix=1.00D-08 within  32 cycles.
 Requested convergence on MAX density matrix=1.00D-06.
 Requested convergence on             energy=1.00D-06.
 No special actions if energy rises.
 Skip diagonalization as Alpha Fock matrix is already diagonal.
 SCF Done:  E(RB-LYP) =  -75.2586688180     A.U. after    1 cycles
            NFock=  1  Conv=0.00D+00     -V/T= 2.0133
 QCSCF skips out because SCF is already converged.
 DoSCS=F DFT=T ScalE2(SS,OS)=  1.000000  1.000000
 ExpMin= 1.69D-01 ExpMax= 1.31D+02 ExpMxC= 1.31D+02 IAcc=3 IRadAn=         5 AccDes= 0.00D+00
 HarFok:  IExCor=  205 AccDes= 0.00D+00 IRadAn=         5 IDoV=-2 UseB2=F ITyADJ=14
 ICtDFT= 12500011 ScaDFX=  1.000000  1.000000  1.000000  1.000000
 Range of M.O.s used for correlation:     2     7
 NBasis=     7 NAE=     5 NBE=     5 NFC=     1 NFV=     0
 NROrb=      6 NOA=     4 NOB=     4 NVA=     2 NVB=     2
 Keep J ints in memory in canonical form, NReq=869651.
     8 initial guesses have been made.
 Convergence on wavefunction:    0.000001000000000
 Iteration     1 Dimension     8 NMult     0 NNew      8
 CISAX will form     8 AO SS matrices at one time.
 ***********************************************************************
 Excited states from <AA,BB:AA,BB> singles matrix:
 ***********************************************************************
 
 Ground to excited state transition densities written to RWF  633
 Ground to excited state transition electric dipole moments (Au):
       state          X           Y           Z        Dip. S.      Osc.
         1         0.0452     -0.0014      0.0000      0.0020      0.0003
         2         0.0261     -0.0008      0.0000      0.0007      0.0001
 Ground to excited state transition velocity dipole moments (Au):
       state          X           Y           Z        Dip. S.      Osc.
         1         0.0871     -0.0027      0.0000      0.0076      0.0219
         2         0.0473     -0.0015      0.0000      0.0022      0.0052
 Ground to excited state transition magnetic dipole moments (Au):
       state          X           Y           Z
         1         0.0125      0.3937     -0.7197
         2        -0.0216     -0.6922     -0.3549
 Ground to excited state transition velocity quadrupole moments (Au):
       state          XX          YY          ZZ          XY          XZ          YZ
         1         0.0061     -0.0031      0.0000      0.0502      0.0291     -0.0009
         2         0.0034     -0.0018     -0.0000      0.0287     -0.0588      0.0018
 <0|del|b> * <b|rxdel|0> + <0|del|b> * <b|delr+rdel|0>
 Rotatory Strengths (R) in cgs (10**-40 erg-esu-cm/Gauss)
       state          XX          YY          ZZ    R(velocity)    E-M Angle
         1        -1.5341      1.5174      0.0167     -0.0000       90.00
         2         1.1479     -1.1514      0.0036      0.0000       90.00
 1/2[<0|r|b>*<b|rxdel|0> + (<0|rxdel|b>*<b|r|0>)*]
 Rotatory Strengths (R) in cgs (10**-40 erg-esu-cm/Gauss)
       state          XX          YY          ZZ     R(length)
         1        -0.3984      0.3941      0.0043     -0.0000
         2         0.3991     -0.4003      0.0012      0.0000
  1/2[<0|del|b>*<b|r|0> + (<0|r|b>*<b|del|0>)*] (Au)
       state          X           Y           Z        Dip. S.   Osc.(frdel)
         1         0.0039      0.0000      0.0000     -0.0039     -0.0026
         2         0.0012      0.0000      0.0000     -0.0012     -0.0008

 Excitation energies and oscillator strengths:
 
 Excited state symmetry could not be determined.
 Excited State   1:      Singlet-?Sym    6.3075 eV  196.57 nm  f=0.0003  <S**2>=0.000
       5 ->  6         0.70650
 This state for optimization and/or second-order correction.
 Total Energy, E(TD-HF/TD-DFT) =  -75.0268735872    
 Copying the excited state density for this state as the 1-particle RhoCI density.
 
 Excited state symmetry could not be determined.
 Excited State   2:      Singlet-?Sym    7.8389 eV  158.17 nm  f=0.0001  <S**2>=0.000
       5 ->  7         0.70574
 SavETr:  write IOETrn=   770 NScale= 10 NData=  16 NLR=1 NState=    2 LETran=      46.
          IDoAtm=111
          Differentiating once with respect to electric field.
                with respect to dipole field.
          Differentiating once with respect to nuclear coordinates.
 Keep J ints in memory in canonical form, NReq=853156.
          There are     1 degrees of freedom in the 1st order CPHF.  IDoFFX=0 NUNeed=     1.
 LinEq1:  Iter=  0 NonCon=     1 RMS=5.63D-01 Max=1.31D+00 NDo=     1
 AX will form     1 AO Fock derivatives at one time.
 LinEq1:  Iter=  1 NonCon=     1 RMS=1.91D-01 Max=4.29D-01 NDo=     1
 LinEq1:  Iter=  2 NonCon=     1 RMS=3.49D-02 Max=5.97D-02 NDo=     1
 LinEq1:  Iter=  3 NonCon=     1 RMS=4.66D-03 Max=9.70D-03 NDo=     1
 LinEq1:  Iter=  4 NonCon=     1 RMS=1.69D-04 Max=2.89D-04 NDo=     1
 LinEq1:  Iter=  5 NonCon=     1 RMS=5.29D-06 Max=1.18D-05 NDo=     1
 LinEq1:  Iter=  6 NonCon=     1 RMS=5.85D-09 Max=1.60D-08 NDo=     1
 LinEq1:  Iter=  7 NonCon=     0 RMS=1.97D-12 Max=5.67D-12 NDo=     1
 Linear equations converged to 1.000D-10 1.000D-09 after     7 iterations.
 End of Minotr F.D. properties file   721 does not exist.
 End of Minotr F.D. properties file   722 does not exist.
 End of Minotr F.D. properties file   788 does not exist.

 **********************************************************************

            Population analysis using the SCF Density.

 **********************************************************************

 Alpha  occ. eigenvalues --  -18.53047  -0.76352  -0.27773  -0.22625  -0.07317
 Alpha virt. eigenvalues --    0.13345   0.19602
     Molecular Orbital Coefficients:
                           1         2         3         4         5
                           O         O         O         O         O
     Eigenvalues --   -18.53047  -0.76352  -0.27773  -0.22625  -0.07317
   1 1   H  1S         -0.00501   0.15868  -0.46997   0.34355  -0.00000
   2 2   H  1S         -0.00422   0.13116   0.43740   0.41398   0.00000
   3 3   O  1S          0.99378  -0.23969  -0.01575   0.11272  -0.00000
   4        2S          0.02627   0.88925   0.07594  -0.53382   0.00000
   5        2PX         0.00009   0.00442  -0.00192   0.02039   0.99951
   6        2PY         0.00283   0.14101  -0.05728   0.65156  -0.03129
   7        2PZ        -0.00026  -0.01265   0.64881   0.05715   0.00019
                           6         7
                           V         V
     Eigenvalues --     0.13345   0.19602
   1 1   H  1S          0.32622   0.90847
   2 2   H  1S          0.82753  -0.40104
   3 3   O  1S          0.07503   0.03700
   4        2S         -0.42915  -0.22190
   5        2PX        -0.02307  -0.01056
   6        2PY        -0.73877  -0.33275
   7        2PZ        -0.32749   0.76565
     Density Matrix:
                           1         2         3         4         5
   1 1   H  1S          0.72822
   2 2   H  1S         -0.08502   0.75983
   3 3   O  1S          0.00623   0.00829   2.11602
   4        2S         -0.15623  -0.14250  -0.49681   2.16439
   5        2PX         0.01721   0.01636   0.00272  -0.01420   1.99892
   6        2PY         0.54625   0.52633   0.08671  -0.45340  -0.03452
   7        2PZ        -0.57459   0.61158  -0.00201   0.01502   0.00011
                           6         7
   6        2PY         0.89738
   7        2PZ        -0.00343   0.84876
    Full Mulliken population analysis:
                           1         2         3         4         5
   1 1   H  1S          0.72822
   2 2   H  1S         -0.01688   0.75983
   3 3   O  1S          0.00020   0.00022   2.11602
   4        2S         -0.05387  -0.04330  -0.11760   2.16439
   5        2PX         0.00012   0.00010   0.00000   0.00000   1.99892
   6        2PY         0.12548   0.10573   0.00000   0.00000   0.00000
   7        2PZ         0.12161   0.12141   0.00000   0.00000   0.00000
                           6         7
   6        2PY         0.89738
   7        2PZ         0.00000   0.84876
     Gross orbital populations:
                           1
   1 1   H  1S          0.90489
   2 2   H  1S          0.92712
   3 3   O  1S          1.99885
   4        2S          1.94962
   5        2PX         1.99915
   6        2PY         1.12859
   7        2PZ         1.09178
          Condensed to atoms (all electrons):
               1          2          3
     1  H    0.728216  -0.016879   0.193551
     2  H   -0.016879   0.759835   0.184165
     3  O    0.193551   0.184165   7.790276
 Mulliken charges:
               1
     1  H    0.095113
     2  H    0.072879
     3  O   -0.167992
 Sum of Mulliken charges =   0.00000
 Mulliken charges with hydrogens summed into heavy atoms:
               1
     3  O    0.000000
 Electronic spatial extent (au):  <R**2>=             22.0038
 Charge=              0.0000 electrons
 Dipole moment (field-independent basis, Debye):
    X=              0.0392    Y=              1.2518    Z=             -0.0510  Tot=              1.2534
 Quadrupole moment (field-independent basis, Debye-Ang):
   XX=             -6.2921   YY=             -4.7421   ZZ=             -4.8757
   XY=              0.0597   XZ=              0.0001   YZ=              0.0270
 Traceless Quadrupole moment (field-independent basis, Debye-Ang):
   XX=             -0.9888   YY=              0.5612   ZZ=              0.4276
   XY=              0.0597   XZ=              0.0001   YZ=              0.0270
 Octapole moment (field-independent basis, Debye-Ang**2):
  XXX=             -0.2719  YYY=             -2.3831  ZZZ=             -0.2641  XYY=             -0.0473
  XXY=             -1.1076  XXZ=             -0.1238  XZZ=             -0.0517  YZZ=             -0.2685
  YYZ=             -0.0831  XYZ=              0.0014
 Hexadecapole moment (field-independent basis, Debye-Ang**3):
 XXXX=             -3.4720 YYYY=             -8.3135 ZZZZ=             -8.5792 XXXY=             -0.1217
 XXXZ=             -0.0110 YYYX=             -0.0809 YYYZ=             -0.2128 ZZZX=             -0.0065
 ZZZY=             -0.1466 XXYY=             -2.1356 XXZZ=             -2.1536 YYZZ=             -2.2092
 XXYZ=             -0.0880 YYXZ=             -0.0019 ZZXY=             -0.0041
 N-N= 7.303451512956D+00 E-N=-1.930060904897D+02  KE= 7.427371685580D+01
 Orbital energies and kinetic energies (alpha):
                                 1                 2
   1         O               -18.530470         28.635691
   2         O                -0.763518          2.489169
   3         O                -0.277730          1.503552
   4         O                -0.226248          1.979716
   5         O                -0.073172          2.528731
   6         V                 0.133447          2.372544
   7         V                 0.196023          2.351519
 Total kinetic energy from orbitals= 7.427371685580D+01
