6
MD Step 0
C  -0.33763715 -0.58748864 0.00000000
H  0.19552659 -1.51519357 0.00000000
H  -1.40763715 -0.58748864 0.00000000
C  0.33763715 0.58748865 0.00000000
H  -0.19552659 1.51519357 0.00000000
H  1.40763715 0.58748865 0.00000000
6
MD Step 1
C  -0.33800552 -0.58783621 -0.00039486
H  0.19788752 -1.51298876 0.00235342
H  -1.40542288 -0.58520635 0.00235029
C  0.33721694 0.58704643 -0.00039433
H  -0.19318756 1.51769314 0.00235166
H  1.41011973 0.58991301 0.00234854
6
MD Step 2
C  -0.33831657 -0.58808601 -0.00078857
H  0.20026489 -1.51109934 0.00470005
H  -1.40353541 -0.58307981 0.00469388
C  0.33675037 0.58651356 -0.00078749
H  -0.19087153 1.52045347 0.00469641
H  1.41280497 0.59246306 0.00469007
6
MD Step 3
C  -0.33856213 -0.58823254 -0.00117643
H  0.20262935 -1.50956369 0.00701164
H  -1.40204708 -0.58114408 0.00700279
C  0.33624721 0.58589877 -0.00117468
H  -0.18859925 1.52341628 0.00700566
H  1.41560170 0.59510079 0.00699577
6
MD Step 4
C  -0.33873666 -0.58827324 -0.00155551
H  0.20495897 -1.50840196 0.00927074
H  -1.40100935 -0.57942239 0.00926002
C  0.33571566 0.58520992 -0.00155286
H  -0.18637863 1.52652886 0.00926141
H  1.41842734 0.59779813 0.00924721
6
MD Step 5
C  -0.33883821 -0.58820938 -0.00192558
H  0.20724447 -1.50761091 0.01147577
H  -1.40044603 -0.57792098 0.01146456
C  0.33516136 0.58445305 -0.00192162
H  -0.18420008 1.52975029 0.01146135
H  1.42121515 0.60054218 0.01144163
6
MD Step 6
C  -0.33887088 -0.58804834 -0.00229139
H  0.20950320 -1.50715024 0.01365488
H  -1.40033861 -0.57661523 0.01364519
C  0.33458496 0.58362993 -0.00228553
H  -0.18202309 1.53306618 0.01363277
H  1.42392959 0.60334921 0.01360578
6
MD Step 7
C  -0.33883386 -0.58779262 -0.00265179
H  0.21171464 -1.50700819 0.01580105
H  -1.40069141 -0.57551461 0.01579561
C  0.33399300 0.58274887 -0.00264323
H  -0.17984164 1.53642460 0.01576771
H  1.42650227 0.60619972 0.01573114
6
MD Step 8
C  -0.33872865 -0.58744696 -0.00300684
H  0.21386316 -1.50715962 0.01791452
H  -1.40148903 -0.57462024 0.01791676
C  0.33339065 0.58181750 -0.00299458
H  -0.17764218 1.53977958 0.01786544
H  1.42887577 0.60908107 0.01781643
6
MD Step 9
C  -0.33856085 -0.58702006 -0.00335971
H  0.21594962 -1.50755573 0.02001390
H  -1.40268576 -0.57391378 0.02002780
C  0.33277985 0.58084079 -0.00334252
H  -0.17539317 1.54310322 0.01994348
H  1.43101580 0.61199862 0.01987877
6
MD Step 10
C  -0.33833354 -0.58651791 -0.00371001
H  0.21795272 -1.50816415 0.02209698
H  -1.40424602 -0.57339661 0.02212706
C  0.33216581 0.57982749 -0.00368651
H  -0.17308455 1.54634736 0.02199862
H  1.43287265 0.61493665 0.02191452
6
MD Step 11
C  -0.33804566 -0.58594215 -0.00405231
H  0.21982023 -1.50897927 0.02413132
H  -1.40615487 -0.57309917 0.02418265
C  0.33155857 0.57879163 -0.00402097
H  -0.17073758 1.54943515 0.02399753
H  1.43437256 0.61784910 0.02388991
6
MD Step 12
C  -0.33769915 -0.58529715 -0.00438325
H  0.22151234 -1.50998004 0.02609718
H  -1.40837586 -0.57303798 0.02617522
C  0.33096570 0.57774515 -0.00434249
H  -0.16836239 1.55230512 0.02591969
H  1.43546191 0.62070267 0.02578405
6
MD Step 13
C  -0.33730329 -0.58459435 -0.00470610
H  0.22302879 -1.51110438 0.02801408
H  -1.41082584 -0.57318913 0.02812415
C  0.33038777 0.57669335 -0.00465421
H  -0.16593192 1.55493855 0.02778378
H  1.43613443 0.62350355 0.02761571
6
MD Step 14
C  -0.33686320 -0.58384078 -0.00501926
H  0.22434153 -1.51231808 0.02987286
H  -1.41344502 -0.57355608 0.03002017
C  0.32982981 0.57564614 -0.00495456
H  -0.16344985 1.55729221 0.02958011
H  1.43636337 0.62622960 0.02937517
6
MD Step 15
C  -0.33638743 -0.58304669 -0.00532410
H  0.22544142 -1.51356953 0.03168195
H  -1.41615260 -0.57412355 0.03187118
C  0.32929346 0.57461026 -0.00524489
H  -0.16090479 1.55934512 0.03131659
H  1.43614796 0.62887663 0.03107071
6
MD Step 16
C  -0.33588293 -0.58222046 -0.00562000
H  0.22630951 -1.51481989 0.03343808
H  -1.41887807 -0.57488674 0.03367332
C  0.32878191 0.57359407 -0.00552466
H  -0.15829959 1.56106978 0.03298969
H  1.43548412 0.63142923 0.03269912
6
MD Step 17
C  -0.33535596 -0.58136967 -0.00590544
H  0.22692378 -1.51603745 0.03513272
H  -1.42155651 -0.57584498 0.03541738
C  0.32829881 0.57260636 -0.00579251
H  -0.15564503 1.56243896 0.03459080
H  1.43437091 0.63386732 0.03425223
6
MD Step 18
C  -0.33481471 -0.58050365 -0.00618076
H  0.22727589 -1.51718200 0.03676847
H  -1.42411384 -0.57698547 0.03710489
C  0.32784551 0.57165360 -0.00604893
H  -0.15294367 1.56344239 0.03612254
H  1.43282688 0.63618252 0.03573338
6
MD Step 19
C  -0.33426310 -0.57962728 -0.00644199
H  0.22733498 -1.51824191 0.03832251
H  -1.42650482 -0.57831970 0.03871243
C  0.32742715 0.57074590 -0.00629027
H  -0.15022612 1.56405057 0.03756250
H  1.43085342 0.63834182 0.03712047
6
MD Step 20
C  -0.33371301 -0.57875336 -0.00669346
H  0.22712192 -1.51916066 0.03982086
H  -1.42864007 -0.57980971 0.04026416
C  0.32704021 0.56988461 -0.00652093
H  -0.14747737 1.56428892 0.03893683
H  1.42850876 0.64036174 0.03844117
6
MD Step 21
C  -0.33316933 -0.57788759 -0.00693267
H  0.22662077 -1.51992601 0.04124940
H  -1.43047637 -0.58145669 0.04174493
C  0.32668748 0.56907711 -0.00673875
H  -0.14472505 1.56414908 0.04023204
H  1.42581856 0.64221955 0.03968274
6
MD Step 22
C  -0.33263289 -0.57703141 -0.00715325
H  0.22579654 -1.52055281 0.04257145
H  -1.43199979 -0.58328347 0.04311785
C  0.32637506 0.56833377 -0.00693799
H  -0.14202169 1.56360657 0.04141262
H  1.42279333 0.64387098 0.04080973
6
MD Step 23
C  -0.33211290 -0.57619469 -0.00735795
H  0.22467061 -1.52100768 0.04380364
H  -1.43315057 -0.58525943 0.04439769
C  0.32609965 0.56765535 -0.00712156
H  -0.13936970 1.56269625 0.04249584
H  1.41950364 0.64532588 0.04184106
6
MD Step 24
C  -0.33161312 -0.57538168 -0.00754437
H  0.22323796 -1.52129212 0.04493264
H  -1.43390687 -0.58738316 0.04557024
C  0.32586254 0.56704675 -0.00728757
H  -0.13680349 1.56142926 0.04346953
H  1.41599651 0.64656529 0.04276536
6
MD Step 25
C  -0.33113939 -0.57459866 -0.00771287
H  0.22151278 -1.52139700 0.04596102
H  -1.43423944 -0.58963712 0.04663674
C  0.32566191 0.56650943 -0.00743671
H  -0.13434386 1.55983843 0.04433740
H  1.41234031 0.64758721 0.04358767
6
MD Step 26
C  -0.33069511 -0.57384940 -0.00786194
H  0.21950173 -1.52132924 0.04688052
H  -1.43413875 -0.59201428 0.04758807
C  0.32549742 0.56604583 -0.00756796
H  -0.13202424 1.55795120 0.04509256
H  1.40859707 0.64837988 0.04430202
6
MD Step 27
C  -0.33028648 -0.57314043 -0.00799367
H  0.21723529 -1.52108038 0.04770364
H  -1.43358370 -0.59448695 0.04843513
C  0.32536493 0.56565417 -0.00768364
H  -0.12985909 1.55582056 0.04574871
H  1.40485278 0.64895331 0.04492379
6
MD Step 28
C  -0.32991589 -0.57247441 -0.00810694
H  0.21472849 -1.52066563 0.04842427
H  -1.43258113 -0.59704589 0.04917115
C  0.32526318 0.56533497 -0.00778308
H  -0.12788238 1.55348528 0.04630126
H  1.40117679 0.64929997 0.04544929
6
MD Step 29
C  -0.32958598 -0.57185422 -0.00820169
H  0.21200509 -1.52009935 0.04904228
H  -1.43114136 -0.59967614 0.04979515
C  0.32518977 0.56508709 -0.00786657
H  -0.12612295 1.55099349 0.04675153
H  1.39764464 0.64941924 0.04588089
6
MD Step 30
C  -0.32929496 -0.57127826 -0.00827396
H  0.20906926 -1.51942276 0.04953521
H  -1.42930621 -0.60238507 0.05028507
C  0.32514596 0.56491245 -0.00793085
H  -0.12463188 1.54837378 0.04707885
H  1.39430846 0.64928922 0.04619783
6
MD Step 31
C  -0.32904269 -0.57074663 -0.00832233
H  0.20594193 -1.51866690 0.04989517
H  -1.42711177 -0.60516596 0.05063304
C  0.32513058 0.56480995 -0.00797497
H  -0.12344559 1.54567110 0.04727686
H  1.39123225 0.64890343 0.04639404
6
MD Step 32
C  -0.32883288 -0.57026335 -0.00835025
H  0.20267337 -1.51783920 0.05014179
H  -1.42457510 -0.60798513 0.05085757
C  0.32513794 0.56477344 -0.00800229
H  -0.12257239 1.54295856 0.04736640
H  1.38850315 0.64828373 0.04649165
6
MD Step 33
C  -0.32866063 -0.56982384 -0.00835283
H  0.19926831 -1.51699749 0.05024730
H  -1.42176847 -0.61085641 0.05093230
C  0.32517048 0.56480427 -0.00800869
H  -0.12206598 1.54026169 0.04732130
H  1.38615490 0.64740556 0.04646344
6
MD Step 34
C  -0.32852875 -0.56943139 -0.00833408
H  0.19578291 -1.51615186 0.05023447
H  -1.41872097 -0.61374397 0.05087928
C  0.32522245 0.56489511 -0.00799796
H  -0.12192789 1.53765482 0.04716530
H  1.38426394 0.64629550 0.04633398
6
MD Step 35
C  -0.32843833 -0.56908771 -0.00829697
H  0.19226793 -1.51532042 0.05011985
H  -1.41547449 -0.61661867 0.05071484
C  0.32528950 0.56503948 -0.00797285
H  -0.12216291 1.53520323 0.04691591
H  1.38289097 0.64497468 0.04612108
6
MD Step 36
C  -0.32838432 -0.56878852 -0.00823863
H  0.18874145 -1.51455539 0.04988695
H  -1.41210978 -0.61948498 0.05042411
C  0.32537333 0.56523647 -0.00793088
H  -0.12280514 1.53293494 0.04655754
H  1.38205247 0.64343184 0.04580771
6
MD Step 37
C  -0.32836929 -0.56853739 -0.00816496
H  0.18527028 -1.51386023 0.04956844
H  -1.40866317 -0.62229906 0.05003928
C  0.32546789 0.56547700 -0.00787718
H  -0.12383570 1.53092160 0.04612332
H  1.38180179 0.64170540 0.04542751
6
MD Step 38
C  -0.32837939 -0.56832165 -0.00806493
H  0.18182573 -1.51333270 0.04910196
H  -1.40526954 -0.62511264 0.04950197
C  0.32558361 0.56576816 -0.00780193
H  -0.12532560 1.52913327 0.04555132
H  1.38208398 0.63973944 0.04491477
6
MD Step 39
C  -0.32841958 -0.56814769 -0.00794795
H  0.17849192 -1.51295432 0.04853966
H  -1.40195057 -0.62786366 0.04886355
C  0.32571223 0.56609813 -0.00771326
H  -0.12722663 1.52764739 0.04489377
H  1.38294610 0.63759326 0.04432242
6
MD Step 40
C  -0.32847874 -0.56800609 -0.00780669
H  0.17525753 -1.51279782 0.04783992
H  -1.39882198 -0.63058452 0.04808567
C  0.32586168 0.56647117 -0.00760447
H  -0.12957868 1.52643939 0.04410873
H  1.38432810 0.63523311 0.04360548
6
MD Step 41
C  -0.32855806 -0.56789985 -0.00764703
H  0.17218263 -1.51285826 0.04703505
H  -1.39592332 -0.63323406 0.04720102
C  0.32602790 0.56687952 -0.00748049
H  -0.13234200 1.52555043 0.04322827
H  1.38623211 0.63270013 0.04279564
6
MD Step 42
C  -0.32865118 -0.56782465 -0.00746694
H  0.16928014 -1.51317071 0.04611304
H  -1.39333496 -0.63581610 0.04619977
C  0.32621463 0.56732334 -0.00733923
H  -0.13551535 1.52496848 0.04223970
H  1.38860420 0.62999197 0.04187826
6
MD Step 43
C  -0.32875865 -0.56778316 -0.00727164
H  0.16660004 -1.51372454 0.04510227
H  -1.39109124 -0.63829424 0.04511103
C  0.32641906 0.56779638 -0.00718494
H  -0.13905113 1.52471345 0.04117100
H  1.39142095 0.62714774 0.04088071
6
MD Step 44
C  -0.32887519 -0.56777235 -0.00705999
H  0.16415331 -1.51453902 0.04399586
H  -1.38925508 -0.64066806 0.04392971
C  0.32664451 0.56829885 -0.00701631
H  -0.14293162 1.52476124 0.04001437
H  1.39461424 0.62417207 0.03979368
6
MD Step 45
C  -0.32899645 -0.56779012 -0.00683155
H  0.16195065 -1.51562366 0.04279060
H  -1.38787718 -0.64293381 0.04265409
C  0.32689376 0.56883071 -0.00683258
H  -0.14713014 1.52508354 0.03876571
H  1.39811236 0.62107425 0.03861183
6
MD Step 46
C  -0.32911545 -0.56783172 -0.00658264
H  0.15998085 -1.51699945 0.04146572
H  -1.38701587 -0.64510588 0.04126513
C  0.32717250 0.56939527 -0.00663027
H  -0.15163317 1.52562727 0.03740293
H  1.40182049 0.61784679 0.03731163
6
MD Step 47
C  -0.32923561 -0.56790254 -0.00631998
H  0.15828643 -1.51862245 0.04005823
H  -1.38665949 -0.64714027 0.03980001
C  0.32747651 0.56998625 -0.00641507
H  -0.15636465 1.52639189 0.03596293
H  1.40569924 0.61454138 0.03593003
6
MD Step 48
C  -0.32935778 -0.56800521 -0.00604699
H  0.15688717 -1.52046117 0.03858674
H  -1.38680315 -0.64901185 0.03827770
C  0.32780449 0.57060068 -0.00618978
H  -0.16126368 1.52735334 0.03446407
H  1.40968875 0.61119199 0.03448521
6
MD Step 49
C  -0.32947612 -0.56813554 -0.00575947
H  0.15575630 -1.52252098 0.03702785
H  -1.38747280 -0.65073860 0.03667567
C  0.32816193 0.57124293 -0.00595056
H  -0.16630951 1.52844098 0.03288170
H  1.41368596 0.60779081 0.03295181
6
MD Step 50
C  -0.32959519 -0.56829923 -0.00546351
H  0.15492043 -1.52474423 0.03541515
H  -1.38862455 -0.65228080 0.03502719
C  0.32854438 0.57190761 -0.00570267
H  -0.17142161 1.52963949 0.03124989
H  1.41764728 0.60438807 0.03136428
6
MD Step 51
C  -0.32970582 -0.56848817 -0.00515014
H  0.15431871 -1.52715297 0.03369927
H  -1.39028742 -0.65368384 0.03328341
C  0.32896099 0.57260351 -0.00543820
H  -0.17660312 1.53084781 0.02951744
H  1.42144724 0.60095053 0.02967089
6
MD Step 52
C  -0.32981278 -0.56870752 -0.00482444
H  0.15396509 -1.52968647 0.03190851
H  -1.39240031 -0.65491435 0.03147199
C  0.32940737 0.57332594 -0.00516166
H  -0.18177803 1.53204386 0.02771321
H  1.42504410 0.59752363 0.02790101
6
MD Step 53
C  -0.32991998 -0.56896116 -0.00449003
H  0.15386252 -1.53228898 0.03006330
H  -1.39490036 -0.65594755 0.02961264
C  0.32987999 0.57407134 -0.00487636
H  -0.18687907 1.53319861 0.02585812
H  1.42839350 0.59414489 0.02607611
6
MD Step 54
C  -0.33002905 -0.56925034 -0.00414774
H  0.15399566 -1.53491853 0.02816862
H  -1.39773245 -0.65677531 0.02770964
C  0.33037746 0.57483850 -0.00458313
H  -0.19185623 1.53426920 0.02395727
H  1.43144129 0.59083598 0.02420174
6
MD Step 55
C  -0.33013986 -0.56957420 -0.00379628
H  0.15433531 -1.53754396 0.02621786
H  -1.40084685 -0.65740229 0.02575570
C  0.33089992 0.57562789 -0.00428099
H  -0.19667347 1.53520379 0.02200391
H  1.43412816 0.58760646 0.02227157
6
MD Step 56
C  -0.33025442 -0.56993351 -0.00343636
H  0.15486161 -1.54012287 0.02421542
H  -1.40417788 -0.65782300 0.02375435
C  0.33144519 0.57643770 -0.00397074
H  -0.20128639 1.53596537 0.02000265
H  1.43641343 0.58447642 0.02029075
6
MD Step 57
C  -0.33037251 -0.57032654 -0.00306629
H  0.15554006 -1.54262709 0.02215247
H  -1.40767009 -0.65804669 0.02169599
C  0.33201287 0.57726796 -0.00365103
H  -0.20566740 1.53650781 0.01794451
H  1.43825082 0.58145188 0.01825076
6
MD Step 58
C  -0.33049529 -0.57075254 -0.00268576
H  0.15634324 -1.54502203 0.02002805
H  -1.41125841 -0.65807591 0.01957887
C  0.33260081 0.57811691 -0.00332182
H  -0.20978482 1.53679791 0.01582847
H  1.43961049 0.57854594 0.01615109
6
MD Step 59
C  -0.33063598 -0.57122222 -0.00230712
H  0.15731424 -1.54720407 0.01791131
H  -1.41480637 -0.65784278 0.01747118
C  0.33319460 0.57897025 -0.00299435
H  -0.21353940 1.53687937 0.01372608
H  1.44054290 0.57584171 0.01406393
6
MD Step 60
C  -0.33078675 -0.57172539 -0.00192107
H  0.15837460 -1.54919539 0.01575097
H  -1.41830233 -0.65740419 0.01532116
C  0.33379981 0.57983394 -0.00266042
H  -0.21695949 1.53667867 0.01158443
H  1.44098350 0.57329926 0.01193664
6
MD Step 61
C  -0.33094975 -0.57226143 -0.00152896
H  0.15950623 -1.55096149 0.01355514
H  -1.42167725 -0.65675787 0.01313636
C  0.33441161 0.58070326 -0.00232141
H  -0.22001758 1.53618872 0.00941180
H  1.44093701 0.57093750 0.00977786
6
MD Step 62
C  -0.33112839 -0.57283063 -0.00113372
H  0.16070063 -1.55246313 0.01134055
H  -1.42485736 -0.65589417 0.01093307
C  0.33502342 0.58157155 -0.00198007
H  -0.22268226 1.53541742 0.00722536
H  1.44042570 0.56878281 0.00760503
6
MD Step 63
C  -0.33131679 -0.57342405 -0.00072909
H  0.16189848 -1.55371790 0.00907252
H  -1.42782630 -0.65485748 0.00867632
C  0.33563700 0.58244053 -0.00163079
H  -0.22497973 1.53432660 0.00498919
H  1.43942784 0.56680822 0.00538238
6
MD Step 64
C  -0.33151222 -0.57403565 -0.00031238
H  0.16306211 -1.55472758 0.00673642
H  -1.43055270 -0.65367302 0.00635135
C  0.33625043 0.58330803 -0.00127122
H  -0.22692094 1.53290496 0.00268789
H  1.43795098 0.56500571 0.00309458
6
MD Step 65
C  -0.33172596 -0.57467297 0.00010427
H  0.16423944 -1.55541423 0.00440086
H  -1.43292666 -0.65228238 0.00402662
C  0.33684749 0.58415720 -0.00091248
H  -0.22843720 1.53123232 0.00039151
H  1.43609614 0.56344995 0.00081171
6
MD Step 66
C  -0.33195543 -0.57532988 0.00052255
H  0.16540171 -1.55578411 0.00205659
H  -1.43492453 -0.65070780 0.00169293
C  0.33742493 0.58498418 -0.00055301
H  -0.22954436 1.52931546 -0.00191006
H  1.43389255 0.56213550 -0.00147645
6
MD Step 67
C  -0.33220396 -0.57600597 0.00093763
H  0.16655941 -1.55581136 -0.00026881
H  -1.43649298 -0.64893526 -0.00062197
C  0.33797314 0.58577848 -0.00019723
H  -0.23022583 1.52720449 -0.00418927
H  1.43141372 0.56109256 -0.00374257
6
MD Step 68
C  -0.33247003 -0.57669606 0.00134921
H  0.16769939 -1.55550146 -0.00257339
H  -1.43761293 -0.64697793 -0.00291588
C  0.33848685 0.58653377 0.00015464
H  -0.23049594 1.52492902 -0.00644494
H  1.42871294 0.56032393 -0.00598579
6
MD Step 69
C  -0.33274598 -0.57738897 0.00176280
H  0.16877746 -1.55489865 -0.00488832
H  -1.43830714 -0.64488375 -0.00521973
C  0.33896637 0.58724919 0.00050787
H  -0.23040742 1.52249023 -0.00871000
H  1.42581477 0.55979747 -0.00823938
6
MD Step 70
C  -0.33303758 -0.57808674 0.00216978
H  0.16983280 -1.55397058 -0.00716434
H  -1.43852497 -0.64261961 -0.00748376
C  0.33939859 0.58790996 0.00085454
H  -0.22993564 1.51997569 -0.01093519
H  1.42282983 0.55956073 -0.01045463
6
MD Step 71
C  -0.33333788 -0.57877904 0.00257408
H  0.17083482 -1.55276227 -0.00942387
H  -1.43829672 -0.64022602 -0.00973011
C  0.33978266 0.58851352 0.00119854
H  -0.22913272 1.51740442 -0.01314463
H  1.41979854 0.55958757 -0.01265610
6
MD Step 72
C  -0.33364676 -0.57946236 0.00297235
H  0.17179739 -1.55128081 -0.01164753
H  -1.43761853 -0.63770158 -0.01193889
C  0.34011098 0.58905016 0.00153689
H  -0.22801189 1.51484123 -0.01531990
H  1.41680516 0.55989264 -0.01482595
6
MD Step 73
C  -0.33396078 -0.58013013 0.00336419
H  0.17271947 -1.54955471 -0.01383305
H  -1.43651185 -0.63506268 -0.01410744
C  0.34037925 0.58951322 0.00186946
H  -0.22660669 1.51233615 -0.01746011
H  1.41391634 0.56047208 -0.01696382
6
MD Step 74
C  -0.33428161 -0.58078106 0.00374378
H  0.17363408 -1.54758405 -0.01594645
H  -1.43497394 -0.63229387 -0.01620117
C  0.34057832 0.58989083 0.00219084
H  -0.22492084 1.50997286 -0.01953215
H  1.41122887 0.56135281 -0.01903732
6
MD Step 75
C  -0.33460385 -0.58140716 0.00411206
H  0.17453668 -1.54541209 -0.01799323
H  -1.43304974 -0.62941994 -0.01822529
C  0.34070632 0.59017818 0.00250218
H  -0.22299955 1.50779548 -0.02154307
H  1.40879538 0.56252083 -0.02105387
6
MD Step 76
C  -0.33491524 -0.58199401 0.00447654
H  0.17538581 -1.54312356 -0.02001744
H  -1.43083025 -0.62650467 -0.02022416
C  0.34076856 0.59037745 0.00281112
H  -0.22092772 1.50580845 -0.02353905
H  1.40662387 0.56392244 -0.02305937
6
MD Step 77
C  -0.33521349 -0.58253737 0.00483462
H  0.17620116 -1.54074508 -0.02200382
H  -1.42835245 -0.62355165 -0.02218229
C  0.34076112 0.59048128 0.00311534
H  -0.21873026 1.50407428 -0.02550598
H  1.40477587 0.56556269 -0.02503994
6
MD Step 78
C  -0.33549463 -0.58303180 0.00518522
H  0.17699465 -1.53831326 -0.02394601
H  -1.42566739 -0.62057317 -0.02409336
C  0.34068235 0.59048447 0.00341399
H  -0.21644022 1.50264331 -0.02743871
H  1.40329588 0.56743689 -0.02699037
6
MD Step 79
C  -0.33575435 -0.58347192 0.00552754
H  0.17777753 -1.53586657 -0.02583922
H  -1.42283195 -0.61758266 -0.02595273
C  0.34053173 0.59038290 0.00370643
H  -0.21409038 1.50155980 -0.02933353
H  1.40221746 0.56953803 -0.02890667
6
MD Step 80
C  -0.33599042 -0.58385489 0.00585874
H  0.17857374 -1.53343078 -0.02766646
H  -1.41989399 -0.61458074 -0.02774349
C  0.34030754 0.59017129 0.00398988
H  -0.21169867 1.50087446 -0.03117417
H  1.40157605 0.57187064 -0.03077238
6
MD Step 81
C  -0.33619977 -0.58417751 0.00617690
H  0.17940219 -1.53103571 -0.02941583
H  -1.41690880 -0.61157266 -0.02945400
C  0.34000984 0.58984629 0.00426238
H  -0.20928473 1.50062567 -0.03294926
H  1.40139048 0.57443335 -0.03257567
6
MD Step 82
C  -0.33637178 -0.58442960 0.00648753
H  0.18023618 -1.52875480 -0.03112061
H  -1.41397824 -0.60860860 -0.03111917
C  0.33964715 0.58941335 0.00452967
H  -0.20690962 1.50079812 -0.03469279
H  1.40162221 0.57717867 -0.03434869
6
MD Step 83
C  -0.33650597 -0.58461147 0.00678655
H  0.18110669 -1.52659999 -0.03275568
H  -1.41114450 -0.60567917 -0.03271409
C  0.33921900 0.58886926 0.00478734
H  -0.20457112 1.50142629 -0.03637935
H  1.40228034 0.58011695 -0.03606562
6
MD Step 84
C  -0.33659140 -0.58471349 0.00708029
H  0.18197949 -1.52464405 -0.03435981
H  -1.40851183 -0.60283863 -0.03427987
C  0.33873642 0.58822291 0.00504204
H  -0.20232639 1.50247077 -0.03804768
H  1.40329866 0.58319360 -0.03776267
6
MD Step 85
C  -0.33662623 -0.58473545 0.00736678
H  0.18286980 -1.52290420 -0.03592071
H  -1.40612867 -0.60008903 -0.03580519
C  0.33820246 0.58747588 0.00529147
H  -0.20017631 1.50393371 -0.03968462
H  1.40465285 0.58640439 -0.03942555
6
MD Step 86
C  -0.33661538 -0.58468416 0.00763819
H  0.18382739 -1.52135623 -0.03738955
H  -1.40400096 -0.59739491 -0.03724079
C  0.33761463 0.58662493 0.00552680
H  -0.19808016 1.50584411 -0.04123980
H  1.40634670 0.58978086 -0.04100430
6
MD Step 87
C  -0.33655500 -0.58455804 0.00789565
H  0.18484443 -1.52002673 -0.03877282
H  -1.40218386 -0.59477585 -0.03859471
C  0.33698026 0.58567746 0.00574884
H  -0.19604807 1.50816558 -0.04271823
H  1.40832019 0.59329799 -0.04250240
6
MD Step 88
C  -0.33644074 -0.58435517 0.00814135
H  0.18590348 -1.51894438 -0.04008420
H  -1.40073199 -0.59225801 -0.03988255
C  0.33630831 0.58464340 0.00595968
H  -0.19409299 1.51084531 -0.04413173
H  1.41049958 0.59692256 -0.04392980
6
MD Step 89
C  -0.33627518 -0.58408071 0.00837171
H  0.18702111 -1.51809579 -0.04130077
H  -1.39965411 -0.58983019 -0.04108173
C  0.33560191 0.58352768 0.00615484
H  -0.19218750 1.51385897 -0.04545509
H  1.41284321 0.60065697 -0.04526113
6
MD Step 90
C  -0.33605829 -0.58373725 0.00858640
H  0.18819074 -1.51748290 -0.04242018
H  -1.39897003 -0.58750133 -0.04219092
C  0.33486791 0.58233979 0.00633345
H  -0.19032169 1.51715437 -0.04668348
H  1.41528551 0.60448199 -0.04649078
6
MD Step 91
C  -0.33578756 -0.58332493 0.00878810
H  0.18938362 -1.51712224 -0.04345977
H  -1.39870908 -0.58529950 -0.04322932
C  0.33411660 0.58109351 0.00649824
H  -0.18850296 1.52065372 -0.04783160
H  1.41773965 0.60835774 -0.04763183
6
MD Step 92
C  -0.33546799 -0.58285132 0.00897343
H  0.19060771 -1.51698601 -0.04439767
H  -1.39885059 -0.58321304 -0.04417484
C  0.33335173 0.57979679 0.00664483
H  -0.18669803 1.52431405 -0.04887489
H  1.42015837 0.61228277 -0.04866026
6
MD Step 93
C  -0.33509992 -0.58231918 0.00914404
H  0.19183595 -1.51707478 -0.04524498
H  -1.39939652 -0.58126266 -0.04503970
C  0.33258257 0.57846378 0.00677483
H  -0.18490568 1.52805648 -0.04982164
H  1.42246313 0.61622198 -0.04958349
6
MD Step 94
C  -0.33468823 -0.58173568 0.00929823
H  0.19306122 -1.51736307 -0.04599093
H  -1.40031682 -0.57944671 -0.04581289
C  0.33181462 0.57710541 0.00688593
H  -0.18310287 1.53182259 -0.05065849
H  1.42460038 0.62016160 -0.05038863
6
MD Step 95
C  -0.33423515 -0.58110516 0.00943735
H  0.19425454 -1.51784213 -0.04664526
H  -1.40159258 -0.57778333 -0.04650472
C  0.33105665 0.57573631 0.00697960
H  -0.18128750 1.53553360 -0.05139254
H  1.42650056 0.62406714 -0.05108235
6
MD Step 96
C  -0.33375016 -0.58043902 0.00955690
H  0.19542462 -1.51846125 -0.04717865
H  -1.40315759 -0.57625126 -0.04708419
C  0.33031064 0.57436473 0.00705020
H  -0.17942006 1.53915105 -0.05199256
H  1.42813842 0.62794289 -0.05163523
6
MD Step 97
C  -0.33323588 -0.57974160 0.00965908
H  0.19653495 -1.51921212 -0.04760673
H  -1.40498354 -0.57487315 -0.04756719
C  0.32958580 0.57300632 0.00710038
H  -0.17750719 1.54259453 -0.05247193
H  1.42945030 0.63174851 -0.05206037
6
MD Step 98
C  -0.33269888 -0.57902095 0.00974302
H  0.19756921 -1.52006426 -0.04792469
H  -1.40701607 -0.57365059 -0.04794797
C  0.32888757 0.57167308 0.00712913
H  -0.17553740 1.54580792 -0.05282418
H  1.43039996 0.63546440 -0.05235217
6
MD Step 99
C  -0.33214695 -0.57828627 0.00980708
H  0.19851652 -1.52098101 -0.04812249
H  -1.40919142 -0.57257924 -0.04821508
C  0.32822009 0.57037577 0.00713451
H  -0.17349658 1.54874520 -0.05303816
H  1.43096405 0.63907672 -0.05250074
6
MD Step 100
C  -0.33158446 -0.57754303 0.00985297
H  0.19934421 -1.52194783 -0.04821293
H  -1.41146576 -0.57167632 -0.04838087
C  0.32759087 0.56912837 0.00711886
H  -0.17139565 1.55134368 -0.05312532
H  1.43110489 0.64254985 -0.05251778
6
MD Step 101
C  -0.33102322 -0.57680417 0.00987587
H  0.20006483 -1.52290643 -0.04816434
H  -1.41374992 -0.57091438 -0.04841109
C  0.32699944 0.56793681 0.00707641
H  -0.16920479 1.55359124 -0.05305423
H  1.43083731 0.64589329 -0.05237419
6
MD Step 102
C  -0.33046942 -0.57607679 0.00987606
H  0.20065855 -1.52383341 -0.04797940
H  -1.41598928 -0.57029882 -0.04830721
C  0.32645052 0.56681192 0.00700770
H  -0.16693082 1.55544898 -0.05282737
H  1.43015081 0.64908373 -0.05207341
6
MD Step 103
C  -0.32992232 -0.57536074 0.00985992
H  0.20106580 -1.52474839 -0.04770306
H  -1.41817255 -0.56987529 -0.04811477
C  0.32595532 0.56577046 0.00692120
H  -0.16462470 1.55684423 -0.05248834
H  1.42900229 0.65205750 -0.05165817
6
MD Step 104
C  -0.32939660 -0.57467155 0.00981991
H  0.20132371 -1.52557847 -0.04728470
H  -1.42019633 -0.56959474 -0.04777991
C  0.32550836 0.56481251 0.00680781
H  -0.16224700 1.55780664 -0.05198871
H  1.42745197 0.65484723 -0.05108306
6
MD Step 105
C  -0.32889810 -0.57401561 0.00975624
H  0.20142023 -1.52630476 -0.04672608
H  -1.42201292 -0.56945841 -0.04730316
C  0.32511225 0.56394556 0.00666804
H  -0.15981240 1.55832267 -0.05133117
H  1.42551738 0.65743549 -0.05035179
6
MD Step 106
C  -0.32842482 -0.57339117 0.00967577
H  0.20130049 -1.52695651 -0.04607524
H  -1.42362497 -0.56951141 -0.04673308
C  0.32477664 0.56318347 0.00651103
H  -0.15738325 1.55834205 -0.05056309
H  1.42317954 0.65976113 -0.04951105
6
MD Step 107
C  -0.32798666 -0.57280859 0.00957437
H  0.20098749 -1.52749108 -0.04530426
H  -1.42496523 -0.56972367 -0.04603971
C  0.32449770 0.56252635 0.00633198
H  -0.15495069 1.55789794 -0.04965915
H  1.42050292 0.66184020 -0.04853743
6
MD Step 108
C  -0.32758702 -0.57227146 0.00945328
H  0.20047073 -1.52790533 -0.04442231
H  -1.42600880 -0.57010004 -0.04523158
C  0.32427705 0.56197903 0.00613294
H  -0.15254438 1.55699594 -0.04862985
H  1.41752416 0.66365440 -0.04744205
6
MD Step 109
C  -0.32723419 -0.57178832 0.00930894
H  0.19977599 -1.52816651 -0.04340495
H  -1.42670418 -0.57061169 -0.04428268
C  0.32410994 0.56153946 0.00590978
H  -0.15016372 1.55568315 -0.04745394
H  1.41432062 0.66522083 -0.04620518
6
MD Step 110
C  -0.32692529 -0.57135615 0.00914731
H  0.19886784 -1.52830946 -0.04229308
H  -1.42707111 -0.57129219 -0.04323430
C  0.32400183 0.56121486 0.00567038
H  -0.14787352 1.55395112 -0.04617277
H  1.41091284 0.66649446 -0.04486785
6
MD Step 111
C  -0.32666512 -0.57097976 0.00896685
H  0.19776475 -1.52832194 -0.04107614
H  -1.42708560 -0.57212406 -0.04207509
C  0.32394886 0.56100267 0.00541320
H  -0.14569044 1.55184991 -0.04477864
H  1.40737829 0.66748341 -0.04342322
6
MD Step 112
C  -0.32645679 -0.57066215 0.00876699
H  0.19648192 -1.52820148 -0.03975004
H  -1.42673716 -0.57309511 -0.04080049
C  0.32394761 0.56090001 0.00513791
H  -0.14363888 1.54943085 -0.04327020
H  1.40379359 0.66819174 -0.04187047
6
MD Step 113
C  -0.32630279 -0.57040564 0.00854712
H  0.19503797 -1.52794863 -0.03831023
H  -1.42602229 -0.57419189 -0.03940562
C  0.32399400 0.56090262 0.00484408
H  -0.14174395 1.54675258 -0.04164580
H  1.40023985 0.66862622 -0.04020839
6
MD Step 114
C  -0.32619852 -0.57020523 0.00831249
H  0.19341534 -1.52760601 -0.03679175
H  -1.42498381 -0.57543849 -0.03792616
C  0.32409010 0.56101146 0.00453843
H  -0.14006971 1.54384109 -0.03994155
H  1.39676220 0.66875668 -0.03847257
6
MD Step 115
C  -0.32614937 -0.57006620 0.00805858
H  0.19166428 -1.52715448 -0.03516355
H  -1.42360654 -0.57679407 -0.03633065
C  0.32422650 0.56121562 0.00421574
H  -0.13861632 1.54079214 -0.03813045
H  1.39347162 0.66862022 -0.03663648
6
MD Step 116
C  -0.32615110 -0.56998392 0.00778913
H  0.18978279 -1.52663203 -0.03345001
H  -1.42193691 -0.57827098 -0.03464409
C  0.32440280 0.56151221 0.00388069
H  -0.13743721 1.53765112 -0.03623838
H  1.39042413 0.66820111 -0.03472544
6
MD Step 117
C  -0.32620187 -0.56995632 0.00750505
H  0.18778990 -1.52606031 -0.03165632
H  -1.42000912 -0.57986235 -0.03287212
C  0.32461522 0.56189439 0.00353451
H  -0.13656614 1.53448466 -0.03427277
H  1.38769192 0.66750419 -0.03274642
6
MD Step 118
C  -0.32629825 -0.56997972 0.00720817
H  0.18570026 -1.52546907 -0.02979388
H  -1.41786952 -0.58156684 -0.03102683
C  0.32486100 0.56235569 0.00317947
H  -0.13604111 1.53135432 -0.03224683
H  1.38533665 0.66652972 -0.03071195
6
MD Step 119
C  -0.32643734 -0.57005110 0.00689931
H  0.18353693 -1.52488258 -0.02786704
H  -1.41556288 -0.58337578 -0.02911322
C  0.32513625 0.56288799 0.00281656
H  -0.13589072 1.52832796 -0.03016676
H  1.38342053 0.66528624 -0.02862751
6
MD Step 120
C  -0.32661528 -0.57016658 0.00657971
H  0.18132120 -1.52432884 -0.02588291
H  -1.41314132 -0.58528291 -0.02713912
C  0.32543773 0.56348338 0.00244714
H  -0.13614294 1.52546829 -0.02804122
H  1.38199480 0.66378070 -0.02650097
6
MD Step 121
C  -0.32681990 -0.57031393 0.00625801
H  0.17902737 -1.52388350 -0.02389673
H  -1.41070807 -0.58732866 -0.02516097
C  0.32577054 0.56414175 0.00208106
H  -0.13686860 1.52278660 -0.02592503
H  1.38105354 0.66197342 -0.02438585
6
MD Step 122
C  -0.32705218 -0.57049441 0.00593015
H  0.17671135 -1.52354040 -0.02188134
H  -1.40828672 -0.58947252 -0.02315210
C  0.32612629 0.56484957 0.00171358
H  -0.13805312 1.52036967 -0.02379302
H  1.38066135 0.65990731 -0.02225642
6
MD Step 123
C  -0.32731400 -0.57071041 0.00559087
H  0.17443606 -1.52328499 -0.01980215
H  -1.40589461 -0.59166649 -0.02107841
C  0.32649575 0.56559243 0.00133866
H  -0.13966903 1.51830416 -0.02161250
H  1.38087785 0.65763339 -0.02007944
6
MD Step 124
C  -0.32759557 -0.57095254 0.00524585
H  0.17219424 -1.52317055 -0.01769480
H  -1.40361910 -0.59393134 -0.01897642
C  0.32688196 0.56636795 0.00096250
H  -0.14175122 1.51659827 -0.01941856
H  1.38167956 0.65513369 -0.01788907
6
MD Step 125
C  -0.32789746 -0.57122204 0.00489075
H  0.17004065 -1.52318519 -0.01553115
H  -1.40148319 -0.59622522 -0.01681846
C  0.32727776 0.56716394 0.00058013
H  -0.14426511 1.51531281 -0.01718395
H  1.38309198 0.65245403 -0.01565761
6