 Entering Gaussian System, Link 0=g16
 Initial command:
 /software/gaussian/g16-c01/avx2/g16/l1.exe "/gpfs/fs2/scratch/bweight/software/many_molecule_many_mode_NAMD/src/NAMD/TEST_NVT/G16/GS_NEW/Gau-3005.inp" -scrdir="/gpfs/fs2/scratch/bweight/software/many_molecule_many_mode_NAMD/src/NAMD/TEST_NVT/G16/GS_NEW/"
 Entering Link 1 = /software/gaussian/g16-c01/avx2/g16/l1.exe PID=      3006.
  
 Copyright (c) 1988-2019, Gaussian, Inc.  All Rights Reserved.
  
 This is part of the Gaussian(R) 16 program.  It is based on
 the Gaussian(R) 09 system (copyright 2009, Gaussian, Inc.),
 the Gaussian(R) 03 system (copyright 2003, Gaussian, Inc.),
 the Gaussian(R) 98 system (copyright 1998, Gaussian, Inc.),
 the Gaussian(R) 94 system (copyright 1995, Gaussian, Inc.),
 the Gaussian 92(TM) system (copyright 1992, Gaussian, Inc.),
 the Gaussian 90(TM) system (copyright 1990, Gaussian, Inc.),
 the Gaussian 88(TM) system (copyright 1988, Gaussian, Inc.),
 the Gaussian 86(TM) system (copyright 1986, Carnegie Mellon
 University), and the Gaussian 82(TM) system (copyright 1983,
 Carnegie Mellon University). Gaussian is a federally registered
 trademark of Gaussian, Inc.
  
 This software contains proprietary and confidential information,
 including trade secrets, belonging to Gaussian, Inc.
  
 This software is provided under written license and may be
 used, copied, transmitted, or stored only in accord with that
 written license.
  
 The following legend is applicable only to US Government
 contracts under FAR:
  
                    RESTRICTED RIGHTS LEGEND
  
 Use, reproduction and disclosure by the US Government is
 subject to restrictions as set forth in subparagraphs (a)
 and (c) of the Commercial Computer Software - Restricted
 Rights clause in FAR 52.227-19.
  
 Gaussian, Inc.
 340 Quinnipiac St., Bldg. 40, Wallingford CT 06492
  
  
 ---------------------------------------------------------------
 Warning -- This program may not be used in any manner that
 competes with the business of Gaussian, Inc. or will provide
 assistance to any competitor of Gaussian, Inc.  The licensee
 of this program is prohibited from giving any competitor of
 Gaussian, Inc. access to this program.  By using this program,
 the user acknowledges that Gaussian, Inc. is engaged in the
 business of creating and licensing software in the field of
 computational chemistry and represents and warrants to the
 licensee that it is not a competitor of Gaussian, Inc. and that
 it will not use this program in any manner prohibited above.
 ---------------------------------------------------------------
  

 Cite this work as:
 Gaussian 16, Revision C.01,
 M. J. Frisch, G. W. Trucks, H. B. Schlegel, G. E. Scuseria, 
 M. A. Robb, J. R. Cheeseman, G. Scalmani, V. Barone, 
 G. A. Petersson, H. Nakatsuji, X. Li, M. Caricato, A. V. Marenich, 
 J. Bloino, B. G. Janesko, R. Gomperts, B. Mennucci, H. P. Hratchian, 
 J. V. Ortiz, A. F. Izmaylov, J. L. Sonnenberg, D. Williams-Young, 
 F. Ding, F. Lipparini, F. Egidi, J. Goings, B. Peng, A. Petrone, 
 T. Henderson, D. Ranasinghe, V. G. Zakrzewski, J. Gao, N. Rega, 
 G. Zheng, W. Liang, M. Hada, M. Ehara, K. Toyota, R. Fukuda, 
 J. Hasegawa, M. Ishida, T. Nakajima, Y. Honda, O. Kitao, H. Nakai, 
 T. Vreven, K. Throssell, J. A. Montgomery, Jr., J. E. Peralta, 
 F. Ogliaro, M. J. Bearpark, J. J. Heyd, E. N. Brothers, K. N. Kudin, 
 V. N. Staroverov, T. A. Keith, R. Kobayashi, J. Normand, 
 K. Raghavachari, A. P. Rendell, J. C. Burant, S. S. Iyengar, 
 J. Tomasi, M. Cossi, J. M. Millam, M. Klene, C. Adamo, R. Cammi, 
 J. W. Ochterski, R. L. Martin, K. Morokuma, O. Farkas, 
 J. B. Foresman, and D. J. Fox, Gaussian, Inc., Wallingford CT, 2019.
 
 ******************************************
 Gaussian 16:  ES64L-G16RevC.01  3-Jul-2019
                11-Jan-2023 
 ******************************************
 %oldchk=../GS_OLD/geometry.chk
 %chk=geometry.chk
 %nprocshared=2
 Will use up to    2 processors via shared memory.
 %mem=5GB
 Copying data from "../GS_OLD/geometry.chk" to current chk file "geometry.chk"
 IOpt=  2 FromEx=T IUOpen= 4 IOptOp= 5 NList=   0 IFRang= 0 IUIn= 4 IUOut= 2.
 -------------------------------------------------------
 # WB97XD/6-311G SCF=XQC FORCE nosym pop=full guess=read
 -------------------------------------------------------
 1/10=7,30=1,38=1/1,3;
 2/12=2,15=1,17=6,18=5,40=1/2;
 3/5=4,6=6,11=2,25=1,30=1,71=1,74=-58,116=-2/1,2,3;
 4/5=1/1;
 5/5=2,8=3,13=1,38=6/2,8;
 6/7=3,28=1/1;
 7/29=1,30=1/1,2,3,16;
 1/10=7,30=1/3;
 99//99;
 ------------
 MD Step 1000
 ------------
 Symbolic Z-matrix:
 Charge =  0 Multiplicity = 1
 C                    -0.33734  -0.58363   0.00445 
 H                     0.22462  -1.52111  -0.01071 
 H                    -1.41986  -0.57992  -0.01163 
 C                     0.33284   0.57679   0.0031 
 H                    -0.15433   1.57117  -0.01364 
 H                     1.4444    0.65253  -0.01274 
 

 GradGradGradGradGradGradGradGradGradGradGradGradGradGradGradGradGradGrad
 Berny optimization.
 Initialization pass.
 Trust Radius=3.00D-01 FncErr=1.00D-07 GrdErr=1.00D-07 EigMax=2.50D+02 EigMin=1.00D-04
 Number of steps in this run=      2 maximum allowed number of steps=      2.
 GradGradGradGradGradGradGradGradGradGradGradGradGradGradGradGradGradGrad

                          Input orientation:                          
 ---------------------------------------------------------------------
 Center     Atomic      Atomic             Coordinates (Angstroms)
 Number     Number       Type             X           Y           Z
 ---------------------------------------------------------------------
      1          6           0       -0.337335   -0.583625    0.004451
      2          1           0        0.224623   -1.521106   -0.010711
      3          1           0       -1.419862   -0.579919   -0.011629
      4          6           0        0.332841    0.576794    0.003102
      5          1           0       -0.154327    1.571173   -0.013644
      6          1           0        1.444395    0.652531   -0.012741
 ---------------------------------------------------------------------
                    Distance matrix (angstroms):
                    1          2          3          4          5
     1  C    0.000000
     2  H    1.093113   0.000000
     3  H    1.082653   1.894773   0.000000
     4  C    1.340041   2.100735   2.100041   0.000000
     5  H    2.162632   3.115413   2.495752   1.107431   0.000000
     6  H    2.168627   2.492498   3.118158   1.114244   1.843859
                    6
     6  H    0.000000
 Symmetry turned off by external request.
 Stoichiometry    C2H4
 Framework group  C1[X(C2H4)]
 Deg. of freedom    12
 Full point group                 C1      NOp   1
 Rotational constants (GHZ):         143.4387797          29.6408734          24.5667945
 Standard basis: 6-311G (5D, 7F)
    38 basis functions,    72 primitive gaussians,    38 cartesian basis functions
     8 alpha electrons        8 beta electrons
       nuclear repulsion energy        33.0558444902 Hartrees.
 NAtoms=    6 NActive=    6 NUniq=    6 SFac= 1.00D+00 NAtFMM=   60 NAOKFM=F Big=F
 Integral buffers will be    131072 words long.
 Raffenetti 2 integral format.
 Two-electron integral symmetry is turned off.
 Nuclear repulsion after empirical dispersion term =       33.0550019151 Hartrees.
 One-electron integrals computed using PRISM.
 NBasis=    38 RedAO= T EigKep=  6.47D-03  NBF=    38
 NBsUse=    38 1.00D-06 EigRej= -1.00D+00 NBFU=    38
 Initial guess from the checkpoint file:  "geometry.chk"
 B after Tr=    -0.000234   -0.000373   -0.000346
         Rot=    1.000000    0.000002   -0.000000    0.000006 Ang=   0.00 deg.
 Keep R1 ints in memory in canonical form, NReq=2308450.
 Requested convergence on RMS density matrix=1.00D-08 within  32 cycles.
 Requested convergence on MAX density matrix=1.00D-06.
 Requested convergence on             energy=1.00D-06.
 No special actions if energy rises.
 SCF Done:  E(RwB97XD) =  -78.5554289567     A.U. after    8 cycles
            NFock=  8  Conv=0.66D-08     -V/T= 2.0052
 QCSCF skips out because SCF is already converged.

 **********************************************************************

            Population analysis using the SCF Density.

 **********************************************************************

 Alpha  occ. eigenvalues --  -10.29082 -10.28773  -0.86353  -0.67243  -0.55993
 Alpha  occ. eigenvalues --   -0.50878  -0.43677  -0.35653
 Alpha virt. eigenvalues --    0.07958   0.14092   0.16495   0.17018   0.24058
 Alpha virt. eigenvalues --    0.37130   0.39384   0.40030   0.46392   0.48869
 Alpha virt. eigenvalues --    0.49399   0.59084   0.66592   0.69183   0.77208
 Alpha virt. eigenvalues --    0.77594   0.84498   0.95039   2.23098   2.29093
 Alpha virt. eigenvalues --    2.33289   2.40824   2.67073   2.81839   2.87739
 Alpha virt. eigenvalues --    2.95203   3.13968   3.32147  23.35286  23.70455
     Molecular Orbital Coefficients:
                           1         2         3         4         5
                           O         O         O         O         O
     Eigenvalues --   -10.29082 -10.28773  -0.86353  -0.67243  -0.55993
   1 1   C  1S          0.07961   0.55774  -0.08860   0.06653  -0.00031
   2        2S          0.06572   0.45901  -0.14007   0.10653  -0.00050
   3        2PX         0.00016  -0.00000   0.02582   0.03602   0.13978
   4        2PY         0.00028   0.00000   0.04580   0.05935  -0.07544
   5        2PZ         0.00000  -0.00000  -0.00069   0.00096   0.00014
   6        3S          0.00121   0.01460   0.37581  -0.29071   0.00138
   7        3PX        -0.00062   0.00040   0.03450   0.05770   0.21902
   8        3PY        -0.00106   0.00072   0.06076   0.09606  -0.11900
   9        3PZ        -0.00001  -0.00002  -0.00114   0.00171   0.00020
  10        4S          0.00379  -0.01454   0.19239  -0.22413   0.00087
  11        4PX         0.00155  -0.00149   0.00482   0.02321   0.11270
  12        4PY         0.00266  -0.00256   0.00845   0.03957  -0.06189
  13        4PZ        -0.00000   0.00004  -0.00039   0.00085   0.00010
  14 2   H  1S         -0.00004  -0.00007   0.05344  -0.08709   0.10503
  15        2S         -0.00030   0.00010   0.05458  -0.10493   0.13261
  16        3S          0.00077   0.00173  -0.00181  -0.01499   0.04275
  17 3   H  1S         -0.00005  -0.00008   0.05455  -0.09040  -0.10775
  18        2S         -0.00030   0.00007   0.05531  -0.10807  -0.13507
  19        3S          0.00079   0.00176  -0.00184  -0.01579  -0.04351
  20 4   C  1S          0.55775  -0.07979  -0.08652  -0.06871  -0.00005
  21        2S          0.45906  -0.06547  -0.13660  -0.11020  -0.00007
  22        2PX        -0.00000  -0.00017  -0.02742   0.03804   0.11558
  23        2PY        -0.00001  -0.00029  -0.04669   0.06721  -0.07207
  24        2PZ        -0.00000   0.00000  -0.00050  -0.00104   0.00013
  25        3S          0.01415  -0.00291   0.36599   0.30127   0.00017
  26        3PX        -0.00023   0.00072  -0.03422   0.06163   0.18085
  27        3PY        -0.00038   0.00124  -0.05825   0.10846  -0.11188
  28        3PZ        -0.00002  -0.00000  -0.00087  -0.00187   0.00020
  29        4S         -0.01251   0.00787   0.18860   0.23913  -0.00091
  30        4PX         0.00094  -0.00186  -0.00545   0.02699   0.10008
  31        4PY         0.00160  -0.00325  -0.00927   0.04658  -0.06138
  32        4PZ         0.00003  -0.00001  -0.00037  -0.00096   0.00011
  33 5   H  1S         -0.00006  -0.00004   0.04922   0.09387  -0.08723
  34        2S         -0.00001  -0.00031   0.05050   0.11206  -0.10987
  35        3S          0.00178   0.00021  -0.00103   0.01679  -0.03513
  36 6   H  1S         -0.00005  -0.00004   0.04841   0.09242   0.08315
  37        2S         -0.00001  -0.00032   0.05002   0.11079   0.10512
  38        3S          0.00175   0.00020  -0.00105   0.01638   0.03393
                           6         7         8         9        10
                           O         O         O         V         V
     Eigenvalues --    -0.50878  -0.43677  -0.35653   0.07958   0.14092
   1 1   C  1S         -0.00299   0.00017  -0.00052   0.00136  -0.03257
   2        2S         -0.00442   0.00030  -0.00084   0.00226  -0.05223
   3        2PX         0.09469  -0.10871  -0.00170   0.00073  -0.03155
   4        2PY         0.16850   0.06472  -0.00281   0.00113  -0.06369
   5        2PZ         0.00249  -0.00003   0.17942  -0.18914  -0.00116
   6        3S          0.01782  -0.00068   0.00246  -0.00685   0.11318
   7        3PX         0.13750  -0.17323  -0.00241   0.00111  -0.03748
   8        3PY         0.24612   0.10342  -0.00396   0.00168  -0.07899
   9        3PZ         0.00395  -0.00004   0.28872  -0.27829  -0.00188
  10        4S         -0.05513  -0.00298   0.00348  -0.00771   1.20975
  11        4PX         0.06923  -0.10779  -0.00199   0.00631  -0.18947
  12        4PY         0.12495   0.06501  -0.00328   0.01021  -0.37311
  13        4PZ         0.00225  -0.00000   0.26744  -0.69441  -0.00682
  14 2   H  1S         -0.08079  -0.11325   0.00006   0.00213  -0.01663
  15        2S         -0.11198  -0.17416   0.00099   0.00334  -0.04678
  16        3S         -0.04194  -0.08020   0.00059   0.00873  -0.81546
  17 3   H  1S         -0.07950   0.11080   0.00004   0.00215  -0.01332
  18        2S         -0.10959   0.16973   0.00097   0.00342  -0.03882
  19        3S         -0.04072   0.07799   0.00058   0.00865  -0.76003
  20 4   C  1S         -0.00906  -0.00045  -0.00039  -0.00130  -0.03708
  21        2S         -0.01422  -0.00074  -0.00063  -0.00216  -0.05957
  22        2PX        -0.09807   0.12681   0.00166   0.00083   0.04067
  23        2PY        -0.16175  -0.07503   0.00309   0.00161   0.06210
  24        2PZ         0.00273   0.00013   0.17912   0.18972  -0.00156
  25        3S          0.04556   0.00216   0.00187   0.00647   0.13196
  26        3PX        -0.14539   0.20285   0.00231   0.00129   0.04960
  27        3PY        -0.23833  -0.11946   0.00434   0.00248   0.07349
  28        3PZ         0.00431   0.00019   0.28650   0.27803  -0.00236
  29        4S         -0.02557   0.00253   0.00325   0.00731   1.25672
  30        4PX        -0.07620   0.13057   0.00176   0.00642   0.26747
  31        4PY        -0.12374  -0.07611   0.00340   0.01183   0.42310
  32        4PZ         0.00250   0.00012   0.26775   0.69593  -0.00928
  33 5   H  1S         -0.07410  -0.12631   0.00012  -0.00197  -0.01265
  34        2S         -0.10119  -0.19714   0.00106  -0.00331  -0.03890
  35        3S         -0.03786  -0.09272   0.00059  -0.00867  -0.83953
  36 6   H  1S         -0.07955   0.12578   0.00009  -0.00198  -0.01575
  37        2S         -0.10901   0.19705   0.00103  -0.00332  -0.04681
  38        3S         -0.04095   0.09265   0.00057  -0.00876  -0.89557
                          11        12        13        14        15
                           V         V         V         V         V
     Eigenvalues --     0.16495   0.17018   0.24058   0.37130   0.39384
   1 1   C  1S          0.00061  -0.04616   0.00000   0.00875   0.00063
   2        2S          0.00098  -0.07523  -0.00000   0.01164   0.00098
   3        2PX         0.09569  -0.02079   0.09994  -0.03538  -0.02232
   4        2PY        -0.05333  -0.03662  -0.05730  -0.06426   0.00964
   5        2PZ         0.00006  -0.00332   0.00004  -0.00229  -0.00009
   6        3S         -0.00203   0.17032   0.00022   0.03571  -0.00060
   7        3PX         0.13695  -0.01238   0.10488  -0.04289  -0.10410
   8        3PY        -0.07697  -0.02309  -0.06089  -0.08168   0.05071
   9        3PZ         0.00008  -0.00461   0.00002  -0.00477  -0.00018
  10        4S         -0.03444   1.46190  -0.01120  -2.43200  -0.12542
  11        4PX         0.58485  -0.12419   1.17678  -1.52208  -0.53281
  12        4PY        -0.31841  -0.20539  -0.67040  -2.65455   0.17173
  13        4PZ         0.00041  -0.02171   0.00070  -0.02032  -0.00121
  14 2   H  1S         -0.02887  -0.02533   0.01486  -0.06077   0.07390
  15        2S         -0.08204  -0.01701  -0.02339  -0.68120   0.75206
  16        3S         -1.04523  -1.01185  -1.55703  -0.28768  -0.28735
  17 3   H  1S          0.02793  -0.02535  -0.01680  -0.05476  -0.07572
  18        2S          0.08103  -0.02107   0.01793  -0.63524  -0.76426
  19        3S          1.08810  -1.03650   1.57869  -0.35129   0.23264
  20 4   C  1S          0.00146   0.04178  -0.00004  -0.02012  -0.00004
  21        2S          0.00234   0.06800  -0.00008  -0.03323   0.00006
  22        2PX         0.10210  -0.02364  -0.10026  -0.04060  -0.03190
  23        2PY        -0.06216  -0.03698   0.05746  -0.07187   0.01525
  24        2PZ         0.00014   0.00319  -0.00004   0.00162   0.00011
  25        3S         -0.00479  -0.15066   0.00030   0.04831  -0.00330
  26        3PX         0.14658  -0.01928  -0.11461  -0.09387  -0.10957
  27        3PY        -0.08801  -0.02712   0.06476  -0.16815   0.05941
  28        3PZ         0.00020   0.00439  -0.00003   0.00188   0.00019
  29        4S         -0.06274  -1.31823   0.00397   3.19734   0.12732
  30        4PX         0.53638  -0.11732  -1.11765  -1.10667  -0.53346
  31        4PY        -0.33151  -0.19137   0.65012  -1.93372   0.14956
  32        4PZ         0.00084   0.02074  -0.00068   0.01753   0.00088
  33 5   H  1S          0.03162   0.02468   0.00477   0.00612  -0.08287
  34        2S          0.06634   0.02209  -0.03797   0.01705  -0.82048
  35        3S          1.08339   0.91668  -1.51338   0.44412   0.49316
  36 6   H  1S         -0.03120   0.02576  -0.00370   0.00227   0.08764
  37        2S         -0.06622   0.02123   0.03852  -0.01630   0.88648
  38        3S         -0.99864   0.93729   1.50347   0.45596  -0.47819
                          16        17        18        19        20
                           V         V         V         V         V
     Eigenvalues --     0.40030   0.46392   0.48869   0.49399   0.59084
   1 1   C  1S         -0.01901   0.01456  -0.04538  -0.00042  -0.00026
   2        2S         -0.03313   0.03237  -0.07538  -0.00056  -0.00047
   3        2PX         0.02927  -0.06167   0.00897   0.00063   0.00102
   4        2PY         0.05299  -0.10757   0.01121   0.00081   0.00149
   5        2PZ         0.00028  -0.00018   0.00342  -0.15177  -0.19247
   6        3S          0.07029  -0.33913   0.07063  -0.00451  -0.00052
   7        3PX         0.10687  -0.23828  -0.04774  -0.00020   0.00340
   8        3PY         0.19783  -0.41415  -0.09145  -0.00126   0.00493
   9        3PZ        -0.00164  -0.00204   0.01509  -0.62818  -0.68506
  10        4S          2.87770   0.00418   3.09376   0.06247   0.03472
  11        4PX         0.34882   0.20443   0.83178   0.01935   0.01032
  12        4PY         0.62437   0.37760   1.43707   0.03467   0.01913
  13        4PZ        -0.00063   0.00190  -0.04852   0.68585   1.24059
  14 2   H  1S         -0.02521  -0.02967  -0.07679  -0.00179  -0.00083
  15        2S         -0.52274  -0.28037  -0.91958  -0.01823  -0.00634
  16        3S          0.33983   0.03312   0.63818   0.01887   0.01155
  17 3   H  1S         -0.03041  -0.03119  -0.07529  -0.00175  -0.00081
  18        2S         -0.56573  -0.29694  -0.89595  -0.01789  -0.00597
  19        3S          0.34547   0.03409   0.61406   0.01838   0.01132
  20 4   C  1S          0.00068  -0.00537   0.05110   0.00182   0.00036
  21        2S         -0.00245  -0.00153   0.08943   0.00329   0.00067
  22        2PX         0.01122   0.05325   0.03060   0.00027   0.00104
  23        2PY         0.02067   0.09152   0.05410   0.00034   0.00203
  24        2PZ        -0.00194  -0.00098   0.00343  -0.15305   0.19209
  25        3S          0.07655  -0.27262  -0.25181  -0.01242  -0.00144
  26        3PX        -0.03763   0.23209   0.07100   0.00072   0.00363
  27        3PY        -0.05809   0.40237   0.12296   0.00060   0.00709
  28        3PZ        -0.00530  -0.00388   0.01302  -0.63246   0.68159
  29        4S         -1.09677   0.88670  -3.04666  -0.07211  -0.02975
  30        4PX         1.34162  -0.35866   0.58005   0.01034   0.01090
  31        4PY         2.39123  -0.60638   0.99248   0.01785   0.01757
  32        4PZ        -0.01774  -0.00904   0.01272   0.69364  -1.23625
  33 5   H  1S         -0.04513  -0.06755   0.06146   0.00152   0.00078
  34        2S         -0.83032  -0.69455   0.78030   0.02197   0.00285
  35        3S         -0.23399   0.30178  -0.53326  -0.00803  -0.01127
  36 6   H  1S         -0.03996  -0.06693   0.06107   0.00152   0.00078
  37        2S         -0.76736  -0.68646   0.77435   0.02170   0.00286
  38        3S         -0.24757   0.31572  -0.54334  -0.00844  -0.01132
                          21        22        23        24        25
                           V         V         V         V         V
     Eigenvalues --     0.66592   0.69183   0.77208   0.77594   0.84498
   1 1   C  1S          0.00066  -0.00070   0.04182   0.07865   0.00099
   2        2S          0.00139  -0.00149   0.08798   0.16759   0.00228
   3        2PX        -0.12615   0.20268  -0.04005   0.10953  -0.00706
   4        2PY         0.07338  -0.12109  -0.06787   0.17890   0.01217
   5        2PZ        -0.00007   0.00012   0.00005   0.00239   0.00005
   6        3S         -0.01157   0.01617  -0.55442  -1.42299  -0.02468
   7        3PX        -0.59333   0.71983  -0.22929   0.41681  -0.21682
   8        3PY         0.34184  -0.42984  -0.38933   0.67010   0.15679
   9        3PZ        -0.00036   0.00046   0.00035   0.00834   0.00013
  10        4S          0.02012  -0.05334   0.41368   2.48952   0.00887
  11        4PX         1.05806  -0.84087   0.25225  -0.72951   4.56456
  12        4PY        -0.60860   0.51627   0.33376  -0.98180  -2.59489
  13        4PZ         0.00050   0.00026   0.00776  -0.02612   0.00307
  14 2   H  1S          0.02194  -0.05963   0.00591   0.03371  -0.02830
  15        2S          0.11810  -0.64233   0.06497   0.10896  -1.60502
  16        3S         -1.01130   1.15079   0.03984  -1.11136  -1.24592
  17 3   H  1S         -0.02128   0.05893   0.00593   0.03428   0.03177
  18        2S         -0.13041   0.66651   0.09089   0.07799   1.64189
  19        3S          1.00420  -1.11124   0.06946  -1.24622   1.24484
  20 4   C  1S          0.00090  -0.00043   0.07936   0.04185   0.00077
  21        2S          0.00183  -0.00084   0.16906   0.08832   0.00154
  22        2PX        -0.15737  -0.17954  -0.10359   0.04047   0.00856
  23        2PY         0.09047   0.10022  -0.18533   0.07457   0.00181
  24        2PZ        -0.00008  -0.00012   0.00261  -0.00025  -0.00006
  25        3S         -0.01343   0.00168  -1.43278  -0.56822  -0.00704
  26        3PX        -0.70324  -0.60255  -0.38717   0.23365   0.23113
  27        3PY         0.40659   0.33335  -0.69756   0.42734  -0.09977
  28        3PZ        -0.00038  -0.00039   0.00927  -0.00111  -0.00010
  29        4S          0.00936   0.02218   2.63667   0.49654  -0.02403
  30        4PX         1.31129   0.74549   0.55755  -0.19335  -4.13137
  31        4PY        -0.75426  -0.40308   1.09561  -0.56263   2.37158
  32        4PZ         0.00070  -0.00017  -0.02737   0.00949  -0.00260
  33 5   H  1S         -0.02678  -0.05391   0.03396   0.00739  -0.02328
  34        2S         -0.15778  -0.53063   0.06261   0.08117  -1.40098
  35        3S          1.14342   0.95082  -1.18133   0.15430  -1.08060
  36 6   H  1S          0.02741   0.05383   0.03359   0.00784   0.02311
  37        2S          0.15316   0.50925   0.07344   0.02672   1.39031
  38        3S         -1.14626  -0.97016  -1.11574   0.09072   1.09090
                          26        27        28        29        30
                           V         V         V         V         V
     Eigenvalues --     0.95039   2.23098   2.29093   2.33289   2.40824
   1 1   C  1S          0.09606  -0.01025  -0.01492   0.00033  -0.00042
   2        2S          0.19962   0.00138  -0.01502   0.00070  -0.00052
   3        2PX        -0.09066  -0.07241  -0.13066   0.34793  -0.41129
   4        2PY        -0.15701  -0.13701  -0.22988  -0.19732   0.23163
   5        2PZ         0.00017  -0.00663  -0.00903   0.00015  -0.00045
   6        3S         -1.54829  -0.18688  -0.03855  -0.00070  -0.00414
   7        3PX        -0.23043   0.06493   0.20569  -0.41375   0.57283
   8        3PY        -0.39261   0.13639   0.37332   0.23651  -0.32391
   9        3PZ        -0.00107   0.00659   0.01118  -0.00012   0.00053
  10        4S          5.71196  -0.10735  -0.88524   0.00021  -0.01195
  11        4PX         1.19931   0.05486  -0.18816  -0.06527   1.00809
  12        4PY         1.98676   0.07559  -0.35696   0.02886  -0.55638
  13        4PZ        -0.01021   0.00148   0.00428  -0.00014   0.00098
  14 2   H  1S          0.01492  -0.70364  -0.80345  -0.69811   0.65700
  15        2S         -0.28518   0.99859   1.20154   1.08424  -1.48017
  16        3S         -0.10451  -0.29560  -0.47793  -0.45609   0.35779
  17 3   H  1S          0.01531  -0.69250  -0.80070   0.69325  -0.67747
  18        2S         -0.25693   0.98291   1.20226  -1.07986   1.52225
  19        3S         -0.08459  -0.27402  -0.46081   0.44740  -0.35013
  20 4   C  1S         -0.09373  -0.01026   0.01206   0.00036   0.00021
  21        2S         -0.19434   0.00013   0.01192   0.00044   0.00044
  22        2PX        -0.09194   0.13946  -0.12122   0.30382   0.41533
  23        2PY        -0.15874   0.24262  -0.20287  -0.17620  -0.24001
  24        2PZ         0.00022  -0.00733   0.00878   0.00025   0.00024
  25        3S          1.50302  -0.16635   0.01862   0.00090  -0.00065
  26        3PX        -0.22401  -0.17960   0.20870  -0.38201  -0.58177
  27        3PY        -0.39132  -0.30943   0.34479   0.21951   0.33725
  28        3PZ         0.00192   0.00795  -0.01123  -0.00028  -0.00035
  29        4S         -5.68080  -0.17215   0.88466   0.01287  -0.00452
  30        4PX         1.09884  -0.01347  -0.19608   0.11961  -0.85424
  31        4PY         1.97183  -0.02755  -0.31304  -0.06809   0.50290
  32        4PZ         0.00547   0.00233  -0.00299   0.00001  -0.00081
  33 5   H  1S         -0.01814  -0.79347   0.66883   0.71144   0.68067
  34        2S          0.29287   1.15417  -1.02281  -1.02933  -1.44758
  35        3S          0.06145  -0.36218   0.39733   0.51940   0.42605
  36 6   H  1S         -0.01805  -0.78888   0.68707  -0.69816  -0.68101
  37        2S          0.31419   1.14587  -1.04442   1.00771   1.44220
  38        3S          0.07267  -0.36168   0.42122  -0.51530  -0.43273
                          31        32        33        34        35
                           V         V         V         V         V
     Eigenvalues --     2.67073   2.81839   2.87739   2.95203   3.13968
   1 1   C  1S          0.00025   0.00128  -0.01343  -0.00004  -0.01010
   2        2S          0.00020   0.00365  -0.04379  -0.00034  -0.03050
   3        2PX         0.00250   0.03706  -0.48064  -0.71897   0.44189
   4        2PY         0.00340   0.06504  -0.87061   0.40341   0.77019
   5        2PZ        -0.92380  -0.93832  -0.06985  -0.00079   0.00280
   6        3S         -0.00080  -0.02991   0.38132   0.00467   0.25366
   7        3PX        -0.00177  -0.06382   0.84460   0.86873  -0.41916
   8        3PY        -0.00222  -0.11123   1.50289  -0.47398  -0.72866
   9        3PZ         0.93897   1.14665   0.08747   0.00104  -0.00371
  10        4S          0.00644   0.07044  -0.87233  -0.01353  -0.49709
  11        4PX        -0.00111   0.05095  -0.71668  -0.66702   0.20562
  12        4PY        -0.00169   0.08935  -1.27584   0.35334   0.35334
  13        4PZ        -0.33763  -0.62164  -0.05515  -0.00082   0.00210
  14 2   H  1S          0.00600  -0.00929   0.25553  -0.36925  -0.20952
  15        2S         -0.00674   0.00528  -0.20746   0.38119   0.15814
  16        3S         -0.00161   0.02109  -0.30600   0.27994   0.05070
  17 3   H  1S          0.00610  -0.00906   0.24658   0.37045  -0.21026
  18        2S         -0.00699   0.00461  -0.19192  -0.37831   0.15830
  19        3S         -0.00183   0.02108  -0.30447  -0.29621   0.05973
  20 4   C  1S          0.00025  -0.00125   0.01388   0.00046  -0.00716
  21        2S          0.00024  -0.00389   0.04864   0.00109  -0.02215
  22        2PX        -0.00368   0.03222  -0.40415  -0.81552  -0.50865
  23        2PY        -0.00716   0.05758  -0.71704   0.45089  -0.90364
  24        2PZ        -0.92571   0.93604   0.07205   0.00003   0.00711
  25        3S         -0.00141   0.03338  -0.43632  -0.00837   0.18989
  26        3PX         0.00387  -0.05904   0.76754   0.97224   0.55072
  27        3PY         0.00742  -0.10450   1.35168  -0.52966   0.98618
  28        3PZ         0.94171  -1.14446  -0.09087  -0.00005  -0.00893
  29        4S          0.00776  -0.07225   0.91013   0.02519  -0.36074
  30        4PX        -0.00044   0.05068  -0.71095  -0.70497  -0.34007
  31        4PY        -0.00131   0.08870  -1.24116   0.37893  -0.61446
  32        4PZ        -0.33908   0.62054   0.05799   0.00002   0.00703
  33 5   H  1S          0.00567   0.01418  -0.29686   0.42432  -0.26965
  34        2S         -0.00704  -0.01173   0.27293  -0.43610   0.21348
  35        3S         -0.00055  -0.01893   0.27946  -0.23988   0.13231
  36 6   H  1S          0.00574   0.01418  -0.29245  -0.43555  -0.25693
  37        2S         -0.00729  -0.01203   0.27240   0.44631   0.20248
  38        3S         -0.00042  -0.01830   0.26842   0.24311   0.12424
                          36        37        38
                           V         V         V
     Eigenvalues --     3.32147  23.35286  23.70455
   1 1   C  1S         -0.00030  -1.40933  -1.45683
   2        2S         -0.00043   1.50304   1.57529
   3        2PX         0.79503  -0.00667   0.01212
   4        2PY        -0.44324  -0.01097   0.02120
   5        2PZ         0.00066  -0.00027  -0.00014
   6        3S         -0.00077  -0.29524  -0.40006
   7        3PX        -1.13725   0.02425  -0.05532
   8        3PY         0.63015   0.04040  -0.09616
   9        3PZ        -0.00100   0.00077   0.00042
  10        4S         -0.00220   0.27322   0.76726
  11        4PX         2.00653  -0.02617   0.13307
  12        4PY        -1.11062  -0.04460   0.22846
  13        4PZ         0.00172  -0.00129  -0.00163
  14 2   H  1S          0.57351   0.01359   0.00794
  15        2S         -0.89529   0.00734  -0.01521
  16        3S         -0.47596  -0.08475  -0.04033
  17 3   H  1S         -0.58367   0.01511   0.00885
  18        2S          0.91017   0.00721  -0.01499
  19        3S          0.50065  -0.08671  -0.04015
  20 4   C  1S         -0.00001  -1.45207   1.41402
  21        2S         -0.00030   1.54876  -1.52913
  22        2PX        -0.69885   0.00615   0.01270
  23        2PY         0.40110   0.01094   0.02172
  24        2PZ        -0.00053  -0.00027   0.00006
  25        3S          0.00490  -0.30422   0.38860
  26        3PX         0.99514  -0.02226  -0.05626
  27        3PY        -0.57957  -0.03934  -0.09687
  28        3PZ         0.00080   0.00079  -0.00012
  29        4S         -0.02275   0.28113  -0.75590
  30        4PX        -1.76287   0.02317   0.12995
  31        4PY         1.03668   0.04195   0.22579
  32        4PZ        -0.00142  -0.00127   0.00099
  33 5   H  1S          0.47457   0.01290  -0.00413
  34        2S         -0.74422   0.00846   0.01326
  35        3S         -0.42558  -0.08260   0.03693
  36 6   H  1S         -0.47109   0.01188  -0.00338
  37        2S          0.74036   0.00928   0.01317
  38        3S          0.41647  -0.08115   0.03682
     Density Matrix:
                           1         2         3         4         5
   1 1   C  1S          0.65939
   2        2S          0.56150   0.49200
   3        2PX        -0.00045  -0.00058   0.08457
   4        2PY        -0.00111  -0.00152   0.00340   0.08780
   5        2PZ         0.00004   0.00007  -0.00006  -0.00014   0.06440
   6        3S         -0.08891  -0.15382   0.00236   0.00561  -0.00010
   7        3PX         0.00090   0.00138   0.13088   0.00089  -0.00005
   8        3PY         0.00129   0.00198   0.00093   0.13128  -0.00013
   9        3PZ         0.00009   0.00014  -0.00011  -0.00023   0.10363
  10        4S         -0.07920  -0.11402  -0.01577  -0.02809   0.00028
  11        4PX         0.00030   0.00164   0.06998  -0.00442  -0.00030
  12        4PY         0.00066   0.00307  -0.00447   0.06535  -0.00051
  13        4PZ        -0.00006  -0.00014  -0.00041  -0.00069   0.09598
  14 2   H  1S         -0.02076  -0.03305   0.03517  -0.06317  -0.00059
  15        2S         -0.02305  -0.03685   0.04898  -0.08775  -0.00043
  16        3S          0.00058  -0.00072   0.02027  -0.03291  -0.00001
  17 3   H  1S         -0.02121  -0.03374  -0.07296  -0.00193  -0.00067
  18        2S         -0.02335  -0.03729  -0.10034  -0.00235  -0.00053
  19        3S          0.00061  -0.00068  -0.03806   0.00089  -0.00004
  20 4   C  1S          0.00604   0.00973  -0.01087  -0.01887  -0.00020
  21        2S          0.00969   0.01515  -0.01739  -0.03021  -0.00032
  22        2PX         0.01029   0.01645  -0.01251  -0.03208   0.00024
  23        2PY         0.01788   0.02858  -0.03205  -0.04966   0.00048
  24        2PZ        -0.00025  -0.00041  -0.00018  -0.00026   0.06429
  25        3S         -0.02604  -0.03956   0.04881   0.08489   0.00098
  26        3PX         0.01585   0.02456  -0.01841  -0.04586   0.00031
  27        3PY         0.02753   0.04265  -0.04565  -0.07139   0.00064
  28        3PZ        -0.00043  -0.00068  -0.00032  -0.00046   0.10283
  29        4S          0.00534   0.00392   0.02130   0.03748   0.00124
  30        4PX         0.00307   0.00634  -0.01318  -0.02118   0.00033
  31        4PY         0.00522   0.01085  -0.02118  -0.03763   0.00069
  32        4PZ        -0.00036  -0.00058  -0.00052  -0.00081   0.09609
  33 5   H  1S          0.00416   0.00683  -0.00165  -0.01251  -0.00023
  34        2S          0.00622   0.01033   0.00366  -0.02512   0.00001
  35        3S          0.00315   0.00461   0.00433  -0.01756   0.00005
  36 6   H  1S          0.00413   0.00678  -0.01001  -0.00767  -0.00024
  37        2S          0.00617   0.01026  -0.02354  -0.00937  -0.00001
  38        3S          0.00312   0.00458  -0.01729  -0.00508   0.00004
                           6         7         8         9        10
   6        3S          0.45257
   7        3PX        -0.00188   0.20282
   8        3PY        -0.00189  -0.00498   0.19674
   9        3PZ        -0.00029  -0.00009  -0.00021   0.16676
  10        4S          0.27257  -0.02637  -0.04770   0.00037   0.18108
  11        4PX        -0.00700   0.10876  -0.00998  -0.00048  -0.01530
  12        4PY        -0.01255  -0.01011   0.09833  -0.00082  -0.02869
  13        4PZ         0.00061  -0.00055  -0.00092   0.15445   0.00108
  14 2   H  1S          0.08836   0.05667  -0.09843  -0.00097   0.06937
  15        2S          0.09865   0.07929  -0.13624  -0.00073   0.08165
  16        3S          0.00614   0.03312  -0.05051  -0.00001   0.01116
  17 3   H  1S          0.09028  -0.11412  -0.00131  -0.00109   0.06944
  18        2S          0.09990  -0.15676  -0.00074  -0.00087   0.08057
  19        3S          0.00617  -0.05923   0.00318  -0.00006   0.01028
  20 4   C  1S         -0.02639  -0.01701  -0.02955  -0.00034   0.00506
  21        2S         -0.03991  -0.02644  -0.04597  -0.00055   0.00379
  22        2PX        -0.04607  -0.01779  -0.04559   0.00041  -0.01733
  23        2PY        -0.08002  -0.04554  -0.07077   0.00082  -0.02991
  24        2PZ         0.00121  -0.00025  -0.00034   0.10345   0.00122
  25        3S          0.10149   0.07184   0.12514   0.00163   0.00095
  26        3PX        -0.06648  -0.02630  -0.06498   0.00053  -0.02567
  27        3PY        -0.11542  -0.06468  -0.10167   0.00109  -0.04424
  28        3PZ         0.00200  -0.00045  -0.00062   0.16547   0.00203
  29        4S          0.00202   0.03230   0.05703   0.00206  -0.03212
  30        4PX        -0.02244  -0.01962  -0.02982   0.00055  -0.00632
  31        4PY        -0.03860  -0.02983  -0.05426   0.00114  -0.01033
  32        4PZ         0.00169  -0.00073  -0.00112   0.15463   0.00188
  33 5   H  1S         -0.02030  -0.00060  -0.01783  -0.00033  -0.01437
  34        2S         -0.03085   0.00876  -0.03678   0.00005  -0.01865
  35        3S         -0.01184   0.00819  -0.02636   0.00009  -0.00324
  36 6   H  1S         -0.02013  -0.01502  -0.00929  -0.00035  -0.01464
  37        2S         -0.03069  -0.03597  -0.01057   0.00002  -0.01937
  38        3S         -0.01179  -0.02668  -0.00606   0.00007  -0.00371
                          11        12        13        14        15
  11        4PX         0.05936
  12        4PY        -0.00872   0.05066
  13        4PZ        -0.00070  -0.00115   0.14306
  14 2   H  1S          0.03337  -0.05390  -0.00050   0.08165
  15        2S          0.04758  -0.07443  -0.00017   0.10951   0.14889
  16        3S          0.02040  -0.02742   0.00011   0.03634   0.05161
  17 3   H  1S         -0.06285   0.00164  -0.00056  -0.01331  -0.02444
  18        2S         -0.08669   0.00377  -0.00023  -0.02437  -0.04168
  19        3S         -0.03301   0.00406   0.00009  -0.01767  -0.02647
  20 4   C  1S         -0.00323  -0.00584  -0.00031   0.00424   0.00679
  21        2S         -0.00664  -0.01189  -0.00049   0.00702   0.01135
  22        2PX        -0.01337  -0.01979   0.00055   0.00185  -0.00253
  23        2PY        -0.01981  -0.03674   0.00106   0.01129   0.02405
  24        2PZ        -0.00039  -0.00059   0.09582  -0.00029  -0.00010
  25        3S          0.02344   0.04175   0.00143  -0.02118  -0.03419
  26        3PX        -0.02058  -0.02807   0.00075   0.00114  -0.00679
  27        3PY        -0.02801  -0.05368   0.00146   0.01695   0.03621
  28        3PZ        -0.00064  -0.00097   0.15326  -0.00043  -0.00012
  29        4S          0.00855   0.01603   0.00188  -0.01813  -0.02498
  30        4PX        -0.01494  -0.01241   0.00067  -0.00152  -0.00812
  31        4PY        -0.01249  -0.02969   0.00133   0.01523   0.02716
  32        4PZ        -0.00077  -0.00121   0.14323  -0.00025   0.00012
  33 5   H  1S          0.00214  -0.01588  -0.00016   0.01117   0.02313
  34        2S          0.00941  -0.02760   0.00024   0.02380   0.04419
  35        3S          0.00760  -0.01585   0.00017   0.01671   0.02782
  36 6   H  1S         -0.01463  -0.00569  -0.00017  -0.00909  -0.01805
  37        2S         -0.02825  -0.00503   0.00023  -0.01889  -0.03413
  38        3S         -0.01724  -0.00111   0.00015  -0.01020  -0.01765
                          16        17        18        19        20
  16        3S          0.02050
  17 3   H  1S         -0.01780   0.08271
  18        2S         -0.02654   0.10971   0.14760
  19        3S         -0.01233   0.03579   0.05036   0.01978
  20 4   C  1S          0.00378   0.00430   0.00678   0.00376   0.65948
  21        2S          0.00558   0.00710   0.01130   0.00553   0.56157
  22        2PX        -0.00327   0.00892   0.02207   0.01661   0.00119
  23        2PY         0.01760   0.00738   0.00976   0.00579   0.00189
  24        2PZ         0.00001  -0.00029  -0.00007   0.00003   0.00004
  25        3S         -0.01450  -0.02135  -0.03394  -0.01423  -0.08932
  26        3PX        -0.00660   0.01422   0.03477   0.02593  -0.00049
  27        3PY         0.02656   0.00956   0.01203   0.00731  -0.00102
  28        3PZ         0.00002  -0.00042  -0.00007   0.00006   0.00009
  29        4S         -0.00618  -0.01784  -0.02410  -0.00568  -0.08025
  30        4PX        -0.00679   0.01401   0.02755   0.01703  -0.00017
  31        4PY         0.01597   0.00660   0.00678   0.00210  -0.00018
  32        4PZ         0.00013  -0.00024   0.00015   0.00015  -0.00002
  33 5   H  1S          0.01603  -0.00902  -0.01792  -0.00922  -0.02001
  34        2S          0.02717  -0.01868  -0.03370  -0.01667  -0.02208
  35        3S          0.01455  -0.01011  -0.01743  -0.00885   0.00059
  36 6   H  1S         -0.00934   0.01117   0.02305   0.01576  -0.01980
  37        2S         -0.01698   0.02377   0.04397   0.02678  -0.02206
  38        3S         -0.00901   0.01665   0.02760   0.01432   0.00051
                          21        22        23        24        25
  21        2S          0.49206
  22        2PX         0.00171   0.08252
  23        2PY         0.00269   0.00372   0.08738
  24        2PZ         0.00006   0.00007   0.00009   0.06419
  25        3S         -0.15432  -0.00549  -0.00875  -0.00007   0.45401
  26        3PX        -0.00074   0.12834   0.00202   0.00004  -0.00023
  27        3PY        -0.00154   0.00205   0.13119   0.00003   0.00044
  28        3PZ         0.00015   0.00011   0.00015   0.10266  -0.00030
  29        4S         -0.11603   0.01330   0.02257   0.00034   0.27943
  30        4PX        -0.00140   0.07355  -0.00522   0.00022   0.00597
  31        4PY        -0.00220  -0.00516   0.06745   0.00042   0.00974
  32        4PZ        -0.00007   0.00040   0.00072   0.09594   0.00038
  33 5   H  1S         -0.03188  -0.03322   0.06352  -0.00066   0.08526
  34        2S         -0.03528  -0.04979   0.08851  -0.00053   0.09438
  35        3S         -0.00060  -0.02288   0.03358  -0.00006   0.00555
  36 6   H  1S         -0.03157   0.07110   0.00278  -0.00059   0.08445
  37        2S         -0.03526   0.10135   0.00077  -0.00043   0.09432
  38        3S         -0.00072   0.04068  -0.00324  -0.00002   0.00583
                          26        27        28        29        30
  26        3PX         0.19993
  27        3PY        -0.00225   0.19753
  28        3PZ         0.00005   0.00004   0.16421
  29        4S          0.02473   0.04174   0.00042   0.18728
  30        4PX         0.11503  -0.01077   0.00035   0.01518   0.06727
  31        4PY        -0.01071   0.10211   0.00067   0.02477  -0.01066
  32        4PZ         0.00050   0.00092   0.15345   0.00101   0.00056
  33 5   H  1S         -0.05305   0.09965  -0.00109   0.06677  -0.03462
  34        2S         -0.07994   0.13835  -0.00089   0.07702  -0.05255
  35        3S         -0.03717   0.05182  -0.00010   0.00914  -0.02455
  36 6   H  1S          0.11232   0.00367  -0.00098   0.06702   0.06607
  37        2S          0.15990  -0.00043  -0.00073   0.07823   0.09455
  38        3S          0.06386  -0.00653  -0.00004   0.00990   0.03813
                          31        32        33        34        35
  31        4PY         0.05431
  32        4PZ         0.00109   0.14340
  33 5   H  1S          0.05611  -0.00057   0.08058
  34        2S          0.07805  -0.00026   0.10998   0.15257
  35        3S          0.02939   0.00007   0.03821   0.05560   0.02310
  36 6   H  1S         -0.00195  -0.00051  -0.01238  -0.02616  -0.02014
  37        2S         -0.00652  -0.00018  -0.02624  -0.04885  -0.03205
  38        3S         -0.00658   0.00010  -0.02028  -0.03213  -0.01591
                          36        37        38
  36 6   H  1S          0.07990
  37        2S          0.10972   0.15307
  38        3S          0.03839   0.05610   0.02337
    Full Mulliken population analysis:
                           1         2         3         4         5
   1 1   C  1S          0.65939
   2        2S          0.49325   0.49200
   3        2PX         0.00000   0.00000   0.08457
   4        2PY         0.00000   0.00000   0.00000   0.08780
   5        2PZ         0.00000   0.00000   0.00000   0.00000   0.06440
   6        3S         -0.02927  -0.06442   0.00000   0.00000   0.00000
   7        3PX         0.00000   0.00000   0.08234   0.00000   0.00000
   8        3PY         0.00000   0.00000   0.00000   0.08259   0.00000
   9        3PZ         0.00000   0.00000   0.00000   0.00000   0.06520
  10        4S         -0.01218  -0.02134   0.00000   0.00000   0.00000
  11        4PX         0.00000   0.00000   0.01541   0.00000   0.00000
  12        4PY         0.00000   0.00000   0.00000   0.01439   0.00000
  13        4PZ         0.00000   0.00000   0.00000   0.00000   0.02114
  14 2   H  1S         -0.00024  -0.00034   0.00190   0.00569   0.00000
  15        2S         -0.00170  -0.00325   0.00441   0.01317   0.00000
  16        3S          0.00005  -0.00007   0.00069   0.00188   0.00000
  17 3   H  1S         -0.00026  -0.00038   0.00802  -0.00000   0.00000
  18        2S         -0.00176  -0.00337   0.01777  -0.00000   0.00000
  19        3S          0.00005  -0.00007   0.00253   0.00000   0.00000
  20 4   C  1S          0.00000   0.00000  -0.00002  -0.00006   0.00000
  21        2S          0.00000  -0.00000  -0.00002  -0.00005   0.00000
  22        2PX        -0.00002  -0.00002   0.00011   0.00084   0.00000
  23        2PY        -0.00006  -0.00005   0.00084   0.00194   0.00000
  24        2PZ        -0.00000  -0.00000  -0.00000  -0.00000   0.00041
  25        3S         -0.00058  -0.00098   0.00253   0.00763  -0.00000
  26        3PX        -0.00053  -0.00098   0.00020   0.00552   0.00000
  27        3PY        -0.00160  -0.00294   0.00550   0.01068   0.00000
  28        3PZ        -0.00000  -0.00000  -0.00000  -0.00000   0.00606
  29        4S          0.00034   0.00030   0.00097   0.00294  -0.00000
  30        4PX        -0.00018  -0.00045  -0.00071   0.00147   0.00000
  31        4PY        -0.00053  -0.00133   0.00147   0.00099   0.00000
  32        4PZ        -0.00000  -0.00000  -0.00000  -0.00000   0.00902
  33 5   H  1S          0.00000   0.00000  -0.00000  -0.00000   0.00000
  34        2S          0.00001   0.00002   0.00000  -0.00031  -0.00000
  35        3S          0.00007   0.00013   0.00001  -0.00070  -0.00000
  36 6   H  1S          0.00000   0.00000  -0.00000  -0.00000   0.00000
  37        2S          0.00001   0.00002  -0.00023  -0.00006   0.00000
  38        3S          0.00007   0.00012  -0.00056  -0.00011  -0.00000
                           6         7         8         9        10
   6        3S          0.45257
   7        3PX         0.00000   0.20282
   8        3PY         0.00000   0.00000   0.19674
   9        3PZ         0.00000   0.00000   0.00000   0.16676
  10        4S          0.21116   0.00000   0.00000   0.00000   0.18108
  11        4PX         0.00000   0.07107   0.00000   0.00000   0.00000
  12        4PY         0.00000   0.00000   0.06425   0.00000   0.00000
  13        4PZ         0.00000   0.00000   0.00000   0.10093   0.00000
  14 2   H  1S          0.01640   0.01118   0.03239   0.00001   0.01842
  15        2S          0.04176   0.01996   0.05721   0.00000   0.04721
  16        3S          0.00284   0.00396   0.01007   0.00000   0.00844
  17 3   H  1S          0.01723   0.04462  -0.00000   0.00001   0.01863
  18        2S          0.04297   0.07722  -0.00000   0.00001   0.04696
  19        3S          0.00287   0.01373   0.00000   0.00000   0.00781
  20 4   C  1S         -0.00059  -0.00057  -0.00172   0.00000   0.00032
  21        2S         -0.00099  -0.00105  -0.00316   0.00000   0.00029
  22        2PX         0.00239   0.00019   0.00549   0.00000   0.00079
  23        2PY         0.00719   0.00548   0.01059   0.00000   0.00235
  24        2PZ         0.00000  -0.00000  -0.00000   0.00610   0.00000
  25        3S          0.02154   0.01343   0.04049  -0.00000   0.00036
  26        3PX         0.01242  -0.00125   0.01852   0.00000   0.00395
  27        3PY         0.03735   0.01843   0.02859   0.00000   0.01180
  28        3PZ         0.00000  -0.00000  -0.00000   0.03512   0.00000
  29        4S          0.00076   0.00498   0.01521  -0.00000  -0.02014
  30        4PX         0.00630  -0.00401   0.00591   0.00000   0.00192
  31        4PY         0.01877   0.00591   0.00132   0.00000   0.00542
  32        4PZ         0.00000  -0.00000  -0.00000   0.04931   0.00000
  33 5   H  1S         -0.00005  -0.00000  -0.00018   0.00000  -0.00076
  34        2S         -0.00116   0.00006  -0.00316  -0.00000  -0.00308
  35        3S         -0.00191   0.00011  -0.00421  -0.00000  -0.00116
  36 6   H  1S         -0.00005  -0.00012  -0.00005   0.00000  -0.00076
  37        2S         -0.00113  -0.00251  -0.00051  -0.00000  -0.00318
  38        3S         -0.00188  -0.00350  -0.00055  -0.00000  -0.00132
                          11        12        13        14        15
  11        4PX         0.05936
  12        4PY         0.00000   0.05066
  13        4PZ         0.00000   0.00000   0.14306
  14 2   H  1S          0.00643   0.01731   0.00000   0.08165
  15        2S          0.01541   0.04021   0.00000   0.07735   0.14889
  16        3S          0.00517   0.01160  -0.00000   0.01358   0.04072
  17 3   H  1S          0.02356   0.00000   0.00000  -0.00001  -0.00063
  18        2S          0.05452   0.00001   0.00000  -0.00063  -0.00516
  19        3S          0.01620   0.00001  -0.00000  -0.00196  -0.00767
  20 4   C  1S         -0.00019  -0.00059   0.00000   0.00000   0.00002
  21        2S         -0.00047  -0.00146   0.00000   0.00000   0.00003
  22        2PX        -0.00072   0.00137   0.00000  -0.00000   0.00000
  23        2PY         0.00137   0.00096   0.00000  -0.00000  -0.00037
  24        2PZ        -0.00000  -0.00000   0.00899   0.00000   0.00000
  25        3S          0.00658   0.02030  -0.00000  -0.00007  -0.00155
  26        3PX        -0.00421   0.00556   0.00000  -0.00000   0.00004
  27        3PY         0.00555   0.00130   0.00000  -0.00023  -0.00363
  28        3PZ        -0.00000  -0.00000   0.04887   0.00000   0.00000
  29        4S          0.00259   0.00841  -0.00000  -0.00108  -0.00454
  30        4PX        -0.00718   0.00315   0.00000   0.00001   0.00016
  31        4PY         0.00317  -0.00558   0.00000  -0.00245  -0.01033
  32        4PZ        -0.00000  -0.00000   0.08980   0.00000  -0.00000
  33 5   H  1S          0.00003  -0.00232   0.00000   0.00000   0.00000
  34        2S          0.00028  -0.00981  -0.00000   0.00000   0.00016
  35        3S          0.00030  -0.00729  -0.00000   0.00023   0.00146
  36 6   H  1S         -0.00175  -0.00047   0.00000  -0.00000  -0.00004
  37        2S         -0.00822  -0.00102  -0.00000  -0.00004  -0.00092
  38        3S         -0.00652  -0.00029  -0.00000  -0.00047  -0.00246
                          16        17        18        19        20
  16        3S          0.02050
  17 3   H  1S         -0.00197   0.08271
  18        2S         -0.00769   0.07750   0.14760
  19        3S         -0.00638   0.01337   0.03973   0.01978
  20 4   C  1S          0.00010   0.00000   0.00002   0.00009   0.65948
  21        2S          0.00017   0.00000   0.00003   0.00017   0.49331
  22        2PX         0.00001  -0.00000  -0.00028  -0.00059   0.00000
  23        2PY        -0.00074  -0.00000  -0.00008  -0.00014   0.00000
  24        2PZ        -0.00000   0.00000   0.00000  -0.00000   0.00000
  25        3S         -0.00253  -0.00008  -0.00154  -0.00249  -0.02940
  26        3PX         0.00006  -0.00016  -0.00292  -0.00365   0.00000
  27        3PY        -0.00448  -0.00007  -0.00067  -0.00068   0.00000
  28        3PZ        -0.00000   0.00000   0.00000  -0.00000   0.00000
  29        4S         -0.00234  -0.00106  -0.00439  -0.00215  -0.01234
  30        4PX         0.00017  -0.00188  -0.00876  -0.00674   0.00000
  31        4PY        -0.00756  -0.00059  -0.00142  -0.00055   0.00000
  32        4PZ        -0.00000   0.00000  -0.00000  -0.00000   0.00000
  33 5   H  1S          0.00022  -0.00000  -0.00004  -0.00042  -0.00021
  34        2S          0.00143  -0.00004  -0.00090  -0.00231  -0.00157
  35        3S          0.00245  -0.00046  -0.00242  -0.00282   0.00005
  36 6   H  1S         -0.00043   0.00000   0.00000   0.00022  -0.00020
  37        2S         -0.00237   0.00000   0.00015   0.00140  -0.00155
  38        3S         -0.00288   0.00023   0.00145   0.00241   0.00004
                          21        22        23        24        25
  21        2S          0.49206
  22        2PX         0.00000   0.08252
  23        2PY         0.00000   0.00000   0.08738
  24        2PZ         0.00000   0.00000   0.00000   0.06419
  25        3S         -0.06463   0.00000   0.00000   0.00000   0.45401
  26        3PX         0.00000   0.08074   0.00000   0.00000   0.00000
  27        3PY         0.00000   0.00000   0.08254   0.00000   0.00000
  28        3PZ         0.00000   0.00000   0.00000   0.06459   0.00000
  29        4S         -0.02171   0.00000   0.00000   0.00000   0.21647
  30        4PX         0.00000   0.01620   0.00000   0.00000   0.00000
  31        4PY         0.00000   0.00000   0.01485   0.00000   0.00000
  32        4PZ         0.00000   0.00000   0.00000   0.02113   0.00000
  33 5   H  1S         -0.00030   0.00144   0.00563   0.00000   0.01522
  34        2S         -0.00300   0.00377   0.01367   0.00000   0.03909
  35        3S         -0.00006   0.00067   0.00202   0.00000   0.00254
  36 6   H  1S         -0.00028   0.00679   0.00002   0.00000   0.01479
  37        2S         -0.00295   0.01724   0.00001   0.00000   0.03866
  38        3S         -0.00007   0.00271  -0.00001   0.00000   0.00265
                          26        27        28        29        30
  26        3PX         0.19993
  27        3PY         0.00000   0.19753
  28        3PZ         0.00000   0.00000   0.16421
  29        4S          0.00000   0.00000   0.00000   0.18728
  30        4PX         0.07517   0.00000   0.00000   0.00000   0.06727
  31        4PY         0.00000   0.06672   0.00000   0.00000   0.00000
  32        4PZ         0.00000   0.00000   0.10027   0.00000   0.00000
  33 5   H  1S          0.00872   0.03344   0.00001   0.01747   0.00569
  34        2S          0.01707   0.06029   0.00001   0.04403   0.01459
  35        3S          0.00382   0.01086   0.00000   0.00686   0.00536
  36 6   H  1S          0.04135   0.00009   0.00001   0.01741   0.02462
  37        2S          0.07707  -0.00001   0.00001   0.04448   0.05956
  38        3S          0.01489  -0.00010   0.00000   0.00741   0.01892
                          31        32        33        34        35
  31        4PY         0.05431
  32        4PZ         0.00000   0.14340
  33 5   H  1S          0.01884   0.00000   0.08058
  34        2S          0.04422   0.00000   0.07769   0.15257
  35        3S          0.01309  -0.00000   0.01428   0.04387   0.02310
  36 6   H  1S         -0.00005   0.00000  -0.00001  -0.00081  -0.00238
  37        2S         -0.00028   0.00000  -0.00081  -0.00676  -0.00980
  38        3S         -0.00022  -0.00000  -0.00240  -0.00982  -0.00852
                          36        37        38
  36 6   H  1S          0.07990
  37        2S          0.07750   0.15307
  38        3S          0.01434   0.04426   0.02337
     Gross orbital populations:
                           1
   1 1   C  1S          1.10434
   2        2S          0.88586
   3        2PX         0.22774
   4        2PY         0.23624
   5        2PZ         0.16623
   6        3S          0.79307
   7        3PX         0.56249
   8        3PY         0.55583
   9        3PZ         0.42343
  10        4S          0.50298
  11        4PX         0.25775
  12        4PY         0.21067
  13        4PZ         0.41280
  14 2   H  1S          0.27503
  15        2S          0.46592
  16        3S          0.08466
  17 3   H  1S          0.27829
  18        2S          0.46390
  19        3S          0.08176
  20 4   C  1S          1.10442
  21        2S          0.88584
  22        2PX         0.22165
  23        2PY         0.23539
  24        2PZ         0.16541
  25        3S          0.79244
  26        3PX         0.55132
  27        3PY         0.55626
  28        3PZ         0.41913
  29        4S          0.50816
  30        4PX         0.27654
  31        4PY         0.21818
  32        4PZ         0.41294
  33 5   H  1S          0.27177
  34        2S          0.47008
  35        3S          0.08956
  36 6   H  1S          0.26965
  37        2S          0.47110
  38        3S          0.09118
          Condensed to atoms (all electrons):
               1          2          3          4          5          6
     1  C    5.030267   0.388170   0.388907   0.601724  -0.035059  -0.034576
     2  H    0.388170   0.514345  -0.032104  -0.041162   0.005965  -0.009608
     3  H    0.388907  -0.032104   0.511294  -0.040587  -0.009416   0.005864
     4  C    0.601724  -0.041162  -0.040587   5.061389   0.383309   0.382995
     5  H   -0.035059   0.005965  -0.009416   0.383309   0.527910  -0.041299
     6  H   -0.034576  -0.009608   0.005864   0.382995  -0.041299   0.528551
 Mulliken charges:
               1
     1  C   -0.339433
     2  H    0.174393
     3  H    0.176043
     4  C   -0.347668
     5  H    0.168590
     6  H    0.168074
 Sum of Mulliken charges =   0.00000
 Mulliken charges with hydrogens summed into heavy atoms:
               1
     1  C    0.011003
     4  C   -0.011003
 Electronic spatial extent (au):  <R**2>=             83.7647
 Charge=              0.0000 electrons
 Dipole moment (field-independent basis, Debye):
    X=              0.0057    Y=              0.0228    Z=             -0.0530  Tot=              0.0580
 Quadrupole moment (field-independent basis, Debye-Ang):
   XX=            -12.1982   YY=            -12.2183   ZZ=            -15.6776
   XY=              0.0108   XZ=              0.0001   YZ=             -0.0028
 Traceless Quadrupole moment (field-independent basis, Debye-Ang):
   XX=              1.1665   YY=              1.1464   ZZ=             -2.3129
   XY=              0.0108   XZ=              0.0001   YZ=             -0.0028
 Octapole moment (field-independent basis, Debye-Ang**2):
  XXX=             -0.3995  YYY=             -0.0487  ZZZ=             -0.0643  XYY=              0.2388
  XXY=             -0.0440  XXZ=             -0.0794  XZZ=             -0.1003  YZZ=             -0.1063
  YYZ=             -0.1019  XYZ=             -0.0197
 Hexadecapole moment (field-independent basis, Debye-Ang**3):
 XXXX=            -34.2841 YYYY=            -55.2567 ZZZZ=            -17.8174 XXXY=             -7.2651
 XXXZ=              0.0126 YYYX=            -10.7214 YYYZ=              0.0172 ZZZX=              0.0153
 ZZZY=              0.0310 XXYY=            -16.1995 XXZZ=             -9.9312 YYZZ=            -13.6575
 XXYZ=              0.0073 YYXZ=              0.0013 ZZXY=             -3.2105
 N-N= 3.305500191508D+01 E-N=-2.478186091771D+02  KE= 7.815096087089D+01
 Orbital energies and kinetic energies (alpha):
                                 1                 2
   1         O               -10.290821         15.979073
   2         O               -10.287730         15.979425
   3         O                -0.863529          1.536324
   4         O                -0.672432          1.271928
   5         O                -0.559927          0.942966
   6         O                -0.508783          1.284479
   7         O                -0.436768          1.043537
   8         O                -0.356535          1.037747
   9         V                 0.079576          1.182362
  10         V                 0.140918          0.589531
  11         V                 0.164945          0.593685
  12         V                 0.170181          0.679802
  13         V                 0.240584          0.582918
  14         V                 0.371303          0.849363
  15         V                 0.393843          0.934439
  16         V                 0.400300          0.787668
  17         V                 0.463916          1.197957
  18         V                 0.488688          1.414737
  19         V                 0.493994          1.302516
  20         V                 0.590841          1.651035
  21         V                 0.665923          1.574404
  22         V                 0.691828          2.145815
  23         V                 0.772081          2.376184
  24         V                 0.775940          2.369958
  25         V                 0.844983          1.088488
  26         V                 0.950395          3.415012
  27         V                 2.230982          3.927041
  28         V                 2.290926          4.025462
  29         V                 2.332890          4.306997
  30         V                 2.408244          4.522511
  31         V                 2.670728          6.300420
  32         V                 2.818394          6.308412
  33         V                 2.877389          6.138368
  34         V                 2.952029          6.225220
  35         V                 3.139678          6.820357
  36         V                 3.321466          6.401461
  37         V                23.352857         60.075183
  38         V                23.704545         60.202663
 Total kinetic energy from orbitals= 7.815096087089D+01
 Calling FoFJK, ICntrl=      2127 FMM=F ISym2X=0 I1Cent= 0 IOpClX= 0 NMat=1 NMatS=1 NMatT=0.
 -------------------------------------------------------------------
 Center     Atomic                   Forces (Hartrees/Bohr)
 Number     Number              X              Y              Z
 -------------------------------------------------------------------
      1        6           0.016260972    0.014424369   -0.002087130
      2        1          -0.009416324    0.002886335    0.001034819
      3        1           0.000619931   -0.005904947    0.000954168
      4        6           0.009056547    0.010683268   -0.002331749
      5        1           0.001588498   -0.015361164    0.001195496
      6        1          -0.018109624   -0.006727861    0.001234396
 -------------------------------------------------------------------
 Cartesian Forces:  Max     0.018109624 RMS     0.008904819

 GradGradGradGradGradGradGradGradGradGradGradGradGradGradGradGradGradGrad
 Berny optimization.
 Search for a local minimum.
 Step number   1 out of a maximum of    2
 All quantities printed in internal units (Hartrees-Bohrs-Radians)
 Second derivative matrix not updated -- first step.
 The second derivative matrix:
                          X1        Y1        Z1        X2        Y2
           X1           0.76623
           Y1           0.09099   0.85756
           Z1           0.00312   0.00461   0.16971
           X2          -0.16904   0.09952   0.00113   0.14622
           Y2           0.10518  -0.28481  -0.00401  -0.11886   0.27324
           Z2           0.00180  -0.00506  -0.05450  -0.00164   0.00413
           X3          -0.35669   0.00086  -0.00447   0.00010   0.00006
           Y3          -0.00475  -0.11131  -0.00106   0.03246   0.01944
           Z3          -0.00572  -0.00101  -0.05576   0.00083   0.00033
           X4          -0.26576  -0.17678  -0.00033   0.02272   0.01361
           Y4          -0.17700  -0.46977  -0.00050  -0.01312  -0.00786
           Z4           0.00078   0.00143  -0.09390  -0.00032  -0.00044
           X5           0.02348  -0.01356   0.00034  -0.00000   0.00000
           Y5           0.01150  -0.00664   0.00046   0.00000  -0.00000
           Z5          -0.00028   0.00018   0.01755   0.00014  -0.00007
           X6           0.00177  -0.00102   0.00021  -0.00000   0.00000
           Y6          -0.02592   0.01497   0.00050   0.00000  -0.00000
           Z6           0.00029  -0.00015   0.01690  -0.00013   0.00007
                          Z2        X3        Y3        Z3        X4
           Z2           0.02828
           X3          -0.00015   0.35668
           Y3           0.00091  -0.00097   0.07643
           Z3           0.01064   0.00487   0.00068   0.02911
           X4           0.00026  -0.00009  -0.02674  -0.00025   0.70679
           Y4          -0.00013   0.00005   0.01544   0.00016   0.12283
           Z4           0.01553  -0.00024  -0.00053   0.01606  -0.00282
           X5          -0.00013  -0.00000   0.00000   0.00014  -0.14378
           Y5           0.00009   0.00000  -0.00000  -0.00009   0.09058
           Z5           0.00918   0.00014  -0.00009  -0.00934  -0.00168
           X6          -0.00013  -0.00000   0.00000   0.00014  -0.31988
           Y6           0.00007   0.00000  -0.00000  -0.00007  -0.02350
           Z6          -0.00913  -0.00014   0.00009   0.00929   0.00481
                          Y4        Z4        X5        Y5        Z5
           Y4           0.85485
           Z4          -0.00554   0.17568
           X5           0.08203  -0.00111   0.12253
           Y5          -0.28846   0.00403  -0.10100   0.27918
           Z5           0.00498  -0.05703   0.00149  -0.00431   0.02944
           X6          -0.01479   0.00371  -0.00223  -0.00109   0.00019
           Y6          -0.10420   0.00105   0.03252   0.01592  -0.00069
           Z6           0.00103  -0.05634  -0.00072  -0.00018   0.01020
                          X6        Y6        Z6
           X6           0.32034
           Y6           0.01690   0.07331
           Z6          -0.00411  -0.00086   0.02908
 ITU=  0
     Eigenvalues ---    0.03696   0.04384   0.09398   0.09865   0.13496
     Eigenvalues ---    0.17488   0.26318   0.29088   0.52910   0.70047
     Eigenvalues ---    0.97978   1.55479
 Angle between quadratic step and forces=  32.47 degrees.
 Linear search not attempted -- first point.
 B after Tr=     0.007746    0.009572   -0.005454
         Rot=    1.000000   -0.000028    0.000016   -0.000115 Ang=  -0.01 deg.
 Variable       Old X    -DE/DX   Delta X   Delta X   Delta X     New X
                                 (Linear)    (Quad)   (Total)
    X1       -0.63747   0.01626   0.00000   0.02397   0.03196  -0.60551
    Y1       -1.10289   0.01442   0.00000   0.02897   0.03840  -1.06449
    Z1        0.00841  -0.00209   0.00000  -0.01166  -0.01719  -0.00878
    X2        0.42448  -0.00942   0.00000  -0.03984  -0.03144   0.39304
    Y2       -2.87447   0.00289   0.00000   0.01511   0.02477  -2.84970
    Z2       -0.02024   0.00103   0.00000   0.01424   0.00863  -0.01161
    X3       -2.68315   0.00062   0.00000   0.02526   0.03326  -2.64989
    Y3       -1.09589  -0.00590   0.00000  -0.02005  -0.01109  -1.10697
    Z3       -0.02197   0.00095   0.00000   0.01399   0.00839  -0.01358
    X4        0.62898   0.00906   0.00000   0.00807   0.01556   0.64454
    Y4        1.08998   0.01068   0.00000   0.01068   0.02039   1.11038
    Z4        0.00586  -0.00233   0.00000  -0.01091  -0.01628  -0.01042
    X5       -0.29164   0.00159   0.00000  -0.01805  -0.01097  -0.30261
    Y5        2.96909  -0.01536   0.00000  -0.05086  -0.04136   2.92772
    Z5       -0.02578   0.00120   0.00000   0.01367   0.00837  -0.01742
    X6        2.72951  -0.01811   0.00000  -0.04584  -0.03837   2.69114
    Y6        1.23310  -0.00673   0.00000  -0.04131  -0.03112   1.20199
    Z6       -0.02408   0.00123   0.00000   0.01338   0.00808  -0.01600
         Item               Value     Threshold  Converged?
 Maximum Force            0.018110     0.000450     NO 
 RMS     Force            0.008905     0.000300     NO 
 Maximum Displacement     0.041362     0.001800     NO 
 RMS     Displacement     0.024831     0.001200     NO 
 Predicted change in Energy=-1.759523D-03
 GradGradGradGradGradGradGradGradGradGradGradGradGradGradGradGradGradGrad

 Unable to Open any file for archive entry.
 1\1\GINC-BHD0016\Force\RwB97XD\6-311G\C2H4\BWEIGHT\11-Jan-2023\0\\# WB
 97XD/6-311G SCF=XQC FORCE nosym pop=full guess=read\\MD Step 1000\\0,1
 \C,-0.3373353,-0.58362529,0.00445093\H,0.22462251,-1.52110568,-0.01071
 111\H,-1.41986239,-0.57991876,-0.01162854\C,0.33284099,0.57679409,0.00
 310239\H,-0.15432703,1.571173,-0.01364435\H,1.4443954,0.65253101,-0.01
 274085\\Version=ES64L-G16RevC.01\HF=-78.555429\RMSD=6.570e-09\RMSF=8.9
 05e-03\Dipole=0.0022339,0.0089852,-0.0208681\Quadrupole=0.8672647,0.85
 23205,-1.7195852,0.0080274,0.0000504,-0.0021049\PG=C01 [X(C2H4)]\\@
 The archive entry for this job was punched.


 YOU ARE IN A MAZE OF TWISTY LITTLE PASSAGES.
 Job cpu time:       0 days  0 hours  0 minutes  7.0 seconds.
 Elapsed time:       0 days  0 hours  0 minutes  3.8 seconds.
 File lengths (MBytes):  RWF=    272 Int=      0 D2E=      0 Chk=     32 Scr=     32
 Normal termination of Gaussian 16 at Wed Jan 11 10:45:29 2023.
