 Entering Gaussian System, Link 0=g16
 Initial command:
 /software/gaussian/g16-c01/avx/g16/l1.exe "/gpfs/fs2/scratch/bweight/software/many_molecule_many_mode_NAMD/src/ELECTRONIC_STRUCTURE_INPUT/EXAMPLE/G16/DIMER/Gau-9083.inp" -scrdir="/gpfs/fs2/scratch/bweight/software/many_molecule_many_mode_NAMD/src/ELECTRONIC_STRUCTURE_INPUT/EXAMPLE/G16/DIMER/"
 Entering Link 1 = /software/gaussian/g16-c01/avx/g16/l1.exe PID=      9084.
  
 Copyright (c) 1988-2019, Gaussian, Inc.  All Rights Reserved.
  
 This is part of the Gaussian(R) 16 program.  It is based on
 the Gaussian(R) 09 system (copyright 2009, Gaussian, Inc.),
 the Gaussian(R) 03 system (copyright 2003, Gaussian, Inc.),
 the Gaussian(R) 98 system (copyright 1998, Gaussian, Inc.),
 the Gaussian(R) 94 system (copyright 1995, Gaussian, Inc.),
 the Gaussian 92(TM) system (copyright 1992, Gaussian, Inc.),
 the Gaussian 90(TM) system (copyright 1990, Gaussian, Inc.),
 the Gaussian 88(TM) system (copyright 1988, Gaussian, Inc.),
 the Gaussian 86(TM) system (copyright 1986, Carnegie Mellon
 University), and the Gaussian 82(TM) system (copyright 1983,
 Carnegie Mellon University). Gaussian is a federally registered
 trademark of Gaussian, Inc.
  
 This software contains proprietary and confidential information,
 including trade secrets, belonging to Gaussian, Inc.
  
 This software is provided under written license and may be
 used, copied, transmitted, or stored only in accord with that
 written license.
  
 The following legend is applicable only to US Government
 contracts under FAR:
  
                    RESTRICTED RIGHTS LEGEND
  
 Use, reproduction and disclosure by the US Government is
 subject to restrictions as set forth in subparagraphs (a)
 and (c) of the Commercial Computer Software - Restricted
 Rights clause in FAR 52.227-19.
  
 Gaussian, Inc.
 340 Quinnipiac St., Bldg. 40, Wallingford CT 06492
  
  
 ---------------------------------------------------------------
 Warning -- This program may not be used in any manner that
 competes with the business of Gaussian, Inc. or will provide
 assistance to any competitor of Gaussian, Inc.  The licensee
 of this program is prohibited from giving any competitor of
 Gaussian, Inc. access to this program.  By using this program,
 the user acknowledges that Gaussian, Inc. is engaged in the
 business of creating and licensing software in the field of
 computational chemistry and represents and warrants to the
 licensee that it is not a competitor of Gaussian, Inc. and that
 it will not use this program in any manner prohibited above.
 ---------------------------------------------------------------
  

 Cite this work as:
 Gaussian 16, Revision C.01,
 M. J. Frisch, G. W. Trucks, H. B. Schlegel, G. E. Scuseria, 
 M. A. Robb, J. R. Cheeseman, G. Scalmani, V. Barone, 
 G. A. Petersson, H. Nakatsuji, X. Li, M. Caricato, A. V. Marenich, 
 J. Bloino, B. G. Janesko, R. Gomperts, B. Mennucci, H. P. Hratchian, 
 J. V. Ortiz, A. F. Izmaylov, J. L. Sonnenberg, D. Williams-Young, 
 F. Ding, F. Lipparini, F. Egidi, J. Goings, B. Peng, A. Petrone, 
 T. Henderson, D. Ranasinghe, V. G. Zakrzewski, J. Gao, N. Rega, 
 G. Zheng, W. Liang, M. Hada, M. Ehara, K. Toyota, R. Fukuda, 
 J. Hasegawa, M. Ishida, T. Nakajima, Y. Honda, O. Kitao, H. Nakai, 
 T. Vreven, K. Throssell, J. A. Montgomery, Jr., J. E. Peralta, 
 F. Ogliaro, M. J. Bearpark, J. J. Heyd, E. N. Brothers, K. N. Kudin, 
 V. N. Staroverov, T. A. Keith, R. Kobayashi, J. Normand, 
 K. Raghavachari, A. P. Rendell, J. C. Burant, S. S. Iyengar, 
 J. Tomasi, M. Cossi, J. M. Millam, M. Klene, C. Adamo, R. Cammi, 
 J. W. Ochterski, R. L. Martin, K. Morokuma, O. Farkas, 
 J. B. Foresman, and D. J. Fox, Gaussian, Inc., Wallingford CT, 2019.
 
 ******************************************
 Gaussian 16:  ES64L-G16RevC.01  3-Jul-2019
                27-Dec-2022 
 ******************************************
 %chk=geometry.chk
 %nprocshared=1
 Will use up to    1 processors via shared memory.
 %mem=5GB
 ----------------------------------------------------------------------
 # AM1/sto-3g IOp(3/41=2000) nosymm iop(2/12=3,3/33=1) guess=only pop=f
 ull
 ----------------------------------------------------------------------
 1/38=1,172=1/1;
 2/12=3,15=1,17=6,18=5,40=1/2;
 3/5=2,6=3,25=1,33=1,41=2000,89=1/1,2;
 4/35=1/1;
 6/7=3,28=1/1;
 99/5=2/99;
 ---------
 MD Step 1
 ---------
 Symbolic Z-matrix:
 Charge =  0 Multiplicity = 1
 C                    -1.59611  -0.22883   0. 
 C                    -0.20095  -0.22883   0. 
 C                     0.49659   0.97892   0. 
 C                    -0.20107   2.18743  -0.0012 
 C                    -1.59589   2.18735  -0.00168 
 C                    -2.29349   0.97914  -0.00068 
 H                    -2.14587  -1.18115   0.00045 
 H                     0.34856  -1.18135   0.00132 
 H                     1.59627   0.979     0.00063 
 H                     0.34913   3.13957  -0.00126 
 H                    -2.14601   3.13963  -0.00263 
 H                    -3.3931    0.97933  -0.00086 
 C                    -1.59611  -0.22883   0. 
 C                    -0.20095  -0.22883   0. 
 C                     0.49659   0.97892   0. 
 C                    -0.20107   2.18743  -0.0012 
 C                    -1.59589   2.18735  -0.00168 
 C                    -2.29349   0.97914  -0.00068 
 H                    -2.14587  -1.18115   0.00045 
 H                     0.34856  -1.18135   0.00132 
 H                     1.59627   0.979     0.00063 
 H                     0.34913   3.13957  -0.00126 
 H                    -2.14601   3.13963  -0.00263 
 H                    -3.3931    0.97933  -0.00086 
 
                          Input orientation:                          
 ---------------------------------------------------------------------
 Center     Atomic      Atomic             Coordinates (Angstroms)
 Number     Number       Type             X           Y           Z
 ---------------------------------------------------------------------
      1          6           0       -1.596110   -0.228833    0.000000
      2          6           0       -0.200950   -0.228833    0.000000
      3          6           0        0.496588    0.978918    0.000000
      4          6           0       -0.201066    2.187427   -0.001199
      5          6           0       -1.595891    2.187349   -0.001678
      6          6           0       -2.293492    0.979143   -0.000682
      7          1           0       -2.145869   -1.181150    0.000450
      8          1           0        0.348558   -1.181346    0.001315
      9          1           0        1.596268    0.978998    0.000634
     10          1           0        0.349134    3.139570   -0.001258
     11          1           0       -2.146013    3.139630   -0.002631
     12          1           0       -3.393096    0.979326   -0.000862
     13          6           0       -1.596110   -0.228833    0.000000
     14          6           0       -0.200950   -0.228833    0.000000
     15          6           0        0.496588    0.978918    0.000000
     16          6           0       -0.201066    2.187427   -0.001199
     17          6           0       -1.595891    2.187349   -0.001678
     18          6           0       -2.293492    0.979143   -0.000682
     19          1           0       -2.145869   -1.181150    0.000450
     20          1           0        0.348558   -1.181346    0.001315
     21          1           0        1.596268    0.978998    0.000634
     22          1           0        0.349134    3.139570   -0.001258
     23          1           0       -2.146013    3.139630   -0.002631
     24          1           0       -3.393096    0.979326   -0.000862
 ---------------------------------------------------------------------
                    Distance matrix (angstroms):
                    1          2          3          4          5
     1  C    0.000000
     2  C    1.395160   0.000000
     3  C    2.416205   1.394712   0.000000
     4  C    2.790065   2.416260   1.395427   0.000000
     5  C    2.416183   2.789946   2.416356   1.394825   0.000000
     6  C    1.394829   2.416183   2.790080   2.416236   1.395138
     7  H    1.099610   2.165553   3.412986   3.889675   3.413102
     8  H    2.165414   1.099655   2.165330   3.413316   3.889601
     9  H    3.413229   2.165375   1.099680   2.165806   3.413209
    10  H    3.889745   3.413024   2.165678   1.099680   2.165606
    11  H    3.413055   3.889707   3.413506   2.165528   1.099761
    12  H    2.165365   3.413128   3.889684   3.412999   2.165471
    13  C    0.000000   1.395160   2.416205   2.790065   2.416183
    14  C    1.395160   0.000000   1.394712   2.416260   2.789946
    15  C    2.416205   1.394712   0.000000   1.395427   2.416356
    16  C    2.790065   2.416260   1.395427   0.000000   1.394825
    17  C    2.416183   2.789946   2.416356   1.394825   0.000000
    18  C    1.394829   2.416183   2.790080   2.416236   1.395138
    19  H    1.099610   2.165553   3.412986   3.889675   3.413102
    20  H    2.165414   1.099655   2.165330   3.413316   3.889601
    21  H    3.413229   2.165375   1.099680   2.165806   3.413209
    22  H    3.889745   3.413024   2.165678   1.099680   2.165606
    23  H    3.413055   3.889707   3.413506   2.165528   1.099761
    24  H    2.165365   3.413128   3.889684   3.412999   2.165471
                    6          7          8          9         10
     6  C    0.000000
     7  H    2.165331   0.000000
     8  H    3.412938   2.494427   0.000000
     9  H    3.889760   4.320860   2.494768   0.000000
    10  H    3.413344   4.989355   4.320917   2.494678   0.000000
    11  H    2.165516   4.320781   4.989362   4.321228   2.495147
    12  H    1.099604   2.494641   4.320704   4.989364   4.320988
    13  C    1.394829   1.099610   2.165414   3.413229   3.889745
    14  C    2.416183   2.165553   1.099655   2.165375   3.413024
    15  C    2.790080   3.412986   2.165330   1.099680   2.165678
    16  C    2.416236   3.889675   3.413316   2.165806   1.099680
    17  C    1.395138   3.413102   3.889601   3.413209   2.165606
    18  C    0.000000   2.165331   3.412938   3.889760   3.413344
    19  H    2.165331   0.000000   2.494427   4.320860   4.989355
    20  H    3.412938   2.494427   0.000000   2.494768   4.320917
    21  H    3.889760   4.320860   2.494768   0.000000   2.494678
    22  H    3.413344   4.989355   4.320917   2.494678   0.000000
    23  H    2.165516   4.320781   4.989362   4.321228   2.495147
    24  H    1.099604   2.494641   4.320704   4.989364   4.320988
                   11         12         13         14         15
    11  H    0.000000
    12  H    2.494420   0.000000
    13  C    3.413055   2.165365   0.000000
    14  C    3.889707   3.413128   1.395160   0.000000
    15  C    3.413506   3.889684   2.416205   1.394712   0.000000
    16  C    2.165528   3.412999   2.790065   2.416260   1.395427
    17  C    1.099761   2.165471   2.416183   2.789946   2.416356
    18  C    2.165516   1.099604   1.394829   2.416183   2.790080
    19  H    4.320781   2.494641   1.099610   2.165553   3.412986
    20  H    4.989362   4.320704   2.165414   1.099655   2.165330
    21  H    4.321228   4.989364   3.413229   2.165375   1.099680
    22  H    2.495147   4.320988   3.889745   3.413024   2.165678
    23  H    0.000000   2.494420   3.413055   3.889707   3.413506
    24  H    2.494420   0.000000   2.165365   3.413128   3.889684
                   16         17         18         19         20
    16  C    0.000000
    17  C    1.394825   0.000000
    18  C    2.416236   1.395138   0.000000
    19  H    3.889675   3.413102   2.165331   0.000000
    20  H    3.413316   3.889601   3.412938   2.494427   0.000000
    21  H    2.165806   3.413209   3.889760   4.320860   2.494768
    22  H    1.099680   2.165606   3.413344   4.989355   4.320917
    23  H    2.165528   1.099761   2.165516   4.320781   4.989362
    24  H    3.412999   2.165471   1.099604   2.494641   4.320704
                   21         22         23         24
    21  H    0.000000
    22  H    2.494678   0.000000
    23  H    4.321228   2.495147   0.000000
    24  H    4.989364   4.320988   2.494420   0.000000
 Symmetry turned off by external request.
 Stoichiometry    C12H12
 Framework group  C1[X(C12H12)]
 Deg. of freedom    66
 Full point group                 C1      NOp   1
 Rotational constants (GHZ):           2.8432825           2.8431320           1.4216037
 Standard basis: VSTO-3G (5D, 7F)
                         Coordinates in L301:                         
 ---------------------------------------------------------------------
 Center     Atomic      Atomic             Coordinates (Angstroms)
 Number     Number       Type             X           Y           Z
 ---------------------------------------------------------------------
      1          6           0       -1.596110   -0.228833    0.000000
      2          6           0       -0.200950   -0.228833    0.000000
      3          6           0        0.496588    0.978918    0.000000
      4          6           0       -0.201066    2.187427   -0.001199
      5          6           0       -1.595891    2.187349   -0.001678
      6          6           0       -2.293492    0.979143   -0.000682
      7          1           0       -2.145869   -1.181150    0.000450
      8          1           0        0.348558   -1.181346    0.001315
      9          1           0        1.596268    0.978998    0.000634
     10          1           0        0.349134    3.139570   -0.001258
     11          1           0       -2.146013    3.139630   -0.002631
     12          1           0       -3.393096    0.979326   -0.000862
     13          6           0       -1.596110   -0.228833    0.000000
     14          6           0       -0.200950   -0.228833    0.000000
     15          6           0        0.496588    0.978918    0.000000
     16          6           0       -0.201066    2.187427   -0.001199
     17          6           0       -1.595891    2.187349   -0.001678
     18          6           0       -2.293492    0.979143   -0.000682
     19          1           0       -2.145869   -1.181150    0.000450
     20          1           0        0.348558   -1.181346    0.001315
     21          1           0        1.596268    0.978998    0.000634
     22          1           0        0.349134    3.139570   -0.001258
     23          1           0       -2.146013    3.139630   -0.002631
     24          1           0       -3.393096    0.979326   -0.000862
 ---------------------------------------------------------------------
 FixB: optimizing general contractions.
 Ernie: Thresh=  0.10000D-02 Tol=  0.10000D-05 Strict=F.
 IA=     1 ShT= 1 ShC= 0 NL=   1 NS=   0.
 IA=     1 L=1 SC=0 ISt=    0 NBk=    0 NP=    0 IndPr=    0.
 IA=     2 ShT= 1 ShC= 0 NL=   1 NS=   0.
 IA=     2 L=1 SC=0 ISt=    0 NBk=    0 NP=    0 IndPr=    0.
 IA=     3 ShT= 1 ShC= 0 NL=   1 NS=   0.
 IA=     3 L=1 SC=0 ISt=    0 NBk=    0 NP=    0 IndPr=    0.
 IA=     4 ShT= 1 ShC= 0 NL=   1 NS=   0.
 IA=     4 L=1 SC=0 ISt=    0 NBk=    0 NP=    0 IndPr=    0.
 IA=     5 ShT= 1 ShC= 0 NL=   1 NS=   0.
 IA=     5 L=1 SC=0 ISt=    0 NBk=    0 NP=    0 IndPr=    0.
 IA=     6 ShT= 1 ShC= 0 NL=   1 NS=   0.
 IA=     6 L=1 SC=0 ISt=    0 NBk=    0 NP=    0 IndPr=    0.
 IA=     7 ShT= 0 ShC= 0 NL=   1 NS=   0.
 IA=     7 L=0 SC=0 ISt=    0 NBk=    0 NP=    0 IndPr=    0.
 IA=     8 ShT= 0 ShC= 0 NL=   1 NS=   0.
 IA=     8 L=0 SC=0 ISt=    0 NBk=    0 NP=    0 IndPr=    0.
 IA=     9 ShT= 0 ShC= 0 NL=   1 NS=   0.
 IA=     9 L=0 SC=0 ISt=    0 NBk=    0 NP=    0 IndPr=    0.
 IA=    10 ShT= 0 ShC= 0 NL=   1 NS=   0.
 IA=    10 L=0 SC=0 ISt=    0 NBk=    0 NP=    0 IndPr=    0.
 IA=    11 ShT= 0 ShC= 0 NL=   1 NS=   0.
 IA=    11 L=0 SC=0 ISt=    0 NBk=    0 NP=    0 IndPr=    0.
 IA=    12 ShT= 0 ShC= 0 NL=   1 NS=   0.
 IA=    12 L=0 SC=0 ISt=    0 NBk=    0 NP=    0 IndPr=    0.
 IA=    13 ShT= 1 ShC= 0 NL=   1 NS=   0.
 IA=    13 L=1 SC=0 ISt=    0 NBk=    0 NP=    0 IndPr=    0.
 IA=    14 ShT= 1 ShC= 0 NL=   1 NS=   0.
 IA=    14 L=1 SC=0 ISt=    0 NBk=    0 NP=    0 IndPr=    0.
 IA=    15 ShT= 1 ShC= 0 NL=   1 NS=   0.
 IA=    15 L=1 SC=0 ISt=    0 NBk=    0 NP=    0 IndPr=    0.
 IA=    16 ShT= 1 ShC= 0 NL=   1 NS=   0.
 IA=    16 L=1 SC=0 ISt=    0 NBk=    0 NP=    0 IndPr=    0.
 IA=    17 ShT= 1 ShC= 0 NL=   1 NS=   0.
 IA=    17 L=1 SC=0 ISt=    0 NBk=    0 NP=    0 IndPr=    0.
 IA=    18 ShT= 1 ShC= 0 NL=   1 NS=   0.
 IA=    18 L=1 SC=0 ISt=    0 NBk=    0 NP=    0 IndPr=    0.
 IA=    19 ShT= 0 ShC= 0 NL=   1 NS=   0.
 IA=    19 L=0 SC=0 ISt=    0 NBk=    0 NP=    0 IndPr=    0.
 IA=    20 ShT= 0 ShC= 0 NL=   1 NS=   0.
 IA=    20 L=0 SC=0 ISt=    0 NBk=    0 NP=    0 IndPr=    0.
 IA=    21 ShT= 0 ShC= 0 NL=   1 NS=   0.
 IA=    21 L=0 SC=0 ISt=    0 NBk=    0 NP=    0 IndPr=    0.
 IA=    22 ShT= 0 ShC= 0 NL=   1 NS=   0.
 IA=    22 L=0 SC=0 ISt=    0 NBk=    0 NP=    0 IndPr=    0.
 IA=    23 ShT= 0 ShC= 0 NL=   1 NS=   0.
 IA=    23 L=0 SC=0 ISt=    0 NBk=    0 NP=    0 IndPr=    0.
 IA=    24 ShT= 0 ShC= 0 NL=   1 NS=   0.
 IA=    24 L=0 SC=0 ISt=    0 NBk=    0 NP=    0 IndPr=    0.
 LdAtmC:  AtmChg=     4.000000     4.000000     4.000000     4.000000     4.000000
 LdAtmC:  AtmChg=     4.000000     1.000000     1.000000     1.000000     1.000000
 LdAtmC:  AtmChg=     1.000000     1.000000     4.000000     4.000000     4.000000
 LdAtmC:  AtmChg=     4.000000     4.000000     4.000000     1.000000     1.000000
 LdAtmC:  AtmChg=     1.000000     1.000000     1.000000     1.000000
 RepNN0:  I=    13 J=     1 R= 0.00D+00
 RepNN0:  I=    14 J=     2 R= 0.00D+00
 RepNN0:  I=    15 J=     3 R= 0.00D+00
 RepNN0:  I=    16 J=     4 R= 0.00D+00
 RepNN0:  I=    17 J=     5 R= 0.00D+00
 RepNN0:  I=    18 J=     6 R= 0.00D+00
 RepNN0:  I=    19 J=     7 R= 0.00D+00
 RepNN0:  I=    20 J=     8 R= 0.00D+00
 RepNN0:  I=    21 J=     9 R= 0.00D+00
 RepNN0:  I=    22 J=    10 R= 0.00D+00
 RepNN0:  I=    23 J=    11 R= 0.00D+00
 RepNN0:  I=    24 J=    12 R= 0.00D+00
 AtZEff=     -3.9000000     -3.9000000     -3.9000000     -3.9000000     -3.9000000
 AtZEff=     -3.9000000     -1.0000000     -1.0000000     -1.0000000     -1.0000000
 AtZEff=     -1.0000000     -1.0000000     -3.9000000     -3.9000000     -3.9000000
 AtZEff=     -3.9000000     -3.9000000     -3.9000000     -1.0000000     -1.0000000
 AtZEff=     -1.0000000     -1.0000000     -1.0000000     -1.0000000
    60 basis functions,   180 primitive gaussians,    60 cartesian basis functions
    30 alpha electrons       30 beta electrons
       nuclear repulsion energy                  Inf Hartrees.
 IS=     1 IAt=     1 ISR=     1 T=1 IP=      1 IndIP=      1 IndIPD=      0 C= -1.469447D-01  7.426918D-01                             NZ=T
 IS=     1 IAt=     1 ISR=     1 T=1 IP=      2 IndIP=      2 IndIPD=      1 C=  1.965504D-01  4.670245D-01                             NZ=T
 IS=     1 IAt=     1 ISR=     1 T=1 IP=      3 IndIP=      3 IndIPD=      2 C=  1.483396D-01  7.398453D-02                             NZ=T
 IS=     2 IAt=     2 ISR=     1 T=1 IP=      1 IndIP=      4 IndIPD=      0 C= -1.469447D-01  7.426918D-01                             NZ=T
 IS=     2 IAt=     2 ISR=     1 T=1 IP=      2 IndIP=      5 IndIPD=      1 C=  1.965504D-01  4.670245D-01                             NZ=T
 IS=     2 IAt=     2 ISR=     1 T=1 IP=      3 IndIP=      6 IndIPD=      2 C=  1.483396D-01  7.398453D-02                             NZ=T
 IS=     3 IAt=     3 ISR=     1 T=1 IP=      1 IndIP=      7 IndIPD=      0 C= -1.469447D-01  7.426918D-01                             NZ=T
 IS=     3 IAt=     3 ISR=     1 T=1 IP=      2 IndIP=      8 IndIPD=      1 C=  1.965504D-01  4.670245D-01                             NZ=T
 IS=     3 IAt=     3 ISR=     1 T=1 IP=      3 IndIP=      9 IndIPD=      2 C=  1.483396D-01  7.398453D-02                             NZ=T
 IS=     4 IAt=     4 ISR=     1 T=1 IP=      1 IndIP=     10 IndIPD=      0 C= -1.469447D-01  7.426918D-01                             NZ=T
 IS=     4 IAt=     4 ISR=     1 T=1 IP=      2 IndIP=     11 IndIPD=      1 C=  1.965504D-01  4.670245D-01                             NZ=T
 IS=     4 IAt=     4 ISR=     1 T=1 IP=      3 IndIP=     12 IndIPD=      2 C=  1.483396D-01  7.398453D-02                             NZ=T
 IS=     5 IAt=     5 ISR=     1 T=1 IP=      1 IndIP=     13 IndIPD=      0 C= -1.469447D-01  7.426918D-01                             NZ=T
 IS=     5 IAt=     5 ISR=     1 T=1 IP=      2 IndIP=     14 IndIPD=      1 C=  1.965504D-01  4.670245D-01                             NZ=T
 IS=     5 IAt=     5 ISR=     1 T=1 IP=      3 IndIP=     15 IndIPD=      2 C=  1.483396D-01  7.398453D-02                             NZ=T
 IS=     6 IAt=     6 ISR=     1 T=1 IP=      1 IndIP=     16 IndIPD=      0 C= -1.469447D-01  7.426918D-01                             NZ=T
 IS=     6 IAt=     6 ISR=     1 T=1 IP=      2 IndIP=     17 IndIPD=      1 C=  1.965504D-01  4.670245D-01                             NZ=T
 IS=     6 IAt=     6 ISR=     1 T=1 IP=      3 IndIP=     18 IndIPD=      2 C=  1.483396D-01  7.398453D-02                             NZ=T
 IS=     7 IAt=     7 ISR=     1 T=0 IP=      1 IndIP=     19 IndIPD=      0 C=  2.636430D-01  0.000000D+00                             NZ=T
 IS=     7 IAt=     7 ISR=     1 T=0 IP=      2 IndIP=     20 IndIPD=      1 C=  2.549840D-01  0.000000D+00                             NZ=T
 IS=     7 IAt=     7 ISR=     1 T=0 IP=      3 IndIP=     21 IndIPD=      2 C=  7.946737D-02  0.000000D+00                             NZ=T
 IS=     8 IAt=     8 ISR=     1 T=0 IP=      1 IndIP=     22 IndIPD=      0 C=  2.636430D-01  0.000000D+00                             NZ=T
 IS=     8 IAt=     8 ISR=     1 T=0 IP=      2 IndIP=     23 IndIPD=      1 C=  2.549840D-01  0.000000D+00                             NZ=T
 IS=     8 IAt=     8 ISR=     1 T=0 IP=      3 IndIP=     24 IndIPD=      2 C=  7.946737D-02  0.000000D+00                             NZ=T
 IS=     9 IAt=     9 ISR=     1 T=0 IP=      1 IndIP=     25 IndIPD=      0 C=  2.636430D-01  0.000000D+00                             NZ=T
 IS=     9 IAt=     9 ISR=     1 T=0 IP=      2 IndIP=     26 IndIPD=      1 C=  2.549840D-01  0.000000D+00                             NZ=T
 IS=     9 IAt=     9 ISR=     1 T=0 IP=      3 IndIP=     27 IndIPD=      2 C=  7.946737D-02  0.000000D+00                             NZ=T
 IS=    10 IAt=    10 ISR=     1 T=0 IP=      1 IndIP=     28 IndIPD=      0 C=  2.636430D-01  0.000000D+00                             NZ=T
 IS=    10 IAt=    10 ISR=     1 T=0 IP=      2 IndIP=     29 IndIPD=      1 C=  2.549840D-01  0.000000D+00                             NZ=T
 IS=    10 IAt=    10 ISR=     1 T=0 IP=      3 IndIP=     30 IndIPD=      2 C=  7.946737D-02  0.000000D+00                             NZ=T
 IS=    11 IAt=    11 ISR=     1 T=0 IP=      1 IndIP=     31 IndIPD=      0 C=  2.636430D-01  0.000000D+00                             NZ=T
 IS=    11 IAt=    11 ISR=     1 T=0 IP=      2 IndIP=     32 IndIPD=      1 C=  2.549840D-01  0.000000D+00                             NZ=T
 IS=    11 IAt=    11 ISR=     1 T=0 IP=      3 IndIP=     33 IndIPD=      2 C=  7.946737D-02  0.000000D+00                             NZ=T
 IS=    12 IAt=    12 ISR=     1 T=0 IP=      1 IndIP=     34 IndIPD=      0 C=  2.636430D-01  0.000000D+00                             NZ=T
 IS=    12 IAt=    12 ISR=     1 T=0 IP=      2 IndIP=     35 IndIPD=      1 C=  2.549840D-01  0.000000D+00                             NZ=T
 IS=    12 IAt=    12 ISR=     1 T=0 IP=      3 IndIP=     36 IndIPD=      2 C=  7.946737D-02  0.000000D+00                             NZ=T
 IS=    13 IAt=    13 ISR=     1 T=1 IP=      1 IndIP=     37 IndIPD=      0 C= -1.469447D-01  7.426918D-01                             NZ=T
 IS=    13 IAt=    13 ISR=     1 T=1 IP=      2 IndIP=     38 IndIPD=      1 C=  1.965504D-01  4.670245D-01                             NZ=T
 IS=    13 IAt=    13 ISR=     1 T=1 IP=      3 IndIP=     39 IndIPD=      2 C=  1.483396D-01  7.398453D-02                             NZ=T
 IS=    14 IAt=    14 ISR=     1 T=1 IP=      1 IndIP=     40 IndIPD=      0 C= -1.469447D-01  7.426918D-01                             NZ=T
 IS=    14 IAt=    14 ISR=     1 T=1 IP=      2 IndIP=     41 IndIPD=      1 C=  1.965504D-01  4.670245D-01                             NZ=T
 IS=    14 IAt=    14 ISR=     1 T=1 IP=      3 IndIP=     42 IndIPD=      2 C=  1.483396D-01  7.398453D-02                             NZ=T
 IS=    15 IAt=    15 ISR=     1 T=1 IP=      1 IndIP=     43 IndIPD=      0 C= -1.469447D-01  7.426918D-01                             NZ=T
 IS=    15 IAt=    15 ISR=     1 T=1 IP=      2 IndIP=     44 IndIPD=      1 C=  1.965504D-01  4.670245D-01                             NZ=T
 IS=    15 IAt=    15 ISR=     1 T=1 IP=      3 IndIP=     45 IndIPD=      2 C=  1.483396D-01  7.398453D-02                             NZ=T
 IS=    16 IAt=    16 ISR=     1 T=1 IP=      1 IndIP=     46 IndIPD=      0 C= -1.469447D-01  7.426918D-01                             NZ=T
 IS=    16 IAt=    16 ISR=     1 T=1 IP=      2 IndIP=     47 IndIPD=      1 C=  1.965504D-01  4.670245D-01                             NZ=T
 IS=    16 IAt=    16 ISR=     1 T=1 IP=      3 IndIP=     48 IndIPD=      2 C=  1.483396D-01  7.398453D-02                             NZ=T
 IS=    17 IAt=    17 ISR=     1 T=1 IP=      1 IndIP=     49 IndIPD=      0 C= -1.469447D-01  7.426918D-01                             NZ=T
 IS=    17 IAt=    17 ISR=     1 T=1 IP=      2 IndIP=     50 IndIPD=      1 C=  1.965504D-01  4.670245D-01                             NZ=T
 IS=    17 IAt=    17 ISR=     1 T=1 IP=      3 IndIP=     51 IndIPD=      2 C=  1.483396D-01  7.398453D-02                             NZ=T
 IS=    18 IAt=    18 ISR=     1 T=1 IP=      1 IndIP=     52 IndIPD=      0 C= -1.469447D-01  7.426918D-01                             NZ=T
 IS=    18 IAt=    18 ISR=     1 T=1 IP=      2 IndIP=     53 IndIPD=      1 C=  1.965504D-01  4.670245D-01                             NZ=T
 IS=    18 IAt=    18 ISR=     1 T=1 IP=      3 IndIP=     54 IndIPD=      2 C=  1.483396D-01  7.398453D-02                             NZ=T
 IS=    19 IAt=    19 ISR=     1 T=0 IP=      1 IndIP=     55 IndIPD=      0 C=  2.636430D-01  0.000000D+00                             NZ=T
 IS=    19 IAt=    19 ISR=     1 T=0 IP=      2 IndIP=     56 IndIPD=      1 C=  2.549840D-01  0.000000D+00                             NZ=T
 IS=    19 IAt=    19 ISR=     1 T=0 IP=      3 IndIP=     57 IndIPD=      2 C=  7.946737D-02  0.000000D+00                             NZ=T
 IS=    20 IAt=    20 ISR=     1 T=0 IP=      1 IndIP=     58 IndIPD=      0 C=  2.636430D-01  0.000000D+00                             NZ=T
 IS=    20 IAt=    20 ISR=     1 T=0 IP=      2 IndIP=     59 IndIPD=      1 C=  2.549840D-01  0.000000D+00                             NZ=T
 IS=    20 IAt=    20 ISR=     1 T=0 IP=      3 IndIP=     60 IndIPD=      2 C=  7.946737D-02  0.000000D+00                             NZ=T
 IS=    21 IAt=    21 ISR=     1 T=0 IP=      1 IndIP=     61 IndIPD=      0 C=  2.636430D-01  0.000000D+00                             NZ=T
 IS=    21 IAt=    21 ISR=     1 T=0 IP=      2 IndIP=     62 IndIPD=      1 C=  2.549840D-01  0.000000D+00                             NZ=T
 IS=    21 IAt=    21 ISR=     1 T=0 IP=      3 IndIP=     63 IndIPD=      2 C=  7.946737D-02  0.000000D+00                             NZ=T
 IS=    22 IAt=    22 ISR=     1 T=0 IP=      1 IndIP=     64 IndIPD=      0 C=  2.636430D-01  0.000000D+00                             NZ=T
 IS=    22 IAt=    22 ISR=     1 T=0 IP=      2 IndIP=     65 IndIPD=      1 C=  2.549840D-01  0.000000D+00                             NZ=T
 IS=    22 IAt=    22 ISR=     1 T=0 IP=      3 IndIP=     66 IndIPD=      2 C=  7.946737D-02  0.000000D+00                             NZ=T
 IS=    23 IAt=    23 ISR=     1 T=0 IP=      1 IndIP=     67 IndIPD=      0 C=  2.636430D-01  0.000000D+00                             NZ=T
 IS=    23 IAt=    23 ISR=     1 T=0 IP=      2 IndIP=     68 IndIPD=      1 C=  2.549840D-01  0.000000D+00                             NZ=T
 IS=    23 IAt=    23 ISR=     1 T=0 IP=      3 IndIP=     69 IndIPD=      2 C=  7.946737D-02  0.000000D+00                             NZ=T
 IS=    24 IAt=    24 ISR=     1 T=0 IP=      1 IndIP=     70 IndIPD=      0 C=  2.636430D-01  0.000000D+00                             NZ=T
 IS=    24 IAt=    24 ISR=     1 T=0 IP=      2 IndIP=     71 IndIPD=      1 C=  2.549840D-01  0.000000D+00                             NZ=T
 IS=    24 IAt=    24 ISR=     1 T=0 IP=      3 IndIP=     72 IndIPD=      2 C=  7.946737D-02  0.000000D+00                             NZ=T
 IExCor=    0 DFT=F Ex=HF Corr=None ExCW=0 ScaHFX=  1.000000
 ScaDFX=  1.000000  1.000000  1.000000  1.000000 ScalE2=  1.000000  1.000000
 IRadAn=      5 IRanWt=     -1 IRanGd=            0 ICorTp=0 IEmpDi=  4
 NAtoms=   24 NActive=   24 NUniq=   24 SFac= 1.00D+00 NAtFMM=   60 NAOKFM=F Big=F
 Integral buffers will be    131072 words long.
 Regular integral format.
 Two-electron integral symmetry is turned off.
 NPDir=0 NMtPBC=     1 NCelOv=     1 NCel=       1 NClECP=     1 NCelD=      1
         NCelK=      1 NCelE2=     1 NClLst=     1 CellRange=     0.0.
 One-electron integrals computed using PRISM.
 Entering OneElI...
 Calculate overlap and kinetic energy integrals
    NBasis =  60  MinDer = 0  MaxDer = 0
 Requested accuracy = 0.1000D-12
 PrmmSu-InSpLW:  IPartL=    0 NPrtUS=    1 NPrtUL=    1 DoSpLW=F IThBeg=    0 IThEnd=    0 NThAct=    1.
 PrSmSu:  IncTry=   512 NBBP=            300 NTPThr=   100 NPartT=    1 Incr=           3 LDynOK=F GPUOK=F.
 PrsmSu:  NPrtUS=   1 ThrOK=F IAlg=2 LenDen=           0 ISkipM=0 DoSpLW=F IThBeg=    0 IThEnd=    0.
 Prism:   IPart=     0 DynPar=F LinDyn=F Incr=           3.
 PRISM was handed   671036253 working-precision words and   300 shell-pairs
 IPart=  0 NShTot=         300 NBatch=           6 AvBLen=        50.0
 PrSmSu:  NxtVal=              4.
 *** Overlap *** 
                1             2             3             4             5 
      1  0.100000D+01
      2  0.000000D+00  0.100000D+01
      3  0.000000D+00  0.000000D+00  0.100000D+01
      4  0.000000D+00  0.000000D+00  0.000000D+00  0.100000D+01
      5  0.406914D+00  0.416933D+00  0.000000D+00  0.000000D+00  0.100000D+01
      6 -0.416933D+00 -0.327152D+00  0.000000D+00  0.000000D+00  0.000000D+00
      7  0.000000D+00  0.000000D+00  0.246654D+00  0.000000D+00  0.000000D+00
      8  0.000000D+00  0.000000D+00  0.000000D+00  0.246654D+00  0.000000D+00
      9  0.808371D-01  0.995314D-01  0.574422D-01  0.000000D+00  0.407138D+00
     10 -0.995314D-01 -0.101841D+00 -0.789663D-01  0.000000D+00 -0.208594D+00
     11 -0.574422D-01 -0.789663D-01 -0.105875D-01  0.000000D+00 -0.361170D+00
     12  0.000000D+00  0.000000D+00  0.000000D+00  0.349861D-01  0.000000D+00
     13  0.377780D-01  0.292990D-01  0.507468D-01 -0.251816D-04  0.808286D-01
     14 -0.292990D-01 -0.966574D-02 -0.428188D-01  0.212476D-04  0.551648D-05
     15 -0.507468D-01 -0.428188D-01 -0.591076D-01  0.368015D-04 -0.114907D+00
     16  0.251816D-04  0.212476D-04  0.368015D-04  0.150560D-01  0.570194D-04
     17  0.808406D-01  0.104164D-04  0.114922D+00 -0.798116D-04  0.377876D-01
     18 -0.104164D-04  0.349878D-01 -0.165331D-04  0.000000D+00  0.293048D-01
     19 -0.114922D+00 -0.165331D-04 -0.147419D+00  0.126678D-03 -0.507590D-01
     20  0.798116D-04  0.000000D+00  0.126678D-03  0.349877D-01  0.352513D-04
     21  0.407080D+00 -0.208511D+00  0.361174D+00 -0.203912D-03  0.808406D-01
     22  0.208511D+00  0.103323D+00  0.248508D+00 -0.140303D-03  0.995287D-01
     23 -0.361174D+00  0.248508D+00 -0.183666D+00  0.243027D-03 -0.574556D-01
     24  0.203912D-03 -0.140303D-03  0.243027D-03  0.246790D+00  0.324383D-04
     25  0.513022D+00 -0.242844D+00 -0.420665D+00  0.198778D-03  0.113652D+00
     26  0.113679D+00  0.130712D+00 -0.640238D-01  0.883885D-04  0.512997D+00
     27  0.924829D-02  0.141631D-01  0.535859D-02  0.281276D-05  0.113687D+00
     28  0.289966D-02  0.256780D-02  0.444643D-02 -0.166061D-05  0.925268D-02
     29  0.925202D-02 -0.244070D-02  0.149507D-01 -0.116775D-04  0.289994D-02
     30  0.113688D+00 -0.120797D+00  0.812147D-01 -0.579453D-04  0.925045D-02
     31  0.100000D+01  0.000000D+00  0.000000D+00  0.000000D+00  0.406914D+00
     32  0.000000D+00  0.100000D+01  0.000000D+00  0.000000D+00  0.416933D+00
     33  0.000000D+00  0.000000D+00  0.100000D+01  0.000000D+00  0.000000D+00
     34  0.000000D+00  0.000000D+00  0.000000D+00  0.100000D+01  0.000000D+00
     35  0.406914D+00  0.416933D+00  0.000000D+00  0.000000D+00  0.100000D+01
     36 -0.416933D+00 -0.327152D+00  0.000000D+00  0.000000D+00  0.000000D+00
     37  0.000000D+00  0.000000D+00  0.246654D+00  0.000000D+00  0.000000D+00
     38  0.000000D+00  0.000000D+00  0.000000D+00  0.246654D+00  0.000000D+00
     39  0.808371D-01  0.995314D-01  0.574422D-01  0.000000D+00  0.407138D+00
     40 -0.995314D-01 -0.101841D+00 -0.789663D-01  0.000000D+00 -0.208594D+00
     41 -0.574422D-01 -0.789663D-01 -0.105875D-01  0.000000D+00 -0.361170D+00
     42  0.000000D+00  0.000000D+00  0.000000D+00  0.349861D-01  0.000000D+00
     43  0.377780D-01  0.292990D-01  0.507468D-01 -0.251816D-04  0.808286D-01
     44 -0.292990D-01 -0.966574D-02 -0.428188D-01  0.212476D-04  0.551648D-05
     45 -0.507468D-01 -0.428188D-01 -0.591076D-01  0.368015D-04 -0.114907D+00
     46  0.251816D-04  0.212476D-04  0.368015D-04  0.150560D-01  0.570194D-04
     47  0.808406D-01  0.104164D-04  0.114922D+00 -0.798116D-04  0.377876D-01
     48 -0.104164D-04  0.349878D-01 -0.165331D-04  0.000000D+00  0.293048D-01
     49 -0.114922D+00 -0.165331D-04 -0.147419D+00  0.126678D-03 -0.507590D-01
     50  0.798116D-04  0.000000D+00  0.126678D-03  0.349877D-01  0.352513D-04
     51  0.407080D+00 -0.208511D+00  0.361174D+00 -0.203912D-03  0.808406D-01
     52  0.208511D+00  0.103323D+00  0.248508D+00 -0.140303D-03  0.995287D-01
     53 -0.361174D+00  0.248508D+00 -0.183666D+00  0.243027D-03 -0.574556D-01
     54  0.203912D-03 -0.140303D-03  0.243027D-03  0.246790D+00  0.324383D-04
     55  0.513022D+00 -0.242844D+00 -0.420665D+00  0.198778D-03  0.113652D+00
     56  0.113679D+00  0.130712D+00 -0.640238D-01  0.883885D-04  0.512997D+00
     57  0.924829D-02  0.141631D-01  0.535859D-02  0.281276D-05  0.113687D+00
     58  0.289966D-02  0.256780D-02  0.444643D-02 -0.166061D-05  0.925268D-02
     59  0.925202D-02 -0.244070D-02  0.149507D-01 -0.116775D-04  0.289994D-02
     60  0.113688D+00 -0.120797D+00  0.812147D-01 -0.579453D-04  0.925045D-02
                6             7             8             9            10 
      6  0.100000D+01
      7  0.000000D+00  0.100000D+01
      8  0.000000D+00  0.000000D+00  0.100000D+01
      9  0.208594D+00  0.361170D+00  0.000000D+00  0.100000D+01
     10  0.103272D+00 -0.248577D+00  0.000000D+00  0.000000D+00  0.100000D+01
     11 -0.248577D+00 -0.183560D+00  0.000000D+00  0.000000D+00  0.000000D+00
     12  0.000000D+00  0.000000D+00  0.246839D+00  0.000000D+00  0.000000D+00
     13 -0.551648D-05  0.114907D+00 -0.570194D-04  0.406780D+00 -0.208405D+00
     14  0.349819D-01  0.875596D-05  0.000000D+00  0.208405D+00  0.103141D+00
     15  0.875596D-05 -0.147403D+00  0.905034D-04 -0.361009D+00  0.248410D+00
     16  0.000000D+00  0.905034D-04  0.349819D-01  0.358169D-03 -0.246456D-03
     17 -0.293048D-01  0.507590D-01 -0.352513D-04  0.808138D-01 -0.994897D-01
     18 -0.966519D-02  0.428269D-01 -0.297426D-04  0.994897D-01 -0.101775D+00
     19  0.428269D-01 -0.591205D-01  0.515173D-04 -0.574565D-01  0.789747D-01
     20 -0.297426D-04  0.515173D-04  0.150602D-01  0.797828D-04 -0.109662D-03
     21 -0.995287D-01  0.574556D-01 -0.324383D-04  0.377767D-01 -0.585958D-01
     22 -0.101826D+00  0.789793D-01 -0.445902D-04  0.585958D-01 -0.838272D-01
     23  0.789793D-01 -0.106051D-01  0.257409D-04 -0.472533D-05  0.797418D-05
     24 -0.445902D-04  0.257409D-04  0.349878D-01  0.143230D-04 -0.241706D-04
     25 -0.130694D+00 -0.639934D-01  0.302389D-04  0.925350D-02 -0.117303D-01
     26  0.242716D+00 -0.420722D+00  0.580832D-03  0.113695D+00 -0.995153D-02
     27  0.120810D+00  0.811912D-01  0.426179D-04  0.512983D+00  0.485707D+00
     28  0.244169D-02  0.149515D-01 -0.558396D-05  0.113628D+00 -0.990615D-02
     29 -0.256782D-02  0.444696D-02 -0.347338D-05  0.924236D-02 -0.117161D-01
     30 -0.141656D-01  0.536136D-02 -0.382524D-05  0.290011D-02 -0.513537D-02
     31 -0.416933D+00  0.000000D+00  0.000000D+00  0.808371D-01 -0.995314D-01
     32 -0.327152D+00  0.000000D+00  0.000000D+00  0.995314D-01 -0.101841D+00
     33  0.000000D+00  0.246654D+00  0.000000D+00  0.574422D-01 -0.789663D-01
     34  0.000000D+00  0.000000D+00  0.246654D+00  0.000000D+00  0.000000D+00
     35  0.000000D+00  0.000000D+00  0.000000D+00  0.407138D+00 -0.208594D+00
     36  0.100000D+01  0.000000D+00  0.000000D+00  0.208594D+00  0.103272D+00
     37  0.000000D+00  0.100000D+01  0.000000D+00  0.361170D+00 -0.248577D+00
     38  0.000000D+00  0.000000D+00  0.100000D+01  0.000000D+00  0.000000D+00
     39  0.208594D+00  0.361170D+00  0.000000D+00  0.100000D+01  0.000000D+00
     40  0.103272D+00 -0.248577D+00  0.000000D+00  0.000000D+00  0.100000D+01
     41 -0.248577D+00 -0.183560D+00  0.000000D+00  0.000000D+00  0.000000D+00
     42  0.000000D+00  0.000000D+00  0.246839D+00  0.000000D+00  0.000000D+00
     43 -0.551648D-05  0.114907D+00 -0.570194D-04  0.406780D+00 -0.208405D+00
     44  0.349819D-01  0.875596D-05  0.000000D+00  0.208405D+00  0.103141D+00
     45  0.875596D-05 -0.147403D+00  0.905034D-04 -0.361009D+00  0.248410D+00
     46  0.000000D+00  0.905034D-04  0.349819D-01  0.358169D-03 -0.246456D-03
     47 -0.293048D-01  0.507590D-01 -0.352513D-04  0.808138D-01 -0.994897D-01
     48 -0.966519D-02  0.428269D-01 -0.297426D-04  0.994897D-01 -0.101775D+00
     49  0.428269D-01 -0.591205D-01  0.515173D-04 -0.574565D-01  0.789747D-01
     50 -0.297426D-04  0.515173D-04  0.150602D-01  0.797828D-04 -0.109662D-03
     51 -0.995287D-01  0.574556D-01 -0.324383D-04  0.377767D-01 -0.585958D-01
     52 -0.101826D+00  0.789793D-01 -0.445902D-04  0.585958D-01 -0.838272D-01
     53  0.789793D-01 -0.106051D-01  0.257409D-04 -0.472533D-05  0.797418D-05
     54 -0.445902D-04  0.257409D-04  0.349878D-01  0.143230D-04 -0.241706D-04
     55 -0.130694D+00 -0.639934D-01  0.302389D-04  0.925350D-02 -0.117303D-01
     56  0.242716D+00 -0.420722D+00  0.580832D-03  0.113695D+00 -0.995153D-02
     57  0.120810D+00  0.811912D-01  0.426179D-04  0.512983D+00  0.485707D+00
     58  0.244169D-02  0.149515D-01 -0.558396D-05  0.113628D+00 -0.990615D-02
     59 -0.256782D-02  0.444696D-02 -0.347338D-05  0.924236D-02 -0.117161D-01
     60 -0.141656D-01  0.536136D-02 -0.382524D-05  0.290011D-02 -0.513537D-02
               11            12            13            14            15 
     11  0.100000D+01
     12  0.000000D+00  0.100000D+01
     13  0.361009D+00 -0.358169D-03  0.100000D+01
     14  0.248410D+00 -0.246456D-03  0.000000D+00  0.100000D+01
     15 -0.183763D+00  0.426922D-03  0.000000D+00  0.000000D+00  0.100000D+01
     16  0.426922D-03  0.246544D+00  0.000000D+00  0.000000D+00  0.000000D+00
     17  0.574565D-01 -0.797828D-04  0.407082D+00 -0.417042D+00 -0.233214D-04
     18  0.789747D-01 -0.109662D-03  0.417042D+00 -0.327133D+00 -0.320945D-04
     19 -0.106341D-01  0.633313D-04  0.233214D-04 -0.320945D-04  0.246792D+00
     20  0.633313D-04  0.349746D-01  0.143217D-03 -0.197093D-03  0.000000D+00
     21  0.472533D-05 -0.143230D-04  0.808323D-01 -0.995121D-01 -0.574638D-01
     22  0.797418D-05 -0.241706D-04  0.995121D-01 -0.101798D+00 -0.789852D-01
     23  0.150554D-01  0.000000D+00  0.574638D-01 -0.789852D-01 -0.106267D-01
     24  0.000000D+00  0.150554D-01 -0.245876D-04  0.337961D-04  0.195158D-04
     25 -0.958891D-02  0.199763D-05  0.290017D-02 -0.256770D-02 -0.444748D-02
     26 -0.145227D+00  0.884028D-04  0.924644D-02  0.243791D-02 -0.149425D-01
     27  0.353344D-04  0.280025D-03  0.113603D+00  0.120717D+00 -0.811638D-01
     28  0.145155D+00 -0.845141D-04  0.512983D+00  0.243012D+00  0.420543D+00
     29  0.957960D-02 -0.116646D-04  0.113657D+00 -0.130702D+00  0.639888D-01
     30  0.000000D+00 -0.113806D-05  0.925322D-02 -0.141695D-01 -0.536279D-02
     31 -0.574422D-01  0.000000D+00  0.377780D-01 -0.292990D-01 -0.507468D-01
     32 -0.789663D-01  0.000000D+00  0.292990D-01 -0.966574D-02 -0.428188D-01
     33 -0.105875D-01  0.000000D+00  0.507468D-01 -0.428188D-01 -0.591076D-01
     34  0.000000D+00  0.349861D-01 -0.251816D-04  0.212476D-04  0.368015D-04
     35 -0.361170D+00  0.000000D+00  0.808286D-01  0.551648D-05 -0.114907D+00
     36 -0.248577D+00  0.000000D+00 -0.551648D-05  0.349819D-01  0.875596D-05
     37 -0.183560D+00  0.000000D+00  0.114907D+00  0.875596D-05 -0.147403D+00
     38  0.000000D+00  0.246839D+00 -0.570194D-04  0.000000D+00  0.905034D-04
     39  0.000000D+00  0.000000D+00  0.406780D+00  0.208405D+00 -0.361009D+00
     40  0.000000D+00  0.000000D+00 -0.208405D+00  0.103141D+00  0.248410D+00
     41  0.100000D+01  0.000000D+00  0.361009D+00  0.248410D+00 -0.183763D+00
     42  0.000000D+00  0.100000D+01 -0.358169D-03 -0.246456D-03  0.426922D-03
     43  0.361009D+00 -0.358169D-03  0.100000D+01  0.000000D+00  0.000000D+00
     44  0.248410D+00 -0.246456D-03  0.000000D+00  0.100000D+01  0.000000D+00
     45 -0.183763D+00  0.426922D-03  0.000000D+00  0.000000D+00  0.100000D+01
     46  0.426922D-03  0.246544D+00  0.000000D+00  0.000000D+00  0.000000D+00
     47  0.574565D-01 -0.797828D-04  0.407082D+00 -0.417042D+00 -0.233214D-04
     48  0.789747D-01 -0.109662D-03  0.417042D+00 -0.327133D+00 -0.320945D-04
     49 -0.106341D-01  0.633313D-04  0.233214D-04 -0.320945D-04  0.246792D+00
     50  0.633313D-04  0.349746D-01  0.143217D-03 -0.197093D-03  0.000000D+00
     51  0.472533D-05 -0.143230D-04  0.808323D-01 -0.995121D-01 -0.574638D-01
     52  0.797418D-05 -0.241706D-04  0.995121D-01 -0.101798D+00 -0.789852D-01
     53  0.150554D-01  0.000000D+00  0.574638D-01 -0.789852D-01 -0.106267D-01
     54  0.000000D+00  0.150554D-01 -0.245876D-04  0.337961D-04  0.195158D-04
     55 -0.958891D-02  0.199763D-05  0.290017D-02 -0.256770D-02 -0.444748D-02
     56 -0.145227D+00  0.884028D-04  0.924644D-02  0.243791D-02 -0.149425D-01
     57  0.353344D-04  0.280025D-03  0.113603D+00  0.120717D+00 -0.811638D-01
     58  0.145155D+00 -0.845141D-04  0.512983D+00  0.243012D+00  0.420543D+00
     59  0.957960D-02 -0.116646D-04  0.113657D+00 -0.130702D+00  0.639888D-01
     60  0.000000D+00 -0.113806D-05  0.925322D-02 -0.141695D-01 -0.536279D-02
               16            17            18            19            20 
     16  0.100000D+01
     17 -0.143217D-03  0.100000D+01
     18 -0.197093D-03  0.000000D+00  0.100000D+01
     19  0.000000D+00  0.000000D+00  0.000000D+00  0.100000D+01
     20  0.246792D+00  0.000000D+00  0.000000D+00  0.000000D+00  0.100000D+01
     21  0.245876D-04  0.406925D+00 -0.208480D+00 -0.361075D+00  0.297657D-03
     22  0.337961D-04  0.208480D+00  0.103197D+00 -0.248476D+00  0.204835D-03
     23  0.195158D-04  0.361075D+00 -0.248476D+00 -0.183684D+00  0.354762D-03
     24  0.349837D-01 -0.297657D-03  0.204835D-03  0.354762D-03  0.246663D+00
     25  0.217715D-05  0.925101D-02 -0.244075D-02 -0.149491D-01  0.944388D-05
     26  0.111511D-04  0.290072D-02  0.256773D-02 -0.444851D-02  0.395239D-05
     27  0.123113D-03  0.924872D-02  0.141628D-01 -0.536116D-02  0.102578D-04
     28 -0.260591D-04  0.113642D+00  0.130688D+00  0.639804D-01  0.282201D-04
     29 -0.962315D-04  0.512938D+00 -0.242947D+00  0.420551D+00 -0.420868D-03
     30  0.149595D-05  0.113668D+00 -0.120787D+00 -0.811890D-01  0.548418D-04
     31  0.251816D-04  0.808406D-01 -0.104164D-04 -0.114922D+00  0.798116D-04
     32  0.212476D-04  0.104164D-04  0.349878D-01 -0.165331D-04  0.000000D+00
     33  0.368015D-04  0.114922D+00 -0.165331D-04 -0.147419D+00  0.126678D-03
     34  0.150560D-01 -0.798116D-04  0.000000D+00  0.126678D-03  0.349877D-01
     35  0.570194D-04  0.377876D-01  0.293048D-01 -0.507590D-01  0.352513D-04
     36  0.000000D+00 -0.293048D-01 -0.966519D-02  0.428269D-01 -0.297426D-04
     37  0.905034D-04  0.507590D-01  0.428269D-01 -0.591205D-01  0.515173D-04
     38  0.349819D-01 -0.352513D-04 -0.297426D-04  0.515173D-04  0.150602D-01
     39  0.358169D-03  0.808138D-01  0.994897D-01 -0.574565D-01  0.797828D-04
     40 -0.246456D-03 -0.994897D-01 -0.101775D+00  0.789747D-01 -0.109662D-03
     41  0.426922D-03  0.574565D-01  0.789747D-01 -0.106341D-01  0.633313D-04
     42  0.246544D+00 -0.797828D-04 -0.109662D-03  0.633313D-04  0.349746D-01
     43  0.000000D+00  0.407082D+00  0.417042D+00  0.233214D-04  0.143217D-03
     44  0.000000D+00 -0.417042D+00 -0.327133D+00 -0.320945D-04 -0.197093D-03
     45  0.000000D+00 -0.233214D-04 -0.320945D-04  0.246792D+00  0.000000D+00
     46  0.100000D+01 -0.143217D-03 -0.197093D-03  0.000000D+00  0.246792D+00
     47 -0.143217D-03  0.100000D+01  0.000000D+00  0.000000D+00  0.000000D+00
     48 -0.197093D-03  0.000000D+00  0.100000D+01  0.000000D+00  0.000000D+00
     49  0.000000D+00  0.000000D+00  0.000000D+00  0.100000D+01  0.000000D+00
     50  0.246792D+00  0.000000D+00  0.000000D+00  0.000000D+00  0.100000D+01
     51  0.245876D-04  0.406925D+00 -0.208480D+00 -0.361075D+00  0.297657D-03
     52  0.337961D-04  0.208480D+00  0.103197D+00 -0.248476D+00  0.204835D-03
     53  0.195158D-04  0.361075D+00 -0.248476D+00 -0.183684D+00  0.354762D-03
     54  0.349837D-01 -0.297657D-03  0.204835D-03  0.354762D-03  0.246663D+00
     55  0.217715D-05  0.925101D-02 -0.244075D-02 -0.149491D-01  0.944388D-05
     56  0.111511D-04  0.290072D-02  0.256773D-02 -0.444851D-02  0.395239D-05
     57  0.123113D-03  0.924872D-02  0.141628D-01 -0.536116D-02  0.102578D-04
     58 -0.260591D-04  0.113642D+00  0.130688D+00  0.639804D-01  0.282201D-04
     59 -0.962315D-04  0.512938D+00 -0.242947D+00  0.420551D+00 -0.420868D-03
     60  0.149595D-05  0.113668D+00 -0.120787D+00 -0.811890D-01  0.548418D-04
               21            22            23            24            25 
     21  0.100000D+01
     22  0.000000D+00  0.100000D+01
     23  0.000000D+00  0.000000D+00  0.100000D+01
     24  0.000000D+00  0.000000D+00  0.000000D+00  0.100000D+01
     25  0.113695D+00  0.992415D-02 -0.145229D+00  0.761002D-04  0.100000D+01
     26  0.925453D-02  0.117299D-01 -0.959191D-02  0.886607D-05  0.580893D-01
     27  0.289954D-02  0.513444D-02  0.000000D+00  0.173710D-05  0.110478D-02
     28  0.924583D-02  0.117208D-01  0.958213D-02 -0.255473D-05  0.180720D-03
     29  0.113659D+00  0.991094D-02  0.145190D+00 -0.130977D-03  0.110500D-02
     30  0.513026D+00 -0.485730D+00  0.808370D-04 -0.795118D-04  0.580672D-01
     31  0.407080D+00  0.208511D+00 -0.361174D+00  0.203912D-03  0.513022D+00
     32 -0.208511D+00  0.103323D+00  0.248508D+00 -0.140303D-03 -0.242844D+00
     33  0.361174D+00  0.248508D+00 -0.183666D+00  0.243027D-03 -0.420665D+00
     34 -0.203912D-03 -0.140303D-03  0.243027D-03  0.246790D+00  0.198778D-03
     35  0.808406D-01  0.995287D-01 -0.574556D-01  0.324383D-04  0.113652D+00
     36 -0.995287D-01 -0.101826D+00  0.789793D-01 -0.445902D-04 -0.130694D+00
     37  0.574556D-01  0.789793D-01 -0.106051D-01  0.257409D-04 -0.639934D-01
     38 -0.324383D-04 -0.445902D-04  0.257409D-04  0.349878D-01  0.302389D-04
     39  0.377767D-01  0.585958D-01 -0.472533D-05  0.143230D-04  0.925350D-02
     40 -0.585958D-01 -0.838272D-01  0.797418D-05 -0.241706D-04 -0.117303D-01
     41  0.472533D-05  0.797418D-05  0.150554D-01  0.000000D+00 -0.958891D-02
     42 -0.143230D-04 -0.241706D-04  0.000000D+00  0.150554D-01  0.199763D-05
     43  0.808323D-01  0.995121D-01  0.574638D-01 -0.245876D-04  0.290017D-02
     44 -0.995121D-01 -0.101798D+00 -0.789852D-01  0.337961D-04 -0.256770D-02
     45 -0.574638D-01 -0.789852D-01 -0.106267D-01  0.195158D-04 -0.444748D-02
     46  0.245876D-04  0.337961D-04  0.195158D-04  0.349837D-01  0.217715D-05
     47  0.406925D+00  0.208480D+00  0.361075D+00 -0.297657D-03  0.925101D-02
     48 -0.208480D+00  0.103197D+00 -0.248476D+00  0.204835D-03 -0.244075D-02
     49 -0.361075D+00 -0.248476D+00 -0.183684D+00  0.354762D-03 -0.149491D-01
     50  0.297657D-03  0.204835D-03  0.354762D-03  0.246663D+00  0.944388D-05
     51  0.100000D+01  0.000000D+00  0.000000D+00  0.000000D+00  0.113695D+00
     52  0.000000D+00  0.100000D+01  0.000000D+00  0.000000D+00  0.992415D-02
     53  0.000000D+00  0.000000D+00  0.100000D+01  0.000000D+00 -0.145229D+00
     54  0.000000D+00  0.000000D+00  0.000000D+00  0.100000D+01  0.761002D-04
     55  0.113695D+00  0.992415D-02 -0.145229D+00  0.761002D-04  0.100000D+01
     56  0.925453D-02  0.117299D-01 -0.959191D-02  0.886607D-05  0.580893D-01
     57  0.289954D-02  0.513444D-02  0.000000D+00  0.173710D-05  0.110478D-02
     58  0.924583D-02  0.117208D-01  0.958213D-02 -0.255473D-05  0.180720D-03
     59  0.113659D+00  0.991094D-02  0.145190D+00 -0.130977D-03  0.110500D-02
     60  0.513026D+00 -0.485730D+00  0.808370D-04 -0.795118D-04  0.580672D-01
               26            27            28            29            30 
     26  0.100000D+01
     27  0.580541D-01  0.100000D+01
     28  0.110462D-02  0.580634D-01  0.100000D+01
     29  0.180716D-03  0.110374D-02  0.580150D-01  0.100000D+01
     30  0.110522D-02  0.180715D-03  0.110442D-02  0.580900D-01  0.100000D+01
     31  0.113679D+00  0.924829D-02  0.289966D-02  0.925202D-02  0.113688D+00
     32  0.130712D+00  0.141631D-01  0.256780D-02 -0.244070D-02 -0.120797D+00
     33 -0.640238D-01  0.535859D-02  0.444643D-02  0.149507D-01  0.812147D-01
     34  0.883885D-04  0.281276D-05 -0.166061D-05 -0.116775D-04 -0.579453D-04
     35  0.512997D+00  0.113687D+00  0.925268D-02  0.289994D-02  0.925045D-02
     36  0.242716D+00  0.120810D+00  0.244169D-02 -0.256782D-02 -0.141656D-01
     37 -0.420722D+00  0.811912D-01  0.149515D-01  0.444696D-02  0.536136D-02
     38  0.580832D-03  0.426179D-04 -0.558396D-05 -0.347338D-05 -0.382524D-05
     39  0.113695D+00  0.512983D+00  0.113628D+00  0.924236D-02  0.290011D-02
     40 -0.995153D-02  0.485707D+00 -0.990615D-02 -0.117161D-01 -0.513537D-02
     41 -0.145227D+00  0.353344D-04  0.145155D+00  0.957960D-02  0.000000D+00
     42  0.884028D-04  0.280025D-03 -0.845141D-04 -0.116646D-04 -0.113806D-05
     43  0.924644D-02  0.113603D+00  0.512983D+00  0.113657D+00  0.925322D-02
     44  0.243791D-02  0.120717D+00  0.243012D+00 -0.130702D+00 -0.141695D-01
     45 -0.149425D-01 -0.811638D-01  0.420543D+00  0.639888D-01 -0.536279D-02
     46  0.111511D-04  0.123113D-03 -0.260591D-04 -0.962315D-04  0.149595D-05
     47  0.290072D-02  0.924872D-02  0.113642D+00  0.512938D+00  0.113668D+00
     48  0.256773D-02  0.141628D-01  0.130688D+00 -0.242947D+00 -0.120787D+00
     49 -0.444851D-02 -0.536116D-02  0.639804D-01  0.420551D+00 -0.811890D-01
     50  0.395239D-05  0.102578D-04  0.282201D-04 -0.420868D-03  0.548418D-04
     51  0.925453D-02  0.289954D-02  0.924583D-02  0.113659D+00  0.513026D+00
     52  0.117299D-01  0.513444D-02  0.117208D-01  0.991094D-02 -0.485730D+00
     53 -0.959191D-02  0.000000D+00  0.958213D-02  0.145190D+00  0.808370D-04
     54  0.886607D-05  0.173710D-05 -0.255473D-05 -0.130977D-03 -0.795118D-04
     55  0.580893D-01  0.110478D-02  0.180720D-03  0.110500D-02  0.580672D-01
     56  0.100000D+01  0.580541D-01  0.110462D-02  0.180716D-03  0.110522D-02
     57  0.580541D-01  0.100000D+01  0.580634D-01  0.110374D-02  0.180715D-03
     58  0.110462D-02  0.580634D-01  0.100000D+01  0.580150D-01  0.110442D-02
     59  0.180716D-03  0.110374D-02  0.580150D-01  0.100000D+01  0.580900D-01
     60  0.110522D-02  0.180715D-03  0.110442D-02  0.580900D-01  0.100000D+01
               31            32            33            34            35 
     31  0.100000D+01
     32  0.000000D+00  0.100000D+01
     33  0.000000D+00  0.000000D+00  0.100000D+01
     34  0.000000D+00  0.000000D+00  0.000000D+00  0.100000D+01
     35  0.406914D+00  0.416933D+00  0.000000D+00  0.000000D+00  0.100000D+01
     36 -0.416933D+00 -0.327152D+00  0.000000D+00  0.000000D+00  0.000000D+00
     37  0.000000D+00  0.000000D+00  0.246654D+00  0.000000D+00  0.000000D+00
     38  0.000000D+00  0.000000D+00  0.000000D+00  0.246654D+00  0.000000D+00
     39  0.808371D-01  0.995314D-01  0.574422D-01  0.000000D+00  0.407138D+00
     40 -0.995314D-01 -0.101841D+00 -0.789663D-01  0.000000D+00 -0.208594D+00
     41 -0.574422D-01 -0.789663D-01 -0.105875D-01  0.000000D+00 -0.361170D+00
     42  0.000000D+00  0.000000D+00  0.000000D+00  0.349861D-01  0.000000D+00
     43  0.377780D-01  0.292990D-01  0.507468D-01 -0.251816D-04  0.808286D-01
     44 -0.292990D-01 -0.966574D-02 -0.428188D-01  0.212476D-04  0.551648D-05
     45 -0.507468D-01 -0.428188D-01 -0.591076D-01  0.368015D-04 -0.114907D+00
     46  0.251816D-04  0.212476D-04  0.368015D-04  0.150560D-01  0.570194D-04
     47  0.808406D-01  0.104164D-04  0.114922D+00 -0.798116D-04  0.377876D-01
     48 -0.104164D-04  0.349878D-01 -0.165331D-04  0.000000D+00  0.293048D-01
     49 -0.114922D+00 -0.165331D-04 -0.147419D+00  0.126678D-03 -0.507590D-01
     50  0.798116D-04  0.000000D+00  0.126678D-03  0.349877D-01  0.352513D-04
     51  0.407080D+00 -0.208511D+00  0.361174D+00 -0.203912D-03  0.808406D-01
     52  0.208511D+00  0.103323D+00  0.248508D+00 -0.140303D-03  0.995287D-01
     53 -0.361174D+00  0.248508D+00 -0.183666D+00  0.243027D-03 -0.574556D-01
     54  0.203912D-03 -0.140303D-03  0.243027D-03  0.246790D+00  0.324383D-04
     55  0.513022D+00 -0.242844D+00 -0.420665D+00  0.198778D-03  0.113652D+00
     56  0.113679D+00  0.130712D+00 -0.640238D-01  0.883885D-04  0.512997D+00
     57  0.924829D-02  0.141631D-01  0.535859D-02  0.281276D-05  0.113687D+00
     58  0.289966D-02  0.256780D-02  0.444643D-02 -0.166061D-05  0.925268D-02
     59  0.925202D-02 -0.244070D-02  0.149507D-01 -0.116775D-04  0.289994D-02
     60  0.113688D+00 -0.120797D+00  0.812147D-01 -0.579453D-04  0.925045D-02
               36            37            38            39            40 
     36  0.100000D+01
     37  0.000000D+00  0.100000D+01
     38  0.000000D+00  0.000000D+00  0.100000D+01
     39  0.208594D+00  0.361170D+00  0.000000D+00  0.100000D+01
     40  0.103272D+00 -0.248577D+00  0.000000D+00  0.000000D+00  0.100000D+01
     41 -0.248577D+00 -0.183560D+00  0.000000D+00  0.000000D+00  0.000000D+00
     42  0.000000D+00  0.000000D+00  0.246839D+00  0.000000D+00  0.000000D+00
     43 -0.551648D-05  0.114907D+00 -0.570194D-04  0.406780D+00 -0.208405D+00
     44  0.349819D-01  0.875596D-05  0.000000D+00  0.208405D+00  0.103141D+00
     45  0.875596D-05 -0.147403D+00  0.905034D-04 -0.361009D+00  0.248410D+00
     46  0.000000D+00  0.905034D-04  0.349819D-01  0.358169D-03 -0.246456D-03
     47 -0.293048D-01  0.507590D-01 -0.352513D-04  0.808138D-01 -0.994897D-01
     48 -0.966519D-02  0.428269D-01 -0.297426D-04  0.994897D-01 -0.101775D+00
     49  0.428269D-01 -0.591205D-01  0.515173D-04 -0.574565D-01  0.789747D-01
     50 -0.297426D-04  0.515173D-04  0.150602D-01  0.797828D-04 -0.109662D-03
     51 -0.995287D-01  0.574556D-01 -0.324383D-04  0.377767D-01 -0.585958D-01
     52 -0.101826D+00  0.789793D-01 -0.445902D-04  0.585958D-01 -0.838272D-01
     53  0.789793D-01 -0.106051D-01  0.257409D-04 -0.472533D-05  0.797418D-05
     54 -0.445902D-04  0.257409D-04  0.349878D-01  0.143230D-04 -0.241706D-04
     55 -0.130694D+00 -0.639934D-01  0.302389D-04  0.925350D-02 -0.117303D-01
     56  0.242716D+00 -0.420722D+00  0.580832D-03  0.113695D+00 -0.995153D-02
     57  0.120810D+00  0.811912D-01  0.426179D-04  0.512983D+00  0.485707D+00
     58  0.244169D-02  0.149515D-01 -0.558396D-05  0.113628D+00 -0.990615D-02
     59 -0.256782D-02  0.444696D-02 -0.347338D-05  0.924236D-02 -0.117161D-01
     60 -0.141656D-01  0.536136D-02 -0.382524D-05  0.290011D-02 -0.513537D-02
               41            42            43            44            45 
     41  0.100000D+01
     42  0.000000D+00  0.100000D+01
     43  0.361009D+00 -0.358169D-03  0.100000D+01
     44  0.248410D+00 -0.246456D-03  0.000000D+00  0.100000D+01
     45 -0.183763D+00  0.426922D-03  0.000000D+00  0.000000D+00  0.100000D+01
     46  0.426922D-03  0.246544D+00  0.000000D+00  0.000000D+00  0.000000D+00
     47  0.574565D-01 -0.797828D-04  0.407082D+00 -0.417042D+00 -0.233214D-04
     48  0.789747D-01 -0.109662D-03  0.417042D+00 -0.327133D+00 -0.320945D-04
     49 -0.106341D-01  0.633313D-04  0.233214D-04 -0.320945D-04  0.246792D+00
     50  0.633313D-04  0.349746D-01  0.143217D-03 -0.197093D-03  0.000000D+00
     51  0.472533D-05 -0.143230D-04  0.808323D-01 -0.995121D-01 -0.574638D-01
     52  0.797418D-05 -0.241706D-04  0.995121D-01 -0.101798D+00 -0.789852D-01
     53  0.150554D-01  0.000000D+00  0.574638D-01 -0.789852D-01 -0.106267D-01
     54  0.000000D+00  0.150554D-01 -0.245876D-04  0.337961D-04  0.195158D-04
     55 -0.958891D-02  0.199763D-05  0.290017D-02 -0.256770D-02 -0.444748D-02
     56 -0.145227D+00  0.884028D-04  0.924644D-02  0.243791D-02 -0.149425D-01
     57  0.353344D-04  0.280025D-03  0.113603D+00  0.120717D+00 -0.811638D-01
     58  0.145155D+00 -0.845141D-04  0.512983D+00  0.243012D+00  0.420543D+00
     59  0.957960D-02 -0.116646D-04  0.113657D+00 -0.130702D+00  0.639888D-01
     60  0.000000D+00 -0.113806D-05  0.925322D-02 -0.141695D-01 -0.536279D-02
               46            47            48            49            50 
     46  0.100000D+01
     47 -0.143217D-03  0.100000D+01
     48 -0.197093D-03  0.000000D+00  0.100000D+01
     49  0.000000D+00  0.000000D+00  0.000000D+00  0.100000D+01
     50  0.246792D+00  0.000000D+00  0.000000D+00  0.000000D+00  0.100000D+01
     51  0.245876D-04  0.406925D+00 -0.208480D+00 -0.361075D+00  0.297657D-03
     52  0.337961D-04  0.208480D+00  0.103197D+00 -0.248476D+00  0.204835D-03
     53  0.195158D-04  0.361075D+00 -0.248476D+00 -0.183684D+00  0.354762D-03
     54  0.349837D-01 -0.297657D-03  0.204835D-03  0.354762D-03  0.246663D+00
     55  0.217715D-05  0.925101D-02 -0.244075D-02 -0.149491D-01  0.944388D-05
     56  0.111511D-04  0.290072D-02  0.256773D-02 -0.444851D-02  0.395239D-05
     57  0.123113D-03  0.924872D-02  0.141628D-01 -0.536116D-02  0.102578D-04
     58 -0.260591D-04  0.113642D+00  0.130688D+00  0.639804D-01  0.282201D-04
     59 -0.962315D-04  0.512938D+00 -0.242947D+00  0.420551D+00 -0.420868D-03
     60  0.149595D-05  0.113668D+00 -0.120787D+00 -0.811890D-01  0.548418D-04
               51            52            53            54            55 
     51  0.100000D+01
     52  0.000000D+00  0.100000D+01
     53  0.000000D+00  0.000000D+00  0.100000D+01
     54  0.000000D+00  0.000000D+00  0.000000D+00  0.100000D+01
     55  0.113695D+00  0.992415D-02 -0.145229D+00  0.761002D-04  0.100000D+01
     56  0.925453D-02  0.117299D-01 -0.959191D-02  0.886607D-05  0.580893D-01
     57  0.289954D-02  0.513444D-02  0.000000D+00  0.173710D-05  0.110478D-02
     58  0.924583D-02  0.117208D-01  0.958213D-02 -0.255473D-05  0.180720D-03
     59  0.113659D+00  0.991094D-02  0.145190D+00 -0.130977D-03  0.110500D-02
     60  0.513026D+00 -0.485730D+00  0.808370D-04 -0.795118D-04  0.580672D-01
               56            57            58            59            60 
     56  0.100000D+01
     57  0.580541D-01  0.100000D+01
     58  0.110462D-02  0.580634D-01  0.100000D+01
     59  0.180716D-03  0.110374D-02  0.580150D-01  0.100000D+01
     60  0.110522D-02  0.180715D-03  0.110442D-02  0.580900D-01  0.100000D+01
 *** Kinetic Energy *** 
                1             2             3             4             5 
      1  0.421524D+00
      2  0.000000D+00  0.131900D+01
      3  0.000000D+00  0.000000D+00  0.131900D+01
      4  0.000000D+00  0.000000D+00  0.000000D+00  0.131900D+01
      5  0.562400D-01  0.160515D+00  0.000000D+00  0.000000D+00  0.421524D+00
      6 -0.160515D+00 -0.320364D+00  0.000000D+00  0.000000D+00  0.000000D+00
      7  0.000000D+00  0.000000D+00  0.882218D-01  0.000000D+00  0.000000D+00
      8  0.000000D+00  0.000000D+00  0.000000D+00  0.882218D-01  0.000000D+00
      9 -0.164054D-01 -0.463008D-02 -0.267214D-02  0.000000D+00  0.563295D-01
     10  0.463008D-02 -0.162303D-01 -0.775363D-02  0.000000D+00 -0.803555D-01
     11  0.267214D-02 -0.775363D-02 -0.727023D-02  0.000000D+00 -0.139131D+00
     12  0.000000D+00  0.000000D+00  0.000000D+00 -0.279541D-02  0.000000D+00
     13 -0.130395D-01 -0.576040D-02 -0.997719D-02  0.495089D-05 -0.164053D-01
     14  0.576040D-02 -0.211979D-02  0.230115D-02 -0.114188D-05  0.000000D+00
     15  0.997719D-02  0.230115D-02  0.537293D-03 -0.197777D-05  0.534781D-02
     16 -0.495089D-05 -0.114188D-05 -0.197777D-05 -0.344837D-02 -0.265370D-05
     17 -0.164054D-01  0.000000D+00 -0.534503D-02  0.371204D-05 -0.130410D-01
     18  0.000000D+00 -0.279524D-02 -0.162352D-05  0.000000D+00 -0.576010D-02
     19  0.534503D-02 -0.162352D-05 -0.207072D-01  0.124395D-04  0.997708D-02
     20 -0.371204D-05  0.000000D+00  0.124395D-04 -0.279525D-02 -0.692893D-05
     21  0.563061D-01 -0.803107D-01  0.139111D+00 -0.785393D-04 -0.164054D-01
     22  0.803107D-01 -0.138877D-01  0.177038D+00 -0.999521D-04 -0.462908D-02
     23 -0.139111D+00  0.177038D+00 -0.218339D+00  0.173133D-03  0.267226D-02
     24  0.785393D-04 -0.999521D-04  0.173133D-03  0.883186D-01 -0.150871D-05
     25  0.109886D+00 -0.131971D+00 -0.228605D+00  0.108023D-03 -0.130271D-01
     26 -0.130257D-01  0.304828D-02 -0.149307D-02  0.206127D-05  0.109872D+00
     27 -0.455011D-02 -0.529852D-02 -0.200469D-02 -0.105228D-05 -0.130253D-01
     28 -0.190670D-02 -0.138170D-02 -0.239256D-02  0.000000D+00 -0.455164D-02
     29 -0.455141D-02  0.912941D-03 -0.559228D-02  0.436795D-05 -0.190685D-02
     30 -0.130252D-01 -0.281876D-02  0.189512D-02 -0.135213D-05 -0.455086D-02
     31  0.421524D+00  0.000000D+00  0.000000D+00  0.000000D+00  0.562400D-01
     32  0.000000D+00  0.131900D+01  0.000000D+00  0.000000D+00  0.160515D+00
     33  0.000000D+00  0.000000D+00  0.131900D+01  0.000000D+00  0.000000D+00
     34  0.000000D+00  0.000000D+00  0.000000D+00  0.131900D+01  0.000000D+00
     35  0.562400D-01  0.160515D+00  0.000000D+00  0.000000D+00  0.421524D+00
     36 -0.160515D+00 -0.320364D+00  0.000000D+00  0.000000D+00  0.000000D+00
     37  0.000000D+00  0.000000D+00  0.882218D-01  0.000000D+00  0.000000D+00
     38  0.000000D+00  0.000000D+00  0.000000D+00  0.882218D-01  0.000000D+00
     39 -0.164054D-01 -0.463008D-02 -0.267214D-02  0.000000D+00  0.563295D-01
     40  0.463008D-02 -0.162303D-01 -0.775363D-02  0.000000D+00 -0.803555D-01
     41  0.267214D-02 -0.775363D-02 -0.727023D-02  0.000000D+00 -0.139131D+00
     42  0.000000D+00  0.000000D+00  0.000000D+00 -0.279541D-02  0.000000D+00
     43 -0.130395D-01 -0.576040D-02 -0.997719D-02  0.495089D-05 -0.164053D-01
     44  0.576040D-02 -0.211979D-02  0.230115D-02 -0.114188D-05  0.000000D+00
     45  0.997719D-02  0.230115D-02  0.537293D-03 -0.197777D-05  0.534781D-02
     46 -0.495089D-05 -0.114188D-05 -0.197777D-05 -0.344837D-02 -0.265370D-05
     47 -0.164054D-01  0.000000D+00 -0.534503D-02  0.371204D-05 -0.130410D-01
     48  0.000000D+00 -0.279524D-02 -0.162352D-05  0.000000D+00 -0.576010D-02
     49  0.534503D-02 -0.162352D-05 -0.207072D-01  0.124395D-04  0.997708D-02
     50 -0.371204D-05  0.000000D+00  0.124395D-04 -0.279525D-02 -0.692893D-05
     51  0.563061D-01 -0.803107D-01  0.139111D+00 -0.785393D-04 -0.164054D-01
     52  0.803107D-01 -0.138877D-01  0.177038D+00 -0.999521D-04 -0.462908D-02
     53 -0.139111D+00  0.177038D+00 -0.218339D+00  0.173133D-03  0.267226D-02
     54  0.785393D-04 -0.999521D-04  0.173133D-03  0.883186D-01 -0.150871D-05
     55  0.109886D+00 -0.131971D+00 -0.228605D+00  0.108023D-03 -0.130271D-01
     56 -0.130257D-01  0.304828D-02 -0.149307D-02  0.206127D-05  0.109872D+00
     57 -0.455011D-02 -0.529852D-02 -0.200469D-02 -0.105228D-05 -0.130253D-01
     58 -0.190670D-02 -0.138170D-02 -0.239256D-02  0.000000D+00 -0.455164D-02
     59 -0.455141D-02  0.912941D-03 -0.559228D-02  0.436795D-05 -0.190685D-02
     60 -0.130252D-01 -0.281876D-02  0.189512D-02 -0.135213D-05 -0.455086D-02
                6             7             8             9            10 
      6  0.131900D+01
      7  0.000000D+00  0.131900D+01
      8  0.000000D+00  0.000000D+00  0.131900D+01
      9  0.803555D-01  0.139131D+00  0.000000D+00  0.421524D+00
     10 -0.139408D-01 -0.177117D+00  0.000000D+00  0.000000D+00  0.131900D+01
     11 -0.177117D+00 -0.218315D+00  0.000000D+00  0.000000D+00  0.000000D+00
     12  0.000000D+00  0.000000D+00  0.883530D-01  0.000000D+00  0.000000D+00
     13  0.000000D+00 -0.534781D-02  0.265370D-05  0.561866D-01 -0.802046D-01
     14 -0.279582D-02  0.000000D+00  0.000000D+00  0.802046D-01 -0.139294D-01
     15  0.000000D+00 -0.207001D-01  0.888448D-05 -0.138934D+00  0.176816D+00
     16  0.000000D+00  0.888448D-05 -0.279582D-02  0.137841D-03 -0.175424D-03
     17  0.576010D-02 -0.997708D-02  0.692893D-05 -0.164051D-01  0.463398D-02
     18 -0.212107D-02 -0.229942D-02  0.159691D-05 -0.463398D-02 -0.162158D-01
     19 -0.229942D-02  0.534234D-03 -0.276601D-05  0.267617D-02  0.774977D-02
     20  0.159691D-05 -0.276601D-05 -0.344859D-02 -0.371608D-05 -0.107612D-04
     21  0.462908D-02 -0.267226D-02  0.150871D-05 -0.130393D-01  0.115207D-01
     22 -0.162300D-01  0.775560D-02 -0.437866D-05 -0.115207D-01  0.186641D-02
     23  0.775560D-02 -0.727237D-02  0.252770D-05  0.000000D+00  0.000000D+00
     24 -0.437866D-05  0.252770D-05 -0.279525D-02 -0.281610D-05  0.129912D-05
     25 -0.304253D-02 -0.148975D-02  0.000000D+00 -0.455193D-02  0.438744D-02
     26  0.131892D+00 -0.228621D+00  0.315625D-03 -0.130249D-01 -0.232319D-03
     27  0.281873D-02  0.189435D-02  0.000000D+00  0.109864D+00  0.263924D+00
     28 -0.913285D-03 -0.559244D-02  0.208861D-05 -0.130283D-01 -0.230249D-03
     29  0.138167D-02 -0.239278D-02  0.186893D-05 -0.454803D-02  0.438417D-02
     30  0.529896D-02 -0.200554D-02  0.143092D-05 -0.190693D-02  0.276316D-02
     31 -0.160515D+00  0.000000D+00  0.000000D+00 -0.164054D-01  0.463008D-02
     32 -0.320364D+00  0.000000D+00  0.000000D+00 -0.463008D-02 -0.162303D-01
     33  0.000000D+00  0.882218D-01  0.000000D+00 -0.267214D-02 -0.775363D-02
     34  0.000000D+00  0.000000D+00  0.882218D-01  0.000000D+00  0.000000D+00
     35  0.000000D+00  0.000000D+00  0.000000D+00  0.563295D-01 -0.803555D-01
     36  0.131900D+01  0.000000D+00  0.000000D+00  0.803555D-01 -0.139408D-01
     37  0.000000D+00  0.131900D+01  0.000000D+00  0.139131D+00 -0.177117D+00
     38  0.000000D+00  0.000000D+00  0.131900D+01  0.000000D+00  0.000000D+00
     39  0.803555D-01  0.139131D+00  0.000000D+00  0.421524D+00  0.000000D+00
     40 -0.139408D-01 -0.177117D+00  0.000000D+00  0.000000D+00  0.131900D+01
     41 -0.177117D+00 -0.218315D+00  0.000000D+00  0.000000D+00  0.000000D+00
     42  0.000000D+00  0.000000D+00  0.883530D-01  0.000000D+00  0.000000D+00
     43  0.000000D+00 -0.534781D-02  0.265370D-05  0.561866D-01 -0.802046D-01
     44 -0.279582D-02  0.000000D+00  0.000000D+00  0.802046D-01 -0.139294D-01
     45  0.000000D+00 -0.207001D-01  0.888448D-05 -0.138934D+00  0.176816D+00
     46  0.000000D+00  0.888448D-05 -0.279582D-02  0.137841D-03 -0.175424D-03
     47  0.576010D-02 -0.997708D-02  0.692893D-05 -0.164051D-01  0.463398D-02
     48 -0.212107D-02 -0.229942D-02  0.159691D-05 -0.463398D-02 -0.162158D-01
     49 -0.229942D-02  0.534234D-03 -0.276601D-05  0.267617D-02  0.774977D-02
     50  0.159691D-05 -0.276601D-05 -0.344859D-02 -0.371608D-05 -0.107612D-04
     51  0.462908D-02 -0.267226D-02  0.150871D-05 -0.130393D-01  0.115207D-01
     52 -0.162300D-01  0.775560D-02 -0.437866D-05 -0.115207D-01  0.186641D-02
     53  0.775560D-02 -0.727237D-02  0.252770D-05  0.000000D+00  0.000000D+00
     54 -0.437866D-05  0.252770D-05 -0.279525D-02 -0.281610D-05  0.129912D-05
     55 -0.304253D-02 -0.148975D-02  0.000000D+00 -0.455193D-02  0.438744D-02
     56  0.131892D+00 -0.228621D+00  0.315625D-03 -0.130249D-01 -0.232319D-03
     57  0.281873D-02  0.189435D-02  0.000000D+00  0.109864D+00  0.263924D+00
     58 -0.913285D-03 -0.559244D-02  0.208861D-05 -0.130283D-01 -0.230249D-03
     59  0.138167D-02 -0.239278D-02  0.186893D-05 -0.454803D-02  0.438417D-02
     60  0.529896D-02 -0.200554D-02  0.143092D-05 -0.190693D-02  0.276316D-02
               11            12            13            14            15 
     11  0.131900D+01
     12  0.000000D+00  0.131900D+01
     13  0.138934D+00 -0.137841D-03  0.421524D+00
     14  0.176816D+00 -0.175424D-03  0.000000D+00  0.131900D+01
     15 -0.218145D+00  0.303878D-03  0.000000D+00  0.000000D+00  0.131900D+01
     16  0.303878D-03  0.881433D-01  0.000000D+00  0.000000D+00  0.000000D+00
     17 -0.267617D-02  0.371608D-05  0.563069D-01 -0.160630D+00 -0.898260D-05
     18  0.774977D-02 -0.107612D-04  0.160630D+00 -0.320547D+00 -0.228643D-04
     19 -0.727211D-02  0.621469D-05  0.898260D-05 -0.228643D-04  0.883199D-01
     20  0.621469D-05 -0.279654D-02  0.551624D-04 -0.140410D-03  0.000000D+00
     21  0.000000D+00  0.281610D-05 -0.164053D-01  0.463038D-02  0.267384D-02
     22  0.000000D+00  0.129912D-05 -0.463038D-02 -0.162244D-01 -0.775452D-02
     23 -0.344834D-02  0.000000D+00 -0.267384D-02 -0.775452D-02 -0.727353D-02
     24  0.000000D+00 -0.344834D-02  0.114408D-05  0.331800D-05  0.191600D-05
     25  0.358649D-02  0.000000D+00 -0.190697D-02  0.138158D-02  0.239302D-02
     26 -0.339032D-02  0.206377D-05 -0.454946D-02 -0.912112D-03  0.559055D-02
     27  0.192001D-04  0.152160D-03 -0.130296D-01  0.280132D-02 -0.188345D-02
     28  0.337384D-02 -0.196436D-05  0.109864D+00  0.132048D+00  0.228515D+00
     29 -0.358470D-02  0.436492D-05 -0.130268D-01 -0.304366D-02  0.149011D-02
     30  0.000000D+00  0.000000D+00 -0.455183D-02  0.529982D-02  0.200584D-02
     31  0.267214D-02  0.000000D+00 -0.130395D-01  0.576040D-02  0.997719D-02
     32 -0.775363D-02  0.000000D+00 -0.576040D-02 -0.211979D-02  0.230115D-02
     33 -0.727023D-02  0.000000D+00 -0.997719D-02  0.230115D-02  0.537293D-03
     34  0.000000D+00 -0.279541D-02  0.495089D-05 -0.114188D-05 -0.197777D-05
     35 -0.139131D+00  0.000000D+00 -0.164053D-01  0.000000D+00  0.534781D-02
     36 -0.177117D+00  0.000000D+00  0.000000D+00 -0.279582D-02  0.000000D+00
     37 -0.218315D+00  0.000000D+00 -0.534781D-02  0.000000D+00 -0.207001D-01
     38  0.000000D+00  0.883530D-01  0.265370D-05  0.000000D+00  0.888448D-05
     39  0.000000D+00  0.000000D+00  0.561866D-01  0.802046D-01 -0.138934D+00
     40  0.000000D+00  0.000000D+00 -0.802046D-01 -0.139294D-01  0.176816D+00
     41  0.131900D+01  0.000000D+00  0.138934D+00  0.176816D+00 -0.218145D+00
     42  0.000000D+00  0.131900D+01 -0.137841D-03 -0.175424D-03  0.303878D-03
     43  0.138934D+00 -0.137841D-03  0.421524D+00  0.000000D+00  0.000000D+00
     44  0.176816D+00 -0.175424D-03  0.000000D+00  0.131900D+01  0.000000D+00
     45 -0.218145D+00  0.303878D-03  0.000000D+00  0.000000D+00  0.131900D+01
     46  0.303878D-03  0.881433D-01  0.000000D+00  0.000000D+00  0.000000D+00
     47 -0.267617D-02  0.371608D-05  0.563069D-01 -0.160630D+00 -0.898260D-05
     48  0.774977D-02 -0.107612D-04  0.160630D+00 -0.320547D+00 -0.228643D-04
     49 -0.727211D-02  0.621469D-05  0.898260D-05 -0.228643D-04  0.883199D-01
     50  0.621469D-05 -0.279654D-02  0.551624D-04 -0.140410D-03  0.000000D+00
     51  0.000000D+00  0.281610D-05 -0.164053D-01  0.463038D-02  0.267384D-02
     52  0.000000D+00  0.129912D-05 -0.463038D-02 -0.162244D-01 -0.775452D-02
     53 -0.344834D-02  0.000000D+00 -0.267384D-02 -0.775452D-02 -0.727353D-02
     54  0.000000D+00 -0.344834D-02  0.114408D-05  0.331800D-05  0.191600D-05
     55  0.358649D-02  0.000000D+00 -0.190697D-02  0.138158D-02  0.239302D-02
     56 -0.339032D-02  0.206377D-05 -0.454946D-02 -0.912112D-03  0.559055D-02
     57  0.192001D-04  0.152160D-03 -0.130296D-01  0.280132D-02 -0.188345D-02
     58  0.337384D-02 -0.196436D-05  0.109864D+00  0.132048D+00  0.228515D+00
     59 -0.358470D-02  0.436492D-05 -0.130268D-01 -0.304366D-02  0.149011D-02
     60  0.000000D+00  0.000000D+00 -0.455183D-02  0.529982D-02  0.200584D-02
               16            17            18            19            20 
     16  0.131900D+01
     17 -0.551624D-04  0.421524D+00
     18 -0.140410D-03  0.000000D+00  0.131900D+01
     19  0.000000D+00  0.000000D+00  0.000000D+00  0.131900D+01
     20  0.883199D-01  0.000000D+00  0.000000D+00  0.000000D+00  0.131900D+01
     21 -0.114408D-05  0.562444D-01 -0.802649D-01 -0.139014D+00  0.114598D-03
     22  0.331800D-05  0.802649D-01 -0.139322D-01 -0.176936D+00  0.145860D-03
     23  0.191600D-05  0.139014D+00 -0.176936D+00 -0.218215D+00  0.252621D-03
     24 -0.279564D-02 -0.114598D-03  0.145860D-03  0.252621D-03  0.882280D-01
     25 -0.117144D-05 -0.455106D-02  0.913000D-03  0.559193D-02 -0.353262D-05
     26 -0.417203D-05 -0.190725D-02 -0.138153D-02  0.239345D-02 -0.212652D-05
     27  0.285691D-05 -0.455026D-02 -0.529832D-02  0.200561D-02 -0.383744D-05
     28 -0.141600D-04 -0.130276D-01  0.304035D-02  0.148846D-02  0.000000D+00
     29 -0.224094D-05  0.109840D+00 -0.131997D+00  0.228492D+00 -0.228664D-03
     30  0.000000D+00 -0.130263D-01 -0.281477D-02 -0.189200D-02  0.127801D-05
     31 -0.495089D-05 -0.164054D-01  0.000000D+00  0.534503D-02 -0.371204D-05
     32 -0.114188D-05  0.000000D+00 -0.279524D-02 -0.162352D-05  0.000000D+00
     33 -0.197777D-05 -0.534503D-02 -0.162352D-05 -0.207072D-01  0.124395D-04
     34 -0.344837D-02  0.371204D-05  0.000000D+00  0.124395D-04 -0.279525D-02
     35 -0.265370D-05 -0.130410D-01 -0.576010D-02  0.997708D-02 -0.692893D-05
     36  0.000000D+00  0.576010D-02 -0.212107D-02 -0.229942D-02  0.159691D-05
     37  0.888448D-05 -0.997708D-02 -0.229942D-02  0.534234D-03 -0.276601D-05
     38 -0.279582D-02  0.692893D-05  0.159691D-05 -0.276601D-05 -0.344859D-02
     39  0.137841D-03 -0.164051D-01 -0.463398D-02  0.267617D-02 -0.371608D-05
     40 -0.175424D-03  0.463398D-02 -0.162158D-01  0.774977D-02 -0.107612D-04
     41  0.303878D-03 -0.267617D-02  0.774977D-02 -0.727211D-02  0.621469D-05
     42  0.881433D-01  0.371608D-05 -0.107612D-04  0.621469D-05 -0.279654D-02
     43  0.000000D+00  0.563069D-01  0.160630D+00  0.898260D-05  0.551624D-04
     44  0.000000D+00 -0.160630D+00 -0.320547D+00 -0.228643D-04 -0.140410D-03
     45  0.000000D+00 -0.898260D-05 -0.228643D-04  0.883199D-01  0.000000D+00
     46  0.131900D+01 -0.551624D-04 -0.140410D-03  0.000000D+00  0.883199D-01
     47 -0.551624D-04  0.421524D+00  0.000000D+00  0.000000D+00  0.000000D+00
     48 -0.140410D-03  0.000000D+00  0.131900D+01  0.000000D+00  0.000000D+00
     49  0.000000D+00  0.000000D+00  0.000000D+00  0.131900D+01  0.000000D+00
     50  0.883199D-01  0.000000D+00  0.000000D+00  0.000000D+00  0.131900D+01
     51 -0.114408D-05  0.562444D-01 -0.802649D-01 -0.139014D+00  0.114598D-03
     52  0.331800D-05  0.802649D-01 -0.139322D-01 -0.176936D+00  0.145860D-03
     53  0.191600D-05  0.139014D+00 -0.176936D+00 -0.218215D+00  0.252621D-03
     54 -0.279564D-02 -0.114598D-03  0.145860D-03  0.252621D-03  0.882280D-01
     55 -0.117144D-05 -0.455106D-02  0.913000D-03  0.559193D-02 -0.353262D-05
     56 -0.417203D-05 -0.190725D-02 -0.138153D-02  0.239345D-02 -0.212652D-05
     57  0.285691D-05 -0.455026D-02 -0.529832D-02  0.200561D-02 -0.383744D-05
     58 -0.141600D-04 -0.130276D-01  0.304035D-02  0.148846D-02  0.000000D+00
     59 -0.224094D-05  0.109840D+00 -0.131997D+00  0.228492D+00 -0.228664D-03
     60  0.000000D+00 -0.130263D-01 -0.281477D-02 -0.189200D-02  0.127801D-05
               21            22            23            24            25 
     21  0.421524D+00
     22  0.000000D+00  0.131900D+01
     23  0.000000D+00  0.000000D+00  0.131900D+01
     24  0.000000D+00  0.000000D+00  0.000000D+00  0.131900D+01
     25 -0.130249D-01  0.231676D-03 -0.339032D-02  0.177654D-05  0.711788D+00
     26 -0.455229D-02 -0.438708D-02  0.358746D-02 -0.331599D-05 -0.104031D-01
     27 -0.190665D-02 -0.276279D-02  0.000000D+00  0.000000D+00 -0.758446D-03
     28 -0.454924D-02 -0.438530D-02 -0.358512D-02  0.000000D+00 -0.166491D-03
     29 -0.130267D-01  0.230832D-03  0.338156D-02 -0.305055D-05 -0.758572D-03
     30  0.109888D+00 -0.263967D+00  0.439303D-04 -0.432101D-04 -0.104023D-01
     31  0.563061D-01  0.803107D-01 -0.139111D+00  0.785393D-04  0.109886D+00
     32 -0.803107D-01 -0.138877D-01  0.177038D+00 -0.999521D-04 -0.131971D+00
     33  0.139111D+00  0.177038D+00 -0.218339D+00  0.173133D-03 -0.228605D+00
     34 -0.785393D-04 -0.999521D-04  0.173133D-03  0.883186D-01  0.108023D-03
     35 -0.164054D-01 -0.462908D-02  0.267226D-02 -0.150871D-05 -0.130271D-01
     36  0.462908D-02 -0.162300D-01  0.775560D-02 -0.437866D-05 -0.304253D-02
     37 -0.267226D-02  0.775560D-02 -0.727237D-02  0.252770D-05 -0.148975D-02
     38  0.150871D-05 -0.437866D-05  0.252770D-05 -0.279525D-02  0.000000D+00
     39 -0.130393D-01 -0.115207D-01  0.000000D+00 -0.281610D-05 -0.455193D-02
     40  0.115207D-01  0.186641D-02  0.000000D+00  0.129912D-05  0.438744D-02
     41  0.000000D+00  0.000000D+00 -0.344834D-02  0.000000D+00  0.358649D-02
     42  0.281610D-05  0.129912D-05  0.000000D+00 -0.344834D-02  0.000000D+00
     43 -0.164053D-01 -0.463038D-02 -0.267384D-02  0.114408D-05 -0.190697D-02
     44  0.463038D-02 -0.162244D-01 -0.775452D-02  0.331800D-05  0.138158D-02
     45  0.267384D-02 -0.775452D-02 -0.727353D-02  0.191600D-05  0.239302D-02
     46 -0.114408D-05  0.331800D-05  0.191600D-05 -0.279564D-02 -0.117144D-05
     47  0.562444D-01  0.802649D-01  0.139014D+00 -0.114598D-03 -0.455106D-02
     48 -0.802649D-01 -0.139322D-01 -0.176936D+00  0.145860D-03  0.913000D-03
     49 -0.139014D+00 -0.176936D+00 -0.218215D+00  0.252621D-03  0.559193D-02
     50  0.114598D-03  0.145860D-03  0.252621D-03  0.882280D-01 -0.353262D-05
     51  0.421524D+00  0.000000D+00  0.000000D+00  0.000000D+00 -0.130249D-01
     52  0.000000D+00  0.131900D+01  0.000000D+00  0.000000D+00  0.231676D-03
     53  0.000000D+00  0.000000D+00  0.131900D+01  0.000000D+00 -0.339032D-02
     54  0.000000D+00  0.000000D+00  0.000000D+00  0.131900D+01  0.177654D-05
     55 -0.130249D-01  0.231676D-03 -0.339032D-02  0.177654D-05  0.711788D+00
     56 -0.455229D-02 -0.438708D-02  0.358746D-02 -0.331599D-05 -0.104031D-01
     57 -0.190665D-02 -0.276279D-02  0.000000D+00  0.000000D+00 -0.758446D-03
     58 -0.454924D-02 -0.438530D-02 -0.358512D-02  0.000000D+00 -0.166491D-03
     59 -0.130267D-01  0.230832D-03  0.338156D-02 -0.305055D-05 -0.758572D-03
     60  0.109888D+00 -0.263967D+00  0.439303D-04 -0.432101D-04 -0.104023D-01
               26            27            28            29            30 
     26  0.711788D+00
     27 -0.104018D-01  0.711788D+00
     28 -0.758356D-03 -0.104022D-01  0.711788D+00
     29 -0.166488D-03 -0.757862D-03 -0.104003D-01  0.711788D+00
     30 -0.758694D-03 -0.166487D-03 -0.758242D-03 -0.104032D-01  0.711788D+00
     31 -0.130257D-01 -0.455011D-02 -0.190670D-02 -0.455141D-02 -0.130252D-01
     32  0.304828D-02 -0.529852D-02 -0.138170D-02  0.912941D-03 -0.281876D-02
     33 -0.149307D-02 -0.200469D-02 -0.239256D-02 -0.559228D-02  0.189512D-02
     34  0.206127D-05 -0.105228D-05  0.000000D+00  0.436795D-05 -0.135213D-05
     35  0.109872D+00 -0.130253D-01 -0.455164D-02 -0.190685D-02 -0.455086D-02
     36  0.131892D+00  0.281873D-02 -0.913285D-03  0.138167D-02  0.529896D-02
     37 -0.228621D+00  0.189435D-02 -0.559244D-02 -0.239278D-02 -0.200554D-02
     38  0.315625D-03  0.000000D+00  0.208861D-05  0.186893D-05  0.143092D-05
[...]
  37        1PY         0.00000   0.00000   0.00773   0.00000   0.00000
  38        1PZ         0.00000   0.00000   0.00000   1.93502   0.00000
  39 15  C  1S         -0.64993   4.68858   1.08099   0.00000  13.05584
  40        1PX        -3.26842  -3.54929   1.33167   0.00000   3.85365
  41        1PY         1.44686  -1.29517  -0.09919   0.00000  -6.26638
  42        1PZ         0.00000   0.00000   0.00000   0.28219   0.00000
  43 16  C  1S         -2.82812   0.09269  -0.28901   0.00019   0.18724
  44        1PX        -4.97113  -0.72349  -2.09457   0.00035   0.00004
  45        1PY         8.79450  -3.43388   5.28173  -0.00450   7.52078
  46        1PZ         0.00862   0.00341   0.00625  -1.29594   0.00192
  47 17  C  1S          1.68995  -0.00052  14.18944  -0.00300   0.11185
  48        1PX        -0.00269   5.80211  -0.00168  -0.00000   0.05000
  49        1PY        12.63565  -0.00003   1.68918  -0.00036   0.71703
  50        1PZ         0.01291   0.00000   0.00465  -0.50997   0.00009
  51 18  C  1S        -13.40528  21.52916  18.26761  -0.01531   0.16911
  52        1PX         7.50974   4.81386   0.05817   0.00178   0.49061
  53        1PY        -4.73011   4.69475  -0.43162   0.00099  -0.36860
  54        1PZ         0.01226  -0.00154  -0.00009  -2.30132   0.00005
  55 19  H  1S        147.17915  53.71646   3.74844   0.00647   2.75978
  56 20  H  1S          3.06800   0.86672  -0.31950   0.00021   1.44731
  57 21  H  1S          1.02893   1.49909   0.05822   0.00004   4.03436
  58 22  H  1S         -0.23662   0.19113  -0.06851   0.00003  -0.19773
  59 23  H  1S         -0.41129  -0.03075   0.20640  -0.00034  -0.03840
  60 24  H  1S         75.93244  -0.85715   5.72214  -0.00277   0.24476
                          36        37        38        39        40
  36        1PX      1653.35201
  37        1PY         0.00000  65.66019
  38        1PZ         0.00000   0.00000  22.95281
  39 15  C  1S        -33.72221  32.38898   0.00000 156.18889
  40        1PX        12.01225   4.02878   0.00000   0.00000 417.75179
  41        1PY         0.41707  -9.71593   0.00000   0.00000   0.00000
  42        1PZ         0.00000   0.00000   2.21943   0.00000   0.00000
  43 16  C  1S          0.00016   2.80052   0.00014  15.40642  10.93180
  44        1PX         2.98333  -0.00002  -0.00000  -0.01164   5.77042
  45        1PY         0.00383   0.91226  -0.00379  76.35271  95.00517
  46        1PZ        -0.00000   0.00131   1.24865  -0.00922  -0.04702
  47 17  C  1S          4.29825  -0.66379  -0.00090   0.42114  16.97448
  48        1PX        -2.49220  -0.23030  -0.00105   0.58225  -7.73809
  49        1PY         0.56027   0.01143  -0.00020   2.05256   6.80035
  50        1PZ        -0.00418  -0.00063  -0.03772  -0.00168  -0.00027
  51 18  C  1S         -5.86850  -1.86813  -0.00015  -0.53646   4.50498
  52        1PX        -4.31432   0.75319  -0.00011   1.14856   0.51546
  53        1PY        -7.28455  -0.42400   0.00036  -0.00024   0.00003
  54        1PZ        -0.00043   0.00041   0.19123   0.00023  -0.00009
  55 19  H  1S        -83.83399   7.60875  -0.00016  -1.32415  -0.05679
  56 20  H  1S          0.74070  -0.67321   0.00288   0.40328  -0.04595
  57 21  H  1S        -29.15141   3.70747   0.00088  38.17909   5.19545
  58 22  H  1S         -0.86885   2.06686  -0.00030  13.92413  -0.57919
  59 23  H  1S          0.26464  -0.21075   0.00007  -0.49429  -0.02039
  60 24  H  1S          0.90254   0.17112  -0.00026   0.12203  -0.36860
                          41        42        43        44        45
  41        1PY       124.30814
  42        1PZ         0.00000 140.21642
  43 16  C  1S          6.50105   0.02352  50.40845
  44        1PX        -6.62601  -0.02794   0.00000 205.21046
  45        1PY       -47.56597   0.00911   0.00000   0.000002310.87276
  46        1PZ         0.03684  82.00511   0.00000   0.00000   0.00000
  47 17  C  1S         -3.05965   0.00085   6.12390   1.97861   0.00735
  48        1PX        -8.61517  -0.00626   0.34803-105.98724   0.01277
  49        1PY        -0.27006  -0.00040   0.00010   0.00068  89.29512
  50        1PZ         0.00050   0.81223  -0.00028  -0.00854  -0.00000
  51 18  C  1S         -0.00000   0.00064  -1.44692   0.08075  -0.65113
  52        1PX         0.00003  -0.00031  -0.37248  -2.59559   5.66212
  53        1PY         0.27455  -0.00000   0.93346  -0.65596   0.00574
  54        1PZ         0.00000  -0.06811  -0.00014   0.00029   0.00034
  55 19  H  1S          0.46784   0.00017  -0.24243  -0.12999   0.18799
  56 20  H  1S         -0.05405   0.00214  -0.11878   0.05322   0.21747
  57 21  H  1S          0.00075   0.01295  -1.22127   9.33033   4.52923
  58 22  H  1S          5.97942   0.00662  26.00033  -5.45820 129.57425
  59 23  H  1S         -0.22466  -0.00011  -0.88068  -0.96992  -0.24675
  60 24  H  1S          0.00001  -0.00027  -1.18169  -3.67242   0.38716
                          46        47        48        49        50
  46        1PZ      1097.07788
  47 17  C  1S          0.01116 170.01373
  48        1PX        -0.01736   0.00000 948.73385
  49        1PY         0.00000   0.00000   0.00000 119.19551
  50        1PZ        28.67046   0.00000   0.00000   0.00000 101.28040
  51 18  C  1S         -0.00456 -12.73056   0.23247  19.01368   0.00018
  52        1PX         0.00136  -4.07071   9.07764   1.82711   0.00495
  53        1PY        -0.00030  -0.39712  -5.85111  -2.57705  -0.00440
  54        1PZ         0.61302   0.00156   0.00771  -0.00284   5.87783
  55 19  H  1S          0.00029  -0.22655  -0.03439   0.63765   0.00030
  56 20  H  1S          0.00064   0.00180   0.00932   0.02229   0.00000
  57 21  H  1S          0.01420  -0.00658   0.88142   0.02326  -0.00009
  58 22  H  1S          0.00118  -1.53035  -6.86593   7.61073  -0.00194
  59 23  H  1S          0.00454   7.08608  -8.40738  -6.26433  -0.01124
  60 24  H  1S          0.00091   4.74711 -17.62064  11.24337   0.00751
                          51        52        53        54        55
  51 18  C  1S        813.27203
  52        1PX         0.00000 108.78904
  53        1PY         0.00000   0.00000  39.12567
  54        1PZ         0.00000   0.00000   0.00000  17.87140
  55 19  H  1S         37.18404  -0.07985  12.09760  -0.00132 719.73416
  56 20  H  1S          0.02096   0.03275   0.00099   0.00000   0.63852
  57 21  H  1S         -0.17064   0.04592  -0.00001   0.00001  -0.23942
  58 22  H  1S         -1.05603  -0.16941   1.44417  -0.00015  -0.06386
  59 23  H  1S          3.11307  -0.15316  -5.94189   0.00268  -0.06029
  60 24  H  1S        101.87710  52.74462   0.00322  -0.00567   5.86922
                          56        57        58        59        60
  56 20  H  1S          6.98529
  57 21  H  1S          0.81915 172.00470
  58 22  H  1S         -0.00329   5.38655 736.40421
  59 23  H  1S         -0.00055   0.02974 -10.66922 122.51390
  60 24  H  1S          0.06532   0.02784   0.15320  -1.736041342.15579
     Gross orbital populations:
                           1
   1 1   C  1S       1532.24486
   2        1PX       509.60552
   3        1PY      1478.06971
   4        1PZ       197.73527
   5 2   C  1S         30.58808
   6        1PX      2151.50160
   7        1PY       192.14288
   8        1PZ        65.65516
   9 3   C  1S        412.39656
  10        1PX       959.90469
  11        1PY       150.47939
  12        1PZ       450.25816
  13 4   C  1S        163.95982
  14        1PX       163.04263
  15        1PY      3263.47985
  16        1PZ      2361.98935
  17 5   C  1S        323.44060
  18        1PX      1396.95688
  19        1PY        75.55123
  20        1PZ       430.40450
  21 6   C  1S       1666.92148
  22        1PX        97.64742
  23        1PY        17.32838
  24        1PZ       128.02487
  25 7   H  1S        937.90916
  26 8   H  1S         20.85551
  27 9   H  1S         78.56350
  28 10  H  1S       1453.92961
  29 11  H  1S         65.90487
  30 12  H  1S       1773.56263
  31 13  C  1S       1709.25010
  32        1PX       428.16552
  33        1PY       769.75829
  34        1PZ       120.61299
  35 14  C  1S         77.96554
  36        1PX      2071.53580
  37        1PY       158.01100
  38        1PZ        52.35719
  39 15  C  1S        401.15089
  40        1PX       986.80792
  41        1PY        21.08986
  42        1PZ       448.32404
  43 16  C  1S        201.12281
  44        1PX       151.71451
  45        1PY      3776.12377
  46        1PZ      2327.65040
  47 17  C  1S        319.32981
  48        1PX      1427.31017
  49        1PY       312.09872
  50        1PZ       214.00369
  51 18  C  1S       1701.97935
  52        1PX       273.35612
  53        1PY        97.96424
  54        1PZ        24.29479
  55 19  H  1S       1124.16813
  56 20  H  1S         14.59445
  57 21  H  1S        219.97924
  58 22  H  1S       1657.29280
  59 23  H  1S         64.39529
  60 24  H  1S       2190.49585
          Condensed to atoms (all electrons):
               1          2          3          4          5          6
     1  C 2488.033245-126.201847   1.478718 -15.291262  -0.425789  59.637025
     2  C -126.2018471747.288336  64.521613  13.106666  10.836369  26.619524
     3  C    1.478718  64.521613 898.589539 175.583804  24.981434   0.610676
     4  C  -15.291262  13.106666 175.5838043585.597465  24.524759 -27.520288
     5  C   -0.425789  10.836369  24.981434  24.5247591390.638057 -16.760812
     6  C   59.637025  26.619524   0.610676 -27.520288 -16.7608121104.046468
     7  H    7.152180  57.160295  -1.213707  -0.432318   0.589826  34.719650
     8  H    0.404318   4.599324  -0.476047   0.150131   0.021724   0.253579
     9  H   -0.529719  10.384056  -9.977807  -8.626099  -0.398510   0.245062
    10  H    0.144911   3.455544  34.614421  64.132255   8.598759   0.890352
    11  H    1.621043  -0.108288  -0.657455 -13.293654  13.303549 -16.679039
    12  H   10.625224  -0.468730  -0.306898  -2.626939 -50.764010   3.607576
    13  C  982.398682 -79.193192 -37.292232 -51.726687   6.314396  -6.973413
    14  C  -23.342104 784.402964 -34.532737 -33.281588   9.802287   0.605046
    15  C    7.501071   3.818367 631.862907   4.956967  16.464755   0.812666
    16  C    8.839874 -10.941013 150.1701982222.973647   1.993458 -33.509154
    17  C   41.882120   1.641578   9.968000 -33.788254 887.447830 -33.244639
    18  C   49.180391   2.118699   1.879108  -8.675103 -72.240692 653.066642
    19  H  147.910222 -51.943564  -0.724357  -0.239716  -0.880211  29.304893
    20  H   -3.948332   1.610502   0.161630  -0.058568  -0.017568   0.205955
    21  H    1.799296 -24.184577  24.699422  -6.743199   1.391518   0.269283
    22  H   -0.506644   2.914947  39.828470  80.138207   1.161367   0.404683
    23  H    0.306541   0.609598  -0.407640 -10.915080  -7.796999  -1.668573
    24  H   78.986204  -2.159450  -0.322267  -5.473500 -22.432290 130.978989
               7          8          9         10         11         12
     1  C    7.152180   0.404318  -0.529719   0.144911   1.621043  10.625224
     2  C   57.160295   4.599324  10.384056   3.455544  -0.108288  -0.468730
     3  C   -1.213707  -0.476047  -9.977807  34.614421  -0.657455  -0.306898
     4  C   -0.432318   0.150131  -8.626099  64.132255 -13.293654  -2.626939
     5  C    0.589826   0.021724  -0.398510   8.598759  13.303549 -50.764010
     6  C   34.719650   0.253579   0.245062   0.890352 -16.679039   3.607576
     7  H  725.227217   0.895338   0.017585  -0.032324   0.030472   7.388894
     8  H    0.895338   8.526584   0.839178   0.000370  -0.000569   0.072947
     9  H    0.017585   0.839178  88.756257   2.487429  -0.031588   0.029253
    10  H   -0.032324   0.000370   2.487429 619.439132  -0.578839  -0.000499
    11  H    0.030472  -0.000569  -0.031588  -0.578839 100.244752  -1.283578
    12  H    7.388894   0.072947   0.029253  -0.000499  -1.2835781121.515845
    13  C   22.289268   2.361117   0.850857   0.074307   1.263015  14.267960
    14  C   -5.970925   1.725598   6.240820   1.792166   0.022917  -0.812562
    15  C   -2.547666  -0.837574  -3.168576  30.799847   0.003642  -1.670482
    16  C   -3.752939  -0.882733 -14.879531  58.678679 -10.712870  -5.077838
    17  C   -2.256018  -0.037504  -0.413942   6.643263  19.506616 -31.752001
    18  C    6.547698  -0.010593   0.170049   0.769234 -21.733759 271.177907
    19  H   90.076682   0.495219   0.074431  -0.043936   0.007860   4.586953
    20  H    0.154816   2.436992  -0.131444   0.000708   0.000108  -0.003952
    21  H   -0.021428   0.251674   2.103212   4.404877  -0.010160  -0.000830
    22  H   -0.026041   0.020702   4.542947 629.640715  -1.988262   0.188465
    23  H    0.092628   0.000456  -0.022364 -12.138008  -4.849913   4.735954
    24  H    1.819973   0.045276   0.001945   0.156249   1.828865 430.133968
              13         14         15         16         17         18
     1  C  982.398682 -23.342104   7.501071   8.839874  41.882120  49.180391
     2  C  -79.193192 784.402964   3.818367 -10.941013   1.641578   2.118699
     3  C  -37.292232 -34.532737 631.862907 150.170198   9.968000   1.879108
     4  C  -51.726687 -33.281588   4.9569672222.973647 -33.788254  -8.675103
     5  C    6.314396   9.802287  16.464755   1.993458 887.447830 -72.240692
     6  C   -6.973413   0.605046   0.812666 -33.509154 -33.244639 653.066642
     7  H   22.289268  -5.970925  -2.547666  -3.752939  -2.256018   6.547698
     8  H    2.361117   1.725598  -0.837574  -0.882733  -0.037504  -0.010593
     9  H    0.850857   6.240820  -3.168576 -14.879531  -0.413942   0.170049
    10  H    0.074307   1.792166  30.799847  58.678679   6.643263   0.769234
    11  H    1.263015   0.022917   0.003642 -10.712870  19.506616 -21.733759
    12  H   14.267960  -0.812562  -1.670482  -5.077838 -31.752001 271.177907
    13  C 1874.664717 -62.832814  -0.031730  -1.452923  35.505621  36.003038
    14  C  -62.8328141789.351406  18.271482  15.656380   2.317954 -18.523809
    15  C   -0.031730  18.271482 838.465235 237.754353   7.952766   5.839243
    16  C   -1.452923  15.656380 237.7543533663.569543  20.434747   1.570003
    17  C   35.505621   2.317954   7.952766  20.4347471339.223482  10.409335
    18  C   36.003038 -18.523809   5.839243   1.570003  10.409335 979.058141
    19  H  204.650517 -73.465626  -0.912934  -0.184135   0.377018  49.200472
    20  H    3.615423   1.517674   0.305418   0.152550   0.033398   0.054693
    21  H    2.586283 -21.408693  43.388234  12.652484   0.898012  -0.124714
    22  H   -0.113965   0.999974  19.330991 150.117560  -0.787485   0.218568
    23  H   -0.235988   0.015556  -0.739442  -2.092803  -7.596868  -2.979309
    24  H   80.794646   1.318158  -0.246833  -4.466047  -1.622635 154.619260
              19         20         21         22         23         24
     1  C  147.910222  -3.948332   1.799296  -0.506644   0.306541  78.986204
     2  C  -51.943564   1.610502 -24.184577   2.914947   0.609598  -2.159450
     3  C   -0.724357   0.161630  24.699422  39.828470  -0.407640  -0.322267
     4  C   -0.239716  -0.058568  -6.743199  80.138207 -10.915080  -5.473500
     5  C   -0.880211  -0.017568   1.391518   1.161367  -7.796999 -22.432290
     6  C   29.304893   0.205955   0.269283   0.404683  -1.668573 130.978989
     7  H   90.076682   0.154816  -0.021428  -0.026041   0.092628   1.819973
     8  H    0.495219   2.436992   0.251674   0.020702   0.000456   0.045276
     9  H    0.074431  -0.131444   2.103212   4.542947  -0.022364   0.001945
    10  H   -0.043936   0.000708   4.404877 629.640715 -12.138008   0.156249
    11  H    0.007860   0.000108  -0.010160  -1.988262  -4.849913   1.828865
    12  H    4.586953  -0.003952  -0.000830   0.188465   4.735954 430.133968
    13  C  204.650517   3.615423   2.586283  -0.113965  -0.235988  80.794646
    14  C  -73.465626   1.517674 -21.408693   0.999974   0.015556   1.318158
    15  C   -0.912934   0.305418  43.388234  19.330991  -0.739442  -0.246833
    16  C   -0.184135   0.152550  12.652484 150.117560  -2.092803  -4.466047
    17  C    0.377018   0.033398   0.898012  -0.787485  -7.596868  -1.622635
    18  C   49.200472   0.054693  -0.124714   0.218568  -2.979309 154.619260
    19  H  719.734161   0.638525  -0.239424  -0.063862  -0.060288   5.869224
    20  H    0.638525   6.985289   0.819149  -0.003290  -0.000550   0.065323
    21  H   -0.239424   0.819149 172.004697   5.386547   0.029738   0.027836
    22  H   -0.063862  -0.003290   5.386547 736.404214 -10.669217   0.153205
    23  H   -0.060288  -0.000550   0.029738 -10.669217 122.513897  -1.736037
    24  H    5.869224   0.065323   0.027836   0.153205  -1.7360371342.155786
 Mulliken charges:
               1
     1  C ***********
     2  C ***********
     3  C ***********
     4  C ***********
     5  C ***********
     6  C ***********
     7  H -936.909157
     8  H  -19.855508
     9  H  -77.563501
    10  H ***********
    11  H  -64.904865
    12  H ***********
    13  C ***********
    14  C ***********
    15  C ***********
    16  C ***********
    17  C ***********
    18  C ***********
    19  H ***********
    20  H  -13.594449
    21  H -218.979236
    22  H ***********
    23  H  -63.395288
    24  H ***********
 Sum of Mulliken charges =**********
 Mulliken charges with hydrogens summed into heavy atoms:
               1
     1  C ***********
     2  C ***********
     3  C ***********
     4  C ***********
     5  C ***********
     6  C ***********
    13  C ***********
    14  C ***********
    15  C ***********
    16  C ***********
    17  C ***********
    18  C ***********
 N-N=                Inf E-N=-8.849550554679D+05  KE= 4.425429651816D+04
 Orbital energies and kinetic energies (alpha):
                                 1                 2
   1         O                -6.841739          1.718635
   2         O                -5.250946          2.272965
   3         O                -5.250468          2.845830
   4         O                -3.912750          2.976288
   5         O                -3.912400          3.081116
   6         O                -3.096894          2.930853
   7         O                -2.752803          2.857845
   8         O                -2.422144          2.643580
   9         O                -2.368148          2.370381
  10         O                -2.368034          1.521699
  11         O                -2.245690          1.037694
  12         O                -1.919197          1.125562
  13         O                -1.918885          1.023212
  14         O                -1.714976          1.015786
  15         O                -1.714768          1.124138
  16         O                -1.066049       3149.463689
  17         O                -1.065916       1049.442022
  18         O                -0.828193        752.521493
  19         O                -0.479985       2053.671718
  20         O                -0.479807       2579.224148
  21         O                -0.428162        612.381623
  22         O                -0.428027       1862.135175
  23         O                -0.407324       1641.262179
  24         O                -0.356059        897.087664
  25         O                -0.355190       1614.633083
  26         O                -0.309479       1408.425587
  27         O                -0.309443       1400.001280
  28         O                -0.297060       1391.750807
  29         O                -0.297033        883.244795
  30         O                -0.283479        801.357411
 Total kinetic energy from orbitals= 4.425429651816D+04

 This type of calculation cannot be archived.


 "PERFECTION IS NOT AN ACCIDENT"
         --  EAGLE ELECTRIC MANUFACTURING CO.,INC. NY
 Job cpu time:       0 days  0 hours  0 minutes  3.9 seconds.
 Elapsed time:       0 days  0 hours  0 minutes  4.3 seconds.
 File lengths (MBytes):  RWF=    272 Int=      0 D2E=      0 Chk=     32 Scr=     32
 Normal termination of Gaussian 16 at Tue Dec 27 20:00:39 2022.
