 Entering Gaussian System, Link 0=g16
 Initial command:
 /software/gaussian/g16-c01/avx2/g16/l1.exe "/gpfs/fs2/scratch/bweight/software/many_molecule_many_mode_NAMD/src/NAMD/TEST_RESCALE/G16/GS_NEW/Gau-5961.inp" -scrdir="/gpfs/fs2/scratch/bweight/software/many_molecule_many_mode_NAMD/src/NAMD/TEST_RESCALE/G16/GS_NEW/"
 Entering Link 1 = /software/gaussian/g16-c01/avx2/g16/l1.exe PID=      5962.
  
 Copyright (c) 1988-2019, Gaussian, Inc.  All Rights Reserved.
  
 This is part of the Gaussian(R) 16 program.  It is based on
 the Gaussian(R) 09 system (copyright 2009, Gaussian, Inc.),
 the Gaussian(R) 03 system (copyright 2003, Gaussian, Inc.),
 the Gaussian(R) 98 system (copyright 1998, Gaussian, Inc.),
 the Gaussian(R) 94 system (copyright 1995, Gaussian, Inc.),
 the Gaussian 92(TM) system (copyright 1992, Gaussian, Inc.),
 the Gaussian 90(TM) system (copyright 1990, Gaussian, Inc.),
 the Gaussian 88(TM) system (copyright 1988, Gaussian, Inc.),
 the Gaussian 86(TM) system (copyright 1986, Carnegie Mellon
 University), and the Gaussian 82(TM) system (copyright 1983,
 Carnegie Mellon University). Gaussian is a federally registered
 trademark of Gaussian, Inc.
  
 This software contains proprietary and confidential information,
 including trade secrets, belonging to Gaussian, Inc.
  
 This software is provided under written license and may be
 used, copied, transmitted, or stored only in accord with that
 written license.
  
 The following legend is applicable only to US Government
 contracts under FAR:
  
                    RESTRICTED RIGHTS LEGEND
  
 Use, reproduction and disclosure by the US Government is
 subject to restrictions as set forth in subparagraphs (a)
 and (c) of the Commercial Computer Software - Restricted
 Rights clause in FAR 52.227-19.
  
 Gaussian, Inc.
 340 Quinnipiac St., Bldg. 40, Wallingford CT 06492
  
  
 ---------------------------------------------------------------
 Warning -- This program may not be used in any manner that
 competes with the business of Gaussian, Inc. or will provide
 assistance to any competitor of Gaussian, Inc.  The licensee
 of this program is prohibited from giving any competitor of
 Gaussian, Inc. access to this program.  By using this program,
 the user acknowledges that Gaussian, Inc. is engaged in the
 business of creating and licensing software in the field of
 computational chemistry and represents and warrants to the
 licensee that it is not a competitor of Gaussian, Inc. and that
 it will not use this program in any manner prohibited above.
 ---------------------------------------------------------------
  

 Cite this work as:
 Gaussian 16, Revision C.01,
 M. J. Frisch, G. W. Trucks, H. B. Schlegel, G. E. Scuseria, 
 M. A. Robb, J. R. Cheeseman, G. Scalmani, V. Barone, 
 G. A. Petersson, H. Nakatsuji, X. Li, M. Caricato, A. V. Marenich, 
 J. Bloino, B. G. Janesko, R. Gomperts, B. Mennucci, H. P. Hratchian, 
 J. V. Ortiz, A. F. Izmaylov, J. L. Sonnenberg, D. Williams-Young, 
 F. Ding, F. Lipparini, F. Egidi, J. Goings, B. Peng, A. Petrone, 
 T. Henderson, D. Ranasinghe, V. G. Zakrzewski, J. Gao, N. Rega, 
 G. Zheng, W. Liang, M. Hada, M. Ehara, K. Toyota, R. Fukuda, 
 J. Hasegawa, M. Ishida, T. Nakajima, Y. Honda, O. Kitao, H. Nakai, 
 T. Vreven, K. Throssell, J. A. Montgomery, Jr., J. E. Peralta, 
 F. Ogliaro, M. J. Bearpark, J. J. Heyd, E. N. Brothers, K. N. Kudin, 
 V. N. Staroverov, T. A. Keith, R. Kobayashi, J. Normand, 
 K. Raghavachari, A. P. Rendell, J. C. Burant, S. S. Iyengar, 
 J. Tomasi, M. Cossi, J. M. Millam, M. Klene, C. Adamo, R. Cammi, 
 J. W. Ochterski, R. L. Martin, K. Morokuma, O. Farkas, 
 J. B. Foresman, and D. J. Fox, Gaussian, Inc., Wallingford CT, 2019.
 
 ******************************************
 Gaussian 16:  ES64L-G16RevC.01  3-Jul-2019
                12-Jan-2023 
 ******************************************
 %oldchk=../GS_OLD/geometry.chk
 %chk=geometry.chk
 %nprocshared=24
 Will use up to   24 processors via shared memory.
 %mem=5GB
 Copying data from "../GS_OLD/geometry.chk" to current chk file "geometry.chk"
 IOpt=  2 FromEx=T IUOpen= 4 IOptOp= 5 NList=   0 IFRang= 0 IUIn= 4 IUOut= 2.
 -------------------------------------------------------
 # WB97XD/6-311G SCF=XQC FORCE nosym pop=full guess=read
 -------------------------------------------------------
 1/10=7,30=1,38=1/1,3;
 2/12=2,15=1,17=6,18=5,40=1/2;
 3/5=4,6=6,11=2,25=1,30=1,71=1,74=-58,116=-2/1,2,3;
 4/5=1/1;
 5/5=2,8=3,13=1,38=6/2,8;
 6/7=3,28=1/1;
 7/29=1,30=1/1,2,3,16;
 1/10=7,30=1/3;
 99//99;
 -----------
 MD Step 999
 -----------
 Symbolic Z-matrix:
 Charge =  0 Multiplicity = 1
 C                    -0.33187  -0.5744    0.00284 
 H                     0.20344  -1.53632   0.00095 
 H                    -1.42058  -0.60125  -0.00042 
 C                     0.33077   0.57313   0.00137 
 H                    -0.15987   1.55486  -0.0028 
 H                     1.43628   0.64398  -0.00169 
 

 GradGradGradGradGradGradGradGradGradGradGradGradGradGradGradGradGradGrad
 Berny optimization.
 Initialization pass.
 Trust Radius=3.00D-01 FncErr=1.00D-07 GrdErr=1.00D-07 EigMax=2.50D+02 EigMin=1.00D-04
 Number of steps in this run=      2 maximum allowed number of steps=      2.
 GradGradGradGradGradGradGradGradGradGradGradGradGradGradGradGradGradGrad

                          Input orientation:                          
 ---------------------------------------------------------------------
 Center     Atomic      Atomic             Coordinates (Angstroms)
 Number     Number       Type             X           Y           Z
 ---------------------------------------------------------------------
      1          6           0       -0.331870   -0.574402    0.002835
      2          1           0        0.203438   -1.536324    0.000947
      3          1           0       -1.420584   -0.601250   -0.000418
      4          6           0        0.330766    0.573131    0.001366
      5          1           0       -0.159869    1.554855   -0.002804
      6          1           0        1.436283    0.643979   -0.001686
 ---------------------------------------------------------------------
                    Distance matrix (angstroms):
                    1          2          3          4          5
     1  C    0.000000
     2  H    1.100841   0.000000
     3  H    1.089050   1.873984   0.000000
     4  C    1.325112   2.113295   2.108649   0.000000
     5  H    2.136201   3.112458   2.497638   1.097508   0.000000
     6  H    2.147286   2.504722   3.116454   1.107789   1.837770
                    6
     6  H    0.000000
 Symmetry turned off by external request.
 Stoichiometry    C2H4
 Framework group  C1[X(C2H4)]
 Deg. of freedom    12
 Full point group                 C1      NOp   1
 Rotational constants (GHZ):         145.5724756          30.0075812          24.8792032
 Standard basis: 6-311G (5D, 7F)
    38 basis functions,    72 primitive gaussians,    38 cartesian basis functions
     8 alpha electrons        8 beta electrons
       nuclear repulsion energy        33.2415882066 Hartrees.
 NAtoms=    6 NActive=    6 NUniq=    6 SFac= 1.00D+00 NAtFMM=   60 NAOKFM=F Big=F
 Integral buffers will be    131072 words long.
 Raffenetti 2 integral format.
 Two-electron integral symmetry is turned off.
 Nuclear repulsion after empirical dispersion term =       33.2407585044 Hartrees.
 One-electron integrals computed using PRISM.
 NBasis=    38 RedAO= T EigKep=  6.15D-03  NBF=    38
 NBsUse=    38 1.00D-06 EigRej= -1.00D+00 NBFU=    38
 Initial guess from the checkpoint file:  "geometry.chk"
 B after Tr=    -0.000145   -0.000252   -0.000452
         Rot=    1.000000   -0.000005    0.000004    0.000003 Ang=  -0.00 deg.
 Keep R1 ints in memory in canonical form, NReq=21321136.
 Requested convergence on RMS density matrix=1.00D-08 within  32 cycles.
 Requested convergence on MAX density matrix=1.00D-06.
 Requested convergence on             energy=1.00D-06.
 No special actions if energy rises.
 SCF Done:  E(RwB97XD) =  -78.5565435208     A.U. after    8 cycles
            NFock=  8  Conv=0.66D-08     -V/T= 2.0046
 QCSCF skips out because SCF is already converged.

 **********************************************************************

            Population analysis using the SCF Density.

 **********************************************************************

 Alpha  occ. eigenvalues --  -10.28775 -10.28656  -0.86642  -0.67261  -0.55872
 Alpha  occ. eigenvalues --   -0.51340  -0.43406  -0.35910
 Alpha virt. eigenvalues --    0.08281   0.14192   0.16438   0.17022   0.24178
 Alpha virt. eigenvalues --    0.38053   0.39123   0.40034   0.46229   0.49042
 Alpha virt. eigenvalues --    0.49241   0.59261   0.66489   0.69261   0.77394
 Alpha virt. eigenvalues --    0.77837   0.84356   0.96336   2.23137   2.28733
 Alpha virt. eigenvalues --    2.33634   2.40898   2.67391   2.81797   2.87798
 Alpha virt. eigenvalues --    2.94985   3.15159   3.31989  23.35122  23.71691
     Molecular Orbital Coefficients:
                           1         2         3         4         5
                           O         O         O         O         O
     Eigenvalues --   -10.28775 -10.28656  -0.86642  -0.67261  -0.55872
   1 1   C  1S          0.25592   0.50190  -0.08840   0.06693  -0.00038
   2        2S          0.21082   0.41299  -0.13967   0.10722  -0.00062
   3        2PX         0.00015  -0.00005   0.02698   0.03683   0.13570
   4        2PY         0.00026  -0.00008   0.04816   0.06082  -0.07205
   5        2PZ        -0.00000  -0.00000  -0.00018   0.00013   0.00012
   6        3S          0.00585   0.01348   0.37401  -0.29219   0.00173
   7        3PX        -0.00046   0.00061   0.03475   0.05954   0.21236
   8        3PY        -0.00078   0.00108   0.06179   0.09937  -0.11367
   9        3PZ        -0.00000  -0.00000  -0.00028   0.00024   0.00018
  10        4S         -0.00094  -0.01527   0.18931  -0.22680   0.00094
  11        4PX         0.00101  -0.00195   0.00482   0.02395   0.11085
  12        4PY         0.00173  -0.00337   0.00877   0.04138  -0.06032
  13        4PZ         0.00000   0.00001  -0.00008   0.00013   0.00010
  14 2   H  1S         -0.00006  -0.00004   0.05106  -0.08806   0.09873
  15        2S         -0.00026   0.00019   0.05229  -0.10580   0.12513
  16        3S          0.00126   0.00135  -0.00164  -0.01542   0.04061
  17 3   H  1S         -0.00007  -0.00005   0.05245  -0.09130  -0.10245
  18        2S         -0.00026   0.00017   0.05314  -0.10893  -0.12897
  19        3S          0.00129   0.00138  -0.00168  -0.01629  -0.04178
  20 4   C  1S          0.50181  -0.25611  -0.08765  -0.06767  -0.00033
  21        2S          0.41311  -0.21060  -0.13840  -0.10849  -0.00052
  22        2PX        -0.00008  -0.00014  -0.02841   0.03744   0.12118
  23        2PY        -0.00013  -0.00025  -0.04778   0.06735  -0.07610
  24        2PZ         0.00000   0.00000  -0.00005  -0.00027   0.00011
  25        3S          0.01258  -0.00745   0.37026   0.29597   0.00142
  26        3PX        -0.00000   0.00078  -0.03537   0.06106   0.18974
  27        3PY         0.00003   0.00134  -0.05936   0.10907  -0.11796
  28        3PZ        -0.00000  -0.00000  -0.00010  -0.00047   0.00017
  29        4S         -0.00953   0.01184   0.18750   0.23342   0.00021
  30        4PX         0.00032  -0.00214  -0.00529   0.02650   0.10305
  31        4PY         0.00050  -0.00372  -0.00878   0.04585  -0.06317
  32        4PZ         0.00001   0.00000  -0.00006  -0.00023   0.00009
  33 5   H  1S         -0.00008  -0.00002   0.05042   0.09385  -0.09275
  34        2S         -0.00010  -0.00030   0.05119   0.11136  -0.11676
  35        3S          0.00180  -0.00036  -0.00118   0.01690  -0.03771
  36 6   H  1S         -0.00007  -0.00002   0.04904   0.09158   0.08827
  37        2S         -0.00011  -0.00030   0.05040   0.10930   0.11172
  38        3S          0.00175  -0.00035  -0.00127   0.01624   0.03639
                           6         7         8         9        10
                           O         O         O         V         V
     Eigenvalues --    -0.51340  -0.43406  -0.35910   0.08281   0.14192
   1 1   C  1S         -0.00418   0.00017  -0.00010   0.00027  -0.03385
   2        2S         -0.00630   0.00030  -0.00016   0.00045  -0.05430
   3        2PX         0.09417  -0.11310  -0.00036   0.00018  -0.03173
   4        2PY         0.16873   0.06693  -0.00033   0.00004  -0.06535
   5        2PZ         0.00030  -0.00011   0.17983  -0.18866  -0.00019
   6        3S          0.02268  -0.00065   0.00047  -0.00134   0.11799
   7        3PX         0.13602  -0.18118  -0.00051   0.00027  -0.03695
   8        3PY         0.24540   0.10782  -0.00042   0.00006  -0.08018
   9        3PZ         0.00050  -0.00018   0.28908  -0.27776  -0.00033
  10        4S         -0.05378  -0.00307   0.00065  -0.00162   1.23842
  11        4PX         0.06819  -0.11387  -0.00041   0.00136  -0.20105
  12        4PY         0.12416   0.06829  -0.00032   0.00132  -0.39880
  13        4PZ         0.00030  -0.00011   0.26477  -0.70556  -0.00114
  14 2   H  1S         -0.08157  -0.11724  -0.00000   0.00041  -0.01622
  15        2S         -0.11189  -0.18211   0.00017   0.00066  -0.04601
  16        3S         -0.04115  -0.08552   0.00010   0.00178  -0.85234
  17 3   H  1S         -0.07916   0.11510   0.00003   0.00043  -0.01220
  18        2S         -0.10794   0.17796   0.00023   0.00071  -0.03645
  19        3S         -0.03935   0.08330   0.00013   0.00183  -0.78619
  20 4   C  1S         -0.00779  -0.00044  -0.00007  -0.00025  -0.03519
  21        2S         -0.01215  -0.00073  -0.00012  -0.00042  -0.05647
  22        2PX        -0.09880   0.12230   0.00033   0.00015   0.04079
  23        2PY        -0.16290  -0.07184   0.00078   0.00049   0.06097
  24        2PZ         0.00070   0.00008   0.17965   0.18885  -0.00032
  25        3S          0.03913   0.00205   0.00035   0.00125   0.12366
  26        3PX        -0.14524   0.19630   0.00046   0.00024   0.05030
  27        3PY        -0.23761  -0.11442   0.00113   0.00073   0.07245
  28        3PZ         0.00108   0.00012   0.28809   0.27768  -0.00047
  29        4S         -0.03475   0.00307   0.00063   0.00128   1.23928
  30        4PX        -0.07516   0.12560   0.00034   0.00127   0.26359
  31        4PY        -0.12159  -0.07258   0.00091   0.00301   0.41054
  32        4PZ         0.00060   0.00007   0.26507   0.70618  -0.00195
  33 5   H  1S         -0.07516  -0.12318   0.00001  -0.00037  -0.01080
  34        2S         -0.10163  -0.19162   0.00018  -0.00059  -0.03543
  35        3S         -0.03723  -0.09077   0.00010  -0.00163  -0.81317
  36 6   H  1S         -0.08091   0.12295   0.00004  -0.00038  -0.01463
  37        2S         -0.10990   0.19238   0.00023  -0.00064  -0.04489
  38        3S         -0.04046   0.09126   0.00013  -0.00175  -0.88021
                          11        12        13        14        15
                           V         V         V         V         V
     Eigenvalues --     0.16438   0.17022   0.24178   0.38053   0.39123
   1 1   C  1S          0.00174  -0.04452   0.00009   0.01109   0.00113
   2        2S          0.00282  -0.07261   0.00013   0.01570   0.00171
   3        2PX         0.09906  -0.01915   0.09962  -0.03497  -0.02536
   4        2PY        -0.05418  -0.03899  -0.05698  -0.06499   0.00988
   5        2PZ         0.00011  -0.00061   0.00008  -0.00040  -0.00005
   6        3S         -0.00616   0.16402   0.00029   0.03056   0.00125
   7        3PX         0.14241  -0.01038   0.10632  -0.04466  -0.10739
   8        3PY        -0.07945  -0.02676  -0.06180  -0.09210   0.05124
   9        3PZ         0.00015  -0.00088   0.00009  -0.00088  -0.00013
  10        4S         -0.07057   1.39849  -0.02274  -2.96938  -0.24663
  11        4PX         0.57676  -0.11446   1.16573  -1.64664  -0.56125
  12        4PY        -0.30555  -0.22234  -0.66839  -2.89117   0.06896
  13        4PZ         0.00064  -0.00403   0.00095  -0.00088  -0.00053
  14 2   H  1S         -0.03053  -0.02515   0.01236  -0.05361   0.07680
  15        2S         -0.08045  -0.01867  -0.02390  -0.64871   0.76478
  16        3S         -1.01207  -1.00465  -1.53643  -0.35322  -0.38045
  17 3   H  1S          0.03051  -0.02420  -0.01426  -0.04285  -0.07941
  18        2S          0.08017  -0.01959   0.01872  -0.55579  -0.79044
  19        3S          1.10610  -0.98067   1.56676  -0.44307   0.29254
  20 4   C  1S          0.00075   0.04281  -0.00013  -0.01980  -0.00054
  21        2S          0.00118   0.06976  -0.00023  -0.03233  -0.00077
  22        2PX         0.10008  -0.02277  -0.10021  -0.03969  -0.03062
  23        2PY        -0.05995  -0.03890   0.05745  -0.07238   0.01045
  24        2PZ         0.00007   0.00067  -0.00007   0.00041   0.00003
  25        3S         -0.00209  -0.15549   0.00034   0.03681  -0.00136
  26        3PX         0.14469  -0.01684  -0.11239  -0.08891  -0.11172
  27        3PY        -0.08594  -0.02785   0.06310  -0.16753   0.05139
  28        3PZ         0.00010   0.00089  -0.00006   0.00058   0.00002
  29        4S         -0.04583  -1.35363   0.01838   3.59980   0.24222
  30        4PX         0.53594  -0.12319  -1.14091  -1.28522  -0.56964
  31        4PY        -0.32736  -0.21843   0.65941  -2.28538   0.05488
  32        4PZ         0.00036   0.00437  -0.00086   0.00632   0.00032
  33 5   H  1S          0.03151   0.02421   0.00845   0.01486  -0.07964
  34        2S          0.07204   0.02137  -0.02840   0.12456  -0.77534
  35        3S          1.07215   0.96968  -1.54930   0.46523   0.46264
  36 6   H  1S         -0.03248   0.02425  -0.00690   0.00569   0.08717
  37        2S         -0.07349   0.01864   0.03027   0.04021   0.87303
  38        3S         -1.01289   0.95335   1.52638   0.49641  -0.42436
                          16        17        18        19        20
                           V         V         V         V         V
     Eigenvalues --     0.40034   0.46229   0.49042   0.49241   0.59261
   1 1   C  1S         -0.01768  -0.00834   0.04779  -0.00032  -0.00005
   2        2S         -0.03162  -0.02201   0.08086  -0.00052  -0.00010
   3        2PX         0.02492   0.05960  -0.01599   0.00026   0.00022
   4        2PY         0.04580   0.10323  -0.02180   0.00017   0.00006
   5        2PZ        -0.00007  -0.00001  -0.00137  -0.15139  -0.19315
   6        3S          0.08870   0.33073  -0.12861   0.00002  -0.00002
   7        3PX         0.10256   0.23762   0.01184   0.00018   0.00075
   8        3PY         0.19197   0.40905   0.03233  -0.00074   0.00018
   9        3PZ        -0.00069   0.00014  -0.00603  -0.62728  -0.68676
  10        4S          2.48843  -0.41016  -3.19164   0.02841   0.00704
  11        4PX         0.11145  -0.27447  -0.78082   0.00751   0.00214
  12        4PY         0.22135  -0.51175  -1.35625   0.01428   0.00538
  13        4PZ        -0.00069   0.00098   0.01433   0.68845   1.24599
  14 2   H  1S         -0.02713   0.04244   0.07410  -0.00067  -0.00017
  15        2S         -0.56148   0.42388   0.89041  -0.00745  -0.00115
  16        3S          0.26010  -0.13275  -0.63309   0.00674   0.00235
  17 3   H  1S         -0.03368   0.04518   0.07154  -0.00065  -0.00016
  18        2S         -0.61978   0.45592   0.86212  -0.00728  -0.00095
  19        3S          0.27313  -0.13386  -0.59713   0.00650   0.00221
  20 4   C  1S         -0.00275  -0.00208  -0.05029   0.00059   0.00007
  21        2S         -0.00828  -0.01129  -0.08676   0.00104   0.00012
  22        2PX         0.00396  -0.05719  -0.02016   0.00010   0.00018
  23        2PY         0.00857  -0.09914  -0.03856   0.00003   0.00057
  24        2PZ        -0.00033   0.00029  -0.00137  -0.15179   0.19307
  25        3S          0.09027   0.30845   0.19686  -0.00302  -0.00020
  26        3PX        -0.05474  -0.23406  -0.02622   0.00006   0.00066
  27        3PY        -0.08529  -0.40963  -0.05045  -0.00063   0.00201
  28        3PZ        -0.00088   0.00123  -0.00558  -0.62884   0.68567
  29        4S         -0.60595  -0.56703   3.23856  -0.03146  -0.00659
  30        4PX         1.17395   0.28227  -0.67080   0.00595   0.00217
  31        4PY         2.12475   0.45792  -1.13486   0.01068   0.00238
  32        4PZ        -0.00523   0.00045   0.00180   0.69070  -1.24444
  33 5   H  1S         -0.04588   0.05851  -0.06856   0.00066   0.00015
  34        2S         -0.83812   0.60469  -0.86114   0.00896   0.00072
  35        3S         -0.17793  -0.20446   0.55989  -0.00452  -0.00226
  36 6   H  1S         -0.03921   0.05678  -0.06915   0.00067   0.00016
  37        2S         -0.75968   0.58049  -0.85919   0.00886   0.00079
  38        3S         -0.18876  -0.21965   0.58765  -0.00477  -0.00220
                          21        22        23        24        25
                           V         V         V         V         V
     Eigenvalues --     0.66489   0.69261   0.77394   0.77837   0.84356
   1 1   C  1S          0.00083  -0.00025   0.07974   0.04140   0.00092
   2        2S          0.00171  -0.00062   0.16915   0.08829   0.00206
   3        2PX        -0.13854   0.19322   0.03328   0.10914  -0.00937
   4        2PY         0.08091  -0.11579   0.05327   0.17901   0.01302
   5        2PZ        -0.00012   0.00017   0.00022   0.00018  -0.00001
   6        3S         -0.01331   0.01190  -1.28657  -0.85871  -0.02151
   7        3PX        -0.63743   0.66835   0.06436   0.47430  -0.22818
   8        3PY         0.36886  -0.40153   0.09095   0.77446   0.16360
   9        3PZ        -0.00056   0.00061   0.00090   0.00044  -0.00017
  10        4S          0.02200  -0.07489   1.82184   2.03501  -0.02916
  11        4PX         1.12822  -0.73731  -0.21304  -0.69805   4.46456
  12        4PY        -0.65601   0.44266  -0.32233  -0.91492  -2.56708
  13        4PZ         0.00101  -0.00050  -0.00148  -0.00417   0.00368
  14 2   H  1S          0.02492  -0.05756   0.02518   0.02315  -0.02649
  15        2S          0.14601  -0.61565   0.10586   0.03122  -1.52800
  16        3S         -1.07668   1.05777  -0.61896  -0.91591  -1.21041
  17 3   H  1S         -0.02420   0.05735   0.02537   0.02375   0.02947
  18        2S         -0.15849   0.64992   0.11724  -0.00877   1.56468
  19        3S          1.06645  -1.02962  -0.66323  -1.04475   1.20909
  20 4   C  1S          0.00104  -0.00023   0.08884  -0.01650   0.00024
  21        2S          0.00210  -0.00039   0.18864  -0.03539   0.00047
  22        2PX        -0.14411  -0.19160  -0.05831   0.08913   0.01238
  23        2PY         0.08235   0.10652  -0.10543   0.16279  -0.00006
  24        2PZ        -0.00009  -0.00015   0.00048  -0.00049  -0.00002
  25        3S         -0.01504  -0.00415  -1.49024   0.44377   0.00011
  26        3PX        -0.65896  -0.65527  -0.17408   0.41028   0.24324
  27        3PY         0.37926   0.36238  -0.32001   0.74951  -0.10382
  28        3PZ        -0.00044  -0.00049   0.00165  -0.00195   0.00005
  29        4S          0.01353   0.06072   2.40674  -1.43596   0.01107
  30        4PX         1.24004   0.75685   0.32584  -0.40585  -4.26240
  31        4PY        -0.70897  -0.42090   0.57970  -0.98502   2.41753
  32        4PZ         0.00079   0.00041  -0.00371   0.00560  -0.00313
  33 5   H  1S         -0.02368  -0.05621   0.03138  -0.01430  -0.02515
  34        2S         -0.13293  -0.59622   0.11046   0.04374  -1.44086
  35        3S          1.09262   1.01482  -0.89087   0.82479  -1.12939
  36 6   H  1S          0.02425   0.05615   0.03125  -0.01362   0.02474
  37        2S          0.12657   0.56049   0.08968  -0.00754   1.42507
  38        3S         -1.09582  -1.03217  -0.85324   0.72111   1.14202
                          26        27        28        29        30
                           V         V         V         V         V
     Eigenvalues --     0.96336   2.23137   2.28733   2.33634   2.40898
   1 1   C  1S          0.09540  -0.01043  -0.01398   0.00030  -0.00044
   2        2S          0.19839   0.00103  -0.01441   0.00077  -0.00047
   3        2PX        -0.09542  -0.08922  -0.13817   0.33726  -0.40929
   4        2PY        -0.16527  -0.16473  -0.23768  -0.19306   0.23334
   5        2PZ         0.00020  -0.00115  -0.00151   0.00027  -0.00039
   6        3S         -1.52543  -0.18321  -0.02714  -0.00195  -0.00451
   7        3PX        -0.25595   0.09175   0.21919  -0.40725   0.57180
   8        3PY        -0.43630   0.18115   0.39079   0.23574  -0.32864
   9        3PZ         0.00023   0.00115   0.00177  -0.00032   0.00052
  10        4S          5.71595  -0.12297  -0.90006  -0.00248  -0.02349
  11        4PX         1.21464   0.05126  -0.18910  -0.02439   0.96124
  12        4PY         2.02567   0.06537  -0.35207   0.00496  -0.53577
  13        4PZ        -0.00398   0.00028   0.00121  -0.00003   0.00083
  14 2   H  1S          0.01592  -0.71912  -0.77365  -0.71636   0.65068
  15        2S         -0.29052   1.02684   1.16496   1.09164  -1.44565
  16        3S         -0.05815  -0.31007  -0.46250  -0.48476   0.37732
  17 3   H  1S          0.01618  -0.71323  -0.77565   0.70181  -0.67078
  18        2S         -0.26636   1.02067   1.17145  -1.07369   1.48807
  19        3S         -0.04307  -0.29033  -0.45077   0.47127  -0.36977
  20 4   C  1S         -0.09425  -0.01094   0.01264   0.00051   0.00031
  21        2S         -0.19576  -0.00051   0.01344   0.00076   0.00053
  22        2PX        -0.09619   0.12824  -0.13216   0.30485   0.41851
  23        2PY        -0.16602   0.22347  -0.22033  -0.17687  -0.23944
  24        2PZ         0.00023  -0.00158   0.00190   0.00022   0.00030
  25        3S          1.50227  -0.17023   0.01260  -0.00017   0.00038
  26        3PX        -0.25065  -0.15996   0.22426  -0.37574  -0.58620
  27        3PY        -0.43823  -0.27282   0.36739   0.21550   0.33487
  28        3PZ         0.00087   0.00170  -0.00253  -0.00026  -0.00042
  29        4S         -5.70405  -0.17433   0.90571   0.01803   0.01156
  30        4PX         1.13843  -0.02179  -0.19993   0.08594  -0.88463
  31        4PY         2.03299  -0.04948  -0.32144  -0.04892   0.51593
  32        4PZ        -0.00127   0.00049  -0.00030   0.00005  -0.00075
  33 5   H  1S         -0.01761  -0.77869   0.68576   0.70467   0.68806
  34        2S          0.28535   1.13126  -1.04923  -1.03049  -1.47506
  35        3S          0.03495  -0.34052   0.40315   0.50104   0.41717
  36 6   H  1S         -0.01773  -0.77158   0.71053  -0.68910  -0.68477
  37        2S          0.30585   1.11838  -1.08150   1.00377   1.46174
  38        3S          0.04102  -0.34335   0.43210  -0.49692  -0.42481
                          31        32        33        34        35
                           V         V         V         V         V
     Eigenvalues --     2.67391   2.81797   2.87798   2.94985   3.15159
   1 1   C  1S          0.00005  -0.00024  -0.01310   0.00004  -0.00839
   2        2S          0.00005  -0.00074  -0.04595  -0.00022  -0.02785
   3        2PX         0.00067  -0.00726  -0.46283  -0.74529   0.45982
   4        2PY        -0.00016  -0.01132  -0.83652   0.41591   0.80508
   5        2PZ        -0.92542   0.93953  -0.01300  -0.00078  -0.00016
   6        3S         -0.00024   0.00636   0.41811   0.00400   0.24575
   7        3PX        -0.00062   0.01271   0.83894   0.89272  -0.45471
   8        3PY         0.00026   0.02040   1.48720  -0.48429  -0.79516
   9        3PZ         0.93846  -1.15265   0.01585   0.00095  -0.00008
  10        4S          0.00147  -0.01449  -0.92694  -0.01243  -0.48190
  11        4PX        -0.00012  -0.01033  -0.72955  -0.67065   0.24140
  12        4PY        -0.00045  -0.01709  -1.29651   0.35432   0.41974
  13        4PZ        -0.33747   0.62778  -0.00967  -0.00071   0.00018
  14 2   H  1S          0.00114   0.00226   0.28175  -0.38027  -0.22504
  15        2S         -0.00132  -0.00160  -0.24479   0.39221   0.17137
  16        3S         -0.00022  -0.00396  -0.29738   0.26526   0.07264
  17 3   H  1S          0.00117   0.00222   0.26962   0.38339  -0.22439
  18        2S         -0.00141  -0.00148  -0.22382  -0.39103   0.17033
  19        3S         -0.00031  -0.00410  -0.29960  -0.28265   0.07902
  20 4   C  1S          0.00005   0.00023   0.01304   0.00058  -0.00700
  21        2S          0.00004   0.00076   0.04809   0.00139  -0.02351
  22        2PX        -0.00061  -0.00658  -0.42138  -0.79538  -0.49528
  23        2PY        -0.00218  -0.01264  -0.75348   0.44057  -0.87743
  24        2PZ        -0.92499  -0.93987   0.01485  -0.00036   0.00214
  25        3S         -0.00018  -0.00672  -0.44551  -0.01083   0.20989
  26        3PX         0.00057   0.01197   0.79374   0.94808   0.52488
  27        3PY         0.00210   0.02235   1.40815  -0.51670   0.93902
  28        3PZ         0.93804   1.15301  -0.01931   0.00041  -0.00250
  29        4S          0.00130   0.01456   0.94070   0.02962  -0.40238
  30        4PX         0.00010  -0.01020  -0.72923  -0.69024  -0.31495
  31        4PY        -0.00040  -0.01852  -1.27854   0.36989  -0.56837
  32        4PZ        -0.33725  -0.62778   0.01280  -0.00029   0.00174
  33 5   H  1S          0.00108  -0.00279  -0.29894   0.40540  -0.26101
  34        2S         -0.00129   0.00226   0.26941  -0.41351   0.20344
  35        3S         -0.00017   0.00388   0.29362  -0.25479   0.12062
  36 6   H  1S          0.00111  -0.00289  -0.29728  -0.41667  -0.25010
  37        2S         -0.00141   0.00244   0.27501   0.42481   0.19504
  38        3S         -0.00017   0.00371   0.27531   0.25537   0.11340
                          36        37        38
                           V         V         V
     Eigenvalues --     3.31989  23.35122  23.71691
   1 1   C  1S         -0.00039  -1.42241  -1.44414
   2        2S         -0.00055   1.51689   1.56225
   3        2PX         0.77265  -0.00590   0.01183
   4        2PY        -0.43207  -0.00961   0.02082
   5        2PZ         0.00067  -0.00004  -0.00005
   6        3S          0.00001  -0.29708  -0.40136
   7        3PX        -1.10728   0.02354  -0.05756
   8        3PY         0.61564   0.03912  -0.10030
   9        3PZ        -0.00096   0.00011   0.00018
  10        4S         -0.01283   0.27612   0.78323
  11        4PX         1.95552  -0.02547   0.13630
  12        4PY        -1.09094  -0.04318   0.23544
  13        4PZ         0.00167  -0.00021  -0.00056
  14 2   H  1S          0.54716   0.01288   0.00614
  15        2S         -0.85529   0.00776  -0.01449
  16        3S         -0.45314  -0.08344  -0.03755
  17 3   H  1S         -0.55904   0.01458   0.00732
  18        2S          0.87194   0.00732  -0.01471
  19        3S          0.47687  -0.08540  -0.03792
  20 4   C  1S          0.00021  -1.43907   1.42744
  21        2S          0.00004   1.53467  -1.54421
  22        2PX        -0.72241   0.00548   0.01231
  23        2PY         0.41287   0.01002   0.02083
  24        2PZ        -0.00055  -0.00006  -0.00001
  25        3S          0.00329  -0.30021   0.39660
  26        3PX         1.03239  -0.02225  -0.05842
  27        3PY        -0.59863  -0.03998  -0.10017
  28        3PZ         0.00081   0.00019   0.00008
  29        4S         -0.00719   0.27659  -0.77899
  30        4PX        -1.82945   0.02400   0.13517
  31        4PY         1.06688   0.04451   0.23334
  32        4PZ        -0.00146  -0.00029  -0.00006
  33 5   H  1S          0.50389   0.01405  -0.00548
  34        2S         -0.78715   0.00750   0.01432
  35        3S         -0.44257  -0.08379   0.03687
  36 6   H  1S         -0.49822   0.01250  -0.00415
  37        2S          0.78052   0.00878   0.01363
  38        3S          0.43099  -0.08173   0.03597
     Density Matrix:
                           1         2         3         4         5
   1 1   C  1S          0.65941
   2        2S          0.56156   0.49210
   3        2PX        -0.00075  -0.00104   0.08432
   4        2PY        -0.00166  -0.00237   0.00417   0.08832
   5        2PZ         0.00001   0.00001  -0.00001  -0.00005   0.06467
   6        3S         -0.08890  -0.15381   0.00355   0.00780  -0.00002
   7        3PX         0.00084   0.00128   0.13049   0.00164  -0.00001
   8        3PY         0.00113   0.00172   0.00164   0.13166  -0.00005
   9        3PZ         0.00002   0.00003  -0.00002  -0.00007   0.10397
  10        4S         -0.07919  -0.11385  -0.01567  -0.02805   0.00008
  11        4PX         0.00021   0.00153   0.07071  -0.00483  -0.00005
  12        4PY         0.00052   0.00292  -0.00491   0.06561  -0.00006
  13        4PZ        -0.00001  -0.00003  -0.00008  -0.00010   0.09522
  14 2   H  1S         -0.02032  -0.03237   0.03422  -0.06324  -0.00004
  15        2S         -0.02257  -0.03610   0.04911  -0.08800   0.00002
  16        3S          0.00051  -0.00079   0.02139  -0.03322   0.00004
  17 3   H  1S         -0.02080  -0.03310  -0.07264  -0.00260  -0.00013
  18        2S         -0.02288  -0.03654  -0.10074  -0.00215  -0.00010
  19        3S          0.00055  -0.00074  -0.03888   0.00175  -0.00001
  20 4   C  1S          0.00627   0.01012  -0.01099  -0.01901  -0.00002
  21        2S          0.01009   0.01578  -0.01758  -0.03040  -0.00003
  22        2PX         0.01063   0.01698  -0.01216  -0.03262   0.00008
  23        2PY         0.01854   0.02963  -0.03270  -0.05003   0.00021
  24        2PZ        -0.00007  -0.00011  -0.00001   0.00007   0.06461
  25        3S         -0.02721  -0.04131   0.04908   0.08495   0.00009
  26        3PX         0.01635   0.02533  -0.01768  -0.04606   0.00011
  27        3PY         0.02849   0.04416  -0.04606  -0.07095   0.00031
  28        3PZ        -0.00011  -0.00018  -0.00002   0.00010   0.10361
  29        4S          0.00539   0.00388   0.02012   0.03510   0.00019
  30        4PX         0.00309   0.00642  -0.01293  -0.02069   0.00008
  31        4PY         0.00525   0.01099  -0.02072  -0.03691   0.00027
  32        4PZ        -0.00007  -0.00012  -0.00009  -0.00001   0.09533
  33 5   H  1S          0.00425   0.00698  -0.00183  -0.01221  -0.00003
  34        2S          0.00637   0.01060   0.00348  -0.02465   0.00003
  35        3S          0.00334   0.00488   0.00447  -0.01734   0.00003
  36 6   H  1S          0.00419   0.00688  -0.00970  -0.00770  -0.00004
  37        2S          0.00626   0.01042  -0.02312  -0.00929   0.00001
  38        3S          0.00328   0.00480  -0.01726  -0.00483   0.00002
                           6         7         8         9        10
   6        3S          0.45198
   7        3PX        -0.00165   0.20235
   8        3PY        -0.00124  -0.00446   0.19692
   9        3PZ        -0.00005  -0.00000  -0.00006   0.16714
  10        4S          0.27129  -0.02699  -0.04898   0.00011   0.18083
  11        4PX        -0.00680   0.11008  -0.01094  -0.00008  -0.01541
  12        4PY        -0.01236  -0.01105   0.09867  -0.00009  -0.02924
  13        4PZ         0.00013  -0.00009  -0.00011   0.15308   0.00022
  14 2   H  1S          0.08645   0.05529  -0.09895  -0.00007   0.06896
  15        2S          0.09654   0.07973  -0.13719   0.00002   0.08117
  16        3S          0.00622   0.03509  -0.05113   0.00005   0.01136
  17 3   H  1S          0.08849  -0.11398  -0.00241  -0.00022   0.06889
  18        2S          0.09783  -0.15790  -0.00036  -0.00017   0.07980
  19        3S          0.00628  -0.06069   0.00470  -0.00002   0.01035
  20 4   C  1S         -0.02741  -0.01703  -0.02946  -0.00003   0.00522
  21        2S         -0.04152  -0.02644  -0.04577  -0.00005   0.00377
  22        2PX        -0.04735  -0.01724  -0.04574   0.00013  -0.01763
  23        2PY        -0.08267  -0.04591  -0.07066   0.00034  -0.03081
  24        2PZ         0.00032  -0.00001   0.00012   0.10387   0.00026
  25        3S          0.10573   0.07146   0.12386   0.00017   0.00192
  26        3PX        -0.06831  -0.02524  -0.06432   0.00017  -0.02634
  27        3PY        -0.11914  -0.06441  -0.10013   0.00049  -0.04595
  28        3PZ         0.00052  -0.00003   0.00017   0.16657   0.00043
  29        4S          0.00248   0.03038   0.05316   0.00033  -0.03151
  30        4PX        -0.02271  -0.01941  -0.02863   0.00013  -0.00645
  31        4PY        -0.03909  -0.02876  -0.05295   0.00043  -0.01060
  32        4PZ         0.00037  -0.00013   0.00001   0.15325   0.00036
  33 5   H  1S         -0.02070  -0.00052  -0.01748  -0.00004  -0.01481
  34        2S         -0.03155   0.00902  -0.03620   0.00005  -0.01923
  35        3S         -0.01245   0.00868  -0.02606   0.00005  -0.00361
  36 6   H  1S         -0.02036  -0.01475  -0.00900  -0.00006  -0.01486
  37        2S         -0.03103  -0.03564  -0.00990   0.00002  -0.01964
  38        3S         -0.01225  -0.02678  -0.00539   0.00002  -0.00398
                          11        12        13        14        15
  11        4PX         0.06102
  12        4PY        -0.00991   0.05104
  13        4PZ        -0.00012  -0.00011   0.14020
  14 2   H  1S          0.03374  -0.05457  -0.00004   0.08101
  15        2S          0.04939  -0.07559   0.00005   0.10963   0.15054
  16        3S          0.02211  -0.02811   0.00005   0.03733   0.05361
  17 3   H  1S         -0.06359   0.00178  -0.00011  -0.01287  -0.02504
  18        2S         -0.08855   0.00498  -0.00005  -0.02498  -0.04434
  19        3S         -0.03440   0.00526   0.00001  -0.01867  -0.02872
  20 4   C  1S         -0.00311  -0.00563  -0.00005   0.00423   0.00662
  21        2S         -0.00648  -0.01161  -0.00008   0.00699   0.01105
  22        2PX        -0.01294  -0.01985   0.00012   0.00188  -0.00300
  23        2PY        -0.01996  -0.03635   0.00034   0.01165   0.02432
  24        2PZ        -0.00006   0.00003   0.09513  -0.00007  -0.00004
  25        3S          0.02298   0.04091   0.00022  -0.02090  -0.03307
  26        3PX        -0.01987  -0.02772   0.00017   0.00076  -0.00813
  27        3PY        -0.02786  -0.05243   0.00049   0.01703   0.03604
  28        3PZ        -0.00010   0.00004   0.15256  -0.00010  -0.00005
  29        4S          0.00753   0.01426   0.00034  -0.01697  -0.02306
  30        4PX        -0.01478  -0.01183   0.00013  -0.00205  -0.00930
  31        4PY        -0.01193  -0.02882   0.00043   0.01541   0.02721
  32        4PZ        -0.00015  -0.00004   0.14036  -0.00006  -0.00000
  33 5   H  1S          0.00222  -0.01565  -0.00001   0.01145   0.02389
  34        2S          0.00972  -0.02721   0.00007   0.02407   0.04511
  35        3S          0.00804  -0.01571   0.00005   0.01681   0.02825
  36 6   H  1S         -0.01461  -0.00551  -0.00003  -0.00932  -0.01883
  37        2S         -0.02831  -0.00456   0.00005  -0.01922  -0.03538
  38        3S         -0.01746  -0.00064   0.00004  -0.01060  -0.01865
                          16        17        18        19        20
  16        3S          0.02180
  17 3   H  1S         -0.01885   0.08219
  18        2S         -0.02885   0.10995   0.14929
  19        3S         -0.01389   0.03676   0.05229   0.02101
  20 4   C  1S          0.00364   0.00431   0.00668   0.00366   0.65946
  21        2S          0.00536   0.00711   0.01113   0.00537   0.56162
  22        2PX        -0.00401   0.00915   0.02242   0.01690   0.00126
  23        2PY         0.01759   0.00754   0.00948   0.00518   0.00191
  24        2PZ        -0.00002  -0.00006  -0.00002   0.00000   0.00001
  25        3S         -0.01379  -0.02122  -0.03322  -0.01373  -0.08914
  26        3PX        -0.00798   0.01444   0.03522   0.02641  -0.00050
  27        3PY         0.02638   0.00931   0.01093   0.00614  -0.00113
  28        3PZ        -0.00002  -0.00009  -0.00001   0.00001   0.00002
  29        4S         -0.00546  -0.01679  -0.02237  -0.00500  -0.07955
  30        4PX        -0.00773   0.01430   0.02801   0.01738  -0.00025
  31        4PY         0.01589   0.00619   0.00579   0.00128  -0.00026
  32        4PZ         0.00000  -0.00005   0.00004   0.00003  -0.00000
  33 5   H  1S          0.01666  -0.00930  -0.01878  -0.01009  -0.02027
  34        2S          0.02805  -0.01906  -0.03496  -0.01797  -0.02217
  35        3S          0.01501  -0.01048  -0.01835  -0.00959   0.00060
  36 6   H  1S         -0.01019   0.01145   0.02372   0.01633  -0.01995
  37        2S         -0.01832   0.02412   0.04492   0.02763  -0.02212
  38        3S         -0.00982   0.01686   0.02816   0.01483   0.00049
                          21        22        23        24        25
  21        2S          0.49218
  22        2PX         0.00183   0.08322
  23        2PY         0.00275   0.00393   0.08862
  24        2PZ         0.00001   0.00001  -0.00001   0.06455
  25        3S         -0.15413  -0.00576  -0.00877  -0.00001   0.45289
  26        3PX        -0.00074   0.12928   0.00184   0.00001  -0.00008
  27        3PY        -0.00172   0.00192   0.13217  -0.00002   0.00119
  28        3PZ         0.00003   0.00002   0.00000   0.10351  -0.00007
  29        4S         -0.11457   0.01449   0.02437   0.00004   0.27390
  30        4PX        -0.00159   0.07283  -0.00516   0.00005   0.00674
  31        4PY        -0.00242  -0.00510   0.06667   0.00011   0.01071
  32        4PZ        -0.00001   0.00008   0.00017   0.09524   0.00005
  33 5   H  1S         -0.03228  -0.03359   0.06412  -0.00020   0.08624
  34        2S         -0.03542  -0.04966   0.08852  -0.00020   0.09476
  35        3S         -0.00062  -0.02265   0.03330  -0.00005   0.00579
  36 6   H  1S         -0.03180   0.07152   0.00291  -0.00011   0.08495
  37        2S         -0.03536   0.10117   0.00107  -0.00008   0.09453
  38        3S         -0.00077   0.04042  -0.00316   0.00001   0.00604
                          26        27        28        29        30
  26        3PX         0.20121
  27        3PY        -0.00314   0.19777
  28        3PZ         0.00002  -0.00002   0.16600
  29        4S          0.02664   0.04446   0.00003   0.18218
  30        4PX         0.11385  -0.01093   0.00008   0.01637   0.06556
  31        4PY        -0.01093   0.10033   0.00018   0.02599  -0.01043
  32        4PZ         0.00011   0.00023   0.15273   0.00016   0.00012
  33 5   H  1S         -0.05383   0.10027  -0.00032   0.06715  -0.03432
  34        2S         -0.08004   0.13791  -0.00032   0.07702  -0.05156
  35        3S         -0.03699   0.05119  -0.00007   0.00942  -0.02407
  36 6   H  1S          0.11298   0.00364  -0.00019   0.06756   0.06557
  37        2S          0.15963  -0.00029  -0.00013   0.07878   0.09313
  38        3S          0.06346  -0.00655   0.00001   0.01045   0.03738
                          31        32        33        34        35
  31        4PY         0.05247
  32        4PZ         0.00030   0.14052
  33 5   H  1S          0.05559  -0.00017   0.08155
  34        2S          0.07660  -0.00013   0.11021   0.15141
  35        3S          0.02857  -0.00002   0.03801   0.05481   0.02268
  36 6   H  1S         -0.00179  -0.00009  -0.01237  -0.02587  -0.01997
  37        2S         -0.00618  -0.00002  -0.02600  -0.04798  -0.03159
  38        3S         -0.00649   0.00003  -0.02023  -0.03176  -0.01574
                          36        37        38
  36 6   H  1S          0.08049
  37        2S          0.10978   0.15211
  38        3S          0.03826   0.05556   0.02312
    Full Mulliken population analysis:
                           1         2         3         4         5
   1 1   C  1S          0.65941
   2        2S          0.49330   0.49210
   3        2PX         0.00000   0.00000   0.08432
   4        2PY         0.00000   0.00000   0.00000   0.08832
   5        2PZ         0.00000   0.00000   0.00000   0.00000   0.06467
   6        3S         -0.02926  -0.06442   0.00000   0.00000   0.00000
   7        3PX         0.00000   0.00000   0.08210   0.00000   0.00000
   8        3PY         0.00000   0.00000   0.00000   0.08283   0.00000
   9        3PZ         0.00000   0.00000   0.00000   0.00000   0.06541
  10        4S         -0.01218  -0.02131   0.00000   0.00000   0.00000
  11        4PX         0.00000   0.00000   0.01557   0.00000   0.00000
  12        4PY         0.00000   0.00000   0.00000   0.01445   0.00000
  13        4PZ         0.00000   0.00000   0.00000   0.00000   0.02097
  14 2   H  1S         -0.00022  -0.00032   0.00169   0.00561   0.00000
  15        2S         -0.00163  -0.00312   0.00414   0.01333  -0.00000
  16        3S          0.00004  -0.00007   0.00069   0.00194  -0.00000
  17 3   H  1S         -0.00025  -0.00035   0.00777   0.00001   0.00000
  18        2S         -0.00170  -0.00325   0.01771   0.00001   0.00000
  19        3S          0.00004  -0.00007   0.00259  -0.00000   0.00000
  20 4   C  1S          0.00000   0.00000  -0.00002  -0.00007   0.00000
  21        2S          0.00000  -0.00000  -0.00002  -0.00006   0.00000
  22        2PX        -0.00002  -0.00002   0.00011   0.00093   0.00000
  23        2PY        -0.00007  -0.00006   0.00093   0.00212   0.00000
  24        2PZ        -0.00000  -0.00000  -0.00000   0.00000   0.00046
  25        3S         -0.00064  -0.00109   0.00265   0.00795  -0.00000
  26        3PX        -0.00058  -0.00106   0.00017   0.00572   0.00000
  27        3PY        -0.00174  -0.00320   0.00572   0.01084   0.00000
  28        3PZ        -0.00000  -0.00000  -0.00000   0.00000   0.00643
  29        4S          0.00035   0.00030   0.00092   0.00278  -0.00000
  30        4PX        -0.00018  -0.00046  -0.00072   0.00143   0.00000
  31        4PY        -0.00053  -0.00136   0.00143   0.00089   0.00000
  32        4PZ        -0.00000  -0.00000  -0.00000  -0.00000   0.00912
  33 5   H  1S          0.00000   0.00000  -0.00000  -0.00000   0.00000
  34        2S          0.00001   0.00002   0.00000  -0.00033  -0.00000
  35        3S          0.00008   0.00014   0.00001  -0.00071  -0.00000
  36 6   H  1S          0.00000   0.00000  -0.00000  -0.00000   0.00000
  37        2S          0.00001   0.00002  -0.00025  -0.00007  -0.00000
  38        3S          0.00008   0.00013  -0.00058  -0.00011  -0.00000
                           6         7         8         9        10
   6        3S          0.45198
   7        3PX         0.00000   0.20235
   8        3PY         0.00000   0.00000   0.19692
   9        3PZ         0.00000   0.00000   0.00000   0.16714
  10        4S          0.21017   0.00000   0.00000   0.00000   0.18083
  11        4PX         0.00000   0.07193   0.00000   0.00000   0.00000
  12        4PY         0.00000   0.00000   0.06448   0.00000   0.00000
  13        4PZ         0.00000   0.00000   0.00000   0.10003   0.00000
  14 2   H  1S          0.01571   0.01017   0.03271   0.00000   0.01816
  15        2S          0.04039   0.01889   0.05842  -0.00000   0.04664
  16        3S          0.00286   0.00398   0.01041  -0.00000   0.00856
  17 3   H  1S          0.01660   0.04405   0.00002   0.00000   0.01837
  18        2S          0.04167   0.07748   0.00000   0.00000   0.04628
  19        3S          0.00291   0.01409  -0.00003   0.00000   0.00784
  20 4   C  1S         -0.00065  -0.00060  -0.00180   0.00000   0.00034
  21        2S         -0.00109  -0.00111  -0.00332   0.00000   0.00029
  22        2PX         0.00256   0.00016   0.00568   0.00000   0.00081
  23        2PY         0.00774   0.00570   0.01080   0.00000   0.00244
  24        2PZ         0.00000  -0.00000   0.00000   0.00645   0.00000
  25        3S          0.02322   0.01367   0.04102  -0.00000   0.00074
  26        3PX         0.01306  -0.00134   0.01855   0.00000   0.00408
  27        3PY         0.03946   0.01857   0.02801   0.00000   0.01232
  28        3PZ         0.00000  -0.00000   0.00000   0.03658   0.00000
  29        4S          0.00095   0.00470   0.01425  -0.00000  -0.01996
  30        4PX         0.00641  -0.00408   0.00564   0.00000   0.00195
  31        4PY         0.01910   0.00566   0.00090   0.00000   0.00556
  32        4PZ         0.00000  -0.00000   0.00000   0.04965   0.00000
  33 5   H  1S         -0.00006  -0.00000  -0.00020   0.00000  -0.00082
  34        2S         -0.00128   0.00007  -0.00332  -0.00000  -0.00331
  35        3S         -0.00208   0.00011  -0.00426  -0.00000  -0.00132
  36 6   H  1S         -0.00006  -0.00013  -0.00006   0.00000  -0.00081
  37        2S         -0.00122  -0.00263  -0.00050  -0.00000  -0.00333
  38        3S         -0.00201  -0.00358  -0.00050  -0.00000  -0.00144
                          11        12        13        14        15
  11        4PX         0.06102
  12        4PY         0.00000   0.05104
  13        4PZ         0.00000   0.00000   0.14020
  14 2   H  1S          0.00614   0.01784   0.00000   0.08101
  15        2S          0.01514   0.04165  -0.00000   0.07744   0.15054
  16        3S          0.00532   0.01215  -0.00000   0.01395   0.04230
  17 3   H  1S          0.02382  -0.00002   0.00000  -0.00001  -0.00070
  18        2S          0.05573  -0.00008   0.00000  -0.00069  -0.00575
  19        3S          0.01693  -0.00006  -0.00000  -0.00212  -0.00851
  20 4   C  1S         -0.00018  -0.00057   0.00000   0.00000   0.00002
  21        2S         -0.00046  -0.00144   0.00000   0.00000   0.00003
  22        2PX        -0.00072   0.00137   0.00000  -0.00000   0.00000
  23        2PY         0.00138   0.00087   0.00000  -0.00000  -0.00036
  24        2PZ        -0.00000   0.00000   0.00910   0.00000   0.00000
  25        3S          0.00648   0.01998  -0.00000  -0.00007  -0.00144
  26        3PX        -0.00418   0.00546   0.00000  -0.00000   0.00005
  27        3PY         0.00548   0.00089   0.00000  -0.00022  -0.00350
  28        3PZ        -0.00000   0.00000   0.04942   0.00000   0.00000
  29        4S          0.00228   0.00747  -0.00000  -0.00098  -0.00412
  30        4PX        -0.00723   0.00296   0.00000   0.00002   0.00021
  31        4PY         0.00299  -0.00576   0.00000  -0.00243  -0.01021
  32        4PZ        -0.00000  -0.00000   0.08892   0.00000   0.00000
  33 5   H  1S          0.00003  -0.00238   0.00000   0.00000   0.00000
  34        2S          0.00029  -0.00995  -0.00000   0.00000   0.00016
  35        3S          0.00030  -0.00731  -0.00000   0.00024   0.00149
  36 6   H  1S         -0.00181  -0.00047   0.00000  -0.00000  -0.00004
  37        2S         -0.00845  -0.00094  -0.00000  -0.00004  -0.00092
  38        3S         -0.00668  -0.00017  -0.00000  -0.00047  -0.00256
                          16        17        18        19        20
  16        3S          0.02180
  17 3   H  1S         -0.00214   0.08219
  18        2S         -0.00854   0.07766   0.14929
  19        3S         -0.00729   0.01374   0.04126   0.02101
  20 4   C  1S          0.00009   0.00000   0.00002   0.00009   0.65946
  21        2S          0.00016   0.00000   0.00003   0.00016   0.49335
  22        2PX         0.00001  -0.00000  -0.00028  -0.00059   0.00000
  23        2PY        -0.00073  -0.00000  -0.00008  -0.00012   0.00000
  24        2PZ         0.00000   0.00000   0.00000  -0.00000   0.00000
  25        3S         -0.00237  -0.00007  -0.00147  -0.00237  -0.02934
  26        3PX         0.00008  -0.00016  -0.00288  -0.00368   0.00000
  27        3PY        -0.00440  -0.00007  -0.00060  -0.00057   0.00000
  28        3PZ         0.00000   0.00000   0.00000  -0.00000   0.00000
  29        4S         -0.00204  -0.00098  -0.00402  -0.00188  -0.01223
  30        4PX         0.00022  -0.00189  -0.00879  -0.00682   0.00000
  31        4PY        -0.00748  -0.00055  -0.00122  -0.00034   0.00000
  32        4PZ        -0.00000   0.00000  -0.00000  -0.00000   0.00000
  33 5   H  1S          0.00023  -0.00000  -0.00004  -0.00046  -0.00023
  34        2S          0.00148  -0.00004  -0.00093  -0.00249  -0.00161
  35        3S          0.00254  -0.00047  -0.00254  -0.00305   0.00005
  36 6   H  1S         -0.00045   0.00000   0.00000   0.00023  -0.00021
  37        2S         -0.00251   0.00000   0.00016   0.00145  -0.00157
  38        3S         -0.00311   0.00023   0.00148   0.00250   0.00004
                          21        22        23        24        25
  21        2S          0.49218
  22        2PX         0.00000   0.08322
  23        2PY         0.00000   0.00000   0.08862
  24        2PZ         0.00000   0.00000   0.00000   0.06455
  25        3S         -0.06455   0.00000   0.00000   0.00000   0.45289
  26        3PX         0.00000   0.08133   0.00000   0.00000   0.00000
  27        3PY         0.00000   0.00000   0.08315   0.00000   0.00000
  28        3PZ         0.00000   0.00000   0.00000   0.06512   0.00000
  29        4S         -0.02144   0.00000   0.00000   0.00000   0.21219
  30        4PX         0.00000   0.01604   0.00000   0.00000   0.00000
  31        4PY         0.00000   0.00000   0.01468   0.00000   0.00000
  32        4PZ         0.00000   0.00000   0.00000   0.02097   0.00000
  33 5   H  1S         -0.00032   0.00155   0.00591   0.00000   0.01581
  34        2S         -0.00309   0.00386   0.01378   0.00000   0.03985
  35        3S         -0.00006   0.00068   0.00199   0.00000   0.00267
  36 6   H  1S         -0.00030   0.00703   0.00002   0.00000   0.01514
  37        2S         -0.00301   0.01736   0.00001   0.00000   0.03913
  38        3S         -0.00007   0.00270  -0.00001  -0.00000   0.00276
                          26        27        28        29        30
  26        3PX         0.20121
  27        3PY         0.00000   0.19777
  28        3PZ         0.00000   0.00000   0.16600
  29        4S          0.00000   0.00000   0.00000   0.18218
  30        4PX         0.07440   0.00000   0.00000   0.00000   0.06556
  31        4PY         0.00000   0.06556   0.00000   0.00000   0.00000
  32        4PZ         0.00000   0.00000   0.09980   0.00000   0.00000
  33 5   H  1S          0.00916   0.03414   0.00000   0.01775   0.00574
  34        2S          0.01747   0.06024   0.00000   0.04437   0.01453
  35        3S          0.00385   0.01066   0.00000   0.00711   0.00532
  36 6   H  1S          0.04211   0.00009   0.00000   0.01767   0.02447
  37        2S          0.07729  -0.00001   0.00000   0.04502   0.05865
  38        3S          0.01478  -0.00010  -0.00000   0.00785   0.01851
                          31        32        33        34        35
  31        4PY         0.05247
  32        4PZ         0.00000   0.14052
  33 5   H  1S          0.01862   0.00000   0.08155
  34        2S          0.04318   0.00000   0.07785   0.15141
  35        3S          0.01263   0.00000   0.01420   0.04324   0.02268
  36 6   H  1S         -0.00004   0.00000  -0.00001  -0.00081  -0.00238
  37        2S         -0.00025   0.00000  -0.00082  -0.00672  -0.00972
  38        3S         -0.00021  -0.00000  -0.00241  -0.00977  -0.00847
                          36        37        38
  36 6   H  1S          0.08049
  37        2S          0.07754   0.15211
  38        3S          0.01430   0.04384   0.02312
     Gross orbital populations:
                           1
   1 1   C  1S          1.10433
   2        2S          0.88586
   3        2PX         0.22695
   4        2PY         0.23781
   5        2PZ         0.16707
   6        3S          0.79266
   7        3PX         0.56021
   8        3PY         0.55665
   9        3PZ         0.42527
  10        4S          0.50088
  11        4PX         0.26112
  12        4PY         0.21148
  13        4PZ         0.40865
  14 2   H  1S          0.27312
  15        2S          0.46800
  16        3S          0.08765
  17 3   H  1S          0.27676
  18        2S          0.46591
  19        3S          0.08437
  20 4   C  1S          1.10436
  21        2S          0.88585
  22        2PX         0.22376
  23        2PY         0.23871
  24        2PZ         0.16665
  25        3S          0.79275
  26        3PX         0.55489
  27        3PY         0.55849
  28        3PZ         0.42337
  29        4S          0.50048
  30        4PX         0.27187
  31        4PY         0.21328
  32        4PZ         0.40899
  33 5   H  1S          0.27481
  34        2S          0.46816
  35        3S          0.08760
  36 6   H  1S          0.27153
  37        2S          0.46964
  38        3S          0.09006
          Condensed to atoms (all electrons):
               1          2          3          4          5          6
     1  C    5.028480   0.387231   0.388110   0.606918  -0.036275  -0.035540
     2  H    0.387231   0.520733  -0.035756  -0.039478   0.006154  -0.010107
     3  H    0.388110  -0.035756   0.517803  -0.039134  -0.010026   0.006052
     4  C    0.606918  -0.039478  -0.039134   5.044695   0.385599   0.384850
     5  H   -0.036275   0.006154  -0.010026   0.385599   0.526226  -0.041106
     6  H   -0.035540  -0.010107   0.006052   0.384850  -0.041106   0.527078
 Mulliken charges:
               1
     1  C   -0.338924
     2  H    0.171223
     3  H    0.172949
     4  C   -0.343449
     5  H    0.169428
     6  H    0.168773
 Sum of Mulliken charges =  -0.00000
 Mulliken charges with hydrogens summed into heavy atoms:
               1
     1  C    0.005248
     4  C   -0.005248
 Electronic spatial extent (au):  <R**2>=             83.2146
 Charge=             -0.0000 electrons
 Dipole moment (field-independent basis, Debye):
    X=             -0.0015    Y=              0.0186    Z=             -0.0101  Tot=              0.0212
 Quadrupole moment (field-independent basis, Debye-Ang):
   XX=            -12.2251   YY=            -12.1797   ZZ=            -15.6186
   XY=              0.0641   XZ=              0.0003   YZ=             -0.0040
 Traceless Quadrupole moment (field-independent basis, Debye-Ang):
   XX=              1.1161   YY=              1.1614   ZZ=             -2.2775
   XY=              0.0641   XZ=              0.0003   YZ=             -0.0040
 Octapole moment (field-independent basis, Debye-Ang**2):
  XXX=             -0.2692  YYY=             -0.0264  ZZZ=             -0.0764  XYY=              0.1286
  XXY=             -0.0171  XXZ=             -0.0321  XZZ=             -0.0752  YZZ=             -0.0498
  YYZ=             -0.0360  XYZ=             -0.0041
 Hexadecapole moment (field-independent basis, Debye-Ang**3):
 XXXX=            -34.1513 YYYY=            -54.6946 ZZZZ=            -17.6705 XXXY=             -7.1444
 XXXZ=              0.0093 YYYX=            -10.5037 YYYZ=              0.0179 ZZZX=              0.0116
 ZZZY=              0.0286 XXYY=            -16.0494 XXZZ=             -9.8573 YYZZ=            -13.5317
 XXYZ=              0.0079 YYXZ=              0.0049 ZZXY=             -3.1729
 N-N= 3.324075850443D+01 E-N=-2.482264293059D+02  KE= 7.819443669877D+01
 Orbital energies and kinetic energies (alpha):
                                 1                 2
   1         O               -10.287751         15.975147
   2         O               -10.286557         15.981329
   3         O                -0.866421          1.553873
   4         O                -0.672613          1.268214
   5         O                -0.558723          0.944150
   6         O                -0.513405          1.288401
   7         O                -0.434058          1.043734
   8         O                -0.359101          1.042370
   9         V                 0.082811          1.178262
  10         V                 0.141919          0.584136
  11         V                 0.164380          0.598413
  12         V                 0.170219          0.674479
  13         V                 0.241785          0.582072
  14         V                 0.380528          0.845969
  15         V                 0.391232          0.932426
  16         V                 0.400337          0.772365
  17         V                 0.462293          1.187205
  18         V                 0.490415          1.423005
  19         V                 0.492406          1.294558
  20         V                 0.592611          1.660356
  21         V                 0.664887          1.562050
  22         V                 0.692608          2.154946
  23         V                 0.773941          2.576591
  24         V                 0.778371          2.145753
  25         V                 0.843557          1.087270
  26         V                 0.963365          3.495755
  27         V                 2.231368          3.929144
  28         V                 2.287334          4.045559
  29         V                 2.336340          4.296799
  30         V                 2.408976          4.523426
  31         V                 2.673908          6.305746
  32         V                 2.817967          6.306871
  33         V                 2.877981          6.126046
  34         V                 2.949851          6.232160
  35         V                 3.151594          6.822235
  36         V                 3.319887          6.397144
  37         V                23.351217         60.070558
  38         V                23.716907         60.212153
 Total kinetic energy from orbitals= 7.819443669877D+01
 Calling FoFJK, ICntrl=      2127 FMM=F ISym2X=0 I1Cent= 0 IOpClX= 0 NMat=1 NMatS=1 NMatT=0.
 -------------------------------------------------------------------
 Center     Atomic                   Forces (Hartrees/Bohr)
 Number     Number              X              Y              Z
 -------------------------------------------------------------------
      1        6           0.002786951   -0.009635636   -0.000432315
      2        1          -0.007649407    0.008964662    0.000206940
      3        1           0.004317430   -0.001771076    0.000211490
      4        6           0.015045714    0.017474903   -0.000440134
      5        1           0.000114662   -0.009535360    0.000217814
      6        1          -0.014615350   -0.005497493    0.000236206
 -------------------------------------------------------------------
 Cartesian Forces:  Max     0.017474903 RMS     0.007917464

 GradGradGradGradGradGradGradGradGradGradGradGradGradGradGradGradGradGrad
 Berny optimization.
 Search for a local minimum.
 Step number   1 out of a maximum of    2
 All quantities printed in internal units (Hartrees-Bohrs-Radians)
 Second derivative matrix not updated -- first step.
 The second derivative matrix:
                          X1        Y1        Z1        X2        Y2
           X1           0.75941
           Y1           0.11844   0.88266
           Z1           0.00051   0.00010   0.17985
           X2          -0.15832   0.09208   0.00009   0.13588
           Y2           0.09882  -0.28465  -0.00050  -0.11130   0.27395
           Z2           0.00021  -0.00070  -0.05716  -0.00016   0.00051
           X3          -0.34891  -0.00591  -0.00087  -0.00081  -0.00045
           Y3          -0.01251  -0.10941  -0.00015   0.03265   0.01817
           Z3          -0.00110  -0.00015  -0.05835   0.00012   0.00004
           X4          -0.27773  -0.18985   0.00014   0.02324   0.01293
           Y4          -0.19030  -0.49695   0.00033  -0.01342  -0.00747
           Z4           0.00035   0.00071  -0.10038  -0.00005  -0.00006
           X5           0.02387  -0.01378   0.00008  -0.00000   0.00000
           Y5           0.01193  -0.00689   0.00012   0.00000  -0.00000
           Z5          -0.00008   0.00007   0.01830   0.00003  -0.00000
           X6           0.00169  -0.00098   0.00004  -0.00000   0.00000
           Y6          -0.02638   0.01523   0.00010   0.00000  -0.00000
           Z6           0.00010  -0.00003   0.01774  -0.00003   0.00000
                          Z2        X3        Y3        Z3        X4
           Z2           0.02973
           X3          -0.00004   0.34906
           Y3           0.00016   0.00674   0.07572
           Z3           0.01051   0.00095   0.00010   0.03059
           X4           0.00004   0.00066  -0.02688  -0.00002   0.72986
           Y4          -0.00000  -0.00038   0.01552   0.00004   0.13144
           Z4           0.01686  -0.00005  -0.00011   0.01731  -0.00068
           X5          -0.00003  -0.00000   0.00000   0.00003  -0.14915
           Y5           0.00003   0.00000  -0.00000  -0.00003   0.09518
           Z5           0.00997   0.00003  -0.00003  -0.01013  -0.00042
           X6          -0.00003  -0.00000   0.00000   0.00003  -0.32689
           Y6           0.00000   0.00000  -0.00000  -0.00000  -0.02281
           Z6          -0.00990  -0.00003   0.00003   0.01006   0.00095
                          Y4        Z4        X5        Y5        Z5
           Y4           0.89077
           Z4          -0.00183   0.18457
           X5           0.08693  -0.00031   0.12739
           Y5          -0.29614   0.00103  -0.10605   0.28659
           Z5           0.00121  -0.05953   0.00041  -0.00111   0.03103
           X6          -0.01427   0.00073  -0.00211  -0.00105   0.00004
           Y6          -0.10573   0.00025   0.03290   0.01644  -0.00014
           Z6           0.00025  -0.05883  -0.00017  -0.00004   0.01036
                          X6        Y6        Z6
           X6           0.32731
           Y6           0.01630   0.07406
           Z6          -0.00081  -0.00021   0.03056
 ITU=  0
     Eigenvalues ---    0.04007   0.04419   0.09654   0.10124   0.13778
     Eigenvalues ---    0.17384   0.27928   0.29075   0.53531   0.70169
     Eigenvalues ---    0.97535   1.62867
 Angle between quadratic step and forces=  43.95 degrees.
 Linear search not attempted -- first point.
 B after Tr=     0.004752    0.004335   -0.001014
         Rot=    1.000000   -0.000006    0.000003   -0.000105 Ang=  -0.01 deg.
 Variable       Old X    -DE/DX   Delta X   Delta X   Delta X     New X
                                 (Linear)    (Quad)   (Total)
    X1       -0.62714   0.00279   0.00000   0.01070   0.01568  -0.61146
    Y1       -1.08546  -0.00964   0.00000   0.00620   0.01041  -1.07506
    Z1        0.00536  -0.00043   0.00000  -0.00219  -0.00322   0.00214
    X2        0.38444  -0.00765   0.00000  -0.02492  -0.01956   0.36488
    Y2       -2.90323   0.00896   0.00000   0.02573   0.03014  -2.87309
    Z2        0.00179   0.00021   0.00000   0.00251   0.00146   0.00325
    X3       -2.68452   0.00432   0.00000   0.02331   0.02831  -2.65621
    Y3       -1.13620  -0.00177   0.00000  -0.00942  -0.00564  -1.14184
    Z3       -0.00079   0.00021   0.00000   0.00272   0.00167   0.00089
    X4        0.62506   0.01505   0.00000   0.00895   0.01348   0.63853
    Y4        1.08306   0.01747   0.00000   0.01175   0.01622   1.09928
    Z4        0.00258  -0.00044   0.00000  -0.00201  -0.00301  -0.00043
    X5       -0.30211   0.00011   0.00000  -0.01279  -0.00865  -0.31076
    Y5        2.93825  -0.00954   0.00000  -0.02735  -0.02308   2.91517
    Z5       -0.00530   0.00022   0.00000   0.00244   0.00146  -0.00384
    X6        2.71418  -0.01462   0.00000  -0.03376  -0.02925   2.68493
    Y6        1.21694  -0.00550   0.00000  -0.03295  -0.02805   1.18889
    Z6       -0.00319   0.00024   0.00000   0.00262   0.00164  -0.00155
         Item               Value     Threshold  Converged?
 Maximum Force            0.017475     0.000450     NO 
 RMS     Force            0.007917     0.000300     NO 
 Maximum Displacement     0.030143     0.001800     NO 
 RMS     Displacement     0.017001     0.001200     NO 
 Predicted change in Energy=-8.933309D-04
 GradGradGradGradGradGradGradGradGradGradGradGradGradGradGradGradGradGrad

 Unable to Open any file for archive entry.
 1\1\GINC-BHD0001\Force\RwB97XD\6-311G\C2H4\BWEIGHT\12-Jan-2023\0\\# WB
 97XD/6-311G SCF=XQC FORCE nosym pop=full guess=read\\MD Step 999\\0,1\
 C,-0.33186984,-0.57440215,0.00283545\H,0.20343805,-1.53632401,0.000947
 31\H,-1.42058429,-0.60124954,-0.00041767\C,0.33076638,0.57313124,0.001
 36615\H,-0.15986904,1.55485548,-0.00280413\H,1.43628332,0.6439788,-0.0
 0168574\\Version=ES64L-G16RevC.01\HF=-78.5565435\RMSD=6.640e-09\RMSF=7
 .917e-03\Dipole=-0.000597,0.007301,-0.0039885\Quadrupole=0.8297588,0.8
 634915,-1.6932503,0.0476534,0.0001958,-0.0029375\PG=C01 [X(C2H4)]\\@
 The archive entry for this job was punched.


 We find comfort among those who agree with us -- growth among those who don't.
 -- Frank A. Clark
 Job cpu time:       0 days  0 hours  0 minutes 52.8 seconds.
 Elapsed time:       0 days  0 hours  0 minutes  2.7 seconds.
 File lengths (MBytes):  RWF=    272 Int=      0 D2E=      0 Chk=     32 Scr=     32
 Normal termination of Gaussian 16 at Thu Jan 12 13:56:38 2023.
