 Entering Gaussian System, Link 0=g16
 Initial command:
 /software/gaussian/g16-c01/avx2/g16/l1.exe "/gpfs/fs2/scratch/bweight/software/many_molecule_many_mode_NAMD/src/NAMD/TEST_NVT/G16/GS_NEW/Gau-2974.inp" -scrdir="/gpfs/fs2/scratch/bweight/software/many_molecule_many_mode_NAMD/src/NAMD/TEST_NVT/G16/GS_NEW/"
 Entering Link 1 = /software/gaussian/g16-c01/avx2/g16/l1.exe PID=      2975.
  
 Copyright (c) 1988-2019, Gaussian, Inc.  All Rights Reserved.
  
 This is part of the Gaussian(R) 16 program.  It is based on
 the Gaussian(R) 09 system (copyright 2009, Gaussian, Inc.),
 the Gaussian(R) 03 system (copyright 2003, Gaussian, Inc.),
 the Gaussian(R) 98 system (copyright 1998, Gaussian, Inc.),
 the Gaussian(R) 94 system (copyright 1995, Gaussian, Inc.),
 the Gaussian 92(TM) system (copyright 1992, Gaussian, Inc.),
 the Gaussian 90(TM) system (copyright 1990, Gaussian, Inc.),
 the Gaussian 88(TM) system (copyright 1988, Gaussian, Inc.),
 the Gaussian 86(TM) system (copyright 1986, Carnegie Mellon
 University), and the Gaussian 82(TM) system (copyright 1983,
 Carnegie Mellon University). Gaussian is a federally registered
 trademark of Gaussian, Inc.
  
 This software contains proprietary and confidential information,
 including trade secrets, belonging to Gaussian, Inc.
  
 This software is provided under written license and may be
 used, copied, transmitted, or stored only in accord with that
 written license.
  
 The following legend is applicable only to US Government
 contracts under FAR:
  
                    RESTRICTED RIGHTS LEGEND
  
 Use, reproduction and disclosure by the US Government is
 subject to restrictions as set forth in subparagraphs (a)
 and (c) of the Commercial Computer Software - Restricted
 Rights clause in FAR 52.227-19.
  
 Gaussian, Inc.
 340 Quinnipiac St., Bldg. 40, Wallingford CT 06492
  
  
 ---------------------------------------------------------------
 Warning -- This program may not be used in any manner that
 competes with the business of Gaussian, Inc. or will provide
 assistance to any competitor of Gaussian, Inc.  The licensee
 of this program is prohibited from giving any competitor of
 Gaussian, Inc. access to this program.  By using this program,
 the user acknowledges that Gaussian, Inc. is engaged in the
 business of creating and licensing software in the field of
 computational chemistry and represents and warrants to the
 licensee that it is not a competitor of Gaussian, Inc. and that
 it will not use this program in any manner prohibited above.
 ---------------------------------------------------------------
  

 Cite this work as:
 Gaussian 16, Revision C.01,
 M. J. Frisch, G. W. Trucks, H. B. Schlegel, G. E. Scuseria, 
 M. A. Robb, J. R. Cheeseman, G. Scalmani, V. Barone, 
 G. A. Petersson, H. Nakatsuji, X. Li, M. Caricato, A. V. Marenich, 
 J. Bloino, B. G. Janesko, R. Gomperts, B. Mennucci, H. P. Hratchian, 
 J. V. Ortiz, A. F. Izmaylov, J. L. Sonnenberg, D. Williams-Young, 
 F. Ding, F. Lipparini, F. Egidi, J. Goings, B. Peng, A. Petrone, 
 T. Henderson, D. Ranasinghe, V. G. Zakrzewski, J. Gao, N. Rega, 
 G. Zheng, W. Liang, M. Hada, M. Ehara, K. Toyota, R. Fukuda, 
 J. Hasegawa, M. Ishida, T. Nakajima, Y. Honda, O. Kitao, H. Nakai, 
 T. Vreven, K. Throssell, J. A. Montgomery, Jr., J. E. Peralta, 
 F. Ogliaro, M. J. Bearpark, J. J. Heyd, E. N. Brothers, K. N. Kudin, 
 V. N. Staroverov, T. A. Keith, R. Kobayashi, J. Normand, 
 K. Raghavachari, A. P. Rendell, J. C. Burant, S. S. Iyengar, 
 J. Tomasi, M. Cossi, J. M. Millam, M. Klene, C. Adamo, R. Cammi, 
 J. W. Ochterski, R. L. Martin, K. Morokuma, O. Farkas, 
 J. B. Foresman, and D. J. Fox, Gaussian, Inc., Wallingford CT, 2019.
 
 ******************************************
 Gaussian 16:  ES64L-G16RevC.01  3-Jul-2019
                11-Jan-2023 
 ******************************************
 %oldchk=../GS_OLD/geometry.chk
 %chk=geometry.chk
 %nprocshared=2
 Will use up to    2 processors via shared memory.
 %mem=5GB
 Copying data from "../GS_OLD/geometry.chk" to current chk file "geometry.chk"
 IOpt=  2 FromEx=T IUOpen= 4 IOptOp= 5 NList=   0 IFRang= 0 IUIn= 4 IUOut= 2.
 -------------------------------------------------------
 # WB97XD/6-311G SCF=XQC FORCE nosym pop=full guess=read
 -------------------------------------------------------
 1/10=7,30=1,38=1/1,3;
 2/12=2,15=1,17=6,18=5,40=1/2;
 3/5=4,6=6,11=2,25=1,30=1,71=1,74=-58,116=-2/1,2,3;
 4/5=1/1;
 5/5=2,8=3,13=1,38=6/2,8;
 6/7=3,28=1/1;
 7/29=1,30=1/1,2,3,16;
 1/10=7,30=1/3;
 99//99;
 -----------
 MD Step 999
 -----------
 Symbolic Z-matrix:
 Charge =  0 Multiplicity = 1
 C                    -0.33706  -0.58308   0.00421 
 H                     0.22411  -1.51988  -0.00921 
 H                    -1.41864  -0.58059  -0.01011 
 C                     0.33223   0.57572   0.00284 
 H                    -0.15337   1.57502  -0.0122 
 H                     1.4467    0.65448  -0.01131 
 

 GradGradGradGradGradGradGradGradGradGradGradGradGradGradGradGradGradGrad
 Berny optimization.
 Initialization pass.
 Trust Radius=3.00D-01 FncErr=1.00D-07 GrdErr=1.00D-07 EigMax=2.50D+02 EigMin=1.00D-04
 Number of steps in this run=      2 maximum allowed number of steps=      2.
 GradGradGradGradGradGradGradGradGradGradGradGradGradGradGradGradGradGrad

                          Input orientation:                          
 ---------------------------------------------------------------------
 Center     Atomic      Atomic             Coordinates (Angstroms)
 Number     Number       Type             X           Y           Z
 ---------------------------------------------------------------------
      1          6           0       -0.337060   -0.583080    0.004214
      2          1           0        0.224108   -1.519881   -0.009207
      3          1           0       -1.418635   -0.580588   -0.010107
      4          6           0        0.332232    0.575715    0.002844
      5          1           0       -0.153369    1.575023   -0.012196
      6          1           0        1.446702    0.654483   -0.011315
 ---------------------------------------------------------------------
                    Distance matrix (angstroms):
                    1          2          3          4          5
     1  C    0.000000
     2  H    1.092102   0.000000
     3  H    1.081673   1.892321   0.000000
     4  C    1.338193   2.098419   2.098271   0.000000
     5  H    2.165968   3.117841   2.499512   1.111148   0.000000
     6  H    2.171085   2.494514   3.120186   1.117340   1.845975
                    6
     6  H    0.000000
 Symmetry turned off by external request.
 Stoichiometry    C2H4
 Framework group  C1[X(C2H4)]
 Deg. of freedom    12
 Full point group                 C1      NOp   1
 Rotational constants (GHZ):         143.4763135          29.6662646          24.5849073
 Standard basis: 6-311G (5D, 7F)
    38 basis functions,    72 primitive gaussians,    38 cartesian basis functions
     8 alpha electrons        8 beta electrons
       nuclear repulsion energy        33.0616666080 Hartrees.
 NAtoms=    6 NActive=    6 NUniq=    6 SFac= 1.00D+00 NAtFMM=   60 NAOKFM=F Big=F
 Integral buffers will be    131072 words long.
 Raffenetti 2 integral format.
 Two-electron integral symmetry is turned off.
 Nuclear repulsion after empirical dispersion term =       33.0608250792 Hartrees.
 One-electron integrals computed using PRISM.
 NBasis=    38 RedAO= T EigKep=  6.43D-03  NBF=    38
 NBsUse=    38 1.00D-06 EigRej= -1.00D+00 NBFU=    38
 Initial guess from the checkpoint file:  "geometry.chk"
 B after Tr=    -0.000169   -0.000306   -0.000337
         Rot=    1.000000    0.000002   -0.000001    0.000004 Ang=   0.00 deg.
 Keep R1 ints in memory in canonical form, NReq=2308450.
 Requested convergence on RMS density matrix=1.00D-08 within  32 cycles.
 Requested convergence on MAX density matrix=1.00D-06.
 Requested convergence on             energy=1.00D-06.
 No special actions if energy rises.
 SCF Done:  E(RwB97XD) =  -78.5552265417     A.U. after    8 cycles
            NFock=  8  Conv=0.66D-08     -V/T= 2.0052
 QCSCF skips out because SCF is already converged.

 **********************************************************************

            Population analysis using the SCF Density.

 **********************************************************************

 Alpha  occ. eigenvalues --  -10.29129 -10.28740  -0.86385  -0.67209  -0.55969
 Alpha  occ. eigenvalues --   -0.50931  -0.43597  -0.35691
 Alpha virt. eigenvalues --    0.07994   0.14085   0.16460   0.16991   0.24055
 Alpha virt. eigenvalues --    0.37177   0.39303   0.40097   0.46288   0.48873
 Alpha virt. eigenvalues --    0.49374   0.59096   0.66542   0.69144   0.77156
 Alpha virt. eigenvalues --    0.77637   0.84460   0.95186   2.23105   2.29034
 Alpha virt. eigenvalues --    2.33338   2.40810   2.67096   2.81824   2.87731
 Alpha virt. eigenvalues --    2.95144   3.14099   3.32021  23.35196  23.70579
     Molecular Orbital Coefficients:
                           1         2         3         4         5
                           O         O         O         O         O
     Eigenvalues --   -10.29129 -10.28740  -0.86385  -0.67209  -0.55969
   1 1   C  1S          0.06390   0.55975  -0.08882   0.06627  -0.00031
   2        2S          0.05279   0.46067  -0.14042   0.10612  -0.00051
   3        2PX         0.00016   0.00000   0.02593   0.03635   0.14052
   4        2PY         0.00028   0.00001   0.04595   0.05986  -0.07582
   5        2PZ         0.00000  -0.00000  -0.00062   0.00085   0.00013
   6        3S          0.00079   0.01465   0.37669  -0.28952   0.00138
   7        3PX        -0.00063   0.00039   0.03462   0.05822   0.22018
   8        3PY        -0.00109   0.00069   0.06087   0.09687  -0.11961
   9        3PZ        -0.00000  -0.00002  -0.00103   0.00152   0.00019
  10        4S          0.00422  -0.01446   0.19238  -0.22345   0.00083
  11        4PX         0.00160  -0.00146   0.00479   0.02340   0.11310
  12        4PY         0.00274  -0.00249   0.00834   0.03978  -0.06207
  13        4PZ        -0.00000   0.00004  -0.00035   0.00076   0.00010
  14 2   H  1S         -0.00004  -0.00007   0.05361  -0.08716   0.10568
  15        2S         -0.00031   0.00009   0.05469  -0.10494   0.13343
  16        3S          0.00072   0.00176  -0.00183  -0.01507   0.04309
  17 3   H  1S         -0.00005  -0.00008   0.05469  -0.09055  -0.10837
  18        2S         -0.00030   0.00006   0.05540  -0.10814  -0.13583
  19        3S          0.00075   0.00178  -0.00186  -0.01586  -0.04384
  20 4   C  1S          0.55978  -0.06409  -0.08641  -0.06885  -0.00000
  21        2S          0.46072  -0.05255  -0.13642  -0.11043   0.00002
  22        2PX        -0.00000  -0.00017  -0.02768   0.03790   0.11474
  23        2PY        -0.00000  -0.00029  -0.04724   0.06671  -0.07170
  24        2PZ        -0.00000   0.00000  -0.00043  -0.00092   0.00012
  25        3S          0.01421  -0.00252   0.36545   0.30185  -0.00008
  26        3PX        -0.00026   0.00071  -0.03443   0.06154   0.17959
  27        3PY        -0.00043   0.00123  -0.05876   0.10799  -0.11134
  28        3PZ        -0.00001  -0.00000  -0.00075  -0.00167   0.00019
  29        4S         -0.01273   0.00754   0.18822   0.24012  -0.00124
  30        4PX         0.00100  -0.00183  -0.00548   0.02700   0.09967
  31        4PY         0.00171  -0.00321  -0.00935   0.04657  -0.06131
  32        4PZ         0.00003  -0.00000  -0.00033  -0.00086   0.00010
  33 5   H  1S         -0.00005  -0.00005   0.04861   0.09354  -0.08634
  34        2S         -0.00000  -0.00031   0.05002   0.11196  -0.10899
  35        3S          0.00176   0.00027  -0.00106   0.01680  -0.03490
  36 6   H  1S         -0.00004  -0.00005   0.04791   0.09226   0.08213
  37        2S         -0.00000  -0.00032   0.04960   0.11084   0.10402
  38        3S          0.00173   0.00025  -0.00107   0.01644   0.03364
                           6         7         8         9        10
                           O         O         O         V         V
     Eigenvalues --    -0.50931  -0.43597  -0.35691   0.07994   0.14085
   1 1   C  1S         -0.00301   0.00016  -0.00046   0.00122  -0.03193
   2        2S         -0.00444   0.00029  -0.00076   0.00202  -0.05118
   3        2PX         0.09458  -0.10794  -0.00151   0.00065  -0.03137
   4        2PY         0.16846   0.06430  -0.00248   0.00097  -0.06343
   5        2PZ         0.00219  -0.00003   0.17949  -0.18905  -0.00096
   6        3S          0.01781  -0.00067   0.00221  -0.00612   0.11053
   7        3PX         0.13719  -0.17205  -0.00214   0.00097  -0.03737
   8        3PY         0.24584   0.10274  -0.00349   0.00145  -0.07892
   9        3PZ         0.00349  -0.00004   0.28895  -0.27826  -0.00157
  10        4S         -0.05523  -0.00296   0.00308  -0.00683   1.19658
  11        4PX         0.06900  -0.10741  -0.00177   0.00562  -0.18783
  12        4PY         0.12468   0.06484  -0.00290   0.00901  -0.37064
  13        4PZ         0.00198  -0.00001   0.26713  -0.69564  -0.00570
  14 2   H  1S         -0.08077  -0.11275   0.00005   0.00191  -0.01615
  15        2S         -0.11178  -0.17338   0.00088   0.00298  -0.04617
  16        3S         -0.04179  -0.07994   0.00053   0.00777  -0.80552
  17 3   H  1S         -0.07946   0.11026   0.00003   0.00192  -0.01283
  18        2S         -0.10935   0.16890   0.00087   0.00305  -0.03817
  19        3S         -0.04055   0.07771   0.00052   0.00772  -0.74983
  20 4   C  1S         -0.00898  -0.00044  -0.00034  -0.00117  -0.03761
  21        2S         -0.01407  -0.00074  -0.00056  -0.00194  -0.06044
  22        2PX        -0.09823   0.12704   0.00148   0.00076   0.04112
  23        2PY        -0.16175  -0.07524   0.00277   0.00148   0.06281
  24        2PZ         0.00245   0.00012   0.17922   0.18973  -0.00147
  25        3S          0.04519   0.00216   0.00165   0.00580   0.13408
  26        3PX        -0.14553   0.20355   0.00206   0.00117   0.05007
  27        3PY        -0.23822  -0.12005   0.00389   0.00227   0.07421
  28        3PZ         0.00387   0.00018   0.28653   0.27792  -0.00220
  29        4S         -0.02703   0.00238   0.00291   0.00672   1.26625
  30        4PX        -0.07623   0.13177   0.00156   0.00579   0.27013
  31        4PY        -0.12361  -0.07689   0.00304   0.01074   0.42729
  32        4PZ         0.00224   0.00011   0.26736   0.69733  -0.00863
  33 5   H  1S         -0.07425  -0.12659   0.00011  -0.00176  -0.01318
  34        2S         -0.10150  -0.19816   0.00095  -0.00298  -0.03962
  35        3S         -0.03791  -0.09353   0.00052  -0.00793  -0.84754
  36 6   H  1S         -0.07979   0.12603   0.00009  -0.00176  -0.01629
  37        2S         -0.10944   0.19793   0.00091  -0.00299  -0.04761
  38        3S         -0.04105   0.09336   0.00050  -0.00799  -0.90399
                          11        12        13        14        15
                           V         V         V         V         V
     Eigenvalues --     0.16460   0.16991   0.24055   0.37177   0.39303
   1 1   C  1S          0.00032  -0.04653  -0.00001   0.00863   0.00051
   2        2S          0.00050  -0.07584  -0.00003   0.01140   0.00078
   3        2PX         0.09503  -0.02169   0.10025  -0.03483  -0.02182
   4        2PY        -0.05318  -0.03679  -0.05750  -0.06349   0.00954
   5        2PZ         0.00003  -0.00299   0.00004  -0.00203  -0.00008
   6        3S         -0.00092   0.17180   0.00022   0.03699  -0.00035
   7        3PX         0.13641  -0.01346   0.10509  -0.04160  -0.10308
   8        3PY        -0.07675  -0.02305  -0.06101  -0.07994   0.05127
   9        3PZ         0.00005  -0.00416   0.00002  -0.00427  -0.00019
  10        4S         -0.02547   1.47510  -0.00915  -2.43739  -0.10772
  11        4PX         0.58141  -0.13141   1.17928  -1.52586  -0.53362
  12        4PY        -0.31781  -0.20859  -0.67080  -2.66466   0.17148
  13        4PZ         0.00026  -0.01952   0.00068  -0.01779  -0.00113
  14 2   H  1S         -0.02931  -0.02514   0.01518  -0.06083   0.07327
  15        2S         -0.08362  -0.01660  -0.02166  -0.68471   0.74251
  16        3S         -1.04777  -1.01400  -1.56331  -0.28926  -0.28070
  17 3   H  1S          0.02807  -0.02545  -0.01715  -0.05447  -0.07585
  18        2S          0.08240  -0.02165   0.01619  -0.63579  -0.76680
  19        3S          1.07799  -1.05296   1.58365  -0.35382   0.22994
  20 4   C  1S          0.00173   0.04138  -0.00002  -0.02021  -0.00009
  21        2S          0.00278   0.06737  -0.00005  -0.03343  -0.00004
  22        2PX         0.10277  -0.02403  -0.10020  -0.04040  -0.03216
  23        2PY        -0.06298  -0.03642   0.05742  -0.07156   0.01569
  24        2PZ         0.00015   0.00286  -0.00004   0.00144   0.00009
  25        3S         -0.00579  -0.14946   0.00029   0.04989  -0.00290
  26        3PX         0.14785  -0.02003  -0.11484  -0.09384  -0.10973
  27        3PY        -0.08917  -0.02663   0.06497  -0.16841   0.05926
  28        3PZ         0.00021   0.00393  -0.00003   0.00166   0.00012
  29        4S         -0.07052  -1.29754   0.00107   3.21599   0.12657
  30        4PX         0.53584  -0.11811  -1.11318  -1.10542  -0.51398
  31        4PY        -0.33320  -0.18665   0.64844  -1.93111   0.15720
  32        4PZ         0.00090   0.01851  -0.00065   0.01591   0.00069
  33 5   H  1S          0.03234   0.02478   0.00421   0.00589  -0.08370
  34        2S          0.06728   0.02268  -0.03859   0.01579  -0.82818
  35        3S          1.08760   0.89723  -1.50137   0.44125   0.50875
  36 6   H  1S         -0.03148   0.02619  -0.00323   0.00177   0.08753
  37        2S         -0.06661   0.02235   0.03888  -0.02032   0.87926
  38        3S         -0.99184   0.92961   1.49387   0.45636  -0.49413
                          16        17        18        19        20
                           V         V         V         V         V
     Eigenvalues --     0.40097   0.46288   0.48873   0.49374   0.59096
   1 1   C  1S         -0.01903   0.01533  -0.04491  -0.00045  -0.00023
   2        2S         -0.03314   0.03362  -0.07441  -0.00063  -0.00040
   3        2PX         0.02950  -0.06172   0.00753   0.00055   0.00089
   4        2PY         0.05303  -0.10785   0.00888   0.00070   0.00128
   5        2PZ         0.00025  -0.00017   0.00332  -0.15154  -0.19264
   6        3S          0.06992  -0.33975   0.06227  -0.00400  -0.00055
   7        3PX         0.10796  -0.23621  -0.05308  -0.00035   0.00298
   8        3PY         0.19797  -0.41130  -0.10031  -0.00149   0.00427
   9        3PZ        -0.00150  -0.00188   0.01456  -0.62750  -0.68574
  10        4S          2.92088  -0.04611   3.10424   0.06144   0.03139
  11        4PX         0.36425   0.18799   0.83522   0.01888   0.00925
  12        4PY         0.64230   0.34699   1.44158   0.03375   0.01739
  13        4PZ        -0.00061   0.00215  -0.04475   0.68527   1.24183
  14 2   H  1S         -0.02539  -0.02852  -0.07720  -0.00174  -0.00073
  15        2S         -0.52600  -0.26732  -0.92652  -0.01800  -0.00565
  16        3S          0.34173   0.01939   0.63590   0.01799   0.01029
  17 3   H  1S         -0.02939  -0.02981  -0.07588  -0.00171  -0.00072
  18        2S         -0.55649  -0.28103  -0.90355  -0.01766  -0.00540
  19        3S          0.34262   0.01990   0.61326   0.01754   0.01009
  20 4   C  1S          0.00070  -0.00631   0.05116   0.00172   0.00032
  21        2S         -0.00242  -0.00318   0.08972   0.00311   0.00060
  22        2PX         0.01151   0.05280   0.03122   0.00030   0.00093
  23        2PY         0.02060   0.09066   0.05480   0.00038   0.00182
  24        2PZ        -0.00176  -0.00094   0.00334  -0.15310   0.19216
  25        3S          0.07757  -0.26759  -0.25973  -0.01168  -0.00135
  26        3PX        -0.03706   0.23014   0.07484   0.00080   0.00326
  27        3PY        -0.05920   0.39845   0.12880   0.00074   0.00637
  28        3PZ        -0.00478  -0.00366   0.01274  -0.63251   0.68153
  29        4S         -1.14479   0.93229  -3.02218  -0.06958  -0.02656
  30        4PX         1.36132  -0.36793   0.57317   0.01014   0.00988
  31        4PY         2.41338  -0.62572   0.98396   0.01761   0.01576
  32        4PZ        -0.01605  -0.00804   0.00961   0.69414  -1.23670
  33 5   H  1S         -0.04414  -0.06890   0.06044   0.00147   0.00069
  34        2S         -0.82424  -0.70614   0.76525   0.02099   0.00239
  35        3S         -0.23684   0.31790  -0.53231  -0.00826  -0.01008
  36 6   H  1S         -0.04034  -0.06845   0.05994   0.00147   0.00069
  37        2S         -0.77525  -0.70085   0.75928   0.02072   0.00234
  38        3S         -0.24520   0.33123  -0.53962  -0.00856  -0.01009
                          21        22        23        24        25
                           V         V         V         V         V
     Eigenvalues --     0.66542   0.69144   0.77156   0.77637   0.84460
   1 1   C  1S          0.00062  -0.00080   0.04673   0.07604   0.00112
   2        2S          0.00131  -0.00170   0.09844   0.16205   0.00257
   3        2PX        -0.12127   0.20564  -0.03238   0.11169  -0.00759
   4        2PY         0.07048  -0.12276  -0.05554   0.18236   0.01273
   5        2PZ        -0.00007   0.00011   0.00021   0.00210   0.00004
   6        3S         -0.01108   0.01745  -0.64251  -1.38819  -0.02749
   7        3PX        -0.57647   0.73369  -0.20041   0.43175  -0.21739
   8        3PY         0.33179  -0.43760  -0.34355   0.69424   0.15823
   9        3PZ        -0.00035   0.00044   0.00089   0.00730   0.00009
  10        4S          0.01963  -0.05198   0.54535   2.47846   0.02255
  11        4PX         1.04692  -0.84747   0.19348  -0.74606   4.57026
  12        4PY        -0.60026   0.52299   0.25438  -0.99219  -2.59123
  13        4PZ         0.00051   0.00021   0.00538  -0.02361   0.00297
  14 2   H  1S          0.02050  -0.06034   0.00817   0.03324  -0.02833
  15        2S          0.09967  -0.65439   0.07544   0.10594  -1.60368
  16        3S         -0.98891   1.17177  -0.03547  -1.11123  -1.25034
  17 3   H  1S         -0.01985   0.05955   0.00831   0.03377   0.03197
  18        2S         -0.11192   0.67782   0.09898   0.07071   1.64077
  19        3S          0.98312  -1.12945  -0.01667  -1.25183   1.24740
  20 4   C  1S          0.00087  -0.00049   0.08199   0.03622   0.00080
  21        2S          0.00177  -0.00098   0.17457   0.07640   0.00162
  22        2PX        -0.16126  -0.17569  -0.10072   0.04677   0.00954
  23        2PY         0.09278   0.09819  -0.17951   0.08605   0.00126
  24        2PZ        -0.00008  -0.00011   0.00231  -0.00039  -0.00005
  25        3S         -0.01307   0.00313  -1.46862  -0.46874  -0.00726
  26        3PX        -0.71514  -0.58354  -0.37211   0.25767   0.23710
  27        3PY         0.41367   0.32282  -0.66790   0.47193  -0.10290
  28        3PZ        -0.00038  -0.00035   0.00821  -0.00159  -0.00006
  29        4S          0.00806   0.01561   2.69062   0.30450  -0.03664
  30        4PX         1.31941   0.70509   0.54073  -0.22104  -4.11770
  31        4PY        -0.75914  -0.37850   1.04542  -0.62901   2.37010
  32        4PZ         0.00068  -0.00014  -0.02392   0.01014  -0.00253
  33 5   H  1S         -0.02788  -0.05338   0.03454   0.00522  -0.02296
  34        2S         -0.16873  -0.52437   0.06046   0.07868  -1.38944
  35        3S          1.15731   0.91789  -1.16046   0.23256  -1.07252
  36 6   H  1S          0.02852   0.05325   0.03427   0.00567   0.02280
  37        2S          0.16447   0.50505   0.06840   0.02127   1.38045
  38        3S         -1.16038  -0.93696  -1.10353   0.16256   1.08369
                          26        27        28        29        30
                           V         V         V         V         V
     Eigenvalues --     0.95186   2.23105   2.29034   2.33338   2.40810
   1 1   C  1S          0.09606  -0.01037  -0.01500   0.00034  -0.00043
   2        2S          0.19966   0.00128  -0.01529   0.00070  -0.00054
   3        2PX        -0.09125  -0.07154  -0.13113   0.34728  -0.41202
   4        2PY        -0.15798  -0.13576  -0.23176  -0.19656   0.23147
   5        2PZ         0.00017  -0.00593  -0.00799   0.00016  -0.00042
   6        3S         -1.54698  -0.18750  -0.03692  -0.00053  -0.00411
   7        3PX        -0.23366   0.06292   0.20660  -0.41158   0.57397
   8        3PY        -0.39827   0.13336   0.37612   0.23475  -0.32359
   9        3PZ        -0.00091   0.00588   0.00988  -0.00014   0.00050
  10        4S          5.71215  -0.11115  -0.88747   0.00086  -0.00981
  11        4PX         1.20198   0.05610  -0.18749  -0.06473   1.00824
  12        4PY         1.99350   0.07809  -0.35736   0.02868  -0.55473
  13        4PZ        -0.00932   0.00136   0.00391  -0.00013   0.00093
  14 2   H  1S          0.01477  -0.70412  -0.80373  -0.69364   0.66065
  15        2S         -0.28383   0.99976   1.20225   1.07680  -1.48544
  16        3S         -0.10046  -0.29412  -0.47798  -0.45281   0.35957
  17 3   H  1S          0.01517  -0.69215  -0.79995   0.69063  -0.68112
  18        2S         -0.25669   0.98263   1.20187  -1.07505   1.52760
  19        3S         -0.08037  -0.27204  -0.45971   0.44505  -0.35157
  20 4   C  1S         -0.09370  -0.00997   0.01180   0.00033   0.00018
  21        2S         -0.19429   0.00061   0.01155   0.00038   0.00042
  22        2PX        -0.09256   0.14045  -0.12164   0.30435   0.41439
  23        2PY        -0.15987   0.24442  -0.20423  -0.17640  -0.23989
  24        2PZ         0.00022  -0.00653   0.00785   0.00023   0.00023
  25        3S          1.50130  -0.16702   0.01830   0.00106  -0.00085
  26        3PX        -0.22701  -0.18202   0.21023  -0.38513  -0.58111
  27        3PY        -0.39635  -0.31438   0.34860   0.22128   0.33774
  28        3PZ         0.00177   0.00714  -0.01009  -0.00027  -0.00033
  29        4S         -5.67821  -0.16600   0.88139   0.01176  -0.00792
  30        4PX         1.10265  -0.01289  -0.19702   0.12257  -0.84441
  31        4PY         1.97611  -0.02500  -0.31409  -0.06972   0.49817
  32        4PZ         0.00449   0.00200  -0.00258   0.00003  -0.00075
  33 5   H  1S         -0.01837  -0.79305   0.66875   0.71482   0.67682
  34        2S          0.29404   1.15334  -1.02253  -1.03344  -1.43712
  35        3S          0.05506  -0.36520   0.39897   0.52433   0.42866
  36 6   H  1S         -0.01827  -0.78852   0.68540  -0.70247  -0.67809
  37        2S          0.31427   1.14528  -1.04149   1.01347   1.43359
  38        3S          0.06656  -0.36375   0.42163  -0.52048  -0.43530
                          31        32        33        34        35
                           V         V         V         V         V
     Eigenvalues --     2.67096   2.81824   2.87731   2.95144   3.14099
   1 1   C  1S          0.00022   0.00114  -0.01335  -0.00005  -0.01002
   2        2S          0.00018   0.00325  -0.04378  -0.00036  -0.03049
   3        2PX         0.00219   0.03303  -0.48061  -0.71663   0.44157
   4        2PY         0.00288   0.05795  -0.87175   0.40236   0.76980
   5        2PZ        -0.92321  -0.93949  -0.06218  -0.00075   0.00241
   6        3S         -0.00070  -0.02676   0.38278   0.00495   0.25465
   7        3PX        -0.00152  -0.05692   0.84552   0.86603  -0.41884
   8        3PY        -0.00179  -0.09920   1.50606  -0.47248  -0.72831
   9        3PZ         0.93790   1.14848   0.07784   0.00098  -0.00325
  10        4S          0.00572   0.06299  -0.87618  -0.01413  -0.49936
  11        4PX        -0.00104   0.04544  -0.71793  -0.66210   0.20521
  12        4PY        -0.00162   0.07971  -1.27859   0.35012   0.35378
  13        4PZ        -0.33707  -0.62289  -0.04906  -0.00077   0.00185
  14 2   H  1S          0.00533  -0.00828   0.25587  -0.36625  -0.20994
  15        2S         -0.00598   0.00470  -0.20754   0.37625   0.15858
  16        3S         -0.00148   0.01884  -0.30673   0.28087   0.05083
  17 3   H  1S          0.00542  -0.00811   0.24738   0.36726  -0.21045
  18        2S         -0.00622   0.00415  -0.19283  -0.37315   0.15807
  19        3S         -0.00167   0.01879  -0.30465  -0.29718   0.06016
  20 4   C  1S          0.00022  -0.00111   0.01396   0.00044  -0.00689
  21        2S          0.00021  -0.00349   0.04904   0.00106  -0.02178
  22        2PX        -0.00332   0.02870  -0.40381  -0.81762  -0.50858
  23        2PY        -0.00653   0.05127  -0.71548   0.45164  -0.90470
  24        2PZ        -0.92640   0.93594   0.06430  -0.00000   0.00643
  25        3S         -0.00125   0.03005  -0.44118  -0.00815   0.18897
  26        3PX         0.00351  -0.05267   0.76815   0.97241   0.55101
  27        3PY         0.00681  -0.09318   1.35093  -0.52902   0.98794
  28        3PZ         0.94230  -1.14507  -0.08118  -0.00002  -0.00803
  29        4S          0.00692  -0.06489   0.91969   0.02490  -0.35999
  30        4PX        -0.00043   0.04528  -0.71248  -0.70511  -0.34055
  31        4PY        -0.00128   0.07917  -1.24265   0.37855  -0.61734
  32        4PZ        -0.33940   0.62135   0.05190   0.00001   0.00634
  33 5   H  1S          0.00506   0.01288  -0.29959   0.42566  -0.27051
  34        2S         -0.00630  -0.01079   0.27716  -0.43920   0.21526
  35        3S         -0.00042  -0.01666   0.27632  -0.23544   0.13252
  36 6   H  1S          0.00511   0.01285  -0.29473  -0.43709  -0.25702
  37        2S         -0.00652  -0.01101   0.27565   0.44942   0.20303
  38        3S         -0.00033  -0.01618   0.26650   0.23927   0.12417
                          36        37        38
                           V         V         V
     Eigenvalues --     3.32021  23.35196  23.70579
   1 1   C  1S         -0.00029  -1.40649  -1.45959
   2        2S         -0.00042   1.49995   1.57834
   3        2PX         0.79769  -0.00663   0.01207
   4        2PY        -0.44386  -0.01091   0.02110
   5        2PZ         0.00063  -0.00024  -0.00012
   6        3S         -0.00090  -0.29426  -0.40128
   7        3PX        -1.14148   0.02445  -0.05560
   8        3PY         0.63125   0.04074  -0.09659
   9        3PZ        -0.00095   0.00068   0.00039
  10        4S         -0.00027   0.27131   0.77032
  11        4PX         2.01255  -0.02671   0.13374
  12        4PY        -1.11125  -0.04556   0.22931
  13        4PZ         0.00164  -0.00115  -0.00149
  14 2   H  1S          0.57613   0.01369   0.00810
  15        2S         -0.89870   0.00729  -0.01536
  16        3S         -0.47742  -0.08491  -0.04033
  17 3   H  1S         -0.58641   0.01522   0.00898
  18        2S          0.91374   0.00720  -0.01506
  19        3S          0.50273  -0.08690  -0.04004
  20 4   C  1S         -0.00005  -1.45479   1.41123
  21        2S         -0.00038   1.55164  -1.52621
  22        2PX        -0.69620   0.00600   0.01270
  23        2PY         0.39950   0.01063   0.02175
  24        2PZ        -0.00050  -0.00024   0.00004
  25        3S          0.00544  -0.30470   0.38852
  26        3PX         0.99081  -0.02198  -0.05662
  27        3PY        -0.57727  -0.03874  -0.09758
  28        3PZ         0.00075   0.00070  -0.00009
  29        4S         -0.02643   0.28222  -0.75723
  30        4PX        -1.75434   0.02269   0.13048
  31        4PY         1.03335   0.04093   0.22700
  32        4PZ        -0.00134  -0.00113   0.00084
  33 5   H  1S          0.47009   0.01240  -0.00362
  34        2S         -0.73826   0.00873   0.01293
  35        3S         -0.41996  -0.08216   0.03631
  36 6   H  1S         -0.46709   0.01148  -0.00298
  37        2S          0.73494   0.00947   0.01296
  38        3S          0.41133  -0.08081   0.03635
     Density Matrix:
                           1         2         3         4         5
   1 1   C  1S          0.65939
   2        2S          0.56151   0.49202
   3        2PX        -0.00045  -0.00059   0.08468
   4        2PY        -0.00112  -0.00153   0.00342   0.08793
   5        2PZ         0.00004   0.00006  -0.00005  -0.00013   0.06445
   6        3S         -0.08890  -0.15382   0.00238   0.00565  -0.00009
   7        3PX         0.00090   0.00139   0.13101   0.00087  -0.00004
   8        3PY         0.00129   0.00199   0.00092   0.13139  -0.00012
   9        3PZ         0.00008   0.00013  -0.00009  -0.00021   0.10375
  10        4S         -0.07912  -0.11385  -0.01585  -0.02820   0.00024
  11        4PX         0.00031   0.00166   0.06998  -0.00447  -0.00026
  12        4PY         0.00067   0.00310  -0.00453   0.06530  -0.00046
  13        4PZ        -0.00006  -0.00013  -0.00037  -0.00061   0.09590
  14 2   H  1S         -0.02078  -0.03308   0.03521  -0.06325  -0.00052
  15        2S         -0.02303  -0.03683   0.04899  -0.08774  -0.00038
  16        3S          0.00058  -0.00071   0.02027  -0.03287  -0.00000
  17 3   H  1S         -0.02123  -0.03378  -0.07304  -0.00198  -0.00059
  18        2S         -0.02335  -0.03728  -0.10031  -0.00238  -0.00047
  19        3S          0.00061  -0.00068  -0.03802   0.00091  -0.00003
  20 4   C  1S          0.00607   0.00979  -0.01091  -0.01895  -0.00017
  21        2S          0.00974   0.01523  -0.01745  -0.03033  -0.00028
  22        2PX         0.01031   0.01649  -0.01244  -0.03217   0.00022
  23        2PY         0.01790   0.02862  -0.03211  -0.04967   0.00044
  24        2PZ        -0.00023  -0.00037  -0.00016  -0.00022   0.06435
  25        3S         -0.02619  -0.03979   0.04896   0.08523   0.00085
  26        3PX         0.01587   0.02459  -0.01831  -0.04590   0.00028
  27        3PY         0.02754   0.04267  -0.04564  -0.07131   0.00059
  28        3PZ        -0.00038  -0.00062  -0.00028  -0.00039   0.10288
  29        4S          0.00537   0.00395   0.02123   0.03741   0.00110
  30        4PX         0.00306   0.00633  -0.01318  -0.02113   0.00030
  31        4PY         0.00521   0.01084  -0.02112  -0.03754   0.00063
  32        4PZ        -0.00032  -0.00052  -0.00046  -0.00071   0.09599
  33 5   H  1S          0.00416   0.00683  -0.00166  -0.01254  -0.00020
  34        2S          0.00622   0.01032   0.00368  -0.02516   0.00001
  35        3S          0.00316   0.00461   0.00438  -0.01760   0.00005
  36 6   H  1S          0.00413   0.00678  -0.01002  -0.00768  -0.00021
  37        2S          0.00617   0.01027  -0.02357  -0.00937  -0.00001
  38        3S          0.00313   0.00459  -0.01733  -0.00506   0.00003
                           6         7         8         9        10
   6        3S          0.45252
   7        3PX        -0.00191   0.20299
   8        3PY        -0.00194  -0.00506   0.19680
   9        3PZ        -0.00026  -0.00008  -0.00019   0.16702
  10        4S          0.27196  -0.02650  -0.04789   0.00032   0.18048
  11        4PX        -0.00708   0.10876  -0.01008  -0.00043  -0.01537
  12        4PY        -0.01265  -0.01022   0.09820  -0.00073  -0.02875
  13        4PZ         0.00055  -0.00049  -0.00081   0.15439   0.00096
  14 2   H  1S          0.08842   0.05674  -0.09852  -0.00086   0.06935
  15        2S          0.09860   0.07931  -0.13618  -0.00064   0.08154
  16        3S          0.00614   0.03313  -0.05042  -0.00000   0.01115
  17 3   H  1S          0.09035  -0.11422  -0.00138  -0.00097   0.06945
  18        2S          0.09987  -0.15670  -0.00078  -0.00077   0.08050
  19        3S          0.00617  -0.05915   0.00322  -0.00005   0.01028
  20 4   C  1S         -0.02654  -0.01707  -0.02966  -0.00029   0.00509
  21        2S         -0.04014  -0.02653  -0.04615  -0.00048   0.00383
  22        2PX        -0.04615  -0.01765  -0.04568   0.00038  -0.01728
  23        2PY        -0.08008  -0.04558  -0.07068   0.00075  -0.02977
  24        2PZ         0.00109  -0.00022  -0.00028   0.10359   0.00108
  25        3S          0.10211   0.07205   0.12561   0.00143   0.00092
  26        3PX        -0.06651  -0.02611  -0.06497   0.00049  -0.02559
  27        3PY        -0.11538  -0.06460  -0.10141   0.00100  -0.04404
  28        3PZ         0.00180  -0.00039  -0.00052   0.16561   0.00180
  29        4S          0.00201   0.03222   0.05695   0.00183  -0.03223
  30        4PX        -0.02242  -0.01961  -0.02970   0.00049  -0.00630
  31        4PY        -0.03856  -0.02970  -0.05405   0.00104  -0.01028
  32        4PZ         0.00151  -0.00065  -0.00097   0.15453   0.00166
  33 5   H  1S         -0.02026  -0.00058  -0.01782  -0.00029  -0.01429
  34        2S         -0.03081   0.00884  -0.03677   0.00005  -0.01857
  35        3S         -0.01183   0.00829  -0.02639   0.00009  -0.00322
  36 6   H  1S         -0.02011  -0.01503  -0.00928  -0.00030  -0.01459
  37        2S         -0.03069  -0.03599  -0.01052   0.00002  -0.01935
  38        3S         -0.01181  -0.02674  -0.00600   0.00006  -0.00371
                          11        12        13        14        15
  11        4PX         0.05934
  12        4PY        -0.00880   0.05055
  13        4PZ        -0.00062  -0.00101   0.14272
  14 2   H  1S          0.03342  -0.05392  -0.00044   0.08175
  15        2S          0.04761  -0.07437  -0.00014   0.10952   0.14873
  16        3S          0.02042  -0.02737   0.00011   0.03631   0.05152
  17 3   H  1S         -0.06288   0.00165  -0.00049  -0.01329  -0.02440
  18        2S         -0.08663   0.00381  -0.00020  -0.02434  -0.04161
  19        3S         -0.03297   0.00411   0.00009  -0.01767  -0.02645
  20 4   C  1S         -0.00322  -0.00583  -0.00027   0.00425   0.00680
  21        2S         -0.00663  -0.01188  -0.00043   0.00704   0.01137
  22        2PX        -0.01339  -0.01972   0.00050   0.00189  -0.00245
  23        2PY        -0.01972  -0.03668   0.00096   0.01125   0.02395
  24        2PZ        -0.00034  -0.00051   0.09576  -0.00026  -0.00009
  25        3S          0.02343   0.04174   0.00126  -0.02123  -0.03426
  26        3PX        -0.02065  -0.02788   0.00067   0.00114  -0.00680
  27        3PY        -0.02780  -0.05357   0.00132   0.01689   0.03609
  28        3PZ        -0.00056  -0.00084   0.15309  -0.00038  -0.00010
  29        4S          0.00845   0.01584   0.00168  -0.01811  -0.02491
  30        4PX        -0.01507  -0.01223   0.00059  -0.00163  -0.00832
  31        4PY        -0.01231  -0.02963   0.00120   0.01523   0.02714
  32        4PZ        -0.00068  -0.00106   0.14285  -0.00022   0.00011
  33 5   H  1S          0.00226  -0.01596  -0.00014   0.01120   0.02314
  34        2S          0.00963  -0.02774   0.00022   0.02389   0.04429
  35        3S          0.00775  -0.01593   0.00015   0.01680   0.02795
  36 6   H  1S         -0.01473  -0.00561  -0.00015  -0.00912  -0.01807
  37        2S         -0.02843  -0.00489   0.00021  -0.01898  -0.03425
  38        3S         -0.01735  -0.00101   0.00014  -0.01029  -0.01779
                          16        17        18        19        20
  16        3S          0.02045
  17 3   H  1S         -0.01780   0.08281
  18        2S         -0.02651   0.10971   0.14740
  19        3S         -0.01232   0.03575   0.05025   0.01973
  20 4   C  1S          0.00379   0.00431   0.00678   0.00377   0.65949
  21        2S          0.00560   0.00712   0.01130   0.00554   0.56157
  22        2PX        -0.00325   0.00887   0.02197   0.01655   0.00123
  23        2PY         0.01753   0.00741   0.00978   0.00577   0.00198
  24        2PZ         0.00001  -0.00026  -0.00007   0.00003   0.00003
  25        3S         -0.01455  -0.02138  -0.03393  -0.01424  -0.08930
  26        3PX        -0.00663   0.01418   0.03468   0.02587  -0.00047
  27        3PY         0.02647   0.00953   0.01193   0.00722  -0.00097
  28        3PZ         0.00002  -0.00038  -0.00006   0.00005   0.00008
  29        4S         -0.00614  -0.01781  -0.02401  -0.00564  -0.08033
  30        4PX        -0.00690   0.01408   0.02766   0.01708  -0.00017
  31        4PY         0.01597   0.00652   0.00661   0.00200  -0.00019
  32        4PZ         0.00012  -0.00021   0.00014   0.00013  -0.00001
  33 5   H  1S          0.01601  -0.00903  -0.01791  -0.00923  -0.01989
  34        2S          0.02721  -0.01875  -0.03380  -0.01675  -0.02203
  35        3S          0.01462  -0.01020  -0.01758  -0.00893   0.00057
  36 6   H  1S         -0.00936   0.01120   0.02307   0.01575  -0.01970
  37        2S         -0.01706   0.02385   0.04407   0.02681  -0.02201
  38        3S         -0.00908   0.01673   0.02770   0.01438   0.00048
                          21        22        23        24        25
  21        2S          0.49205
  22        2PX         0.00178   0.08231
  23        2PY         0.00284   0.00389   0.08731
  24        2PZ         0.00005   0.00006   0.00008   0.06426
  25        3S         -0.15429  -0.00569  -0.00918  -0.00006   0.45385
  26        3PX        -0.00071   0.12810   0.00218   0.00004  -0.00032
  27        3PY        -0.00147   0.00220   0.13108   0.00002   0.00021
  28        3PZ         0.00013   0.00009   0.00013   0.10273  -0.00026
  29        4S         -0.11615   0.01342   0.02283   0.00031   0.27971
  30        4PX        -0.00141   0.07368  -0.00533   0.00020   0.00600
  31        4PY        -0.00223  -0.00526   0.06747   0.00037   0.00986
  32        4PZ        -0.00005   0.00036   0.00064   0.09585   0.00032
  33 5   H  1S         -0.03169  -0.03299   0.06334  -0.00059   0.08476
  34        2S         -0.03520  -0.04970   0.08850  -0.00048   0.09414
  35        3S         -0.00063  -0.02299   0.03369  -0.00006   0.00560
  36 6   H  1S         -0.03142   0.07088   0.00285  -0.00052   0.08403
  37        2S         -0.03519   0.10132   0.00081  -0.00038   0.09412
  38        3S         -0.00075   0.04081  -0.00330  -0.00002   0.00587
                          26        27        28        29        30
  26        3PX         0.19969
  27        3PY        -0.00217   0.19738
  28        3PZ         0.00005   0.00003   0.16424
  29        4S          0.02502   0.04238   0.00037   0.18810
  30        4PX         0.11534  -0.01103   0.00031   0.01537   0.06775
  31        4PY        -0.01096   0.10218   0.00059   0.02524  -0.01100
  32        4PZ         0.00045   0.00082   0.15324   0.00089   0.00050
  33 5   H  1S         -0.05277   0.09949  -0.00098   0.06685  -0.03473
  34        2S         -0.07994   0.13852  -0.00081   0.07741  -0.05297
  35        3S         -0.03743   0.05205  -0.00009   0.00932  -0.02490
  36 6   H  1S          0.11209   0.00376  -0.00087   0.06705   0.06621
  37        2S          0.16002  -0.00043  -0.00065   0.07851   0.09503
  38        3S          0.06414  -0.00667  -0.00003   0.01003   0.03847
                          31        32        33        34        35
  31        4PY         0.05446
  32        4PZ         0.00097   0.14298
  33 5   H  1S          0.05622  -0.00051   0.08022
  34        2S          0.07843  -0.00024   0.10988   0.15298
  35        3S          0.02963   0.00005   0.03838   0.05603   0.02338
  36 6   H  1S         -0.00203  -0.00046  -0.01233  -0.02620  -0.02026
  37        2S         -0.00673  -0.00016  -0.02626  -0.04912  -0.03237
  38        3S         -0.00678   0.00009  -0.02038  -0.03243  -0.01614
                          36        37        38
  36 6   H  1S          0.07960
  37        2S          0.10965   0.15344
  38        3S          0.03854   0.05648   0.02362
    Full Mulliken population analysis:
                           1         2         3         4         5
   1 1   C  1S          0.65939
   2        2S          0.49326   0.49202
   3        2PX         0.00000   0.00000   0.08468
   4        2PY         0.00000   0.00000   0.00000   0.08793
   5        2PZ         0.00000   0.00000   0.00000   0.00000   0.06445
   6        3S         -0.02927  -0.06442   0.00000   0.00000   0.00000
   7        3PX         0.00000   0.00000   0.08242   0.00000   0.00000
   8        3PY         0.00000   0.00000   0.00000   0.08266   0.00000
   9        3PZ         0.00000   0.00000   0.00000   0.00000   0.06527
  10        4S         -0.01217  -0.02131   0.00000   0.00000   0.00000
  11        4PX         0.00000   0.00000   0.01541   0.00000   0.00000
  12        4PY         0.00000   0.00000   0.00000   0.01438   0.00000
  13        4PZ         0.00000   0.00000   0.00000   0.00000   0.02112
  14 2   H  1S         -0.00024  -0.00035   0.00191   0.00573   0.00000
  15        2S         -0.00170  -0.00325   0.00441   0.01318   0.00000
  16        3S          0.00005  -0.00007   0.00069   0.00188   0.00000
  17 3   H  1S         -0.00026  -0.00038   0.00806  -0.00000   0.00000
  18        2S         -0.00176  -0.00338   0.01779  -0.00000   0.00000
  19        3S          0.00005  -0.00006   0.00253   0.00000   0.00000
  20 4   C  1S          0.00000   0.00000  -0.00002  -0.00006   0.00000
  21        2S          0.00000  -0.00000  -0.00002  -0.00005   0.00000
  22        2PX        -0.00002  -0.00002   0.00011   0.00085   0.00000
  23        2PY        -0.00006  -0.00005   0.00085   0.00196   0.00000
  24        2PZ        -0.00000  -0.00000  -0.00000  -0.00000   0.00042
  25        3S         -0.00059  -0.00099   0.00255   0.00770  -0.00000
  26        3PX        -0.00054  -0.00098   0.00019   0.00555   0.00000
  27        3PY        -0.00161  -0.00296   0.00552   0.01070   0.00000
  28        3PZ        -0.00000  -0.00000  -0.00000  -0.00000   0.00610
  29        4S          0.00034   0.00030   0.00096   0.00294  -0.00000
  30        4PX        -0.00018  -0.00045  -0.00071   0.00146   0.00000
  31        4PY        -0.00052  -0.00133   0.00146   0.00097   0.00000
  32        4PZ        -0.00000  -0.00000  -0.00000  -0.00000   0.00903
  33 5   H  1S          0.00000   0.00000  -0.00000  -0.00000   0.00000
  34        2S          0.00001   0.00002   0.00000  -0.00030  -0.00000
  35        3S          0.00007   0.00012   0.00001  -0.00070  -0.00000
  36 6   H  1S          0.00000   0.00000  -0.00000  -0.00000   0.00000
  37        2S          0.00001   0.00002  -0.00023  -0.00006   0.00000
  38        3S          0.00007   0.00012  -0.00056  -0.00011  -0.00000
                           6         7         8         9        10
   6        3S          0.45252
   7        3PX         0.00000   0.20299
   8        3PY         0.00000   0.00000   0.19680
   9        3PZ         0.00000   0.00000   0.00000   0.16702
  10        4S          0.21069   0.00000   0.00000   0.00000   0.18048
  11        4PX         0.00000   0.07107   0.00000   0.00000   0.00000
  12        4PY         0.00000   0.00000   0.06417   0.00000   0.00000
  13        4PZ         0.00000   0.00000   0.00000   0.10089   0.00000
  14 2   H  1S          0.01645   0.01121   0.03249   0.00000   0.01843
  15        2S          0.04180   0.01997   0.05723   0.00000   0.04718
  16        3S          0.00284   0.00396   0.01006   0.00000   0.00844
  17 3   H  1S          0.01729   0.04474  -0.00000   0.00001   0.01866
  18        2S          0.04302   0.07724  -0.00000   0.00001   0.04696
  19        3S          0.00287   0.01371   0.00000   0.00000   0.00781
  20 4   C  1S         -0.00060  -0.00058  -0.00174   0.00000   0.00032
  21        2S         -0.00100  -0.00106  -0.00320   0.00000   0.00029
  22        2PX         0.00241   0.00019   0.00552   0.00000   0.00078
  23        2PY         0.00723   0.00551   0.01060   0.00000   0.00234
  24        2PZ         0.00000  -0.00000  -0.00000   0.00615   0.00000
  25        3S          0.02176   0.01350   0.04076  -0.00000   0.00035
  26        3PX         0.01247  -0.00126   0.01854   0.00000   0.00395
  27        3PY         0.03744   0.01843   0.02849   0.00000   0.01176
  28        3PZ         0.00000  -0.00000  -0.00000   0.03530   0.00000
  29        4S          0.00076   0.00497   0.01520  -0.00000  -0.02023
  30        4PX         0.00630  -0.00402   0.00588   0.00000   0.00191
  31        4PY         0.01876   0.00588   0.00126   0.00000   0.00539
  32        4PZ         0.00000  -0.00000  -0.00000   0.04937   0.00000
  33 5   H  1S         -0.00005  -0.00000  -0.00018   0.00000  -0.00075
  34        2S         -0.00115   0.00006  -0.00313  -0.00000  -0.00306
  35        3S         -0.00190   0.00011  -0.00421  -0.00000  -0.00115
  36 6   H  1S         -0.00005  -0.00012  -0.00005   0.00000  -0.00075
  37        2S         -0.00113  -0.00249  -0.00051  -0.00000  -0.00316
  38        3S         -0.00188  -0.00350  -0.00054  -0.00000  -0.00132
                          11        12        13        14        15
  11        4PX         0.05934
  12        4PY         0.00000   0.05055
  13        4PZ         0.00000   0.00000   0.14272
  14 2   H  1S          0.00643   0.01733   0.00000   0.08175
  15        2S          0.01541   0.04018   0.00000   0.07736   0.14873
  16        3S          0.00517   0.01157  -0.00000   0.01357   0.04065
  17 3   H  1S          0.02357   0.00000   0.00000  -0.00001  -0.00064
  18        2S          0.05448   0.00001   0.00000  -0.00064  -0.00518
  19        3S          0.01617   0.00000  -0.00000  -0.00196  -0.00769
  20 4   C  1S         -0.00019  -0.00059   0.00000   0.00000   0.00002
  21        2S         -0.00047  -0.00146   0.00000   0.00000   0.00003
  22        2PX        -0.00072   0.00137   0.00000  -0.00000   0.00000
  23        2PY         0.00137   0.00095   0.00000  -0.00000  -0.00037
  24        2PZ        -0.00000  -0.00000   0.00901   0.00000   0.00000
  25        3S          0.00658   0.02031  -0.00000  -0.00008  -0.00156
  26        3PX        -0.00424   0.00552   0.00000  -0.00000   0.00004
  27        3PY         0.00550   0.00125   0.00000  -0.00023  -0.00364
  28        3PZ        -0.00000  -0.00000   0.04891   0.00000   0.00000
  29        4S          0.00256   0.00831  -0.00000  -0.00108  -0.00455
  30        4PX        -0.00726   0.00310   0.00000   0.00001   0.00016
  31        4PY         0.00312  -0.00562   0.00000  -0.00246  -0.01035
  32        4PZ        -0.00000  -0.00000   0.08968   0.00000  -0.00000
  33 5   H  1S          0.00003  -0.00232   0.00000   0.00000   0.00000
  34        2S          0.00029  -0.00982  -0.00000   0.00000   0.00015
  35        3S          0.00030  -0.00731  -0.00000   0.00023   0.00147
  36 6   H  1S         -0.00175  -0.00046   0.00000  -0.00000  -0.00004
  37        2S         -0.00825  -0.00099  -0.00000  -0.00004  -0.00092
  38        3S         -0.00655  -0.00026  -0.00000  -0.00047  -0.00247
                          16        17        18        19        20
  16        3S          0.02045
  17 3   H  1S         -0.00198   0.08281
  18        2S         -0.00770   0.07750   0.14740
  19        3S         -0.00639   0.01336   0.03965   0.01973
  20 4   C  1S          0.00010   0.00000   0.00002   0.00010   0.65949
  21        2S          0.00017   0.00000   0.00003   0.00017   0.49331
  22        2PX         0.00001  -0.00000  -0.00028  -0.00059   0.00000
  23        2PY        -0.00074  -0.00000  -0.00008  -0.00014   0.00000
  24        2PZ        -0.00000   0.00000   0.00000  -0.00000   0.00000
  25        3S         -0.00254  -0.00008  -0.00154  -0.00249  -0.02940
  26        3PX         0.00006  -0.00016  -0.00293  -0.00365   0.00000
  27        3PY        -0.00447  -0.00007  -0.00066  -0.00067   0.00000
  28        3PZ        -0.00000   0.00000   0.00000  -0.00000   0.00000
  29        4S         -0.00233  -0.00106  -0.00438  -0.00214  -0.01235
  30        4PX         0.00017  -0.00190  -0.00881  -0.00677   0.00000
  31        4PY        -0.00757  -0.00058  -0.00139  -0.00052   0.00000
  32        4PZ        -0.00000   0.00000  -0.00000  -0.00000   0.00000
  33 5   H  1S          0.00022  -0.00000  -0.00004  -0.00042  -0.00020
  34        2S          0.00143  -0.00004  -0.00089  -0.00231  -0.00155
  35        3S          0.00246  -0.00046  -0.00243  -0.00284   0.00004
  36 6   H  1S         -0.00043   0.00000   0.00000   0.00022  -0.00020
  37        2S         -0.00237   0.00000   0.00015   0.00140  -0.00153
  38        3S         -0.00290   0.00023   0.00145   0.00241   0.00004
                          21        22        23        24        25
  21        2S          0.49205
  22        2PX         0.00000   0.08231
  23        2PY         0.00000   0.00000   0.08731
  24        2PZ         0.00000   0.00000   0.00000   0.06426
  25        3S         -0.06462   0.00000   0.00000   0.00000   0.45385
  26        3PX         0.00000   0.08059   0.00000   0.00000   0.00000
  27        3PY         0.00000   0.00000   0.08246   0.00000   0.00000
  28        3PZ         0.00000   0.00000   0.00000   0.06463   0.00000
  29        4S         -0.02174   0.00000   0.00000   0.00000   0.21669
  30        4PX         0.00000   0.01623   0.00000   0.00000   0.00000
  31        4PY         0.00000   0.00000   0.01486   0.00000   0.00000
  32        4PZ         0.00000   0.00000   0.00000   0.02111   0.00000
  33 5   H  1S         -0.00029   0.00140   0.00553   0.00000   0.01497
  34        2S         -0.00297   0.00372   0.01363   0.00000   0.03877
  35        3S         -0.00006   0.00067   0.00203   0.00000   0.00255
  36 6   H  1S         -0.00027   0.00667   0.00002   0.00000   0.01459
  37        2S         -0.00293   0.01717   0.00001   0.00000   0.03839
  38        3S         -0.00007   0.00272  -0.00002   0.00000   0.00267
                          26        27        28        29        30
  26        3PX         0.19969
  27        3PY         0.00000   0.19738
  28        3PZ         0.00000   0.00000   0.16424
  29        4S          0.00000   0.00000   0.00000   0.18810
  30        4PX         0.07537   0.00000   0.00000   0.00000   0.06775
  31        4PY         0.00000   0.06677   0.00000   0.00000   0.00000
  32        4PZ         0.00000   0.00000   0.10013   0.00000   0.00000
  33 5   H  1S          0.00856   0.03321   0.00000   0.01742   0.00567
  34        2S          0.01691   0.06031   0.00001   0.04412   0.01461
  35        3S          0.00382   0.01093   0.00000   0.00699   0.00541
  36 6   H  1S          0.04102   0.00010   0.00000   0.01737   0.02466
  37        2S          0.07696  -0.00001   0.00000   0.04452   0.05987
  38        3S          0.01496  -0.00011   0.00000   0.00750   0.01912
                          31        32        33        34        35
  31        4PY         0.05446
  32        4PZ         0.00000   0.14298
  33 5   H  1S          0.01890   0.00000   0.08022
  34        2S          0.04453   0.00000   0.07761   0.15298
  35        3S          0.01324  -0.00000   0.01434   0.04421   0.02338
  36 6   H  1S         -0.00005   0.00000  -0.00001  -0.00080  -0.00239
  37        2S         -0.00030   0.00000  -0.00080  -0.00676  -0.00987
  38        3S         -0.00024  -0.00000  -0.00240  -0.00989  -0.00864
                          36        37        38
  36 6   H  1S          0.07960
  37        2S          0.07745   0.15344
  38        3S          0.01440   0.04456   0.02362
     Gross orbital populations:
                           1
   1 1   C  1S          1.10434
   2        2S          0.88586
   3        2PX         0.22804
   4        2PY         0.23660
   5        2PZ         0.16639
   6        3S          0.79318
   7        3PX         0.56293
   8        3PY         0.55613
   9        3PZ         0.42401
  10        4S          0.50184
  11        4PX         0.25738
  12        4PY         0.21016
  13        4PZ         0.41234
  14 2   H  1S          0.27536
  15        2S          0.46563
  16        3S          0.08444
  17 3   H  1S          0.27861
  18        2S          0.46357
  19        3S          0.08154
  20 4   C  1S          1.10443
  21        2S          0.88584
  22        2PX         0.22109
  23        2PY         0.23520
  24        2PZ         0.16557
  25        3S          0.79212
  26        3PX         0.55043
  27        3PY         0.55582
  28        3PZ         0.41934
  29        4S          0.50920
  30        4PX         0.27758
  31        4PY         0.21867
  32        4PZ         0.41231
  33 5   H  1S          0.27063
  34        2S          0.47069
  35        3S          0.09046
  36 6   H  1S          0.26873
  37        2S          0.47161
  38        3S          0.09193
          Condensed to atoms (all electrons):
               1          2          3          4          5          6
     1  C    5.029233   0.388397   0.389127   0.601916  -0.034966  -0.034511
     2  H    0.388397   0.514099  -0.032178  -0.041212   0.005964  -0.009642
     3  H    0.389127  -0.032178   0.510940  -0.040604  -0.009428   0.005862
     4  C    0.601916  -0.041212  -0.040604   5.061966   0.382888   0.382641
     5  H   -0.034966   0.005964  -0.009428   0.382888   0.528893  -0.041564
     6  H   -0.034511  -0.009642   0.005862   0.382641  -0.041564   0.529488
 Mulliken charges:
               1
     1  C   -0.339197
     2  H    0.174572
     3  H    0.176281
     4  C   -0.347595
     5  H    0.168213
     6  H    0.167726
 Sum of Mulliken charges =  -0.00000
 Mulliken charges with hydrogens summed into heavy atoms:
               1
     1  C    0.011656
     4  C   -0.011656
 Electronic spatial extent (au):  <R**2>=             83.7641
 Charge=             -0.0000 electrons
 Dipole moment (field-independent basis, Debye):
    X=              0.0049    Y=              0.0204    Z=             -0.0472  Tot=              0.0517
 Quadrupole moment (field-independent basis, Debye-Ang):
   XX=            -12.2042   YY=            -12.2156   ZZ=            -15.6765
   XY=              0.0192   XZ=             -0.0000   YZ=             -0.0029
 Traceless Quadrupole moment (field-independent basis, Debye-Ang):
   XX=              1.1612   YY=              1.1498   ZZ=             -2.3110
   XY=              0.0192   XZ=             -0.0000   YZ=             -0.0029
 Octapole moment (field-independent basis, Debye-Ang**2):
  XXX=             -0.4147  YYY=             -0.0688  ZZZ=             -0.0646  XYY=              0.2362
  XXY=             -0.0539  XXZ=             -0.0726  XZZ=             -0.1074  YZZ=             -0.1200
  YYZ=             -0.0929  XYZ=             -0.0177
 Hexadecapole moment (field-independent basis, Debye-Ang**3):
 XXXX=            -34.3060 YYYY=            -55.2493 ZZZZ=            -17.8078 XXXY=             -7.2484
 XXXZ=              0.0122 YYYX=            -10.7022 YYYZ=              0.0174 ZZZX=              0.0154
 ZZZY=              0.0312 XXYY=            -16.2005 XXZZ=             -9.9342 YYZZ=            -13.6616
 XXYZ=              0.0074 YYXZ=              0.0019 ZZXY=             -3.2090
 N-N= 3.306082507920D+01 E-N=-2.478291591489D+02  KE= 7.814994413750D+01
 Orbital energies and kinetic energies (alpha):
                                 1                 2
   1         O               -10.291286         15.979388
   2         O               -10.287398         15.979047
   3         O                -0.863849          1.538731
   4         O                -0.672094          1.270524
   5         O                -0.559694          0.943085
   6         O                -0.509311          1.284064
   7         O                -0.435965          1.041700
   8         O                -0.356908          1.038434
   9         V                 0.079945          1.181991
  10         V                 0.140854          0.590291
  11         V                 0.164596          0.596012
  12         V                 0.169908          0.680307
  13         V                 0.240549          0.583939
  14         V                 0.371768          0.847559
  15         V                 0.393028          0.933281
  16         V                 0.400974          0.787575
  17         V                 0.462877          1.199992
  18         V                 0.488731          1.411417
  19         V                 0.493737          1.301512
  20         V                 0.590965          1.652172
  21         V                 0.665418          1.573560
  22         V                 0.691441          2.144663
  23         V                 0.771557          2.400487
  24         V                 0.776367          2.340845
  25         V                 0.844599          1.088361
  26         V                 0.951859          3.424978
  27         V                 2.231047          3.926526
  28         V                 2.290339          4.026497
  29         V                 2.333381          4.305613
  30         V                 2.408097          4.520643
  31         V                 2.670964          6.300977
  32         V                 2.818244          6.308156
  33         V                 2.877308          6.137225
  34         V                 2.951442          6.226200
  35         V                 3.140988          6.820610
  36         V                 3.320207          6.400515
  37         V                23.351965         60.074490
  38         V                23.705789         60.203777
 Total kinetic energy from orbitals= 7.814994413750D+01
 Calling FoFJK, ICntrl=      2127 FMM=F ISym2X=0 I1Cent= 0 IOpClX= 0 NMat=1 NMatS=1 NMatT=0.
 -------------------------------------------------------------------
 Center     Atomic                   Forces (Hartrees/Bohr)
 Number     Number              X              Y              Z
 -------------------------------------------------------------------
      1        6           0.015608585    0.013240462   -0.001857401
      2        1          -0.009023211    0.002342812    0.000917982
      3        1          -0.000043764   -0.005794338    0.000846832
      4        6           0.011056078    0.014833861   -0.002118368
      5        1           0.002142980   -0.017417798    0.001091491
      6        1          -0.019740668   -0.007204998    0.001119463
 -------------------------------------------------------------------
 Cartesian Forces:  Max     0.019740668 RMS     0.009554584

 GradGradGradGradGradGradGradGradGradGradGradGradGradGradGradGradGradGrad
 Berny optimization.
 Search for a local minimum.
 Step number   1 out of a maximum of    2
 All quantities printed in internal units (Hartrees-Bohrs-Radians)
 Second derivative matrix not updated -- first step.
 The second derivative matrix:
                          X1        Y1        Z1        X2        Y2
           X1           0.76913
           Y1           0.09254   0.86196
           Z1           0.00277   0.00403   0.17096
           X2          -0.16940   0.09990   0.00100   0.14656
           Y2           0.10559  -0.28580  -0.00357  -0.11927   0.27421
           Z2           0.00160  -0.00450  -0.05482  -0.00146   0.00367
           X3          -0.35787   0.00058  -0.00400   0.00007   0.00004
           Y3          -0.00507  -0.11152  -0.00094   0.03253   0.01947
           Z3          -0.00511  -0.00091  -0.05613   0.00074   0.00029
           X4          -0.26716  -0.17840  -0.00026   0.02278   0.01364
           Y4          -0.17858  -0.47300  -0.00038  -0.01315  -0.00788
           Z4           0.00073   0.00134  -0.09470  -0.00028  -0.00039
           X5           0.02347  -0.01356   0.00030  -0.00000   0.00000
           Y5           0.01140  -0.00658   0.00041   0.00000  -0.00000
           Z5          -0.00025   0.00017   0.01769   0.00012  -0.00006
           X6           0.00183  -0.00106   0.00018  -0.00000   0.00000
           Y6          -0.02588   0.01495   0.00045   0.00000  -0.00000
           Z6           0.00027  -0.00014   0.01701  -0.00012   0.00006
                          Z2        X3        Y3        Z3        X4
           Z2           0.02847
           X3          -0.00014   0.35787
           Y3           0.00081  -0.00066   0.07657
           Z3           0.01066   0.00435   0.00061   0.02933
           X4           0.00024  -0.00006  -0.02680  -0.00022   0.70297
           Y4          -0.00012   0.00003   0.01548   0.00015   0.12654
           Z4           0.01563  -0.00022  -0.00047   0.01620  -0.00252
           X5          -0.00012  -0.00000   0.00000   0.00012  -0.14191
           Y5           0.00008   0.00000  -0.00000  -0.00008   0.08884
           Z5           0.00926   0.00012  -0.00008  -0.00942  -0.00147
           X6          -0.00012  -0.00000   0.00000   0.00012  -0.31661
           Y6           0.00006   0.00000  -0.00000  -0.00006  -0.02382
           Z6          -0.00921  -0.00012   0.00008   0.00937   0.00423
                          Y4        Z4        X5        Y5        Z5
           Y4           0.85475
           Z4          -0.00496   0.17645
           X5           0.08032  -0.00097   0.12074
           Y5          -0.28569   0.00356  -0.09913   0.27656
           Z5           0.00439  -0.05714   0.00131  -0.00381   0.02947
           X6          -0.01516   0.00326  -0.00230  -0.00111   0.00017
           Y6          -0.10366   0.00093   0.03237   0.01572  -0.00061
           Z6           0.00092  -0.05644  -0.00064  -0.00016   0.01014
                          X6        Y6        Z6
           X6           0.31708
           Y6           0.01733   0.07299
           Z6          -0.00362  -0.00077   0.02913
 ITU=  0
     Eigenvalues ---    0.03728   0.04380   0.09423   0.09864   0.13508
     Eigenvalues ---    0.17412   0.26500   0.29014   0.52811   0.69558
     Eigenvalues ---    0.97896   1.56209
 Angle between quadratic step and forces=  32.40 degrees.
 Linear search not attempted -- first point.
 B after Tr=     0.008116    0.010193   -0.004845
         Rot=    1.000000   -0.000025    0.000014   -0.000116 Ang=  -0.01 deg.
 Variable       Old X    -DE/DX   Delta X   Delta X   Delta X     New X
                                 (Linear)    (Quad)   (Total)
    X1       -0.63695   0.01561   0.00000   0.02392   0.03228  -0.60467
    Y1       -1.10186   0.01324   0.00000   0.02876   0.03881  -1.06305
    Z1        0.00796  -0.00186   0.00000  -0.01036  -0.01527  -0.00731
    X2        0.42350  -0.00902   0.00000  -0.03864  -0.02986   0.39365
    Y2       -2.87216   0.00234   0.00000   0.01341   0.02369  -2.84847
    Z2       -0.01740   0.00092   0.00000   0.01264   0.00767  -0.00973
    X3       -2.68083  -0.00004   0.00000   0.02345   0.03183  -2.64900
    Y3       -1.09715  -0.00579   0.00000  -0.01876  -0.00918  -1.10633
    Z3       -0.01910   0.00085   0.00000   0.01243   0.00745  -0.01165
    X4        0.62783   0.01106   0.00000   0.00965   0.01751   0.64534
    Y4        1.08794   0.01483   0.00000   0.01345   0.02379   1.11174
    Z4        0.00537  -0.00212   0.00000  -0.00969  -0.01447  -0.00909
    X5       -0.28983   0.00214   0.00000  -0.01723  -0.00979  -0.29962
    Y5        2.97636  -0.01742   0.00000  -0.05617  -0.04605   2.93032
    Z5       -0.02305   0.00109   0.00000   0.01215   0.00744  -0.01561
    X6        2.73387  -0.01974   0.00000  -0.04981  -0.04198   2.69189
    Y6        1.23679  -0.00720   0.00000  -0.04189  -0.03107   1.20572
    Z6       -0.02138   0.00112   0.00000   0.01189   0.00718  -0.01420
         Item               Value     Threshold  Converged?
 Maximum Force            0.019741     0.000450     NO 
 RMS     Force            0.009555     0.000300     NO 
 Maximum Displacement     0.046045     0.001800     NO 
 RMS     Displacement     0.025363     0.001200     NO 
 Predicted change in Energy=-1.931580D-03
 GradGradGradGradGradGradGradGradGradGradGradGradGradGradGradGradGradGrad

 Unable to Open any file for archive entry.
 1\1\GINC-BHD0016\Force\RwB97XD\6-311G\C2H4\BWEIGHT\11-Jan-2023\0\\# WB
 97XD/6-311G SCF=XQC FORCE nosym pop=full guess=read\\MD Step 999\\0,1\
 C,-0.33705979,-0.58307979,0.00421428\H,0.22410823,-1.51988114,-0.00920
 705\H,-1.41863541,-0.58058769,-0.01010689\C,0.33223195,0.57571529,0.00
 284417\H,-0.15336921,1.57502307,-0.01219633\H,1.44670237,0.65448316,-0
 .01131462\\Version=ES64L-G16RevC.01\HF=-78.5552265\RMSD=6.597e-09\RMSF
 =9.555e-03\Dipole=0.0019412,0.008039,-0.0185765\Quadrupole=0.8633338,0
 .8548517,-1.7181856,0.0142779,-0.0000082,-0.0021591\PG=C01 [X(C2H4)]\\
 @
 The archive entry for this job was punched.


 This summer one third of the nation will be ill-housed
 ill-nourished and ill-clad. Only they call it a vacation.
 -- Jonas Salk
 Job cpu time:       0 days  0 hours  0 minutes  7.1 seconds.
 Elapsed time:       0 days  0 hours  0 minutes  3.9 seconds.
 File lengths (MBytes):  RWF=    272 Int=      0 D2E=      0 Chk=     32 Scr=     32
 Normal termination of Gaussian 16 at Wed Jan 11 10:45:25 2023.
