 Entering Gaussian System, Link 0=g16
 Initial command:
 /software/gaussian/g16-c01/avx2/g16/l1.exe "/gpfs/fs2/scratch/bweight/software/many_molecule_many_mode_NAMD/src/NAMD/TEST_NVT/TRAJ/traj-48/G16/GS_NEW/Gau-13387.inp" -scrdir="/gpfs/fs2/scratch/bweight/software/many_molecule_many_mode_NAMD/src/NAMD/TEST_NVT/TRAJ/traj-48/G16/GS_NEW/"
 Entering Link 1 = /software/gaussian/g16-c01/avx2/g16/l1.exe PID=     13388.
  
 Copyright (c) 1988-2019, Gaussian, Inc.  All Rights Reserved.
  
 This is part of the Gaussian(R) 16 program.  It is based on
 the Gaussian(R) 09 system (copyright 2009, Gaussian, Inc.),
 the Gaussian(R) 03 system (copyright 2003, Gaussian, Inc.),
 the Gaussian(R) 98 system (copyright 1998, Gaussian, Inc.),
 the Gaussian(R) 94 system (copyright 1995, Gaussian, Inc.),
 the Gaussian 92(TM) system (copyright 1992, Gaussian, Inc.),
 the Gaussian 90(TM) system (copyright 1990, Gaussian, Inc.),
 the Gaussian 88(TM) system (copyright 1988, Gaussian, Inc.),
 the Gaussian 86(TM) system (copyright 1986, Carnegie Mellon
 University), and the Gaussian 82(TM) system (copyright 1983,
 Carnegie Mellon University). Gaussian is a federally registered
 trademark of Gaussian, Inc.
  
 This software contains proprietary and confidential information,
 including trade secrets, belonging to Gaussian, Inc.
  
 This software is provided under written license and may be
 used, copied, transmitted, or stored only in accord with that
 written license.
  
 The following legend is applicable only to US Government
 contracts under FAR:
  
                    RESTRICTED RIGHTS LEGEND
  
 Use, reproduction and disclosure by the US Government is
 subject to restrictions as set forth in subparagraphs (a)
 and (c) of the Commercial Computer Software - Restricted
 Rights clause in FAR 52.227-19.
  
 Gaussian, Inc.
 340 Quinnipiac St., Bldg. 40, Wallingford CT 06492
  
  
 ---------------------------------------------------------------
 Warning -- This program may not be used in any manner that
 competes with the business of Gaussian, Inc. or will provide
 assistance to any competitor of Gaussian, Inc.  The licensee
 of this program is prohibited from giving any competitor of
 Gaussian, Inc. access to this program.  By using this program,
 the user acknowledges that Gaussian, Inc. is engaged in the
 business of creating and licensing software in the field of
 computational chemistry and represents and warrants to the
 licensee that it is not a competitor of Gaussian, Inc. and that
 it will not use this program in any manner prohibited above.
 ---------------------------------------------------------------
  

 Cite this work as:
 Gaussian 16, Revision C.01,
 M. J. Frisch, G. W. Trucks, H. B. Schlegel, G. E. Scuseria, 
 M. A. Robb, J. R. Cheeseman, G. Scalmani, V. Barone, 
 G. A. Petersson, H. Nakatsuji, X. Li, M. Caricato, A. V. Marenich, 
 J. Bloino, B. G. Janesko, R. Gomperts, B. Mennucci, H. P. Hratchian, 
 J. V. Ortiz, A. F. Izmaylov, J. L. Sonnenberg, D. Williams-Young, 
 F. Ding, F. Lipparini, F. Egidi, J. Goings, B. Peng, A. Petrone, 
 T. Henderson, D. Ranasinghe, V. G. Zakrzewski, J. Gao, N. Rega, 
 G. Zheng, W. Liang, M. Hada, M. Ehara, K. Toyota, R. Fukuda, 
 J. Hasegawa, M. Ishida, T. Nakajima, Y. Honda, O. Kitao, H. Nakai, 
 T. Vreven, K. Throssell, J. A. Montgomery, Jr., J. E. Peralta, 
 F. Ogliaro, M. J. Bearpark, J. J. Heyd, E. N. Brothers, K. N. Kudin, 
 V. N. Staroverov, T. A. Keith, R. Kobayashi, J. Normand, 
 K. Raghavachari, A. P. Rendell, J. C. Burant, S. S. Iyengar, 
 J. Tomasi, M. Cossi, J. M. Millam, M. Klene, C. Adamo, R. Cammi, 
 J. W. Ochterski, R. L. Martin, K. Morokuma, O. Farkas, 
 J. B. Foresman, and D. J. Fox, Gaussian, Inc., Wallingford CT, 2019.
 
 ******************************************
 Gaussian 16:  ES64L-G16RevC.01  3-Jul-2019
                11-Jan-2023 
 ******************************************
 %oldchk=../GS_OLD/geometry.chk
 %chk=geometry.chk
 %nprocshared=4
 Will use up to    4 processors via shared memory.
 %mem=5GB
 Copying data from "../GS_OLD/geometry.chk" to current chk file "geometry.chk"
 IOpt=  2 FromEx=T IUOpen= 4 IOptOp= 5 NList=   0 IFRang= 0 IUIn= 4 IUOut= 2.
 -------------------------------------------------------
 # WB97XD/6-311G SCF=XQC FORCE nosym pop=full guess=read
 -------------------------------------------------------
 1/10=7,30=1,38=1/1,3;
 2/12=2,15=1,17=6,18=5,40=1/2;
 3/5=4,6=6,11=2,25=1,30=1,71=1,74=-58,116=-2/1,2,3;
 4/5=1/1;
 5/5=2,8=3,13=1,38=6/2,8;
 6/7=3,28=1/1;
 7/29=1,30=1/1,2,3,16;
 1/10=7,30=1/3;
 99//99;
 -----------
 MD Step 999
 -----------
 Symbolic Z-matrix:
 Charge =  0 Multiplicity = 1
 C                    -0.33596  -0.58095   0.00629 
 H                     0.21769  -1.52985  -0.02214 
 H                    -1.42265  -0.59141  -0.02333 
 C                     0.33252   0.57692   0.00481 
 H                    -0.15775   1.56299  -0.02509 
 H                     1.44165   0.64416  -0.02386 
 

 GradGradGradGradGradGradGradGradGradGradGradGradGradGradGradGradGradGrad
 Berny optimization.
 Initialization pass.
 Trust Radius=3.00D-01 FncErr=1.00D-07 GrdErr=1.00D-07 EigMax=2.50D+02 EigMin=1.00D-04
 Number of steps in this run=      2 maximum allowed number of steps=      2.
 GradGradGradGradGradGradGradGradGradGradGradGradGradGradGradGradGradGrad

                          Input orientation:                          
 ---------------------------------------------------------------------
 Center     Atomic      Atomic             Coordinates (Angstroms)
 Number     Number       Type             X           Y           Z
 ---------------------------------------------------------------------
      1          6           0       -0.335963   -0.580947    0.006294
      2          1           0        0.217694   -1.529851   -0.022141
      3          1           0       -1.422654   -0.591408   -0.023333
      4          6           0        0.332519    0.576921    0.004810
      5          1           0       -0.157745    1.562988   -0.025086
      6          1           0        1.441650    0.644155   -0.023857
 ---------------------------------------------------------------------
                    Distance matrix (angstroms):
                    1          2          3          4          5
     1  C    0.000000
     2  H    1.098983   0.000000
     3  H    1.087144   1.889819   0.000000
     4  C    1.336985   2.110070   2.108652   0.000000
     5  H    2.151559   3.115544   2.498283   1.101626   0.000000
     6  H    2.159096   2.494870   3.119431   1.111537   1.844537
                    6
     6  H    0.000000
 Symmetry turned off by external request.
 Stoichiometry    C2H4
 Framework group  C1[X(C2H4)]
 Deg. of freedom    12
 Full point group                 C1      NOp   1
 Rotational constants (GHZ):         143.6868469          29.7061470          24.6238376
 Standard basis: 6-311G (5D, 7F)
    38 basis functions,    72 primitive gaussians,    38 cartesian basis functions
     8 alpha electrons        8 beta electrons
       nuclear repulsion energy        33.0840515269 Hartrees.
 NAtoms=    6 NActive=    6 NUniq=    6 SFac= 1.00D+00 NAtFMM=   60 NAOKFM=F Big=F
 Integral buffers will be    131072 words long.
 Raffenetti 2 integral format.
 Two-electron integral symmetry is turned off.
 Nuclear repulsion after empirical dispersion term =       33.0832116277 Hartrees.
 One-electron integrals computed using PRISM.
 NBasis=    38 RedAO= T EigKep=  6.41D-03  NBF=    38
 NBsUse=    38 1.00D-06 EigRej= -1.00D+00 NBFU=    38
 Initial guess from the checkpoint file:  "geometry.chk"
 B after Tr=    -0.000267   -0.000366   -0.000421
         Rot=    1.000000   -0.000000    0.000001    0.000004 Ang=  -0.00 deg.
 Keep R1 ints in memory in canonical form, NReq=4036876.
 Requested convergence on RMS density matrix=1.00D-08 within  32 cycles.
 Requested convergence on MAX density matrix=1.00D-06.
 Requested convergence on             energy=1.00D-06.
 No special actions if energy rises.
 SCF Done:  E(RwB97XD) =  -78.5558897495     A.U. after    8 cycles
            NFock=  8  Conv=0.54D-08     -V/T= 2.0051
 QCSCF skips out because SCF is already converged.

 **********************************************************************

            Population analysis using the SCF Density.

 **********************************************************************

 Alpha  occ. eigenvalues --  -10.28986 -10.28812  -0.86399  -0.67240  -0.55914
 Alpha  occ. eigenvalues --   -0.50987  -0.43628  -0.35705
 Alpha virt. eigenvalues --    0.08005   0.14108   0.16470   0.17013   0.24093
 Alpha virt. eigenvalues --    0.37458   0.39290   0.39916   0.46402   0.48843
 Alpha virt. eigenvalues --    0.49368   0.59118   0.66556   0.69109   0.77317
 Alpha virt. eigenvalues --    0.77561   0.84225   0.95306   2.23161   2.28977
 Alpha virt. eigenvalues --    2.33305   2.40693   2.67142   2.81768   2.87874
 Alpha virt. eigenvalues --    2.95146   3.14180   3.31892  23.35223  23.70684
     Molecular Orbital Coefficients:
                           1         2         3         4         5
                           O         O         O         O         O
     Eigenvalues --   -10.28986 -10.28812  -0.86399  -0.67240  -0.55914
   1 1   C  1S          0.14822   0.54355  -0.08830   0.06690  -0.00029
   2        2S          0.12219   0.44730  -0.13955   0.10715  -0.00047
   3        2PX         0.00016  -0.00003   0.02616   0.03627   0.13763
   4        2PY         0.00028  -0.00004   0.04656   0.05971  -0.07281
   5        2PZ        -0.00000  -0.00001  -0.00119   0.00179   0.00024
   6        3S          0.00299   0.01432   0.37429  -0.29237   0.00129
   7        3PX        -0.00057   0.00048   0.03452   0.05826   0.21558
   8        3PY        -0.00097   0.00086   0.06100   0.09698  -0.11502
   9        3PZ        -0.00001  -0.00003  -0.00199   0.00319   0.00036
  10        4S          0.00203  -0.01491   0.19154  -0.22673   0.00046
  11        4PX         0.00136  -0.00168   0.00488   0.02345   0.11192
  12        4PY         0.00233  -0.00287   0.00865   0.04014  -0.06053
  13        4PZ         0.00001   0.00007  -0.00070   0.00160   0.00018
  14 2   H  1S         -0.00005  -0.00005   0.05223  -0.08729   0.10137
  15        2S         -0.00029   0.00013   0.05352  -0.10528   0.12852
  16        3S          0.00096   0.00160  -0.00171  -0.01514   0.04159
  17 3   H  1S         -0.00006  -0.00006   0.05349  -0.09084  -0.10513
  18        2S         -0.00029   0.00011   0.05432  -0.10865  -0.13226
  19        3S          0.00099   0.00162  -0.00177  -0.01600  -0.04271
  20 4   C  1S          0.54352  -0.14841  -0.08703  -0.06820  -0.00019
  21        2S          0.44738  -0.12195  -0.13742  -0.10937  -0.00029
  22        2PX        -0.00003  -0.00016  -0.02759   0.03757   0.11821
  23        2PY        -0.00005  -0.00028  -0.04666   0.06734  -0.07477
  24        2PZ        -0.00000   0.00000  -0.00096  -0.00186   0.00024
  25        3S          0.01373  -0.00467   0.36812   0.29880   0.00075
  26        3PX        -0.00015   0.00074  -0.03455   0.06097   0.18515
  27        3PY        -0.00023   0.00128  -0.05845   0.10856  -0.11596
  28        3PZ        -0.00003  -0.00000  -0.00165  -0.00334   0.00036
  29        4S         -0.01154   0.00942   0.18885   0.23679  -0.00045
  30        4PX         0.00071  -0.00197  -0.00530   0.02650   0.10152
  31        4PY         0.00120  -0.00346  -0.00901   0.04603  -0.06290
  32        4PZ         0.00006  -0.00002  -0.00068  -0.00172   0.00018
  33 5   H  1S         -0.00007  -0.00003   0.05014   0.09407  -0.09064
  34        2S         -0.00005  -0.00031   0.05120   0.11195  -0.11415
  35        3S          0.00182   0.00000  -0.00111   0.01684  -0.03666
  36 6   H  1S         -0.00006  -0.00003   0.04899   0.09171   0.08595
  37        2S         -0.00005  -0.00032   0.05049   0.10985   0.10888
  38        3S          0.00178  -0.00001  -0.00115   0.01624   0.03533
                           6         7         8         9        10
                           O         O         O         V         V
     Eigenvalues --    -0.50987  -0.43628  -0.35705   0.08005   0.14108
   1 1   C  1S         -0.00361   0.00024  -0.00092   0.00250  -0.03355
   2        2S         -0.00539   0.00041  -0.00150   0.00415  -0.05382
   3        2PX         0.09371  -0.11134  -0.00312   0.00141  -0.03100
   4        2PY         0.16870   0.06592  -0.00525   0.00228  -0.06504
   5        2PZ         0.00466  -0.00003   0.17944  -0.18901  -0.00238
   6        3S          0.02053  -0.00102   0.00439  -0.01254   0.11712
   7        3PX         0.13593  -0.17782  -0.00440   0.00212  -0.03623
   8        3PY         0.24650   0.10568  -0.00739   0.00341  -0.08031
   9        3PZ         0.00739  -0.00002   0.28846  -0.27793  -0.00376
  10        4S         -0.05355  -0.00337   0.00632  -0.01452   1.22633
  11        4PX         0.06835  -0.11077  -0.00362   0.01180  -0.19112
  12        4PY         0.12523   0.06672  -0.00609   0.01943  -0.38763
  13        4PZ         0.00421   0.00003   0.26684  -0.69600  -0.01385
  14 2   H  1S         -0.08128  -0.11544   0.00013   0.00389  -0.01722
  15        2S         -0.11250  -0.17854   0.00184   0.00617  -0.04803
  16        3S         -0.04200  -0.08271   0.00108   0.01634  -0.84141
  17 3   H  1S         -0.07886   0.11299   0.00008   0.00391  -0.01303
  18        2S         -0.10848   0.17400   0.00178   0.00631  -0.03765
  19        3S         -0.04014   0.08047   0.00105   0.01621  -0.77019
  20 4   C  1S         -0.00845  -0.00049  -0.00072  -0.00238  -0.03600
  21        2S         -0.01323  -0.00083  -0.00118  -0.00395  -0.05780
  22        2PX        -0.09866   0.12449   0.00300   0.00147   0.04136
  23        2PY        -0.16182  -0.07335   0.00553   0.00274   0.06077
  24        2PZ         0.00486   0.00020   0.17918   0.18936  -0.00260
  25        3S          0.04263   0.00236   0.00349   0.01187   0.12743
  26        3PX        -0.14602   0.19922   0.00419   0.00226   0.05102
  27        3PY        -0.23769  -0.11669   0.00776   0.00421   0.07202
  28        3PZ         0.00768   0.00030   0.28693   0.27782  -0.00397
  29        4S         -0.02887   0.00327   0.00594   0.01309   1.24141
  30        4PX        -0.07625   0.12753   0.00319   0.01155   0.26723
  31        4PY        -0.12268  -0.07368   0.00606   0.02099   0.41074
  32        4PZ         0.00443   0.00017   0.26716   0.69702  -0.01548
  33 5   H  1S         -0.07429  -0.12435   0.00022  -0.00362  -0.01156
  34        2S         -0.10117  -0.19363   0.00195  -0.00601  -0.03670
  35        3S         -0.03764  -0.09103   0.00110  -0.01570  -0.81594
  36 6   H  1S         -0.08009   0.12432   0.00016  -0.00362  -0.01561
  37        2S         -0.10959   0.19454   0.00186  -0.00600  -0.04675
  38        3S         -0.04102   0.09147   0.00104  -0.01592  -0.88752
                          11        12        13        14        15
                           V         V         V         V         V
     Eigenvalues --     0.16470   0.17013   0.24093   0.37458   0.39290
   1 1   C  1S          0.00159  -0.04529   0.00000   0.01001   0.00136
   2        2S          0.00257  -0.07381   0.00000   0.01382   0.00226
   3        2PX         0.09802  -0.01929   0.09982  -0.03601  -0.02479
   4        2PY        -0.05321  -0.03758  -0.05722  -0.06608   0.00854
   5        2PZ         0.00020  -0.00608   0.00004  -0.00432  -0.00018
   6        3S         -0.00555   0.16687   0.00024   0.03198  -0.00356
   7        3PX         0.14021  -0.01054   0.10588  -0.04576  -0.10901
   8        3PY        -0.07752  -0.02502  -0.06162  -0.08862   0.04435
   9        3PZ         0.00028  -0.00843  -0.00001  -0.00883  -0.00022
  10        4S         -0.06833   1.42703  -0.01193  -2.65583  -0.22697
  11        4PX         0.58455  -0.11469   1.16746  -1.57186  -0.53794
  12        4PY        -0.30859  -0.20838  -0.66362  -2.74498   0.13875
  13        4PZ         0.00134  -0.03972   0.00095  -0.03908  -0.00226
  14 2   H  1S         -0.02929  -0.02565   0.01311  -0.05724   0.07639
  15        2S         -0.08016  -0.01817  -0.02412  -0.65808   0.78130
  16        3S         -1.01765  -1.00627  -1.54166  -0.31454  -0.34097
  17 3   H  1S          0.02917  -0.02488  -0.01522  -0.05006  -0.07617
  18        2S          0.07992  -0.02081   0.01860  -0.60258  -0.75683
  19        3S          1.10709  -0.99995   1.56531  -0.38824   0.25793
  20 4   C  1S          0.00113   0.04256  -0.00005  -0.01998  -0.00000
  21        2S          0.00180   0.06929  -0.00011  -0.03277   0.00025
  22        2PX         0.10059  -0.02269  -0.10043  -0.04114  -0.03080
  23        2PY        -0.06121  -0.03804   0.05754  -0.07276   0.01331
  24        2PZ         0.00015   0.00589  -0.00004   0.00308   0.00035
  25        3S         -0.00347  -0.15391   0.00033   0.04187  -0.00639
  26        3PX         0.14473  -0.01750  -0.11377  -0.09323  -0.10714
  27        3PY        -0.08701  -0.02768   0.06399  -0.16753   0.06009
  28        3PZ         0.00022   0.00810  -0.00001   0.00370   0.00071
  29        4S         -0.05786  -1.34705   0.00755   3.34406   0.17506
  30        4PX         0.53533  -0.11489  -1.12493  -1.19143  -0.58019
  31        4PY        -0.33273  -0.20450   0.65603  -2.08923   0.06422
  32        4PZ         0.00097   0.03842  -0.00098   0.03230   0.00272
  33 5   H  1S          0.03113   0.02465   0.00671   0.00965  -0.07968
  34        2S          0.06872   0.02234  -0.03264   0.06186  -0.77477
  35        3S          1.07901   0.95399  -1.53096   0.45883   0.46962
  36 6   H  1S         -0.03163   0.02507  -0.00515   0.00527   0.08813
  37        2S         -0.06956   0.01933   0.03423   0.02100   0.90116
  38        3S         -1.00259   0.94323   1.51533   0.46823  -0.44470
                          16        17        18        19        20
                           V         V         V         V         V
     Eigenvalues --     0.39916   0.46402   0.48843   0.49368   0.59118
   1 1   C  1S         -0.01831   0.01133   0.04694  -0.00044  -0.00050
   2        2S         -0.03224   0.02704   0.07874  -0.00050  -0.00091
   3        2PX         0.02588  -0.06060  -0.01329   0.00125   0.00190
   4        2PY         0.04910  -0.10596  -0.01808   0.00175   0.00285
   5        2PZ         0.00020  -0.00056  -0.00500  -0.15182  -0.19256
   6        3S          0.07703  -0.33500  -0.10286  -0.00793  -0.00041
   7        3PX         0.09940  -0.23985   0.02775   0.00081   0.00640
   8        3PY         0.19384  -0.41725   0.05768   0.00006   0.00961
   9        3PZ        -0.00356  -0.00431  -0.02256  -0.62823  -0.68489
  10        4S          2.64101   0.19160  -3.11528   0.09111   0.06261
  11        4PX         0.21157   0.24963  -0.80890   0.02867   0.01902
  12        4PY         0.42764   0.45977  -1.39388   0.05128   0.03460
  13        4PZ        -0.00199  -0.00012   0.08206   0.68580   1.24091
  14 2   H  1S         -0.02466  -0.03624   0.07545  -0.00255  -0.00152
  15        2S         -0.52025  -0.35031   0.90395  -0.02478  -0.01078
  16        3S          0.29577   0.08796  -0.64014   0.02939   0.02123
  17 3   H  1S         -0.03543  -0.03797   0.07357  -0.00249  -0.00147
  18        2S         -0.62107  -0.36895   0.87529  -0.02416  -0.00998
  19        3S          0.32247   0.08746  -0.61154   0.02857   0.02077
  20 4   C  1S         -0.00101  -0.00151  -0.05082   0.00290   0.00063
  21        2S         -0.00526   0.00516  -0.08822   0.00522   0.00117
  22        2PX         0.00753   0.05587  -0.02609   0.00014   0.00180
  23        2PY         0.01629   0.09558  -0.04737   0.00009   0.00352
  24        2PZ        -0.00330  -0.00157  -0.00515  -0.15254   0.19235
  25        3S          0.08029  -0.29166   0.22282  -0.01956  -0.00211
  26        3PX        -0.04750   0.23705  -0.04977   0.00019   0.00631
  27        3PY        -0.06615   0.41029  -0.08771  -0.00054   0.01224
  28        3PZ        -0.00945  -0.00654  -0.01913  -0.63095   0.68286
  29        4S         -0.82160   0.71048   3.12538  -0.11173  -0.05628
  30        4PX         1.22546  -0.32868  -0.62414   0.01610   0.02018
  31        4PY         2.23567  -0.54967  -1.06689   0.02747   0.03300
  32        4PZ        -0.02920  -0.01371  -0.03106   0.69349  -1.23841
  33 5   H  1S         -0.04909  -0.06227  -0.06551   0.00239   0.00143
  34        2S         -0.86210  -0.63626  -0.82310   0.03516   0.00604
  35        3S         -0.18701   0.25109   0.55169  -0.01090  -0.02061
  36 6   H  1S         -0.03827  -0.06157  -0.06530   0.00240   0.00145
  37        2S         -0.73925  -0.62684  -0.81947   0.03479   0.00617
  38        3S         -0.22037   0.26937   0.56964  -0.01194  -0.02084
                          21        22        23        24        25
                           V         V         V         V         V
     Eigenvalues --     0.66556   0.69109   0.77317   0.77561   0.84225
   1 1   C  1S          0.00089  -0.00048   0.05855   0.06729   0.00089
   2        2S          0.00185  -0.00107   0.12377   0.14352   0.00208
   3        2PX        -0.13472   0.19628  -0.01380   0.11604  -0.00821
   4        2PY         0.07839  -0.11798  -0.02381   0.18884   0.01452
   5        2PZ        -0.00009   0.00017   0.00105   0.00434   0.00013
   6        3S         -0.01494   0.01418  -0.86637  -1.26296  -0.02471
   7        3PX        -0.62354   0.68489  -0.12944   0.46263  -0.22337
   8        3PY         0.35902  -0.41256  -0.22306   0.74251   0.16848
   9        3PZ        -0.00049   0.00064   0.00383   0.01516   0.00038
  10        4S          0.02281  -0.05760   0.97461   2.39061   0.01903
  11        4PX         1.09995  -0.75940   0.10472  -0.78110   4.50336
  12        4PY        -0.63441   0.47391   0.08945  -1.00843  -2.55685
  13        4PZ         0.00056   0.00102   0.00299  -0.05085   0.00435
  14 2   H  1S          0.02415  -0.05860   0.01382   0.03132  -0.02632
  15        2S          0.13890  -0.63075   0.07734   0.08639  -1.55803
  16        3S         -1.05146   1.09418  -0.21754  -1.07595  -1.22364
  17 3   H  1S         -0.02329   0.05808   0.01391   0.03193   0.03004
  18        2S         -0.15258   0.65993   0.10947   0.04247   1.59740
  19        3S          1.04187  -1.05233  -0.20435  -1.23213   1.21965
  20 4   C  1S          0.00109  -0.00018   0.08718   0.02175   0.00045
  21        2S          0.00224  -0.00031   0.18548   0.04555   0.00082
  22        2PX        -0.14931  -0.18731  -0.08973   0.06192   0.01201
  23        2PY         0.08560   0.10367  -0.16298   0.11396   0.00207
  24        2PZ        -0.00009  -0.00018   0.00443  -0.00141  -0.00015
  25        3S         -0.01674  -0.00364  -1.52924  -0.20911   0.00027
  26        3PX        -0.67608  -0.63585  -0.31722   0.31202   0.24250
  27        3PY         0.39073   0.34926  -0.58359   0.57390  -0.09654
  28        3PZ        -0.00051  -0.00062   0.01563  -0.00524  -0.00037
  29        4S          0.01490   0.03903   2.68422  -0.19124  -0.03445
  30        4PX         1.26940   0.75497   0.46794  -0.27505  -4.17802
  31        4PY        -0.73056  -0.40093   0.95009  -0.77513   2.40246
  32        4PZ         0.00091  -0.00085  -0.04401   0.02786  -0.00381
  33 5   H  1S         -0.02473  -0.05541   0.03466  -0.00077  -0.02397
  34        2S         -0.14210  -0.57194   0.08214   0.07515  -1.42237
  35        3S          1.10869   0.98650  -1.13854   0.42472  -1.10326
  36 6   H  1S          0.02548   0.05555   0.03420  -0.00026   0.02310
  37        2S          0.13456   0.54242   0.08560   0.00954   1.40375
  38        3S         -1.11219  -1.01530  -1.05651   0.33167   1.11737
                          26        27        28        29        30
                           V         V         V         V         V
     Eigenvalues --     0.95306   2.23161   2.28977   2.33305   2.40693
   1 1   C  1S          0.09573  -0.01010  -0.01436   0.00036  -0.00046
   2        2S          0.19893   0.00155  -0.01432   0.00077  -0.00058
   3        2PX        -0.09177  -0.08016  -0.13268   0.34518  -0.40865
   4        2PY        -0.15894  -0.15068  -0.23208  -0.19605   0.22955
   5        2PZ         0.00015  -0.01229  -0.01668   0.00011  -0.00073
   6        3S         -1.54038  -0.18520  -0.03566  -0.00092  -0.00424
   7        3PX        -0.23579   0.07795   0.20956  -0.41509   0.57071
   8        3PY        -0.40073   0.15963   0.37995   0.23809  -0.32186
   9        3PZ        -0.00232   0.01238   0.02081  -0.00003   0.00084
  10        4S          5.71400  -0.10846  -0.88687  -0.00071  -0.01026
  11        4PX         1.20888   0.05121  -0.18567  -0.04516   0.97452
  12        4PY         1.98836   0.06864  -0.35820   0.01605  -0.53368
  13        4PZ        -0.01675   0.00282   0.00741  -0.00023   0.00162
  14 2   H  1S          0.01552  -0.71100  -0.79094  -0.70898   0.65084
  15        2S         -0.29267   1.01156   1.18453   1.09157  -1.45250
  16        3S         -0.09346  -0.30443  -0.47439  -0.47320   0.37034
  17 3   H  1S          0.01596  -0.70167  -0.78924   0.70081  -0.67164
  18        2S         -0.26026   0.99889   1.18840  -1.08265   1.49642
  19        3S         -0.07023  -0.28336  -0.45626   0.46238  -0.36129
  20 4   C  1S         -0.09401  -0.01057   0.01238   0.00049   0.00031
  21        2S         -0.19503  -0.00013   0.01259   0.00067   0.00060
  22        2PX        -0.09271   0.13351  -0.12581   0.30400   0.41608
  23        2PY        -0.16012   0.23133  -0.20876  -0.17695  -0.24128
  24        2PZ         0.00028  -0.01319   0.01583   0.00040   0.00038
  25        3S          1.50651  -0.16852   0.01728   0.00057  -0.00004
  26        3PX        -0.22902  -0.16970   0.21543  -0.37804  -0.58231
  27        3PY        -0.40162  -0.28837   0.35127   0.21742   0.33849
  28        3PZ         0.00327   0.01408  -0.02020  -0.00042  -0.00051
  29        4S         -5.69396  -0.17365   0.89139   0.01628  -0.00252
  30        4PX         1.10226  -0.01572  -0.20264   0.10475  -0.85784
  31        4PY         1.99543  -0.03725  -0.31624  -0.05894   0.51029
  32        4PZ         0.01140   0.00423  -0.00597  -0.00009  -0.00144
  33 5   H  1S         -0.01783  -0.78707   0.67704   0.70420   0.68829
  34        2S          0.28704   1.14364  -1.03598  -1.02362  -1.46521
  35        3S          0.05584  -0.35138   0.39925   0.50677   0.42400
  36 6   H  1S         -0.01776  -0.78235   0.69896  -0.68920  -0.68622
  37        2S          0.31357   1.13435  -1.06125   0.99851   1.45319
  38        3S          0.07013  -0.35447   0.42914  -0.50291  -0.43342
                          31        32        33        34        35
                           V         V         V         V         V
     Eigenvalues --     2.67142   2.81768   2.87874   2.95146   3.14180
   1 1   C  1S          0.00046   0.00229  -0.01334   0.00001  -0.00949
   2        2S          0.00038   0.00667  -0.04441  -0.00029  -0.02932
   3        2PX         0.00507   0.06568  -0.46628  -0.73118   0.45340
   4        2PY         0.00760   0.11597  -0.84861   0.41234   0.78605
   5        2PZ        -0.92455  -0.93145  -0.12675  -0.00122   0.00629
   6        3S         -0.00164  -0.05541   0.39134   0.00457   0.24775
   7        3PX        -0.00402  -0.11421   0.83044   0.88004  -0.43979
   8        3PY        -0.00595  -0.19983   1.48132  -0.48221  -0.75853
   9        3PZ         0.93954   1.13900   0.15913   0.00165  -0.00809
  10        4S          0.01236   0.12839  -0.88024  -0.01216  -0.48447
  11        4PX        -0.00151   0.09183  -0.71252  -0.66965   0.22605
  12        4PY        -0.00204   0.16158  -1.27186   0.35554   0.38209
  13        4PZ        -0.33815  -0.61702  -0.10096  -0.00131   0.00498
  14 2   H  1S          0.01098  -0.01833   0.26607  -0.37792  -0.21407
  15        2S         -0.01260   0.01174  -0.22360   0.39056   0.16178
  16        3S         -0.00254   0.03718  -0.29907   0.27047   0.05883
  17 3   H  1S          0.01117  -0.01786   0.25614   0.37845  -0.21796
  18        2S         -0.01303   0.01040  -0.20624  -0.38716   0.16542
  19        3S         -0.00295   0.03728  -0.29853  -0.28720   0.07019
  20 4   C  1S          0.00046  -0.00223   0.01349   0.00052  -0.00741
  21        2S          0.00042  -0.00696   0.04774   0.00120  -0.02314
  22        2PX        -0.00630   0.05913  -0.41283  -0.80521  -0.50010
  23        2PY        -0.01187   0.10505  -0.72922   0.44313  -0.89050
  24        2PZ        -0.92496   0.93060   0.12896   0.00025   0.01170
  25        3S         -0.00230   0.05991  -0.43080  -0.00884   0.19918
  26        3PX         0.00639  -0.10761   0.77611   0.96048   0.53414
  27        3PY         0.01183  -0.18993   1.36482  -0.52193   0.96083
  28        3PZ         0.94023  -1.13805  -0.16257  -0.00030  -0.01478
  29        4S          0.01363  -0.13024   0.90369   0.02634  -0.37911
  30        4PX        -0.00034   0.09177  -0.71342  -0.69748  -0.32359
  31        4PY        -0.00128   0.16027  -1.24370   0.37554  -0.58784
  32        4PZ        -0.33850   0.61630   0.10389   0.00015   0.01152
  33 5   H  1S          0.01044   0.02486  -0.29444   0.41474  -0.26497
  34        2S         -0.01281  -0.02005   0.26724  -0.42445   0.20786
  35        3S         -0.00141  -0.03486   0.28443  -0.24806   0.12668
  36 6   H  1S          0.01056   0.02491  -0.29070  -0.42750  -0.25066
  37        2S         -0.01329  -0.02081   0.26877   0.43673   0.19625
  38        3S         -0.00104  -0.03340   0.27089   0.24893   0.11610
                          36        37        38
                           V         V         V
     Eigenvalues --     3.31892  23.35223  23.70684
   1 1   C  1S         -0.00029  -1.41718  -1.44918
   2        2S         -0.00034   1.51141   1.56719
   3        2PX         0.78429  -0.00647   0.01211
   4        2PY        -0.43624  -0.01060   0.02123
   5        2PZ         0.00107  -0.00050  -0.00022
   6        3S         -0.00202  -0.29677  -0.39909
   7        3PX        -1.12151   0.02388  -0.05588
   8        3PY         0.61822   0.03970  -0.09718
   9        3PZ        -0.00163   0.00142   0.00066
  10        4S          0.00297   0.27550   0.76935
  11        4PX         1.96959  -0.02555   0.13404
  12        4PY        -1.08259  -0.04339   0.22965
  13        4PZ         0.00275  -0.00238  -0.00276
  14 2   H  1S          0.55717   0.01300   0.00690
  15        2S         -0.86752   0.00764  -0.01487
  16        3S         -0.45828  -0.08390  -0.03945
  17 3   H  1S         -0.56855   0.01471   0.00791
  18        2S          0.88399   0.00738  -0.01453
  19        3S          0.48543  -0.08609  -0.03915
  20 4   C  1S          0.00007  -1.44437   1.42195
  21        2S         -0.00021   1.54046  -1.53779
  22        2PX        -0.71085   0.00602   0.01259
  23        2PY         0.41057   0.01089   0.02145
  24        2PZ        -0.00090  -0.00050   0.00013
  25        3S          0.00526  -0.30218   0.39157
  26        3PX         1.01189  -0.02236  -0.05661
  27        3PY        -0.59424  -0.04001  -0.09739
  28        3PZ         0.00137   0.00143  -0.00032
  29        4S         -0.02316   0.27837  -0.76234
  30        4PX        -1.78051   0.02378   0.13080
  31        4PY         1.05627   0.04356   0.22778
  32        4PZ        -0.00239  -0.00231   0.00202
  33 5   H  1S          0.49020   0.01360  -0.00494
  34        2S         -0.76413   0.00802   0.01368
  35        3S         -0.43492  -0.08351   0.03723
  36 6   H  1S         -0.48398   0.01214  -0.00388
  37        2S          0.75657   0.00900   0.01357
  38        3S          0.42043  -0.08142   0.03711
     Density Matrix:
                           1         2         3         4         5
   1 1   C  1S          0.65940
   2        2S          0.56151   0.49200
   3        2PX        -0.00055  -0.00074   0.08426
   4        2PY        -0.00133  -0.00185   0.00370   0.08774
   5        2PZ         0.00008   0.00012  -0.00011  -0.00025   0.06445
   6        3S         -0.08892  -0.15382   0.00278   0.00649  -0.00017
   7        3PX         0.00087   0.00134   0.13047   0.00124  -0.00007
   8        3PY         0.00120   0.00185   0.00128   0.13119  -0.00022
   9        3PZ         0.00016   0.00026  -0.00018  -0.00039   0.10361
  10        4S         -0.07940  -0.11434  -0.01562  -0.02789   0.00051
  11        4PX         0.00025   0.00157   0.07026  -0.00455  -0.00053
  12        4PY         0.00058   0.00297  -0.00464   0.06553  -0.00093
  13        4PZ        -0.00010  -0.00024  -0.00075  -0.00128   0.09581
  14 2   H  1S         -0.02050  -0.03266   0.03478  -0.06297  -0.00109
  15        2S         -0.02283  -0.03651   0.04920  -0.08782  -0.00082
  16        3S          0.00054  -0.00076   0.02080  -0.03311  -0.00003
  17 3   H  1S         -0.02100  -0.03342  -0.07267  -0.00227  -0.00122
  18        2S         -0.02316  -0.03698  -0.10053  -0.00234  -0.00096
  19        3S          0.00058  -0.00070  -0.03846   0.00120  -0.00007
  20 4   C  1S          0.00609   0.00982  -0.01084  -0.01882  -0.00037
  21        2S          0.00979   0.01530  -0.01734  -0.03012  -0.00061
  22        2PX         0.01041   0.01665  -0.01241  -0.03220   0.00041
  23        2PY         0.01809   0.02893  -0.03217  -0.04974   0.00080
  24        2PZ        -0.00044  -0.00072  -0.00037  -0.00056   0.06434
  25        3S         -0.02635  -0.04000   0.04859   0.08452   0.00185
  26        3PX         0.01606   0.02489  -0.01818  -0.04595   0.00052
  27        3PY         0.02789   0.04323  -0.04571  -0.07126   0.00105
  28        3PZ        -0.00075  -0.00121  -0.00065  -0.00098   0.10304
  29        4S          0.00535   0.00394   0.02075   0.03655   0.00226
  30        4PX         0.00310   0.00639  -0.01312  -0.02106   0.00058
  31        4PY         0.00522   0.01088  -0.02107  -0.03735   0.00119
  32        4PZ        -0.00064  -0.00103  -0.00098  -0.00158   0.09591
  33 5   H  1S          0.00420   0.00690  -0.00174  -0.01236  -0.00043
  34        2S          0.00629   0.01045   0.00352  -0.02492  -0.00001
  35        3S          0.00324   0.00473   0.00428  -0.01747   0.00009
  36 6   H  1S          0.00415   0.00682  -0.00982  -0.00764  -0.00044
  37        2S          0.00623   0.01038  -0.02329  -0.00939  -0.00004
  38        3S          0.00321   0.00471  -0.01722  -0.00510   0.00006
                           6         7         8         9        10
   6        3S          0.45246
   7        3PX        -0.00175   0.20236
   8        3PY        -0.00148  -0.00459   0.19668
   9        3PZ        -0.00052  -0.00014  -0.00033   0.16656
  10        4S          0.27341  -0.02643  -0.04795   0.00065   0.18248
  11        4PX        -0.00681   0.10933  -0.01027  -0.00086  -0.01523
  12        4PY        -0.01227  -0.01046   0.09869  -0.00149  -0.02879
  13        4PZ         0.00106  -0.00100  -0.00168   0.15402   0.00193
  14 2   H  1S          0.08730   0.05610  -0.09835  -0.00182   0.06917
  15        2S          0.09772   0.07974  -0.13668  -0.00139   0.08163
  16        3S          0.00618   0.03404  -0.05092  -0.00005   0.01127
  17 3   H  1S          0.08941  -0.11384  -0.00191  -0.00199   0.06927
  18        2S          0.09906  -0.15733  -0.00075  -0.00159   0.08042
  19        3S          0.00617  -0.05994   0.00371  -0.00012   0.01026
  20 4   C  1S         -0.02661  -0.01691  -0.02937  -0.00064   0.00512
  21        2S         -0.04028  -0.02627  -0.04567  -0.00104   0.00381
  22        2PX        -0.04660  -0.01768  -0.04564   0.00070  -0.01773
  23        2PY        -0.08095  -0.04557  -0.07079   0.00136  -0.03057
  24        2PZ         0.00214  -0.00051  -0.00074   0.10344   0.00222
  25        3S          0.10257   0.07125   0.12413   0.00309   0.00119
  26        3PX        -0.06738  -0.02603  -0.06492   0.00091  -0.02639
  27        3PY        -0.11695  -0.06457  -0.10136   0.00181  -0.04542
  28        3PZ         0.00355  -0.00089  -0.00132   0.16564   0.00369
  29        4S          0.00196   0.03139   0.05548   0.00376  -0.03221
  30        4PX        -0.02261  -0.01962  -0.02955   0.00097  -0.00654
  31        4PY        -0.03875  -0.02958  -0.05386   0.00197  -0.01056
  32        4PZ         0.00302  -0.00138  -0.00219   0.15419   0.00342
  33 5   H  1S         -0.02050  -0.00063  -0.01770  -0.00063  -0.01473
  34        2S         -0.03118   0.00871  -0.03661   0.00007  -0.01908
  35        3S         -0.01211   0.00821  -0.02625   0.00017  -0.00343
  36 6   H  1S         -0.02027  -0.01486  -0.00922  -0.00064  -0.01500
  37        2S         -0.03104  -0.03577  -0.01052   0.00002  -0.01991
  38        3S         -0.01212  -0.02665  -0.00603   0.00012  -0.00398
                          11        12        13        14        15
  11        4PX         0.06011
  12        4PY        -0.00918   0.05107
  13        4PZ        -0.00126  -0.00210   0.14245
  14 2   H  1S          0.03357  -0.05414  -0.00094   0.08111
  15        2S          0.04851  -0.07511  -0.00034   0.10954   0.15000
  16        3S          0.02115  -0.02786   0.00019   0.03682   0.05268
  17 3   H  1S         -0.06308   0.00168  -0.00102  -0.01313  -0.02477
  18        2S         -0.08756   0.00425  -0.00042  -0.02471  -0.04302
  19        3S         -0.03365   0.00452   0.00017  -0.01810  -0.02750
  20 4   C  1S         -0.00315  -0.00575  -0.00057   0.00423   0.00672
  21        2S         -0.00652  -0.01175  -0.00091   0.00699   0.01122
  22        2PX        -0.01313  -0.01991   0.00098   0.00182  -0.00272
  23        2PY        -0.01994  -0.03673   0.00184   0.01145   0.02423
  24        2PZ        -0.00072  -0.00113   0.09566  -0.00052  -0.00016
  25        3S          0.02310   0.04131   0.00266  -0.02103  -0.03376
  26        3PX        -0.02016  -0.02816   0.00133   0.00103  -0.00721
  27        3PY        -0.02813  -0.05347   0.00253   0.01702   0.03626
  28        3PZ        -0.00118  -0.00187   0.15319  -0.00076  -0.00016
  29        4S          0.00807   0.01536   0.00342  -0.01776  -0.02440
  30        4PX        -0.01477  -0.01236   0.00120  -0.00165  -0.00842
  31        4PY        -0.01248  -0.02945   0.00233   0.01523   0.02711
  32        4PZ        -0.00141  -0.00229   0.14261  -0.00042   0.00026
  33 5   H  1S          0.00200  -0.01581  -0.00032   0.01123   0.02338
  34        2S          0.00925  -0.02751   0.00042   0.02382   0.04448
  35        3S          0.00759  -0.01581   0.00031   0.01665   0.02789
  36 6   H  1S         -0.01447  -0.00567  -0.00033  -0.00915  -0.01834
  37        2S         -0.02807  -0.00500   0.00040  -0.01893  -0.03454
  38        3S         -0.01721  -0.00107   0.00028  -0.01024  -0.01789
                          16        17        18        19        20
  16        3S          0.02114
  17 3   H  1S         -0.01824   0.08230
  18        2S         -0.02757   0.10979   0.14859
  19        3S         -0.01299   0.03621   0.05130   0.02035
  20 4   C  1S          0.00370   0.00430   0.00673   0.00370   0.65947
  21        2S          0.00547   0.00709   0.01120   0.00543   0.56158
  22        2PX        -0.00351   0.00906   0.02231   0.01676   0.00118
  23        2PY         0.01764   0.00744   0.00968   0.00559   0.00179
  24        2PZ         0.00003  -0.00051  -0.00011   0.00006   0.00008
  25        3S         -0.01420  -0.02125  -0.03356  -0.01395  -0.08925
  26        3PX        -0.00700   0.01435   0.03504   0.02615  -0.00049
  27        3PY         0.02656   0.00952   0.01172   0.00696  -0.00110
  28        3PZ         0.00006  -0.00075  -0.00009   0.00012   0.00016
  29        4S         -0.00595  -0.01743  -0.02339  -0.00534  -0.08003
  30        4PX        -0.00703   0.01412   0.02774   0.01715  -0.00022
  31        4PY         0.01590   0.00660   0.00665   0.00192  -0.00022
  32        4PZ         0.00025  -0.00042   0.00030   0.00027  -0.00004
  33 5   H  1S          0.01625  -0.00905  -0.01817  -0.00950  -0.02021
  34        2S          0.02747  -0.01866  -0.03400  -0.01705  -0.02220
  35        3S          0.01467  -0.01010  -0.01759  -0.00903   0.00061
  36 6   H  1S         -0.00963   0.01123   0.02330   0.01599  -0.01989
  37        2S         -0.01741   0.02380   0.04430   0.02712  -0.02211
  38        3S         -0.00923   0.01664   0.02773   0.01449   0.00051
                          21        22        23        24        25
  21        2S          0.49208
  22        2PX         0.00170   0.08278
  23        2PY         0.00255   0.00366   0.08780
  24        2PZ         0.00012   0.00014   0.00018   0.06427
  25        3S         -0.15425  -0.00548  -0.00833  -0.00015   0.45368
  26        3PX        -0.00074   0.12870   0.00183   0.00009  -0.00021
  27        3PY        -0.00167   0.00186   0.13155   0.00008   0.00088
  28        3PZ         0.00028   0.00020   0.00029   0.10291  -0.00056
  29        4S         -0.11557   0.01381   0.02326   0.00061   0.27774
  30        4PX        -0.00148   0.07310  -0.00511   0.00041   0.00625
  31        4PY        -0.00229  -0.00502   0.06703   0.00076   0.01008
  32        4PZ        -0.00013   0.00072   0.00130   0.09579   0.00072
  33 5   H  1S         -0.03219  -0.03343   0.06383  -0.00118   0.08608
  34        2S         -0.03547  -0.04964   0.08854  -0.00093   0.09490
  35        3S         -0.00059  -0.02257   0.03340  -0.00009   0.00561
  36 6   H  1S         -0.03170   0.07127   0.00261  -0.00107   0.08476
  37        2S         -0.03536   0.10128   0.00075  -0.00078   0.09457
  38        3S         -0.00073   0.04051  -0.00312  -0.00003   0.00590
                          26        27        28        29        30
  26        3PX         0.20045
  27        3PY        -0.00268   0.19765
  28        3PZ         0.00012   0.00012   0.16480
  29        4S          0.02546   0.04252   0.00076   0.18567
  30        4PX         0.11430  -0.01065   0.00065   0.01568   0.06626
  31        4PY        -0.01054   0.10124   0.00122   0.02504  -0.01027
  32        4PZ         0.00092   0.00167   0.15339   0.00185   0.00103
  33 5   H  1S         -0.05341   0.09993  -0.00195   0.06705  -0.03434
  34        2S         -0.07975   0.13811  -0.00155   0.07706  -0.05173
  35        3S         -0.03672   0.05144  -0.00014   0.00914  -0.02401
  36 6   H  1S          0.11255   0.00331  -0.00178   0.06729   0.06572
  37        2S          0.15976  -0.00058  -0.00132   0.07861   0.09374
  38        3S          0.06358  -0.00637  -0.00006   0.01016   0.03764
                          31        32        33        34        35
  31        4PY         0.05337
  32        4PZ         0.00195   0.14279
  33 5   H  1S          0.05572  -0.00101   0.08113
  34        2S          0.07713  -0.00042   0.11008   0.15183
  35        3S          0.02885   0.00015   0.03794   0.05490   0.02267
  36 6   H  1S         -0.00192  -0.00093  -0.01243  -0.02601  -0.01993
  37        2S         -0.00625  -0.00032  -0.02611  -0.04825  -0.03156
  38        3S         -0.00633   0.00018  -0.02012  -0.03167  -0.01560
                          36        37        38
  36 6   H  1S          0.08013
  37        2S          0.10974   0.15266
  38        3S          0.03825   0.05573   0.02313
    Full Mulliken population analysis:
                           1         2         3         4         5
   1 1   C  1S          0.65940
   2        2S          0.49325   0.49200
   3        2PX         0.00000   0.00000   0.08426
   4        2PY         0.00000   0.00000   0.00000   0.08774
   5        2PZ         0.00000   0.00000   0.00000   0.00000   0.06445
   6        3S         -0.02927  -0.06442   0.00000   0.00000   0.00000
   7        3PX         0.00000   0.00000   0.08208   0.00000   0.00000
   8        3PY         0.00000   0.00000   0.00000   0.08253   0.00000
   9        3PZ         0.00000   0.00000   0.00000   0.00000   0.06518
  10        4S         -0.01221  -0.02140   0.00000   0.00000   0.00000
  11        4PX         0.00000   0.00000   0.01547   0.00000   0.00000
  12        4PY         0.00000   0.00000   0.00000   0.01443   0.00000
  13        4PZ         0.00000   0.00000   0.00000   0.00000   0.02110
  14 2   H  1S         -0.00023  -0.00032   0.00179   0.00557   0.00000
  15        2S         -0.00166  -0.00317   0.00431   0.01318   0.00000
  16        3S          0.00004  -0.00007   0.00070   0.00191   0.00000
  17 3   H  1S         -0.00025  -0.00036   0.00783   0.00000   0.00000
  18        2S         -0.00173  -0.00331   0.01771   0.00000   0.00000
  19        3S          0.00005  -0.00007   0.00256  -0.00000   0.00000
  20 4   C  1S          0.00000   0.00000  -0.00002  -0.00006   0.00000
  21        2S          0.00000  -0.00000  -0.00002  -0.00006   0.00000
  22        2PX        -0.00002  -0.00002   0.00011   0.00086   0.00000
  23        2PY        -0.00006  -0.00005   0.00086   0.00198   0.00000
  24        2PZ        -0.00000  -0.00000  -0.00000  -0.00000   0.00042
  25        3S         -0.00059  -0.00100   0.00254   0.00766  -0.00000
  26        3PX        -0.00054  -0.00100   0.00019   0.00557   0.00000
  27        3PY        -0.00164  -0.00301   0.00554   0.01071   0.00000
  28        3PZ        -0.00000  -0.00000  -0.00000  -0.00000   0.00614
  29        4S          0.00034   0.00030   0.00094   0.00287  -0.00000
  30        4PX        -0.00018  -0.00045  -0.00071   0.00146   0.00000
  31        4PY        -0.00053  -0.00134   0.00146   0.00096   0.00000
  32        4PZ        -0.00000  -0.00000  -0.00000  -0.00000   0.00904
  33 5   H  1S          0.00000   0.00000  -0.00000  -0.00000   0.00000
  34        2S          0.00001   0.00002   0.00000  -0.00032   0.00000
  35        3S          0.00008   0.00013   0.00001  -0.00070  -0.00000
  36 6   H  1S          0.00000   0.00000  -0.00000  -0.00000   0.00000
  37        2S          0.00001   0.00002  -0.00024  -0.00007   0.00000
  38        3S          0.00007   0.00013  -0.00057  -0.00012  -0.00000
                           6         7         8         9        10
   6        3S          0.45246
   7        3PX         0.00000   0.20236
   8        3PY         0.00000   0.00000   0.19668
   9        3PZ         0.00000   0.00000   0.00000   0.16656
  10        4S          0.21181   0.00000   0.00000   0.00000   0.18248
  11        4PX         0.00000   0.07144   0.00000   0.00000   0.00000
  12        4PY         0.00000   0.00000   0.06449   0.00000   0.00000
  13        4PZ         0.00000   0.00000   0.00000   0.10065   0.00000
  14 2   H  1S          0.01594   0.01073   0.03224   0.00002   0.01826
  15        2S          0.04100   0.01960   0.05757   0.00002   0.04698
  16        3S          0.00284   0.00399   0.01024   0.00000   0.00850
  17 3   H  1S          0.01686   0.04414   0.00001   0.00002   0.01850
  18        2S          0.04232   0.07727   0.00000   0.00002   0.04671
  19        3S          0.00286   0.01391  -0.00001   0.00000   0.00778
  20 4   C  1S         -0.00060  -0.00057  -0.00173   0.00000   0.00032
  21        2S         -0.00101  -0.00106  -0.00318   0.00000   0.00029
  22        2PX         0.00244   0.00018   0.00553   0.00000   0.00080
  23        2PY         0.00734   0.00552   0.01064   0.00000   0.00240
  24        2PZ         0.00000  -0.00000  -0.00000   0.00616   0.00000
  25        3S          0.02192   0.01338   0.04036  -0.00000   0.00045
  26        3PX         0.01265  -0.00127   0.01854   0.00000   0.00407
  27        3PY         0.03803   0.01844   0.02848   0.00000   0.01213
  28        3PZ         0.00000  -0.00000  -0.00000   0.03540   0.00000
  29        4S          0.00075   0.00484   0.01482  -0.00000  -0.02024
  30        4PX         0.00635  -0.00403   0.00585   0.00000   0.00198
  31        4PY         0.01886   0.00585   0.00123   0.00000   0.00554
  32        4PZ         0.00000  -0.00000  -0.00000   0.04933   0.00000
  33 5   H  1S         -0.00006  -0.00000  -0.00019   0.00000  -0.00079
  34        2S         -0.00121   0.00006  -0.00323  -0.00000  -0.00321
  35        3S         -0.00198   0.00011  -0.00424  -0.00000  -0.00124
  36 6   H  1S         -0.00005  -0.00013  -0.00005   0.00000  -0.00079
  37        2S         -0.00118  -0.00256  -0.00052  -0.00000  -0.00331
  38        3S         -0.00196  -0.00353  -0.00055  -0.00000  -0.00143
                          11        12        13        14        15
  11        4PX         0.06011
  12        4PY         0.00000   0.05107
  13        4PZ         0.00000   0.00000   0.14245
  14 2   H  1S          0.00633   0.01750   0.00001   0.08111
  15        2S          0.01541   0.04088   0.00001   0.07737   0.15000
  16        3S          0.00527   0.01189  -0.00000   0.01376   0.04157
  17 3   H  1S          0.02363  -0.00001   0.00001  -0.00001  -0.00065
  18        2S          0.05509  -0.00003   0.00001  -0.00065  -0.00539
  19        3S          0.01654  -0.00002  -0.00000  -0.00202  -0.00801
  20 4   C  1S         -0.00018  -0.00058   0.00000   0.00000   0.00002
  21        2S         -0.00046  -0.00145   0.00000   0.00000   0.00003
  22        2PX        -0.00071   0.00138   0.00000  -0.00000   0.00000
  23        2PY         0.00138   0.00095   0.00000  -0.00000  -0.00036
  24        2PZ        -0.00000  -0.00000   0.00901   0.00000   0.00000
  25        3S          0.00649   0.02011  -0.00000  -0.00007  -0.00148
  26        3PX        -0.00415   0.00557   0.00000  -0.00000   0.00004
  27        3PY         0.00557   0.00122   0.00000  -0.00022  -0.00356
  28        3PZ        -0.00000  -0.00000   0.04901   0.00000   0.00000
  29        4S          0.00244   0.00806  -0.00000  -0.00104  -0.00438
  30        4PX        -0.00713   0.00312   0.00000   0.00001   0.00017
  31        4PY         0.00316  -0.00561   0.00000  -0.00241  -0.01021
  32        4PZ        -0.00000  -0.00000   0.08961   0.00000  -0.00000
  33 5   H  1S          0.00002  -0.00235   0.00000   0.00000   0.00000
  34        2S          0.00028  -0.00989  -0.00000   0.00000   0.00016
  35        3S          0.00029  -0.00730  -0.00000   0.00023   0.00147
  36 6   H  1S         -0.00176  -0.00047   0.00000  -0.00000  -0.00004
  37        2S         -0.00827  -0.00102  -0.00000  -0.00004  -0.00092
  38        3S         -0.00655  -0.00028  -0.00000  -0.00046  -0.00249
                          16        17        18        19        20
  16        3S          0.02114
  17 3   H  1S         -0.00203   0.08230
  18        2S         -0.00803   0.07755   0.14859
  19        3S         -0.00675   0.01353   0.04047   0.02035
  20 4   C  1S          0.00009   0.00000   0.00002   0.00009   0.65947
  21        2S          0.00016   0.00000   0.00003   0.00016   0.49331
  22        2PX         0.00001  -0.00000  -0.00028  -0.00059   0.00000
  23        2PY        -0.00074  -0.00000  -0.00008  -0.00013   0.00000
  24        2PZ        -0.00000   0.00000   0.00000  -0.00000   0.00000
  25        3S         -0.00245  -0.00007  -0.00148  -0.00241  -0.02938
  26        3PX         0.00006  -0.00016  -0.00287  -0.00365   0.00000
  27        3PY        -0.00444  -0.00007  -0.00064  -0.00065   0.00000
  28        3PZ        -0.00000   0.00000   0.00000  -0.00000   0.00000
  29        4S         -0.00223  -0.00102  -0.00420  -0.00201  -0.01231
  30        4PX         0.00018  -0.00187  -0.00872  -0.00675   0.00000
  31        4PY        -0.00750  -0.00058  -0.00139  -0.00050   0.00000
  32        4PZ        -0.00000   0.00000  -0.00000  -0.00000   0.00000
  33 5   H  1S          0.00023  -0.00000  -0.00004  -0.00043  -0.00022
  34        2S          0.00145  -0.00004  -0.00090  -0.00236  -0.00160
  35        3S          0.00247  -0.00046  -0.00243  -0.00287   0.00005
  36 6   H  1S         -0.00044   0.00000   0.00000   0.00022  -0.00020
  37        2S         -0.00242   0.00000   0.00015   0.00142  -0.00156
  38        3S         -0.00295   0.00023   0.00145   0.00243   0.00004
                          21        22        23        24        25
  21        2S          0.49208
  22        2PX         0.00000   0.08278
  23        2PY         0.00000   0.00000   0.08780
  24        2PZ         0.00000   0.00000   0.00000   0.06427
  25        3S         -0.06460   0.00000   0.00000   0.00000   0.45368
  26        3PX         0.00000   0.08097   0.00000   0.00000   0.00000
  27        3PY         0.00000   0.00000   0.08276   0.00000   0.00000
  28        3PZ         0.00000   0.00000   0.00000   0.06475   0.00000
  29        4S         -0.02163   0.00000   0.00000   0.00000   0.21516
  30        4PX         0.00000   0.01610   0.00000   0.00000   0.00000
  31        4PY         0.00000   0.00000   0.01476   0.00000   0.00000
  32        4PZ         0.00000   0.00000   0.00000   0.02110   0.00000
  33 5   H  1S         -0.00031   0.00151   0.00578   0.00000   0.01561
  34        2S         -0.00306   0.00383   0.01373   0.00000   0.03966
  35        3S         -0.00006   0.00067   0.00200   0.00000   0.00258
  36 6   H  1S         -0.00029   0.00689   0.00002   0.00000   0.01496
  37        2S         -0.00298   0.01729   0.00001   0.00000   0.03892
  38        3S         -0.00007   0.00270  -0.00001   0.00000   0.00269
                          26        27        28        29        30
  26        3PX         0.20045
  27        3PY         0.00000   0.19765
  28        3PZ         0.00000   0.00000   0.16480
  29        4S          0.00000   0.00000   0.00000   0.18567
  30        4PX         0.07469   0.00000   0.00000   0.00000   0.06626
  31        4PY         0.00000   0.06615   0.00000   0.00000   0.00000
  32        4PZ         0.00000   0.00000   0.10024   0.00000   0.00000
  33 5   H  1S          0.00898   0.03379   0.00002   0.01765   0.00572
  34        2S          0.01729   0.06021   0.00002   0.04425   0.01452
  35        3S          0.00381   0.01073   0.00000   0.00688   0.00529
  36 6   H  1S          0.04166   0.00007   0.00002   0.01753   0.02451
  37        2S          0.07716  -0.00002   0.00002   0.04479   0.05905
  38        3S          0.01482  -0.00009   0.00000   0.00761   0.01867
                          31        32        33        34        35
  31        4PY         0.05337
  32        4PZ         0.00000   0.14279
  33 5   H  1S          0.01866   0.00001   0.08113
  34        2S          0.04353   0.00001   0.07776   0.15183
  35        3S          0.01278  -0.00000   0.01418   0.04331   0.02267
  36 6   H  1S         -0.00004   0.00001  -0.00001  -0.00080  -0.00235
  37        2S         -0.00024   0.00001  -0.00080  -0.00667  -0.00964
  38        3S         -0.00019  -0.00000  -0.00237  -0.00967  -0.00836
                          36        37        38
  36 6   H  1S          0.08013
  37        2S          0.07751   0.15266
  38        3S          0.01429   0.04397   0.02313
     Gross orbital populations:
                           1
   1 1   C  1S          1.10435
   2        2S          0.88586
   3        2PX         0.22682
   4        2PY         0.23612
   5        2PZ         0.16634
   6        3S          0.79270
   7        3PX         0.56077
   8        3PY         0.55552
   9        3PZ         0.42336
  10        4S          0.50439
  11        4PX         0.25971
  12        4PY         0.21166
  13        4PZ         0.41185
  14 2   H  1S          0.27340
  15        2S          0.46745
  16        3S          0.08645
  17 3   H  1S          0.27704
  18        2S          0.46522
  19        3S          0.08316
  20 4   C  1S          1.10440
  21        2S          0.88584
  22        2PX         0.22244
  23        2PY         0.23649
  24        2PZ         0.16572
  25        3S          0.79262
  26        3PX         0.55286
  27        3PY         0.55716
  28        3PZ         0.42041
  29        4S          0.50586
  30        4PX         0.27408
  31        4PY         0.21577
  32        4PZ         0.41212
  33 5   H  1S          0.27347
  34        2S          0.46896
  35        3S          0.08811
  36 6   H  1S          0.27039
  37        2S          0.47054
  38        3S          0.09060
          Condensed to atoms (all electrons):
               1          2          3          4          5          6
     1  C    5.032323   0.387261   0.388074   0.602651  -0.035690  -0.035167
     2  H    0.387261   0.517653  -0.033537  -0.040317   0.006007  -0.009766
     3  H    0.388074  -0.033537   0.514336  -0.039831  -0.009535   0.005908
     4  C    0.602651  -0.040317  -0.039831   5.055233   0.384297   0.383737
     5  H   -0.035690   0.006007  -0.009535   0.384297   0.526130  -0.040670
     6  H   -0.035167  -0.009766   0.005908   0.383737  -0.040670   0.527480
 Mulliken charges:
               1
     1  C   -0.339452
     2  H    0.172699
     3  H    0.174584
     4  C   -0.345771
     5  H    0.169461
     6  H    0.168478
 Sum of Mulliken charges =  -0.00000
 Mulliken charges with hydrogens summed into heavy atoms:
               1
     1  C    0.007832
     4  C   -0.007832
 Electronic spatial extent (au):  <R**2>=             83.6811
 Charge=             -0.0000 electrons
 Dipole moment (field-independent basis, Debye):
    X=              0.0025    Y=              0.0216    Z=             -0.0966  Tot=              0.0990
 Quadrupole moment (field-independent basis, Debye-Ang):
   XX=            -12.2071   YY=            -12.2115   ZZ=            -15.6651
   XY=              0.0220   XZ=              0.0007   YZ=             -0.0024
 Traceless Quadrupole moment (field-independent basis, Debye-Ang):
   XX=              1.1541   YY=              1.1497   ZZ=             -2.3039
   XY=              0.0220   XZ=              0.0007   YZ=             -0.0024
 Octapole moment (field-independent basis, Debye-Ang**2):
  XXX=             -0.3302  YYY=             -0.0039  ZZZ=             -0.0539  XYY=              0.1833
  XXY=             -0.0341  XXZ=             -0.1282  XZZ=             -0.0847  YZZ=             -0.0671
  YYZ=             -0.1694  XYZ=             -0.0359
 Hexadecapole moment (field-independent basis, Debye-Ang**3):
 XXXX=            -34.2810 YYYY=            -55.1531 ZZZZ=            -17.7975 XXXY=             -7.2397
 XXXZ=              0.0159 YYYX=            -10.6883 YYYZ=              0.0183 ZZZX=              0.0171
 ZZZY=              0.0332 XXYY=            -16.1814 XXZZ=             -9.9214 YYZZ=            -13.6324
 XXYZ=              0.0082 YYXZ=             -0.0005 ZZXY=             -3.2037
 N-N= 3.308321162772D+01 E-N=-2.478801218652D+02  KE= 7.815608682622D+01
 Orbital energies and kinetic energies (alpha):
                                 1                 2
   1         O               -10.289860         15.977700
   2         O               -10.288117         15.980500
   3         O                -0.863992          1.539856
   4         O                -0.672395          1.270974
   5         O                -0.559144          0.942104
   6         O                -0.509867          1.284345
   7         O                -0.436279          1.043668
   8         O                -0.357050          1.038896
   9         V                 0.080049          1.181650
  10         V                 0.141078          0.588374
  11         V                 0.164701          0.595095
  12         V                 0.170127          0.679155
  13         V                 0.240927          0.583023
  14         V                 0.374577          0.851738
  15         V                 0.392902          0.932874
  16         V                 0.399158          0.781271
  17         V                 0.464019          1.191116
  18         V                 0.488435          1.422811
  19         V                 0.493677          1.301090
  20         V                 0.591181          1.653351
  21         V                 0.665559          1.570658
  22         V                 0.691093          2.148550
  23         V                 0.773166          2.470741
  24         V                 0.775615          2.269712
  25         V                 0.842250          1.085631
  26         V                 0.953058          3.430940
  27         V                 2.231608          3.926442
  28         V                 2.289769          4.031315
  29         V                 2.333052          4.303066
  30         V                 2.406927          4.517963
  31         V                 2.671422          6.301358
  32         V                 2.817685          6.305781
  33         V                 2.878744          6.136509
  34         V                 2.951460          6.226587
  35         V                 3.141798          6.821597
  36         V                 3.318918          6.401739
  37         V                23.352230         60.074167
  38         V                23.706845         60.204530
 Total kinetic energy from orbitals= 7.815608682622D+01
 Calling FoFJK, ICntrl=      2127 FMM=F ISym2X=0 I1Cent= 0 IOpClX= 0 NMat=1 NMatS=1 NMatT=0.
 -------------------------------------------------------------------
 Center     Atomic                   Forces (Hartrees/Bohr)
 Number     Number              X              Y              Z
 -------------------------------------------------------------------
      1        6           0.012077099    0.006018932   -0.003970915
      2        1          -0.009577834    0.006826637    0.002000997
      3        1           0.003408673   -0.004074425    0.001833245
      4        6           0.009830916    0.008650773   -0.004165200
      5        1           0.001033622   -0.011931836    0.002092691
      6        1          -0.016772475   -0.005490081    0.002209182
 -------------------------------------------------------------------
 Cartesian Forces:  Max     0.016772475 RMS     0.007545271

 GradGradGradGradGradGradGradGradGradGradGradGradGradGradGradGradGradGrad
 Berny optimization.
 Search for a local minimum.
 Step number   1 out of a maximum of    2
 All quantities printed in internal units (Hartrees-Bohrs-Radians)
 Second derivative matrix not updated -- first step.
 The second derivative matrix:
                          X1        Y1        Z1        X2        Y2
           X1           0.75754
           Y1           0.10057   0.85881
           Z1           0.00574   0.00872   0.17175
           X2          -0.16355   0.09559   0.00204   0.14110
           Y2           0.10166  -0.28190  -0.00729  -0.11477   0.27076
           Z2           0.00324  -0.00917  -0.05494  -0.00294   0.00755
           X3          -0.35109  -0.00227  -0.00803  -0.00035  -0.00020
           Y3          -0.00828  -0.10999  -0.00196   0.03234   0.01882
           Z3          -0.01027  -0.00190  -0.05641   0.00149   0.00055
           X4          -0.26810  -0.17934  -0.00076   0.02281   0.01330
           Y4          -0.17961  -0.47520  -0.00123  -0.01317  -0.00768
           Z4           0.00127   0.00231  -0.09489  -0.00059  -0.00082
           X5           0.02360  -0.01362   0.00061  -0.00001   0.00000
           Y5           0.01172  -0.00676   0.00084   0.00000  -0.00000
           Z5          -0.00052   0.00032   0.01764   0.00025  -0.00013
           X6           0.00159  -0.00092   0.00038  -0.00001   0.00000
           Y6          -0.02606   0.01505   0.00092   0.00000  -0.00000
           Z6           0.00054  -0.00029   0.01684  -0.00025   0.00013
                          Z2        X3        Y3        Z3        X4
           Z2           0.02860
           X3          -0.00030   0.35118
           Y3           0.00159   0.00262   0.07576
           Z3           0.01052   0.00876   0.00134   0.02956
           X4           0.00050   0.00027  -0.02669  -0.00049   0.71495
           Y4          -0.00027  -0.00016   0.01541   0.00030   0.12119
           Z4           0.01572  -0.00044  -0.00097   0.01642  -0.00499
           X5          -0.00025  -0.00001   0.00000   0.00026  -0.14710
           Y5           0.00016   0.00000  -0.00000  -0.00016   0.09334
           Z5           0.00933   0.00026  -0.00016  -0.00951  -0.00309
           X6          -0.00025  -0.00001   0.00000   0.00025  -0.32283
           Y6           0.00013   0.00000  -0.00000  -0.00013  -0.02179
           Z6          -0.00924  -0.00026   0.00016   0.00941   0.00883
                          Y4        Z4        X5        Y5        Z5
           Y4           0.86458
           Z4          -0.00980   0.17718
           X5           0.08502  -0.00205   0.12554
           Y5          -0.29248   0.00739  -0.10407   0.28305
           Z5           0.00913  -0.05774   0.00276  -0.00787   0.03001
           X6          -0.01327   0.00680  -0.00201  -0.00099   0.00034
           Y6          -0.10463   0.00189   0.03267   0.01620  -0.00129
           Z6           0.00186  -0.05670  -0.00133  -0.00035   0.01026
                          X6        Y6        Z6
           X6           0.32326
           Y6           0.01518   0.07338
           Z6          -0.00753  -0.00151   0.02941
 ITU=  0
     Eigenvalues ---    0.03753   0.04386   0.09260   0.10071   0.13545
     Eigenvalues ---    0.17449   0.26551   0.29001   0.52979   0.70134
     Eigenvalues ---    0.97384   1.56888
 Angle between quadratic step and forces=  34.55 degrees.
 Linear search not attempted -- first point.
 B after Tr=     0.006518    0.006481   -0.009883
         Rot=    1.000000   -0.000045    0.000025   -0.000106 Ang=  -0.01 deg.
 Variable       Old X    -DE/DX   Delta X   Delta X   Delta X     New X
                                 (Linear)    (Quad)   (Total)
    X1       -0.63488   0.01208   0.00000   0.01989   0.02663  -0.60825
    Y1       -1.09783   0.00602   0.00000   0.02025   0.02660  -1.07123
    Z1        0.01189  -0.00397   0.00000  -0.02107  -0.03108  -0.01919
    X2        0.41138  -0.00958   0.00000  -0.03708  -0.02996   0.38143
    Y2       -2.89100   0.00683   0.00000   0.02252   0.02908  -2.86192
    Z2       -0.04184   0.00200   0.00000   0.02576   0.01564  -0.02620
    X3       -2.68843   0.00341   0.00000   0.02868   0.03543  -2.65299
    Y3       -1.11760  -0.00407   0.00000  -0.01359  -0.00767  -1.12527
    Z3       -0.04409   0.00183   0.00000   0.02529   0.01517  -0.02892
    X4        0.62837   0.00983   0.00000   0.00708   0.01336   0.64173
    Y4        1.09022   0.00865   0.00000   0.00660   0.01322   1.10344
    Z4        0.00909  -0.00417   0.00000  -0.01983  -0.02958  -0.02049
    X5       -0.29809   0.00103   0.00000  -0.01543  -0.00952  -0.30762
    Y5        2.95362  -0.01193   0.00000  -0.04057  -0.03416   2.91946
    Z5       -0.04741   0.00209   0.00000   0.02482   0.01518  -0.03222
    X6        2.72432  -0.01677   0.00000  -0.04222  -0.03595   2.68837
    Y6        1.21728  -0.00549   0.00000  -0.03412  -0.02707   1.19020
    Z6       -0.04508   0.00221   0.00000   0.02430   0.01466  -0.03042
         Item               Value     Threshold  Converged?
 Maximum Force            0.016772     0.000450     NO 
 RMS     Force            0.007545     0.000300     NO 
 Maximum Displacement     0.035953     0.001800     NO 
 RMS     Displacement     0.024577     0.001200     NO 
 Predicted change in Energy=-1.442102D-03
 GradGradGradGradGradGradGradGradGradGradGradGradGradGradGradGradGradGrad

 Unable to Open any file for archive entry.
 1\1\GINC-BHD0010\Force\RwB97XD\6-311G\C2H4\BWEIGHT\11-Jan-2023\0\\# WB
 97XD/6-311G SCF=XQC FORCE nosym pop=full guess=read\\MD Step 999\\0,1\
 C,-0.33596327,-0.58094733,0.00629446\H,0.21769388,-1.5298508,-0.022140
 76\H,-1.42265354,-0.59140813,-0.02333304\C,0.33251906,0.57692069,0.004
 81048\H,-0.157745,1.56298776,-0.02508627\H,1.44164985,0.64415534,-0.02
 385658\\Version=ES64L-G16RevC.01\HF=-78.5558897\RMSD=5.436e-09\RMSF=7.
 545e-03\Dipole=0.0009768,0.0084866,-0.0380141\Quadrupole=0.8580701,0.8
 547946,-1.7128646,0.016332,0.000502,-0.0018015\PG=C01 [X(C2H4)]\\@
 The archive entry for this job was punched.


 SUPPORT THE RIGHT TO ARM BEARS!
 (ADD A CLAWS TO THE BILL OF RIGHTS)
 Job cpu time:       0 days  0 hours  0 minutes 28.5 seconds.
 Elapsed time:       0 days  0 hours  0 minutes  9.7 seconds.
 File lengths (MBytes):  RWF=    272 Int=      0 D2E=      0 Chk=     32 Scr=     32
 Normal termination of Gaussian 16 at Wed Jan 11 18:46:23 2023.
