 Entering Gaussian System, Link 0=g16
 Initial command:
 /software/gaussian/g16-c01/avx2/g16/l1.exe "/gpfs/fs2/scratch/bweight/software/many_molecule_many_mode_NAMD/src/NAMD/TEST_NVT/TRAJ/traj-42/G16/GS_NEW/Gau-30366.inp" -scrdir="/gpfs/fs2/scratch/bweight/software/many_molecule_many_mode_NAMD/src/NAMD/TEST_NVT/TRAJ/traj-42/G16/GS_NEW/"
 Entering Link 1 = /software/gaussian/g16-c01/avx2/g16/l1.exe PID=     30367.
  
 Copyright (c) 1988-2019, Gaussian, Inc.  All Rights Reserved.
  
 This is part of the Gaussian(R) 16 program.  It is based on
 the Gaussian(R) 09 system (copyright 2009, Gaussian, Inc.),
 the Gaussian(R) 03 system (copyright 2003, Gaussian, Inc.),
 the Gaussian(R) 98 system (copyright 1998, Gaussian, Inc.),
 the Gaussian(R) 94 system (copyright 1995, Gaussian, Inc.),
 the Gaussian 92(TM) system (copyright 1992, Gaussian, Inc.),
 the Gaussian 90(TM) system (copyright 1990, Gaussian, Inc.),
 the Gaussian 88(TM) system (copyright 1988, Gaussian, Inc.),
 the Gaussian 86(TM) system (copyright 1986, Carnegie Mellon
 University), and the Gaussian 82(TM) system (copyright 1983,
 Carnegie Mellon University). Gaussian is a federally registered
 trademark of Gaussian, Inc.
  
 This software contains proprietary and confidential information,
 including trade secrets, belonging to Gaussian, Inc.
  
 This software is provided under written license and may be
 used, copied, transmitted, or stored only in accord with that
 written license.
  
 The following legend is applicable only to US Government
 contracts under FAR:
  
                    RESTRICTED RIGHTS LEGEND
  
 Use, reproduction and disclosure by the US Government is
 subject to restrictions as set forth in subparagraphs (a)
 and (c) of the Commercial Computer Software - Restricted
 Rights clause in FAR 52.227-19.
  
 Gaussian, Inc.
 340 Quinnipiac St., Bldg. 40, Wallingford CT 06492
  
  
 ---------------------------------------------------------------
 Warning -- This program may not be used in any manner that
 competes with the business of Gaussian, Inc. or will provide
 assistance to any competitor of Gaussian, Inc.  The licensee
 of this program is prohibited from giving any competitor of
 Gaussian, Inc. access to this program.  By using this program,
 the user acknowledges that Gaussian, Inc. is engaged in the
 business of creating and licensing software in the field of
 computational chemistry and represents and warrants to the
 licensee that it is not a competitor of Gaussian, Inc. and that
 it will not use this program in any manner prohibited above.
 ---------------------------------------------------------------
  

 Cite this work as:
 Gaussian 16, Revision C.01,
 M. J. Frisch, G. W. Trucks, H. B. Schlegel, G. E. Scuseria, 
 M. A. Robb, J. R. Cheeseman, G. Scalmani, V. Barone, 
 G. A. Petersson, H. Nakatsuji, X. Li, M. Caricato, A. V. Marenich, 
 J. Bloino, B. G. Janesko, R. Gomperts, B. Mennucci, H. P. Hratchian, 
 J. V. Ortiz, A. F. Izmaylov, J. L. Sonnenberg, D. Williams-Young, 
 F. Ding, F. Lipparini, F. Egidi, J. Goings, B. Peng, A. Petrone, 
 T. Henderson, D. Ranasinghe, V. G. Zakrzewski, J. Gao, N. Rega, 
 G. Zheng, W. Liang, M. Hada, M. Ehara, K. Toyota, R. Fukuda, 
 J. Hasegawa, M. Ishida, T. Nakajima, Y. Honda, O. Kitao, H. Nakai, 
 T. Vreven, K. Throssell, J. A. Montgomery, Jr., J. E. Peralta, 
 F. Ogliaro, M. J. Bearpark, J. J. Heyd, E. N. Brothers, K. N. Kudin, 
 V. N. Staroverov, T. A. Keith, R. Kobayashi, J. Normand, 
 K. Raghavachari, A. P. Rendell, J. C. Burant, S. S. Iyengar, 
 J. Tomasi, M. Cossi, J. M. Millam, M. Klene, C. Adamo, R. Cammi, 
 J. W. Ochterski, R. L. Martin, K. Morokuma, O. Farkas, 
 J. B. Foresman, and D. J. Fox, Gaussian, Inc., Wallingford CT, 2019.
 
 ******************************************
 Gaussian 16:  ES64L-G16RevC.01  3-Jul-2019
                11-Jan-2023 
 ******************************************
 %oldchk=../GS_OLD/geometry.chk
 %chk=geometry.chk
 %nprocshared=4
 Will use up to    4 processors via shared memory.
 %mem=5GB
 Copying data from "../GS_OLD/geometry.chk" to current chk file "geometry.chk"
 IOpt=  2 FromEx=T IUOpen= 4 IOptOp= 5 NList=   0 IFRang= 0 IUIn= 4 IUOut= 2.
 -------------------------------------------------------
 # WB97XD/6-311G SCF=XQC FORCE nosym pop=full guess=read
 -------------------------------------------------------
 1/10=7,30=1,38=1/1,3;
 2/12=2,15=1,17=6,18=5,40=1/2;
 3/5=4,6=6,11=2,25=1,30=1,71=1,74=-58,116=-2/1,2,3;
 4/5=1/1;
 5/5=2,8=3,13=1,38=6/2,8;
 6/7=3,28=1/1;
 7/29=1,30=1/1,2,3,16;
 1/10=7,30=1/3;
 99//99;
 -----------
 MD Step 999
 -----------
 Symbolic Z-matrix:
 Charge =  0 Multiplicity = 1
 C                    -0.33713  -0.58302   0.01035 
 H                     0.22872  -1.52255  -0.03797 
 H                    -1.41905  -0.57303  -0.03935 
 C                     0.33161   0.57508   0.00663 
 H                    -0.14869   1.5687   -0.04393 
 H                     1.44364   0.66031  -0.04221 
 

 GradGradGradGradGradGradGradGradGradGradGradGradGradGradGradGradGradGrad
 Berny optimization.
 Initialization pass.
 Trust Radius=3.00D-01 FncErr=1.00D-07 GrdErr=1.00D-07 EigMax=2.50D+02 EigMin=1.00D-04
 Number of steps in this run=      2 maximum allowed number of steps=      2.
 GradGradGradGradGradGradGradGradGradGradGradGradGradGradGradGradGradGrad

                          Input orientation:                          
 ---------------------------------------------------------------------
 Center     Atomic      Atomic             Coordinates (Angstroms)
 Number     Number       Type             X           Y           Z
 ---------------------------------------------------------------------
      1          6           0       -0.337134   -0.583018    0.010347
      2          1           0        0.228722   -1.522552   -0.037972
      3          1           0       -1.419046   -0.573030   -0.039354
      4          6           0        0.331610    0.575076    0.006628
      5          1           0       -0.148687    1.568700   -0.043926
      6          1           0        1.443641    0.660314   -0.042206
 ---------------------------------------------------------------------
                    Distance matrix (angstroms):
                    1          2          3          4          5
     1  C    0.000000
     2  H    1.097839   0.000000
     3  H    1.083099   1.901771   0.000000
     4  C    1.337317   2.100624   2.094054   0.000000
     5  H    2.160636   3.114211   2.490149   1.104775   0.000000
     6  H    2.172509   2.498189   3.117069   1.116361   1.833214
                    6
     6  H    0.000000
 Symmetry turned off by external request.
 Stoichiometry    C2H4
 Framework group  C1[X(C2H4)]
 Deg. of freedom    12
 Full point group                 C1      NOp   1
 Rotational constants (GHZ):         143.3906292          29.7022254          24.6254814
 Standard basis: 6-311G (5D, 7F)
    38 basis functions,    72 primitive gaussians,    38 cartesian basis functions
     8 alpha electrons        8 beta electrons
       nuclear repulsion energy        33.0764839781 Hartrees.
 NAtoms=    6 NActive=    6 NUniq=    6 SFac= 1.00D+00 NAtFMM=   60 NAOKFM=F Big=F
 Integral buffers will be    131072 words long.
 Raffenetti 2 integral format.
 Two-electron integral symmetry is turned off.
 Nuclear repulsion after empirical dispersion term =       33.0756424614 Hartrees.
 One-electron integrals computed using PRISM.
 NBasis=    38 RedAO= T EigKep=  6.40D-03  NBF=    38
 NBsUse=    38 1.00D-06 EigRej= -1.00D+00 NBFU=    38
 Initial guess from the checkpoint file:  "geometry.chk"
 B after Tr=    -0.000193   -0.000292   -0.000597
         Rot=    1.000000    0.000004   -0.000001    0.000004 Ang=   0.00 deg.
 Keep R1 ints in memory in canonical form, NReq=4036876.
 Requested convergence on RMS density matrix=1.00D-08 within  32 cycles.
 Requested convergence on MAX density matrix=1.00D-06.
 Requested convergence on             energy=1.00D-06.
 No special actions if energy rises.
 SCF Done:  E(RwB97XD) =  -78.5546313332     A.U. after    8 cycles
            NFock=  8  Conv=0.63D-08     -V/T= 2.0051
 QCSCF skips out because SCF is already converged.

 **********************************************************************

            Population analysis using the SCF Density.

 **********************************************************************

 Alpha  occ. eigenvalues --  -10.29046 -10.28806  -0.86422  -0.67221  -0.55965
 Alpha  occ. eigenvalues --   -0.50944  -0.43556  -0.35709
 Alpha virt. eigenvalues --    0.07952   0.14078   0.16450   0.17002   0.24080
 Alpha virt. eigenvalues --    0.37058   0.39298   0.40263   0.46351   0.48963
 Alpha virt. eigenvalues --    0.49368   0.59111   0.66513   0.69111   0.77233
 Alpha virt. eigenvalues --    0.77568   0.83600   0.95258   2.23093   2.29096
 Alpha virt. eigenvalues --    2.33311   2.40422   2.67145   2.81621   2.87910
 Alpha virt. eigenvalues --    2.95030   3.14220   3.31608  23.35182  23.70651
     Molecular Orbital Coefficients:
                           1         2         3         4         5
                           O         O         O         O         O
     Eigenvalues --   -10.29046 -10.28806  -0.86422  -0.67221  -0.55965
   1 1   C  1S          0.10551   0.55342  -0.08857   0.06654  -0.00049
   2        2S          0.08703   0.45545  -0.14002   0.10655  -0.00081
   3        2PX         0.00016  -0.00001   0.02584   0.03568   0.14080
   4        2PY         0.00028   0.00000   0.04667   0.05770  -0.07443
   5        2PZ        -0.00000  -0.00001  -0.00210   0.00299   0.00039
   6        3S          0.00188   0.01454   0.37563  -0.29064   0.00223
   7        3PX        -0.00060   0.00043   0.03450   0.05723   0.22076
   8        3PY        -0.00103   0.00078   0.06192   0.09388  -0.11784
   9        3PZ        -0.00002  -0.00005  -0.00351   0.00533   0.00056
  10        4S          0.00313  -0.01475   0.19219  -0.22426   0.00171
  11        4PX         0.00148  -0.00157   0.00477   0.02262   0.11312
  12        4PY         0.00254  -0.00272   0.00864   0.03885  -0.06139
  13        4PZ         0.00001   0.00013  -0.00120   0.00266   0.00027
  14 2   H  1S         -0.00004  -0.00006   0.05273  -0.08592   0.10472
  15        2S         -0.00030   0.00011   0.05409  -0.10392   0.13276
  16        3S          0.00085   0.00167  -0.00193  -0.01472   0.04293
  17 3   H  1S         -0.00005  -0.00008   0.05458  -0.09007  -0.10862
  18        2S         -0.00030   0.00009   0.05524  -0.10791  -0.13650
  19        3S          0.00087   0.00172  -0.00192  -0.01585  -0.04407
  20 4   C  1S          0.55342  -0.10570  -0.08668  -0.06848  -0.00032
  21        2S          0.45551  -0.08679  -0.13684  -0.10985  -0.00051
  22        2PX        -0.00001  -0.00017  -0.02792   0.03833   0.11448
  23        2PY        -0.00002  -0.00029  -0.04682   0.06895  -0.07299
  24        2PZ        -0.00000   0.00000  -0.00153  -0.00318   0.00040
  25        3S          0.01401  -0.00358   0.36645   0.30023   0.00142
  26        3PX        -0.00021   0.00073  -0.03467   0.06218   0.17910
  27        3PY        -0.00032   0.00127  -0.05796   0.11104  -0.11307
  28        3PZ        -0.00005  -0.00001  -0.00267  -0.00573   0.00060
  29        4S         -0.01216   0.00852   0.18818   0.23935   0.00005
  30        4PX         0.00086  -0.00191  -0.00555   0.02762   0.09971
  31        4PY         0.00144  -0.00334  -0.00908   0.04754  -0.06178
  32        4PZ         0.00010  -0.00002  -0.00114  -0.00297   0.00030
  33 5   H  1S         -0.00006  -0.00004   0.04948   0.09506  -0.08700
  34        2S         -0.00002  -0.00032   0.05050   0.11305  -0.10944
  35        3S          0.00180   0.00013  -0.00098   0.01713  -0.03510
  36 6   H  1S         -0.00005  -0.00004   0.04798   0.09256   0.08192
  37        2S         -0.00003  -0.00033   0.04964   0.11074   0.10363
  38        3S          0.00174   0.00012  -0.00103   0.01639   0.03357
                           6         7         8         9        10
                           O         O         O         V         V
     Eigenvalues --    -0.50944  -0.43556  -0.35709   0.07952   0.14078
   1 1   C  1S         -0.00237   0.00025  -0.00165   0.00427  -0.03299
   2        2S         -0.00339   0.00044  -0.00268   0.00708  -0.05291
   3        2PX         0.09406  -0.10781  -0.00521   0.00221  -0.03078
   4        2PY         0.16924   0.06411  -0.00883   0.00374  -0.06491
   5        2PZ         0.00781   0.00000   0.17935  -0.18867  -0.00395
   6        3S          0.01494  -0.00101   0.00781  -0.02142   0.11480
   7        3PX         0.13604  -0.17207  -0.00736   0.00333  -0.03613
   8        3PY         0.24690   0.10303  -0.01247   0.00554  -0.08062
   9        3PZ         0.01240   0.00006   0.28858  -0.27756  -0.00631
  10        4S         -0.05992  -0.00386   0.01088  -0.02488   1.22139
  11        4PX         0.06801  -0.10778  -0.00613   0.01922  -0.18315
  12        4PY         0.12493   0.06504  -0.01043   0.03262  -0.37501
  13        4PZ         0.00704   0.00011   0.26668  -0.69335  -0.02282
  14 2   H  1S         -0.08216  -0.11263   0.00020   0.00670  -0.01802
  15        2S         -0.11422  -0.17385   0.00310   0.01063  -0.04937
  16        3S         -0.04269  -0.08039   0.00185   0.02800  -0.83058
  17 3   H  1S         -0.07926   0.11022   0.00008   0.00670  -0.01358
  18        2S         -0.10945   0.16899   0.00293   0.01065  -0.03839
  19        3S         -0.04055   0.07782   0.00177   0.02719  -0.75559
  20 4   C  1S         -0.00969  -0.00053  -0.00115  -0.00397  -0.03658
  21        2S         -0.01525  -0.00087  -0.00188  -0.00657  -0.05876
  22        2PX        -0.09802   0.12749   0.00510   0.00260   0.04175
  23        2PY        -0.16084  -0.07495   0.00943   0.00477   0.06100
  24        2PZ         0.00831   0.00035   0.17893   0.18922  -0.00448
  25        3S          0.04841   0.00243   0.00556   0.01971   0.12997
  26        3PX        -0.14548   0.20411   0.00711   0.00402   0.05141
  27        3PY        -0.23687  -0.11899   0.01322   0.00739   0.07204
  28        3PZ         0.01313   0.00052   0.28625   0.27746  -0.00680
  29        4S         -0.02230   0.00379   0.00988   0.02128   1.24208
  30        4PX        -0.07650   0.13217   0.00536   0.02001   0.27411
  31        4PY        -0.12306  -0.07629   0.01017   0.03572   0.42232
  32        4PZ         0.00762   0.00030   0.26717   0.69486  -0.02683
  33 5   H  1S         -0.07330  -0.12654   0.00043  -0.00600  -0.01119
  34        2S         -0.09963  -0.19751   0.00338  -0.01004  -0.03672
  35        3S         -0.03717  -0.09327   0.00188  -0.02614  -0.82322
  36 6   H  1S         -0.07939   0.12640   0.00029  -0.00599  -0.01559
  37        2S         -0.10850   0.19850   0.00316  -0.01008  -0.04727
  38        3S         -0.04074   0.09391   0.00174  -0.02664  -0.89796
                          11        12        13        14        15
                           V         V         V         V         V
     Eigenvalues --     0.16450   0.17002   0.24080   0.37058   0.39298
   1 1   C  1S          0.00113  -0.04588   0.00013   0.00790   0.00071
   2        2S          0.00182  -0.07479   0.00020   0.01021   0.00101
   3        2PX         0.09631  -0.01939   0.09987  -0.03428  -0.02170
   4        2PY        -0.05315  -0.03673  -0.05719  -0.06235   0.01028
   5        2PZ         0.00016  -0.01033   0.00002  -0.00714  -0.00028
   6        3S         -0.00381   0.16961   0.00021   0.03809   0.00218
   7        3PX         0.13793  -0.01046   0.10464  -0.03920  -0.10124
   8        3PY        -0.07722  -0.02325  -0.06114  -0.07587   0.05359
   9        3PZ         0.00022  -0.01437  -0.00007  -0.01510  -0.00046
  10        4S         -0.05741   1.44741  -0.02892  -2.35362  -0.14745
  11        4PX         0.58927  -0.11507   1.16908  -1.50460  -0.53720
  12        4PY        -0.31642  -0.20497  -0.67112  -2.61200   0.13726
  13        4PZ         0.00127  -0.06751   0.00132  -0.06405  -0.00389
  14 2   H  1S         -0.02922  -0.02553   0.01465  -0.06323   0.07352
  15        2S         -0.08394  -0.01786  -0.02154  -0.70419   0.74422
  16        3S         -1.03074  -1.01052  -1.53912  -0.25110  -0.29588
  17 3   H  1S          0.02822  -0.02530  -0.01719  -0.05640  -0.07518
  18        2S          0.08248  -0.02135   0.01449  -0.64994  -0.75846
  19        3S          1.10291  -1.01953   1.57712  -0.33393   0.22734
  20 4   C  1S          0.00166   0.04180  -0.00017  -0.02015  -0.00019
  21        2S          0.00265   0.06802  -0.00029  -0.03344  -0.00027
  22        2PX         0.10185  -0.02447  -0.10069  -0.03912  -0.03291
  23        2PY        -0.06220  -0.03749   0.05776  -0.07002   0.01335
  24        2PZ         0.00038   0.00985  -0.00005   0.00468   0.00044
  25        3S         -0.00539  -0.15018   0.00037   0.05210  -0.00055
  26        3PX         0.14653  -0.02030  -0.11614  -0.09217  -0.11175
  27        3PY        -0.08806  -0.02766   0.06509  -0.16689   0.05360
  28        3PZ         0.00053   0.01356   0.00000   0.00496   0.00083
  29        4S         -0.07389  -1.32817   0.02258   3.15368   0.15841
  30        4PX         0.52855  -0.12282  -1.11425  -1.05289  -0.53894
  31        4PY        -0.33215  -0.19513   0.64427  -1.85474   0.13693
  32        4PZ         0.00246   0.06420  -0.00142   0.05186   0.00304
  33 5   H  1S          0.03180   0.02426   0.00443   0.00422  -0.08270
  34        2S          0.06681   0.02199  -0.03511  -0.00535  -0.81735
  35        3S          1.08529   0.92413  -1.52659   0.43619   0.50328
  36 6   H  1S         -0.03200   0.02533  -0.00277  -0.00080   0.08876
  37        2S         -0.06756   0.02103   0.03727  -0.04923   0.89348
  38        3S         -0.98475   0.94356   1.49943   0.44843  -0.49186
                          16        17        18        19        20
                           V         V         V         V         V
     Eigenvalues --     0.40263   0.46351   0.48963   0.49368   0.59111
   1 1   C  1S         -0.02006   0.01339   0.04538  -0.00314  -0.00081
   2        2S         -0.03485   0.03043   0.07556  -0.00482  -0.00144
   3        2PX         0.03177  -0.06150  -0.01004   0.00244   0.00316
   4        2PY         0.05695  -0.10617  -0.01047   0.00315   0.00457
   5        2PZ         0.00112  -0.00072  -0.01662  -0.15078  -0.19258
   6        3S          0.07367  -0.33713  -0.07796  -0.00999  -0.00171
   7        3PX         0.11252  -0.23843   0.04452  -0.00214   0.01043
   8        3PY         0.20755  -0.40918   0.09061  -0.00652   0.01534
   9        3PZ        -0.00441  -0.00715  -0.07179  -0.62373  -0.68536
  10        4S          3.06327   0.13627  -3.04073   0.31097   0.10986
  11        4PX         0.42757   0.23005  -0.82216   0.09265   0.03450
  12        4PY         0.76323   0.43935  -1.43767   0.16430   0.05891
  13        4PZ        -0.00070   0.00518   0.17643   0.67206   1.24095
  14 2   H  1S         -0.02346  -0.03024   0.07576  -0.00848  -0.00264
  15        2S         -0.50332  -0.29066   0.90278  -0.09112  -0.02100
  16        3S          0.36594   0.05142  -0.64440   0.08499   0.03638
  17 3   H  1S         -0.02873  -0.03344   0.07315  -0.00822  -0.00246
  18        2S         -0.54860  -0.32903   0.87571  -0.08867  -0.01782
  19        3S          0.37263   0.05297  -0.60135   0.08051   0.03530
  20 4   C  1S          0.00209  -0.00434  -0.05061   0.00766   0.00112
  21        2S         -0.00023   0.00018  -0.08846   0.01370   0.00210
  22        2PX         0.01168   0.05371  -0.02763   0.00165   0.00308
  23        2PY         0.02169   0.09301  -0.05195   0.00301   0.00617
  24        2PZ        -0.00612  -0.00329  -0.01677  -0.15185   0.19222
  25        3S          0.07787  -0.27633   0.24418  -0.04757  -0.00467
  26        3PX        -0.03783   0.23016  -0.06363   0.00388   0.01097
  27        3PY        -0.05778   0.40315  -0.11645   0.00616   0.02154
  28        3PZ        -0.01664  -0.01287  -0.06573  -0.62840   0.68208
  29        4S         -1.30652   0.79502   3.06421  -0.34903  -0.09383
  30        4PX         1.41535  -0.32023  -0.56899   0.05399   0.03313
  31        4PY         2.53489  -0.51353  -0.95983   0.09091   0.05740
  32        4PZ        -0.05417  -0.02718  -0.01309   0.69958  -1.23758
  33 5   H  1S         -0.04212  -0.06809  -0.06164   0.00728   0.00235
  34        2S         -0.81597  -0.71126  -0.79664   0.10242   0.00757
  35        3S         -0.28425   0.28108   0.51747  -0.04473  -0.03481
  36 6   H  1S         -0.03671  -0.06583  -0.06257   0.00746   0.00246
  37        2S         -0.74997  -0.67999  -0.79857   0.10269   0.00943
  38        3S         -0.28679   0.29731   0.54703  -0.04911  -0.03544
                          21        22        23        24        25
                           V         V         V         V         V
     Eigenvalues --     0.66513   0.69111   0.77233   0.77568   0.83600
   1 1   C  1S          0.00101  -0.00054   0.05151   0.07249   0.00115
   2        2S          0.00207  -0.00123   0.10870   0.15455   0.00259
   3        2PX        -0.13127   0.19850  -0.02475   0.11468  -0.00996
   4        2PY         0.07684  -0.12009  -0.04228   0.18436   0.01540
   5        2PZ        -0.00009   0.00032   0.00116   0.00737   0.00033
   6        3S         -0.01615   0.01804  -0.73307  -1.33990  -0.02645
   7        3PX        -0.60974   0.69757  -0.17069   0.44907  -0.22742
   8        3PY         0.35289  -0.42169  -0.29286   0.71108   0.17112
   9        3PZ        -0.00057   0.00129   0.00451   0.02564   0.00127
  10        4S          0.02765  -0.09231   0.71591   2.45146  -0.04321
  11        4PX         1.05370  -0.75999   0.15821  -0.77331   4.52860
  12        4PY        -0.61208   0.46039   0.17213  -0.97777  -2.61624
  13        4PZ         0.00036   0.00198   0.01292  -0.08460   0.00528
  14 2   H  1S          0.02402  -0.05914   0.01032   0.03271  -0.02612
  15        2S          0.14085  -0.64902   0.07461   0.09298  -1.58555
  16        3S         -1.03521   1.10373  -0.11716  -1.08351  -1.24354
  17 3   H  1S         -0.02325   0.05865   0.01020   0.03359   0.02979
  18        2S         -0.15592   0.69168   0.10736   0.05224   1.62978
  19        3S          1.02444  -1.06628  -0.09648  -1.25501   1.23895
  20 4   C  1S          0.00122  -0.00055   0.08459   0.03060   0.00062
  21        2S          0.00247  -0.00102   0.18005   0.06439   0.00126
  22        2PX        -0.15246  -0.18416  -0.09551   0.05310   0.01126
  23        2PY         0.08703   0.10141  -0.17390   0.09846   0.00193
  24        2PZ        -0.00013  -0.00036   0.00773  -0.00176  -0.00031
  25        3S         -0.01781  -0.00070  -1.50146  -0.36638  -0.00538
  26        3PX        -0.68784  -0.62096  -0.34720   0.28162   0.23642
  27        3PY         0.39598   0.33861  -0.63850   0.51903  -0.09475
  28        3PZ        -0.00071  -0.00126   0.02738  -0.00684  -0.00101
  29        4S          0.01498   0.06301   2.71560   0.08848   0.03077
  30        4PX         1.31180   0.73245   0.50079  -0.23892  -4.08637
  31        4PY        -0.74804  -0.40118   1.01857  -0.70423   2.30820
  32        4PZ         0.00133  -0.00134  -0.07893   0.04033  -0.00454
  33 5   H  1S         -0.02505  -0.05482   0.03461   0.00283  -0.02145
  34        2S         -0.13823  -0.55799   0.07093   0.08092  -1.37215
  35        3S          1.11957   0.97211  -1.16685   0.32126  -1.06911
  36 6   H  1S          0.02582   0.05454   0.03410   0.00369   0.02107
  37        2S          0.13007   0.51854   0.07432   0.01629   1.35234
  38        3S         -1.12446  -0.99109  -1.07860   0.23199   1.08163
                          26        27        28        29        30
                           V         V         V         V         V
     Eigenvalues --     0.95258   2.23093   2.29096   2.33311   2.40422
   1 1   C  1S          0.09618  -0.00986  -0.01480  -0.00052  -0.00054
   2        2S          0.19995   0.00213  -0.01459  -0.00107  -0.00062
   3        2PX        -0.09133  -0.06803  -0.13100  -0.35663  -0.39973
   4        2PY        -0.15846  -0.12921  -0.23242   0.20222   0.22806
   5        2PZ         0.00043  -0.02044  -0.02856  -0.00010  -0.00109
   6        3S         -1.54985  -0.18912  -0.04096   0.00167  -0.00508
   7        3PX        -0.23516   0.05764   0.20495   0.42730   0.55909
   8        3PY        -0.39946   0.12641   0.37898  -0.24454  -0.32172
   9        3PZ        -0.00350   0.02036   0.03545  -0.00007   0.00126
  10        4S          5.71719  -0.09447  -0.88270  -0.00770  -0.02947
  11        4PX         1.20981   0.05992  -0.18959   0.08584   0.97079
  12        4PY         1.99638   0.07537  -0.36109  -0.04170  -0.54068
  13        4PZ        -0.03067   0.00411   0.01303   0.00064   0.00253
  14 2   H  1S          0.01499  -0.68966  -0.81816   0.71108   0.64071
  15        2S         -0.28727   0.97582   1.22257  -1.11331  -1.43919
  16        3S         -0.09719  -0.29163  -0.48886   0.46442   0.35897
  17 3   H  1S          0.01513  -0.68261  -0.80777  -0.70883  -0.66500
  18        2S         -0.25374   0.96771   1.21098   1.11531   1.49007
  19        3S         -0.08040  -0.26750  -0.46397  -0.45536  -0.35044
  20 4   C  1S         -0.09359  -0.01051   0.01194  -0.00046   0.00038
  21        2S         -0.19407  -0.00034   0.01207  -0.00072   0.00060
  22        2PX        -0.09288   0.14407  -0.11833  -0.29298   0.41902
  23        2PY        -0.16015   0.25040  -0.20067   0.16905  -0.23967
  24        2PZ         0.00064  -0.02263   0.02656  -0.00037   0.00066
  25        3S          1.49862  -0.16397   0.01439   0.00029   0.00057
  26        3PX        -0.22762  -0.18787   0.20708   0.36787  -0.58847
  27        3PY        -0.39921  -0.32022   0.34170  -0.20858   0.33566
  28        3PZ         0.00587   0.02453  -0.03402   0.00035  -0.00087
  29        4S         -5.68671  -0.18714   0.89100  -0.01124   0.01485
  30        4PX         1.09850  -0.00985  -0.19368  -0.14042  -0.81445
  31        4PY         1.97861  -0.02997  -0.30936   0.07722   0.47704
  32        4PZ         0.01729   0.00768  -0.00946   0.00011  -0.00212
  33 5   H  1S         -0.01815  -0.80327   0.65516  -0.69433   0.70032
  34        2S          0.29392   1.17322  -1.00527   0.99450  -1.46094
  35        3S          0.05635  -0.36383   0.38865  -0.51005   0.44848
  36 6   H  1S         -0.01813  -0.79625   0.67345   0.68816  -0.69577
  37        2S          0.31864   1.15962  -1.02759  -0.98199   1.44441
  38        3S          0.06440  -0.36703   0.41408   0.51111  -0.45682
                          31        32        33        34        35
                           V         V         V         V         V
     Eigenvalues --     2.67145   2.81621   2.87910   2.95030   3.14220
   1 1   C  1S          0.00078   0.00383  -0.01304   0.00015  -0.00998
   2        2S          0.00062   0.01087  -0.04270   0.00009  -0.03069
   3        2PX         0.00722   0.11103  -0.47822  -0.71385   0.43610
   4        2PY         0.01128   0.19472  -0.85803   0.40188   0.76018
   5        2PZ        -0.92395  -0.91711  -0.20747  -0.00129   0.00847
   6        3S         -0.00250  -0.08908   0.37346   0.00139   0.25797
   7        3PX        -0.00490  -0.19063   0.83666   0.85893  -0.40867
   8        3PY        -0.00778  -0.33159   1.47599  -0.47185  -0.70929
   9        3PZ         0.93902   1.12060   0.26028   0.00186  -0.01104
  10        4S          0.02020   0.21060  -0.85746  -0.00670  -0.50983
  11        4PX        -0.00346   0.15138  -0.70562  -0.65927   0.19652
  12        4PY        -0.00486   0.26470  -1.25144   0.35351   0.33424
  13        4PZ        -0.33835  -0.60447  -0.16509  -0.00160   0.00586
  14 2   H  1S          0.01878  -0.02651   0.25522  -0.36611  -0.20599
  15        2S         -0.02125   0.01479  -0.21036   0.37959   0.15555
  16        3S         -0.00484   0.06153  -0.29518   0.27674   0.04501
  17 3   H  1S          0.01891  -0.02502   0.24388   0.36563  -0.20746
  18        2S         -0.02151   0.01149  -0.18822  -0.37430   0.15712
  19        3S         -0.00582   0.06306  -0.30157  -0.29467   0.05350
  20 4   C  1S          0.00076  -0.00367   0.01327   0.00058  -0.00685
  21        2S          0.00074  -0.01157   0.04764   0.00129  -0.02145
  22        2PX        -0.01168   0.09408  -0.38769  -0.81846  -0.51523
  23        2PY        -0.02149   0.16833  -0.68678   0.45688  -0.91123
  24        2PZ        -0.92511   0.91432   0.21295   0.00006   0.02211
  25        3S         -0.00427   0.10012  -0.43168  -0.00938   0.18545
  26        3PX         0.01229  -0.17344   0.74267   0.97401   0.56316
  27        3PY         0.02221  -0.30784   1.31014  -0.53839   1.00442
  28        3PZ         0.94067  -1.11716  -0.26878   0.00001  -0.02793
  29        4S          0.02369  -0.21505   0.89192   0.02697  -0.35189
  30        4PX        -0.00172   0.14942  -0.69674  -0.70133  -0.35526
  31        4PY        -0.00351   0.26249  -1.21494   0.38256  -0.63551
  32        4PZ        -0.33917   0.60204   0.17235  -0.00012   0.02242
  33 5   H  1S          0.01733   0.04232  -0.29540   0.42526  -0.27463
  34        2S         -0.02169  -0.03532   0.27329  -0.43471   0.21774
  35        3S         -0.00185  -0.05641   0.27562  -0.24117   0.13842
  36 6   H  1S          0.01751   0.04304  -0.29607  -0.43461  -0.26376
  37        2S         -0.02234  -0.03740   0.28149   0.44437   0.21003
  38        3S         -0.00107  -0.05287   0.25908   0.23921   0.13086
                          36        37        38
                           V         V         V
     Eigenvalues --     3.31608  23.35182  23.70651
   1 1   C  1S         -0.00051  -1.41035  -1.45586
   2        2S         -0.00072   1.50411   1.57439
   3        2PX         0.79940  -0.00652   0.01198
   4        2PY        -0.44780  -0.01049   0.02124
   5        2PZ         0.00153  -0.00085  -0.00041
   6        3S          0.00034  -0.29540  -0.40087
   7        3PX        -1.14184   0.02409  -0.05557
   8        3PY         0.63440   0.03949  -0.09723
   9        3PZ        -0.00239   0.00238   0.00125
  10        4S         -0.01609   0.27476   0.77074
  11        4PX         1.97408  -0.02593   0.13344
  12        4PY        -1.09907  -0.04296   0.23092
  13        4PZ         0.00399  -0.00405  -0.00496
  14 2   H  1S          0.57092   0.01290   0.00737
  15        2S         -0.87993   0.00762  -0.01481
  16        3S         -0.46451  -0.08418  -0.03947
  17 3   H  1S         -0.58373   0.01503   0.00902
  18        2S          0.89790   0.00692  -0.01530
  19        3S          0.49267  -0.08687  -0.04017
  20 4   C  1S          0.00022  -1.45103   1.41511
  21        2S          0.00002   1.54757  -1.53040
  22        2PX        -0.69571   0.00596   0.01274
  23        2PY         0.39970   0.01089   0.02154
  24        2PZ        -0.00137  -0.00084   0.00018
  25        3S          0.00360  -0.30347   0.38961
  26        3PX         0.99070  -0.02215  -0.05685
  27        3PY        -0.57801  -0.03983  -0.09741
  28        3PZ         0.00208   0.00242  -0.00040
  29        4S         -0.00727   0.27880  -0.76026
  30        4PX        -1.72374   0.02345   0.13127
  31        4PY         1.01035   0.04331   0.22650
  32        4PZ        -0.00342  -0.00388   0.00312
  33 5   H  1S          0.46851   0.01338  -0.00439
  34        2S         -0.72278   0.00812   0.01378
  35        3S         -0.42071  -0.08280   0.03714
  36 6   H  1S         -0.46091   0.01165  -0.00301
  37        2S          0.71407   0.00942   0.01308
  38        3S          0.40743  -0.08070   0.03615
     Density Matrix:
                           1         2         3         4         5
   1 1   C  1S          0.65939
   2        2S          0.56149   0.49197
   3        2PX        -0.00042  -0.00054   0.08452
   4        2PY        -0.00119  -0.00165   0.00368   0.08775
   5        2PZ         0.00013   0.00020  -0.00019  -0.00043   0.06448
   6        3S         -0.08884  -0.15370   0.00225   0.00598  -0.00028
   7        3PX         0.00093   0.00144   0.13080   0.00107  -0.00015
   8        3PY         0.00122   0.00187   0.00108   0.13115  -0.00041
   9        3PZ         0.00026   0.00044  -0.00033  -0.00069   0.10375
  10        4S         -0.07931  -0.11416  -0.01614  -0.02916   0.00082
  11        4PX         0.00027   0.00161   0.06981  -0.00447  -0.00094
  12        4PY         0.00070   0.00319  -0.00448   0.06524  -0.00164
  13        4PZ        -0.00020  -0.00045  -0.00127  -0.00216   0.09579
  14 2   H  1S         -0.02062  -0.03285   0.03491  -0.06284  -0.00187
  15        2S         -0.02304  -0.03685   0.04873  -0.08771  -0.00142
  16        3S          0.00053  -0.00078   0.02022  -0.03306  -0.00005
  17 3   H  1S         -0.02121  -0.03375  -0.07287  -0.00183  -0.00206
  18        2S         -0.02338  -0.03734  -0.10034  -0.00241  -0.00164
  19        3S          0.00059  -0.00072  -0.03807   0.00078  -0.00012
  20 4   C  1S          0.00608   0.00981  -0.01098  -0.01896  -0.00061
  21        2S          0.00976   0.01526  -0.01757  -0.03036  -0.00099
  22        2PX         0.01026   0.01640  -0.01246  -0.03214   0.00073
  23        2PY         0.01791   0.02863  -0.03225  -0.04976   0.00142
  24        2PZ        -0.00078  -0.00126  -0.00057  -0.00087   0.06430
  25        3S         -0.02621  -0.03982   0.04930   0.08524   0.00301
  26        3PX         0.01578   0.02443  -0.01837  -0.04592   0.00094
  27        3PY         0.02751   0.04260  -0.04596  -0.07143   0.00186
  28        3PZ        -0.00131  -0.00211  -0.00100  -0.00154   0.10286
  29        4S          0.00546   0.00405   0.02170   0.03793   0.00384
  30        4PX         0.00304   0.00629  -0.01318  -0.02121   0.00100
  31        4PY         0.00511   0.01069  -0.02128  -0.03778   0.00200
  32        4PZ        -0.00111  -0.00180  -0.00160  -0.00260   0.09594
  33 5   H  1S          0.00419   0.00687  -0.00167  -0.01251  -0.00070
  34        2S          0.00621   0.01032   0.00367  -0.02506   0.00003
  35        3S          0.00313   0.00457   0.00439  -0.01746   0.00017
  36 6   H  1S          0.00412   0.00676  -0.01004  -0.00770  -0.00072
  37        2S          0.00608   0.01012  -0.02360  -0.00934  -0.00003
  38        3S          0.00307   0.00449  -0.01736  -0.00498   0.00012
                           6         7         8         9        10
   6        3S          0.45215
   7        3PX        -0.00206   0.20274
   8        3PY        -0.00158  -0.00510   0.19653
   9        3PZ        -0.00085  -0.00028  -0.00063   0.16695
  10        4S          0.27273  -0.02680  -0.04939   0.00106   0.18237
  11        4PX        -0.00695   0.10855  -0.01030  -0.00153  -0.01532
  12        4PY        -0.01299  -0.01031   0.09817  -0.00263  -0.02992
  13        4PZ         0.00194  -0.00171  -0.00286   0.15413   0.00330
  14 2   H  1S          0.08780   0.05644  -0.09807  -0.00311   0.06989
  15        2S          0.09862   0.07916  -0.13640  -0.00240   0.08295
  16        3S          0.00626   0.03316  -0.05081  -0.00009   0.01174
  17 3   H  1S          0.09029  -0.11400  -0.00098  -0.00337   0.06966
  18        2S          0.10006  -0.15678  -0.00055  -0.00269   0.08104
  19        3S          0.00629  -0.05924   0.00314  -0.00018   0.01047
  20 4   C  1S         -0.02662  -0.01716  -0.02969  -0.00104   0.00512
  21        2S         -0.04025  -0.02669  -0.04619  -0.00168   0.00387
  22        2PX        -0.04586  -0.01761  -0.04550   0.00126  -0.01666
  23        2PY        -0.08010  -0.04567  -0.07075   0.00242  -0.02910
  24        2PZ         0.00374  -0.00079  -0.00116   0.10346   0.00373
  25        3S          0.10227   0.07251   0.12565   0.00504   0.00070
  26        3PX        -0.06601  -0.02612  -0.06479   0.00163  -0.02461
  27        3PY        -0.11519  -0.06490  -0.10150   0.00321  -0.04291
  28        3PZ         0.00620  -0.00139  -0.00209   0.16550   0.00620
  29        4S          0.00192   0.03291   0.05779   0.00638  -0.03249
  30        4PX        -0.02230  -0.01958  -0.02968   0.00166  -0.00586
  31        4PY        -0.03819  -0.02984  -0.05439   0.00331  -0.00936
  32        4PZ         0.00528  -0.00225  -0.00361   0.15437   0.00580
  33 5   H  1S         -0.02040  -0.00052  -0.01780  -0.00102  -0.01414
  34        2S         -0.03080   0.00892  -0.03671   0.00018  -0.01812
  35        3S         -0.01173   0.00835  -0.02626   0.00030  -0.00295
  36 6   H  1S         -0.02002  -0.01503  -0.00915  -0.00104  -0.01425
  37        2S         -0.03022  -0.03602  -0.01024   0.00011  -0.01869
  38        3S         -0.01152  -0.02680  -0.00577   0.00022  -0.00343
                          11        12        13        14        15
  11        4PX         0.05923
  12        4PY        -0.00893   0.05062
  13        4PZ        -0.00217  -0.00363   0.14236
  14 2   H  1S          0.03341  -0.05380  -0.00161   0.08113
  15        2S          0.04775  -0.07466  -0.00061   0.10930   0.14926
  16        3S          0.02052  -0.02762   0.00032   0.03644   0.05196
  17 3   H  1S         -0.06267   0.00181  -0.00172  -0.01332  -0.02443
  18        2S         -0.08659   0.00390  -0.00072  -0.02430  -0.04158
  19        3S         -0.03302   0.00410   0.00029  -0.01757  -0.02640
  20 4   C  1S         -0.00322  -0.00586  -0.00093   0.00424   0.00681
  21        2S         -0.00663  -0.01194  -0.00149   0.00701   0.01138
  22        2PX        -0.01351  -0.01957   0.00170   0.00184  -0.00250
  23        2PY        -0.01968  -0.03662   0.00318   0.01124   0.02408
  24        2PZ        -0.00121  -0.00193   0.09554  -0.00091  -0.00031
  25        3S          0.02344   0.04187   0.00437  -0.02115  -0.03426
  26        3PX        -0.02087  -0.02771   0.00230   0.00111  -0.00681
  27        3PY        -0.02785  -0.05344   0.00436   0.01686   0.03620
  28        3PZ        -0.00199  -0.00319   0.15284  -0.00133  -0.00034
  29        4S          0.00860   0.01645   0.00578  -0.01846  -0.02553
  30        4PX        -0.01520  -0.01221   0.00203  -0.00164  -0.00831
  31        4PY        -0.01232  -0.02974   0.00392   0.01535   0.02743
  32        4PZ        -0.00238  -0.00392   0.14260  -0.00076   0.00039
  33 5   H  1S          0.00239  -0.01586  -0.00049   0.01121   0.02324
  34        2S          0.00982  -0.02756   0.00078   0.02384   0.04436
  35        3S          0.00785  -0.01583   0.00053   0.01672   0.02795
  36 6   H  1S         -0.01487  -0.00544  -0.00051  -0.00911  -0.01811
  37        2S         -0.02866  -0.00462   0.00073  -0.01897  -0.03434
  38        3S         -0.01748  -0.00086   0.00048  -0.01035  -0.01794
                          16        17        18        19        20
  16        3S          0.02071
  17 3   H  1S         -0.01784   0.08264
  18        2S         -0.02657   0.10972   0.14774
  19        3S         -0.01235   0.03580   0.05043   0.01981
  20 4   C  1S          0.00381   0.00433   0.00688   0.00383   0.65949
  21        2S          0.00564   0.00716   0.01147   0.00564   0.56159
  22        2PX        -0.00330   0.00882   0.02196   0.01661   0.00129
  23        2PY         0.01770   0.00730   0.00980   0.00584   0.00194
  24        2PZ         0.00003  -0.00089  -0.00024   0.00009   0.00013
  25        3S         -0.01463  -0.02153  -0.03445  -0.01456  -0.08934
  26        3PX        -0.00668   0.01416   0.03473   0.02597  -0.00041
  27        3PY         0.02666   0.00955   0.01221   0.00741  -0.00102
  28        3PZ         0.00009  -0.00131  -0.00024   0.00017   0.00028
  29        4S         -0.00643  -0.01822  -0.02465  -0.00587  -0.08026
  30        4PX        -0.00693   0.01402   0.02765   0.01715  -0.00019
  31        4PY         0.01613   0.00656   0.00681   0.00210  -0.00015
  32        4PZ         0.00041  -0.00075   0.00043   0.00045  -0.00004
  33 5   H  1S          0.01614  -0.00910  -0.01802  -0.00929  -0.02005
  34        2S          0.02735  -0.01882  -0.03387  -0.01678  -0.02199
  35        3S          0.01467  -0.01023  -0.01760  -0.00894   0.00062
  36 6   H  1S         -0.00942   0.01121   0.02306   0.01577  -0.01968
  37        2S         -0.01719   0.02391   0.04415   0.02687  -0.02191
  38        3S         -0.00921   0.01680   0.02785   0.01446   0.00050
                          21        22        23        24        25
  21        2S          0.49210
  22        2PX         0.00187   0.08248
  23        2PY         0.00277   0.00370   0.08770
  24        2PZ         0.00019   0.00022   0.00029   0.06420
  25        3S         -0.15436  -0.00594  -0.00895  -0.00024   0.45403
  26        3PX        -0.00061   0.12835   0.00201   0.00012  -0.00059
  27        3PY        -0.00155   0.00209   0.13153   0.00009   0.00049
  28        3PZ         0.00047   0.00032   0.00047   0.10270  -0.00094
  29        4S         -0.11601   0.01329   0.02217   0.00107   0.27921
  30        4PX        -0.00145   0.07401  -0.00533   0.00066   0.00613
  31        4PY        -0.00216  -0.00522   0.06764   0.00122   0.00961
  32        4PZ        -0.00017   0.00121   0.00219   0.09576   0.00109
  33 5   H  1S         -0.03193  -0.03329   0.06373  -0.00198   0.08539
  34        2S         -0.03514  -0.05001   0.08855  -0.00155   0.09401
  35        3S         -0.00056  -0.02315   0.03355  -0.00014   0.00548
  36 6   H  1S         -0.03138   0.07097   0.00291  -0.00180   0.08390
  37        2S         -0.03503   0.10136   0.00070  -0.00131   0.09366
  38        3S         -0.00071   0.04095  -0.00348  -0.00006   0.00576
                          26        27        28        29        30
  26        3PX         0.20004
  27        3PY        -0.00214   0.19784
  28        3PZ         0.00015   0.00013   0.16430
  29        4S          0.02493   0.04128   0.00133   0.18707
  30        4PX         0.11582  -0.01085   0.00103   0.01561   0.06818
  31        4PY        -0.01079   0.10230   0.00194   0.02436  -0.01081
  32        4PZ         0.00152   0.00279   0.15320   0.00308   0.00169
  33 5   H  1S         -0.05310   0.09990  -0.00327   0.06644  -0.03488
  34        2S         -0.08024   0.13829  -0.00258   0.07612  -0.05307
  35        3S         -0.03761   0.05171  -0.00023   0.00877  -0.02499
  36 6   H  1S          0.11223   0.00400  -0.00301   0.06688   0.06648
  37        2S          0.16009  -0.00035  -0.00224   0.07811   0.09534
  38        3S          0.06435  -0.00684  -0.00012   0.00999   0.03869
                          31        32        33        34        35
  31        4PY         0.05448
  32        4PZ         0.00322   0.14290
  33 5   H  1S          0.05625  -0.00170   0.08088
  34        2S          0.07808  -0.00068   0.11013   0.15251
  35        3S          0.02941   0.00026   0.03832   0.05572   0.02323
  36 6   H  1S         -0.00193  -0.00159  -0.01226  -0.02627  -0.02035
  37        2S         -0.00669  -0.00055  -0.02639  -0.04940  -0.03253
  38        3S         -0.00683   0.00029  -0.02062  -0.03272  -0.01627
                          36        37        38
  36 6   H  1S          0.07972
  37        2S          0.10965   0.15330
  38        3S          0.03865   0.05662   0.02376
    Full Mulliken population analysis:
                           1         2         3         4         5
   1 1   C  1S          0.65939
   2        2S          0.49324   0.49197
   3        2PX         0.00000   0.00000   0.08452
   4        2PY         0.00000   0.00000   0.00000   0.08775
   5        2PZ         0.00000   0.00000   0.00000   0.00000   0.06448
   6        3S         -0.02924  -0.06437   0.00000   0.00000   0.00000
   7        3PX         0.00000   0.00000   0.08229   0.00000   0.00000
   8        3PY         0.00000   0.00000   0.00000   0.08251   0.00000
   9        3PZ         0.00000   0.00000   0.00000   0.00000   0.06527
  10        4S         -0.01220  -0.02136   0.00000   0.00000   0.00000
  11        4PX         0.00000   0.00000   0.01538   0.00000   0.00000
  12        4PY         0.00000   0.00000   0.00000   0.01437   0.00000
  13        4PZ         0.00000   0.00000   0.00000   0.00000   0.02110
  14 2   H  1S         -0.00023  -0.00033   0.00185   0.00553   0.00001
  15        2S         -0.00168  -0.00321   0.00437   0.01306   0.00001
  16        3S          0.00004  -0.00007   0.00070   0.00189   0.00000
  17 3   H  1S         -0.00026  -0.00038   0.00799  -0.00000   0.00001
  18        2S         -0.00176  -0.00337   0.01775  -0.00000   0.00001
  19        3S          0.00005  -0.00007   0.00253   0.00000   0.00000
  20 4   C  1S          0.00000   0.00000  -0.00002  -0.00006   0.00000
  21        2S          0.00000  -0.00000  -0.00002  -0.00006   0.00000
  22        2PX        -0.00002  -0.00002   0.00011   0.00086   0.00000
  23        2PY        -0.00006  -0.00005   0.00086   0.00198   0.00000
  24        2PZ        -0.00000  -0.00000  -0.00000  -0.00000   0.00042
  25        3S         -0.00059  -0.00100   0.00258   0.00772  -0.00000
  26        3PX        -0.00053  -0.00098   0.00019   0.00556   0.00000
  27        3PY        -0.00161  -0.00296   0.00557   0.01073   0.00000
  28        3PZ        -0.00000  -0.00000  -0.00000  -0.00000   0.00612
  29        4S          0.00035   0.00031   0.00099   0.00298  -0.00000
  30        4PX        -0.00018  -0.00045  -0.00071   0.00147   0.00000
  31        4PY        -0.00052  -0.00132   0.00147   0.00098   0.00000
  32        4PZ        -0.00000  -0.00000  -0.00000  -0.00000   0.00903
  33 5   H  1S          0.00000   0.00000  -0.00000  -0.00000   0.00000
  34        2S          0.00001   0.00002   0.00000  -0.00031  -0.00000
  35        3S          0.00007   0.00012   0.00002  -0.00069  -0.00000
  36 6   H  1S          0.00000   0.00000  -0.00000  -0.00000   0.00000
  37        2S          0.00001   0.00002  -0.00023  -0.00006   0.00000
  38        3S          0.00007   0.00012  -0.00056  -0.00011  -0.00000
                           6         7         8         9        10
   6        3S          0.45215
   7        3PX         0.00000   0.20274
   8        3PY         0.00000   0.00000   0.19653
   9        3PZ         0.00000   0.00000   0.00000   0.16695
  10        4S          0.21128   0.00000   0.00000   0.00000   0.18237
  11        4PX         0.00000   0.07093   0.00000   0.00000   0.00000
  12        4PY         0.00000   0.00000   0.06415   0.00000   0.00000
  13        4PZ         0.00000   0.00000   0.00000   0.10072   0.00000
  14 2   H  1S          0.01608   0.01107   0.03193   0.00005   0.01847
  15        2S          0.04145   0.01992   0.05699   0.00005   0.04778
  16        3S          0.00288   0.00398   0.01012   0.00000   0.00886
  17 3   H  1S          0.01721   0.04449  -0.00000   0.00006   0.01868
  18        2S          0.04301   0.07714  -0.00000   0.00006   0.04722
  19        3S          0.00292   0.01373   0.00001   0.00000   0.00795
  20 4   C  1S         -0.00060  -0.00058  -0.00174   0.00000   0.00032
  21        2S         -0.00101  -0.00107  -0.00321   0.00000   0.00029
  22        2PX         0.00240   0.00018   0.00551   0.00000   0.00076
  23        2PY         0.00725   0.00553   0.01063   0.00000   0.00229
  24        2PZ         0.00000  -0.00000  -0.00000   0.00616   0.00000
  25        3S          0.02184   0.01361   0.04083  -0.00001   0.00027
  26        3PX         0.01239  -0.00127   0.01850   0.00000   0.00379
  27        3PY         0.03743   0.01853   0.02852   0.00001   0.01146
  28        3PZ         0.00001  -0.00000  -0.00000   0.03534   0.00001
  29        4S          0.00073   0.00507   0.01543  -0.00001  -0.02041
  30        4PX         0.00627  -0.00402   0.00588   0.00000   0.00177
  31        4PY         0.01858   0.00591   0.00125   0.00000   0.00491
  32        4PZ         0.00001  -0.00000  -0.00000   0.04937   0.00001
  33 5   H  1S         -0.00005  -0.00000  -0.00018   0.00000  -0.00075
  34        2S         -0.00117   0.00007  -0.00316  -0.00000  -0.00301
  35        3S         -0.00189   0.00012  -0.00420  -0.00000  -0.00106
  36 6   H  1S         -0.00005  -0.00012  -0.00005   0.00000  -0.00073
  37        2S         -0.00110  -0.00248  -0.00049  -0.00000  -0.00304
  38        3S         -0.00183  -0.00349  -0.00053  -0.00000  -0.00121
                          11        12        13        14        15
  11        4PX         0.05923
  12        4PY         0.00000   0.05062
  13        4PZ         0.00000   0.00000   0.14236
  14 2   H  1S          0.00645   0.01724   0.00003   0.08113
  15        2S          0.01551   0.04027   0.00002   0.07720   0.14926
  16        3S          0.00523   0.01168  -0.00001   0.01362   0.04100
  17 3   H  1S          0.02347   0.00001   0.00003  -0.00001  -0.00062
  18        2S          0.05441   0.00002   0.00002  -0.00061  -0.00507
  19        3S          0.01619   0.00002  -0.00001  -0.00193  -0.00759
  20 4   C  1S         -0.00019  -0.00059   0.00000   0.00000   0.00002
  21        2S         -0.00047  -0.00147   0.00000   0.00000   0.00003
  22        2PX        -0.00073   0.00136   0.00000  -0.00000   0.00000
  23        2PY         0.00136   0.00095   0.00000  -0.00000  -0.00037
  24        2PZ        -0.00000  -0.00000   0.00900   0.00000   0.00000
  25        3S          0.00659   0.02038  -0.00001  -0.00007  -0.00155
  26        3PX        -0.00429   0.00548   0.00000  -0.00000   0.00003
  27        3PY         0.00551   0.00123   0.00000  -0.00023  -0.00363
  28        3PZ        -0.00000  -0.00000   0.04888   0.00000   0.00000
  29        4S          0.00260   0.00863  -0.00001  -0.00110  -0.00464
  30        4PX        -0.00733   0.00309   0.00000   0.00001   0.00016
  31        4PY         0.00312  -0.00566   0.00001  -0.00247  -0.01044
  32        4PZ        -0.00000  -0.00001   0.08958   0.00000  -0.00000
  33 5   H  1S          0.00003  -0.00232   0.00000   0.00000   0.00000
  34        2S          0.00031  -0.00981  -0.00001   0.00000   0.00016
  35        3S          0.00032  -0.00728  -0.00001   0.00023   0.00147
  36 6   H  1S         -0.00176  -0.00045   0.00000  -0.00000  -0.00004
  37        2S         -0.00829  -0.00093  -0.00001  -0.00004  -0.00091
  38        3S         -0.00658  -0.00023  -0.00001  -0.00047  -0.00248
                          16        17        18        19        20
  16        3S          0.02071
  17 3   H  1S         -0.00196   0.08264
  18        2S         -0.00764   0.07751   0.14774
  19        3S         -0.00636   0.01338   0.03978   0.01981
  20 4   C  1S          0.00010   0.00000   0.00002   0.00010   0.65949
  21        2S          0.00017   0.00000   0.00003   0.00017   0.49333
  22        2PX         0.00001  -0.00000  -0.00029  -0.00059   0.00000
  23        2PY        -0.00075  -0.00000  -0.00008  -0.00014   0.00000
  24        2PZ        -0.00000   0.00000   0.00000  -0.00000   0.00000
  25        3S         -0.00255  -0.00008  -0.00159  -0.00256  -0.02941
  26        3PX         0.00006  -0.00017  -0.00296  -0.00368   0.00000
  27        3PY        -0.00449  -0.00007  -0.00068  -0.00069   0.00000
  28        3PZ        -0.00000   0.00000   0.00000  -0.00000   0.00000
  29        4S         -0.00243  -0.00110  -0.00453  -0.00223  -0.01234
  30        4PX         0.00016  -0.00191  -0.00886  -0.00682   0.00000
  31        4PY        -0.00764  -0.00058  -0.00143  -0.00055   0.00000
  32        4PZ        -0.00000   0.00000  -0.00000  -0.00000   0.00000
  33 5   H  1S          0.00023  -0.00000  -0.00004  -0.00042  -0.00021
  34        2S          0.00144  -0.00004  -0.00092  -0.00235  -0.00157
  35        3S          0.00248  -0.00047  -0.00246  -0.00287   0.00005
  36 6   H  1S         -0.00043   0.00000   0.00000   0.00022  -0.00020
  37        2S         -0.00238   0.00000   0.00015   0.00141  -0.00153
  38        3S         -0.00293   0.00023   0.00146   0.00243   0.00004
                          21        22        23        24        25
  21        2S          0.49210
  22        2PX         0.00000   0.08248
  23        2PY         0.00000   0.00000   0.08770
  24        2PZ         0.00000   0.00000   0.00000   0.06420
  25        3S         -0.06465   0.00000   0.00000   0.00000   0.45403
  26        3PX         0.00000   0.08074   0.00000   0.00000   0.00000
  27        3PY         0.00000   0.00000   0.08275   0.00000   0.00000
  28        3PZ         0.00000   0.00000   0.00000   0.06461   0.00000
  29        4S         -0.02171   0.00000   0.00000   0.00000   0.21630
  30        4PX         0.00000   0.01630   0.00000   0.00000   0.00000
  31        4PY         0.00000   0.00000   0.01490   0.00000   0.00000
  32        4PZ         0.00000   0.00000   0.00000   0.02109   0.00000
  33 5   H  1S         -0.00030   0.00144   0.00572   0.00001   0.01535
  34        2S         -0.00301   0.00375   0.01374   0.00001   0.03910
  35        3S         -0.00005   0.00067   0.00202   0.00000   0.00251
  36 6   H  1S         -0.00027   0.00670   0.00002   0.00001   0.01461
  37        2S         -0.00292   0.01717   0.00001   0.00001   0.03826
  38        3S         -0.00007   0.00273  -0.00002   0.00000   0.00262
                          26        27        28        29        30
  26        3PX         0.20004
  27        3PY         0.00000   0.19784
  28        3PZ         0.00000   0.00000   0.16430
  29        4S          0.00000   0.00000   0.00000   0.18707
  30        4PX         0.07568   0.00000   0.00000   0.00000   0.06818
  31        4PY         0.00000   0.06685   0.00000   0.00000   0.00000
  32        4PZ         0.00000   0.00000   0.10011   0.00000   0.00000
  33 5   H  1S          0.00867   0.03375   0.00006   0.01743   0.00567
  34        2S          0.01696   0.06046   0.00006   0.04361   0.01455
  35        3S          0.00381   0.01085   0.00000   0.00660   0.00538
  36 6   H  1S          0.04109   0.00011   0.00005   0.01734   0.02473
  37        2S          0.07694  -0.00001   0.00005   0.04433   0.05998
  38        3S          0.01499  -0.00012   0.00000   0.00747   0.01919
                          31        32        33        34        35
  31        4PY         0.05448
  32        4PZ         0.00000   0.14290
  33 5   H  1S          0.01892   0.00003   0.08088
  34        2S          0.04430   0.00002   0.07779   0.15251
  35        3S          0.01311  -0.00001   0.01432   0.04396   0.02323
  36 6   H  1S         -0.00006   0.00003  -0.00001  -0.00084  -0.00244
  37        2S         -0.00032   0.00002  -0.00084  -0.00699  -0.01005
  38        3S         -0.00026  -0.00001  -0.00247  -0.01011  -0.00878
                          36        37        38
  36 6   H  1S          0.07972
  37        2S          0.07745   0.15330
  38        3S          0.01444   0.04467   0.02376
     Gross orbital populations:
                           1
   1 1   C  1S          1.10434
   2        2S          0.88586
   3        2PX         0.22761
   4        2PY         0.23608
   5        2PZ         0.16647
   6        3S          0.79258
   7        3PX         0.56226
   8        3PY         0.55521
   9        3PZ         0.42403
  10        4S          0.50472
  11        4PX         0.25699
  12        4PY         0.21074
  13        4PZ         0.41168
  14 2   H  1S          0.27342
  15        2S          0.46653
  16        3S          0.08568
  17 3   H  1S          0.27807
  18        2S          0.46401
  19        3S          0.08184
  20 4   C  1S          1.10441
  21        2S          0.88584
  22        2PX         0.22153
  23        2PY         0.23623
  24        2PZ         0.16551
  25        3S          0.79252
  26        3PX         0.55105
  27        3PY         0.55708
  28        3PZ         0.41957
  29        4S          0.50672
  30        4PX         0.27820
  31        4PY         0.21754
  32        4PZ         0.41215
  33 5   H  1S          0.27270
  34        2S          0.46953
  35        3S          0.08908
  36 6   H  1S          0.26908
  37        2S          0.47115
  38        3S          0.09197
          Condensed to atoms (all electrons):
               1          2          3          4          5          6
     1  C    5.029182   0.387978   0.389136   0.601226  -0.034814  -0.034126
     2  H    0.387978   0.514737  -0.031791  -0.041637   0.006014  -0.009679
     3  H    0.389136  -0.031791   0.511531  -0.041298  -0.009576   0.005917
     4  C    0.601226  -0.041637  -0.041298   5.063907   0.383447   0.382710
     5  H   -0.034814   0.006014  -0.009576   0.383447   0.528773  -0.042531
     6  H   -0.034126  -0.009679   0.005917   0.382710  -0.042531   0.529912
 Mulliken charges:
               1
     1  C   -0.338582
     2  H    0.174376
     3  H    0.176080
     4  C   -0.348356
     5  H    0.168686
     6  H    0.167796
 Sum of Mulliken charges =   0.00000
 Mulliken charges with hydrogens summed into heavy atoms:
               1
     1  C    0.011875
     4  C   -0.011875
 Electronic spatial extent (au):  <R**2>=             83.7025
 Charge=             -0.0000 electrons
 Dipole moment (field-independent basis, Debye):
    X=              0.0053    Y=              0.0328    Z=             -0.1638  Tot=              0.1671
 Quadrupole moment (field-independent basis, Debye-Ang):
   XX=            -12.2170   YY=            -12.2280   ZZ=            -15.6639
   XY=              0.0137   XZ=             -0.0002   YZ=             -0.0050
 Traceless Quadrupole moment (field-independent basis, Debye-Ang):
   XX=              1.1526   YY=              1.1416   ZZ=             -2.2942
   XY=              0.0137   XZ=             -0.0002   YZ=             -0.0050
 Octapole moment (field-independent basis, Debye-Ang**2):
  XXX=             -0.4427  YYY=             -0.0242  ZZZ=             -0.0482  XYY=              0.2951
  XXY=             -0.0197  XXZ=             -0.2052  XZZ=             -0.1063  YZZ=             -0.0948
  YYZ=             -0.2759  XYZ=             -0.0606
 Hexadecapole moment (field-independent basis, Debye-Ang**3):
 XXXX=            -34.3412 YYYY=            -55.2361 ZZZZ=            -17.8253 XXXY=             -7.2635
 XXXZ=              0.0402 YYYX=            -10.6807 YYYZ=              0.0500 ZZZX=              0.0467
 ZZZY=              0.0823 XXYY=            -16.1891 XXZZ=             -9.9239 YYZZ=            -13.6381
 XXYZ=              0.0178 YYXZ=             -0.0017 ZZXY=             -3.2028
 N-N= 3.307564246141D+01 E-N=-2.478599048516D+02  KE= 7.815286933715D+01
 Orbital energies and kinetic energies (alpha):
                                 1                 2
   1         O               -10.290457         15.978500
   2         O               -10.288058         15.979807
   3         O                -0.864224          1.539375
   4         O                -0.672208          1.270182
   5         O                -0.559646          0.942799
   6         O                -0.509441          1.284117
   7         O                -0.435558          1.042373
   8         O                -0.357091          1.039282
   9         V                 0.079517          1.182222
  10         V                 0.140780          0.589870
  11         V                 0.164502          0.595588
  12         V                 0.170021          0.679899
  13         V                 0.240795          0.584772
  14         V                 0.370580          0.844987
  15         V                 0.392980          0.932794
  16         V                 0.402633          0.793494
  17         V                 0.463508          1.196060
  18         V                 0.489632          1.410779
  19         V                 0.493682          1.303021
  20         V                 0.591105          1.653861
  21         V                 0.665132          1.570670
  22         V                 0.691110          2.146609
  23         V                 0.772330          2.431034
  24         V                 0.775679          2.307483
  25         V                 0.835998          1.078372
  26         V                 0.952585          3.429061
  27         V                 2.230935          3.931081
  28         V                 2.290964          4.026072
  29         V                 2.333108          4.304817
  30         V                 2.404225          4.507458
  31         V                 2.671454          6.300940
  32         V                 2.816207          6.300772
  33         V                 2.879099          6.144951
  34         V                 2.950302          6.227300
  35         V                 3.142203          6.819454
  36         V                 3.316084          6.403445
  37         V                23.351818         60.074198
  38         V                23.706512         60.204337
 Total kinetic energy from orbitals= 7.815286933715D+01
 Calling FoFJK, ICntrl=      2127 FMM=F ISym2X=0 I1Cent= 0 IOpClX= 0 NMat=1 NMatS=1 NMatT=0.
 -------------------------------------------------------------------
 Center     Atomic                   Forces (Hartrees/Bohr)
 Number     Number              X              Y              Z
 -------------------------------------------------------------------
      1        6           0.016447402    0.010299339   -0.006629593
      2        1          -0.011309075    0.005107079    0.003335123
      3        1           0.000710797   -0.006683010    0.002950879
      4        6           0.013210271    0.013484634   -0.007133784
      5        1          -0.000291125   -0.014052944    0.003625868
      6        1          -0.018768269   -0.008155098    0.003851507
 -------------------------------------------------------------------
 Cartesian Forces:  Max     0.018768269 RMS     0.009692675

 GradGradGradGradGradGradGradGradGradGradGradGradGradGradGradGradGradGrad
 Berny optimization.
 Search for a local minimum.
 Step number   1 out of a maximum of    2
 All quantities printed in internal units (Hartrees-Bohrs-Radians)
 Second derivative matrix not updated -- first step.
 The second derivative matrix:
                          X1        Y1        Z1        X2        Y2
           X1           0.76475
           Y1           0.09361   0.85640
           Z1           0.00965   0.01449   0.17015
           X2          -0.16739   0.09788   0.00353   0.14459
           Y2           0.10320  -0.27946  -0.01251  -0.11695   0.26812
           Z2           0.00561  -0.01574  -0.05470  -0.00515   0.01287
           X3          -0.35544   0.00241  -0.01382   0.00018   0.00013
           Y3          -0.00270  -0.11082  -0.00328   0.03214   0.01921
           Z3          -0.01768  -0.00315  -0.05608   0.00261   0.00103
           X4          -0.26762  -0.17907  -0.00103   0.02265   0.01360
           Y4          -0.17960  -0.47451  -0.00165  -0.01308  -0.00786
           Z4           0.00238   0.00430  -0.09416  -0.00100  -0.00139
           X5           0.02366  -0.01366   0.00104  -0.00002   0.00001
           Y5           0.01139  -0.00657   0.00140   0.00001  -0.00001
           Z5          -0.00088   0.00056   0.01769   0.00043  -0.00022
           X6           0.00203  -0.00117   0.00063  -0.00002   0.00001
           Y6          -0.02591   0.01497   0.00154   0.00001  -0.00001
           Z6           0.00092  -0.00048   0.01709  -0.00043   0.00022
                          Z2        X3        Y3        Z3        X4
           Z2           0.02873
           X3          -0.00046   0.35551
           Y3           0.00282  -0.00268   0.07616
           Z3           0.01054   0.01502   0.00210   0.02977
           X4           0.00083  -0.00021  -0.02678  -0.00080   0.70511
           Y4          -0.00043   0.00012   0.01546   0.00051   0.12681
           Z4           0.01535  -0.00074  -0.00163   0.01584  -0.00853
           X5          -0.00042  -0.00002   0.00001   0.00042  -0.14316
           Y5           0.00027   0.00001  -0.00001  -0.00028   0.09083
           Z5           0.00927   0.00043  -0.00028  -0.00945  -0.00508
           X6          -0.00042  -0.00002   0.00001   0.00043  -0.31677
           Y6           0.00021   0.00001  -0.00001  -0.00022  -0.02538
           Z6          -0.00920  -0.00043   0.00028   0.00937   0.01460
                          Y4        Z4        X5        Y5        Z5
           Y4           0.86176
           Z4          -0.01676   0.17836
           X5           0.08215  -0.00338   0.12213
           Y5          -0.29111   0.01228  -0.10102   0.28209
           Z5           0.01516  -0.05813   0.00450  -0.01315   0.03047
           X6          -0.01639   0.01126  -0.00259  -0.00122   0.00060
           Y6          -0.10373   0.00320   0.03251   0.01561  -0.00208
           Z6           0.00318  -0.05727  -0.00216  -0.00053   0.01014
                          X6        Y6        Z6
           X6           0.31737
           Y6           0.01875   0.07317
           Z6          -0.01251  -0.00266   0.02987
 ITU=  0
     Eigenvalues ---    0.03742   0.04375   0.08952   0.10286   0.13522
     Eigenvalues ---    0.17379   0.26339   0.29101   0.52830   0.69677
     Eigenvalues ---    0.97563   1.56499
 Angle between quadratic step and forces=  39.13 degrees.
 Linear search not attempted -- first point.
 B after Tr=     0.008777    0.010441   -0.016925
         Rot=    1.000000   -0.000118    0.000064   -0.000115 Ang=  -0.02 deg.
 Variable       Old X    -DE/DX   Delta X   Delta X   Delta X     New X
                                 (Linear)    (Quad)   (Total)
    X1       -0.63709   0.01645   0.00000   0.02468   0.03371  -0.60339
    Y1       -1.10174   0.01030   0.00000   0.02833   0.03864  -1.06311
    Z1        0.01955  -0.00663   0.00000  -0.03662  -0.05387  -0.03432
    X2        0.43222  -0.01131   0.00000  -0.04705  -0.03762   0.39461
    Y2       -2.87721   0.00511   0.00000   0.01658   0.02712  -2.85009
    Z2       -0.07176   0.00334   0.00000   0.04473   0.02718  -0.04458
    X3       -2.68161   0.00071   0.00000   0.02297   0.03201  -2.64960
    Y3       -1.08287  -0.00668   0.00000  -0.03324  -0.02340  -1.10627
    Z3       -0.07437   0.00295   0.00000   0.04355   0.02602  -0.04835
    X4        0.62665   0.01321   0.00000   0.01164   0.02017   0.64682
    Y4        1.08674   0.01348   0.00000   0.01494   0.02553   1.11227
    Z4        0.01253  -0.00713   0.00000  -0.03340  -0.04999  -0.03746
    X5       -0.28098  -0.00029   0.00000  -0.02341  -0.01530  -0.29628
    Y5        2.96441  -0.01405   0.00000  -0.04067  -0.03029   2.93412
    Z5       -0.08301   0.00363   0.00000   0.04221   0.02593  -0.05708
    X6        2.72809  -0.01877   0.00000  -0.04148  -0.03297   2.69512
    Y6        1.24781  -0.00816   0.00000  -0.04865  -0.03758   1.21023
    Z6       -0.07976   0.00385   0.00000   0.04102   0.02473  -0.05503
         Item               Value     Threshold  Converged?
 Maximum Force            0.018768     0.000450     NO 
 RMS     Force            0.009693     0.000300     NO 
 Maximum Displacement     0.053872     0.001800     NO 
 RMS     Displacement     0.032628     0.001200     NO 
 Predicted change in Energy=-2.365674D-03
 GradGradGradGradGradGradGradGradGradGradGradGradGradGradGradGradGradGrad

 Unable to Open any file for archive entry.
 1\1\GINC-BHD0009\Force\RwB97XD\6-311G\C2H4\BWEIGHT\11-Jan-2023\0\\# WB
 97XD/6-311G SCF=XQC FORCE nosym pop=full guess=read\\MD Step 999\\0,1\
 C,-0.33713431,-0.58301806,0.01034657\H,0.22872158,-1.52255195,-0.03797
 169\H,-1.4190464,-0.57302965,-0.03935423\C,0.33161032,0.57507638,0.006
 62799\H,-0.14868652,1.56870006,-0.04392628\H,1.44364056,0.6603136,-0.0
 4220645\\Version=ES64L-G16RevC.01\HF=-78.5546313\RMSD=6.330e-09\RMSF=9
 .693e-03\Dipole=0.0020689,0.0129167,-0.0644264\Quadrupole=0.856944,0.8
 487734,-1.7057175,0.0101632,-0.0001452,-0.0037105\PG=C01 [X(C2H4)]\\@
 The archive entry for this job was punched.


 Standing in the middle of the road is very dangerous;
 you get knocked down by the traffic from both sides.
                                -- Margaret Thatcher
 Job cpu time:       0 days  0 hours  0 minutes 23.6 seconds.
 Elapsed time:       0 days  0 hours  0 minutes  8.0 seconds.
 File lengths (MBytes):  RWF=    272 Int=      0 D2E=      0 Chk=     32 Scr=     32
 Normal termination of Gaussian 16 at Wed Jan 11 18:48:39 2023.
