 Entering Gaussian System, Link 0=g16
 Initial command:
 /software/gaussian/g16-c01/avx2/g16/l1.exe "/gpfs/fs2/scratch/bweight/software/many_molecule_many_mode_NAMD/src/NAMD/EXAMPLE_4_BOMD_S1_HF/G16/DIMER/Gau-21969.inp" -scrdir="/gpfs/fs2/scratch/bweight/software/many_molecule_many_mode_NAMD/src/NAMD/EXAMPLE_4_BOMD_S1_HF/G16/DIMER/"
 Entering Link 1 = /software/gaussian/g16-c01/avx2/g16/l1.exe PID=     21970.
  
 Copyright (c) 1988-2019, Gaussian, Inc.  All Rights Reserved.
  
 This is part of the Gaussian(R) 16 program.  It is based on
 the Gaussian(R) 09 system (copyright 2009, Gaussian, Inc.),
 the Gaussian(R) 03 system (copyright 2003, Gaussian, Inc.),
 the Gaussian(R) 98 system (copyright 1998, Gaussian, Inc.),
 the Gaussian(R) 94 system (copyright 1995, Gaussian, Inc.),
 the Gaussian 92(TM) system (copyright 1992, Gaussian, Inc.),
 the Gaussian 90(TM) system (copyright 1990, Gaussian, Inc.),
 the Gaussian 88(TM) system (copyright 1988, Gaussian, Inc.),
 the Gaussian 86(TM) system (copyright 1986, Carnegie Mellon
 University), and the Gaussian 82(TM) system (copyright 1983,
 Carnegie Mellon University). Gaussian is a federally registered
 trademark of Gaussian, Inc.
  
 This software contains proprietary and confidential information,
 including trade secrets, belonging to Gaussian, Inc.
  
 This software is provided under written license and may be
 used, copied, transmitted, or stored only in accord with that
 written license.
  
 The following legend is applicable only to US Government
 contracts under FAR:
  
                    RESTRICTED RIGHTS LEGEND
  
 Use, reproduction and disclosure by the US Government is
 subject to restrictions as set forth in subparagraphs (a)
 and (c) of the Commercial Computer Software - Restricted
 Rights clause in FAR 52.227-19.
  
 Gaussian, Inc.
 340 Quinnipiac St., Bldg. 40, Wallingford CT 06492
  
  
 ---------------------------------------------------------------
 Warning -- This program may not be used in any manner that
 competes with the business of Gaussian, Inc. or will provide
 assistance to any competitor of Gaussian, Inc.  The licensee
 of this program is prohibited from giving any competitor of
 Gaussian, Inc. access to this program.  By using this program,
 the user acknowledges that Gaussian, Inc. is engaged in the
 business of creating and licensing software in the field of
 computational chemistry and represents and warrants to the
 licensee that it is not a competitor of Gaussian, Inc. and that
 it will not use this program in any manner prohibited above.
 ---------------------------------------------------------------
  

 Cite this work as:
 Gaussian 16, Revision C.01,
 M. J. Frisch, G. W. Trucks, H. B. Schlegel, G. E. Scuseria, 
 M. A. Robb, J. R. Cheeseman, G. Scalmani, V. Barone, 
 G. A. Petersson, H. Nakatsuji, X. Li, M. Caricato, A. V. Marenich, 
 J. Bloino, B. G. Janesko, R. Gomperts, B. Mennucci, H. P. Hratchian, 
 J. V. Ortiz, A. F. Izmaylov, J. L. Sonnenberg, D. Williams-Young, 
 F. Ding, F. Lipparini, F. Egidi, J. Goings, B. Peng, A. Petrone, 
 T. Henderson, D. Ranasinghe, V. G. Zakrzewski, J. Gao, N. Rega, 
 G. Zheng, W. Liang, M. Hada, M. Ehara, K. Toyota, R. Fukuda, 
 J. Hasegawa, M. Ishida, T. Nakajima, Y. Honda, O. Kitao, H. Nakai, 
 T. Vreven, K. Throssell, J. A. Montgomery, Jr., J. E. Peralta, 
 F. Ogliaro, M. J. Bearpark, J. J. Heyd, E. N. Brothers, K. N. Kudin, 
 V. N. Staroverov, T. A. Keith, R. Kobayashi, J. Normand, 
 K. Raghavachari, A. P. Rendell, J. C. Burant, S. S. Iyengar, 
 J. Tomasi, M. Cossi, J. M. Millam, M. Klene, C. Adamo, R. Cammi, 
 J. W. Ochterski, R. L. Martin, K. Morokuma, O. Farkas, 
 J. B. Foresman, and D. J. Fox, Gaussian, Inc., Wallingford CT, 2019.
 
 ******************************************
 Gaussian 16:  ES64L-G16RevC.01  3-Jul-2019
                29-Dec-2022 
 ******************************************
 %chk=geometry.chk
 %nprocshared=1
 Will use up to    1 processors via shared memory.
 %mem=10GB
 -----------------------------------------------------------
 # BLYP/3-21G* nosymm iop(2/12=3,3/33=1) guess=only pop=full
 -----------------------------------------------------------
 1/38=1,172=1/1;
 2/12=3,15=1,17=6,18=5,40=1/2;
 3/5=5,7=1,11=2,25=1,30=1,33=1,74=402,89=1/1,2;
 4//1;
 6/7=3,28=1/1;
 99/5=2/99;
 ------------
 MD Step 1000
 ------------
 Symbolic Z-matrix:
 Charge =  0 Multiplicity = 1
 Li                    2.21338   2.21008   1.69066 
 F                     0.66499   0.66612   3.8559 
 Li                    2.21055   2.20729   1.69948 
 F                     0.6675    0.66862   3.85416 
 
                          Input orientation:                          
 ---------------------------------------------------------------------
 Center     Atomic      Atomic             Coordinates (Angstroms)
 Number     Number       Type             X           Y           Z
 ---------------------------------------------------------------------
      1          3           0        2.213375    2.210083    1.690662
      2          9           0        0.664993    0.666123    3.855904
      3          3           0        2.210548    2.207291    1.699475
      4          9           0        0.667501    0.668618    3.854159
 ---------------------------------------------------------------------
                    Distance matrix (angstroms):
                    1          2          3          4
     1  Li   0.000000
     2  F    3.077267   0.000000
     3  Li   0.009668   3.068244   0.000000
     4  F    3.073525   0.003945   3.064501   0.000000
 Symmetry turned off by external request.
 This structure is nearly, but not quite of a higher symmetry.
 Consider Symm=Loose if the higher symmetry is desired.
 Stoichiometry    F2Li2
 Framework group  C1[X(F2Li2)]
 Deg. of freedom     6
 Full point group                 C1      NOp   1
 Rotational constants (GHZ):     8860280.8838452           5.2295650           5.2295619
 Standard basis: 3-21G* (6D, 7F)
                         Coordinates in L301:                         
 ---------------------------------------------------------------------
 Center     Atomic      Atomic             Coordinates (Angstroms)
 Number     Number       Type             X           Y           Z
 ---------------------------------------------------------------------
      1          3           0        2.213375    2.210083    1.690662
      2          9           0        0.664993    0.666123    3.855904
      3          3           0        2.210548    2.207291    1.699475
      4          9           0        0.667501    0.668618    3.854159
 ---------------------------------------------------------------------
 FixB: optimizing general contractions.
 Ernie: Thresh=  0.10000D-02 Tol=  0.10000D-05 Strict=F.
 IA=     1 ShT= 0 ShC= 0 NL=   1 NS=   0.
 IA=     1 L=0 SC=0 ISt=    0 NBk=    0 NP=    0 IndPr=    0.
 IA=     1 ShT= 1 ShC= 0 NL=   2 NS=   1.
 IA=     1 L=1 SC=0 ISt=    0 NBk=    0 NP=    0 IndPr=    0.
 IA=     2 ShT= 0 ShC= 0 NL=   1 NS=   0.
 IA=     2 L=0 SC=0 ISt=    0 NBk=    0 NP=    0 IndPr=    0.
 IA=     2 ShT= 1 ShC= 0 NL=   2 NS=   1.
 IA=     2 L=1 SC=0 ISt=    0 NBk=    0 NP=    0 IndPr=    0.
 IA=     3 ShT= 0 ShC= 0 NL=   1 NS=   0.
 IA=     3 L=0 SC=0 ISt=    0 NBk=    0 NP=    0 IndPr=    0.
 IA=     3 ShT= 1 ShC= 0 NL=   2 NS=   1.
 IA=     3 L=1 SC=0 ISt=    0 NBk=    0 NP=    0 IndPr=    0.
 IA=     4 ShT= 0 ShC= 0 NL=   1 NS=   0.
 IA=     4 L=0 SC=0 ISt=    0 NBk=    0 NP=    0 IndPr=    0.
 IA=     4 ShT= 1 ShC= 0 NL=   2 NS=   1.
 IA=     4 L=1 SC=0 ISt=    0 NBk=    0 NP=    0 IndPr=    0.
 LdAtmC:  AtmChg=     3.000000     9.000000     3.000000     9.000000
 AtZEff=     -1.3500000     -6.7500000     -1.3500000     -6.7500000
    36 basis functions,    60 primitive gaussians,    36 cartesian basis functions
    12 alpha electrons       12 beta electrons
       nuclear repulsion energy     11377.5285166895 Hartrees.
 IS=     1 IAt=     1 ISR=     1 T=0 IP=      1 IndIP=      1 IndIPD=      0 C=  7.424571D-01  0.000000D+00                             NZ=T
 IS=     1 IAt=     1 ISR=     1 T=0 IP=      2 IndIP=      2 IndIPD=      1 C=  9.736824D-01  0.000000D+00                             NZ=T
 IS=     1 IAt=     1 ISR=     1 T=0 IP=      3 IndIP=      3 IndIPD=      2 C=  5.265692D-01  0.000000D+00                             NZ=T
 IS=     2 IAt=     1 ISR=     2 T=1 IP=      1 IndIP=      4 IndIPD=      0 C= -1.181663D-01  1.066435D-01                             NZ=T
 IS=     2 IAt=     1 ISR=     2 T=1 IP=      2 IndIP=      5 IndIPD=      1 C=  1.473557D-01  7.547122D-02                             NZ=T
 IS=     3 IAt=     1 ISR=     3 T=1 IP=      1 IndIP=      6 IndIPD=      0 C=  4.951993D-02  1.673876D-02                             NZ=T
 IS=     4 IAt=     2 ISR=     1 T=0 IP=      1 IndIP=      7 IndIPD=      0 C=  3.828407D+00  0.000000D+00                             NZ=T
 IS=     4 IAt=     2 ISR=     1 T=0 IP=      2 IndIP=      8 IndIPD=      1 C=  5.516897D+00  0.000000D+00                             NZ=T
 IS=     4 IAt=     2 ISR=     1 T=0 IP=      3 IndIP=      9 IndIPD=      2 C=  3.548929D+00  0.000000D+00                             NZ=T
 IS=     5 IAt=     2 ISR=     2 T=1 IP=      1 IndIP=     10 IndIPD=      0 C= -1.605190D+00  6.079443D+00                             NZ=T
 IS=     5 IAt=     2 ISR=     2 T=1 IP=      2 IndIP=     11 IndIPD=      1 C=  1.513205D+00  3.046004D+00                             NZ=T
 IS=     6 IAt=     2 ISR=     3 T=1 IP=      1 IndIP=     12 IndIPD=      0 C=  4.125286D-01  5.730336D-01                             NZ=T
 IS=     7 IAt=     3 ISR=     1 T=0 IP=      1 IndIP=     13 IndIPD=      0 C=  7.424571D-01  0.000000D+00                             NZ=T
 IS=     7 IAt=     3 ISR=     1 T=0 IP=      2 IndIP=     14 IndIPD=      1 C=  9.736824D-01  0.000000D+00                             NZ=T
 IS=     7 IAt=     3 ISR=     1 T=0 IP=      3 IndIP=     15 IndIPD=      2 C=  5.265692D-01  0.000000D+00                             NZ=T
 IS=     8 IAt=     3 ISR=     2 T=1 IP=      1 IndIP=     16 IndIPD=      0 C= -1.181663D-01  1.066435D-01                             NZ=T
 IS=     8 IAt=     3 ISR=     2 T=1 IP=      2 IndIP=     17 IndIPD=      1 C=  1.473557D-01  7.547122D-02                             NZ=T
 IS=     9 IAt=     3 ISR=     3 T=1 IP=      1 IndIP=     18 IndIPD=      0 C=  4.951993D-02  1.673876D-02                             NZ=T
 IS=    10 IAt=     4 ISR=     1 T=0 IP=      1 IndIP=     19 IndIPD=      0 C=  3.828407D+00  0.000000D+00                             NZ=T
 IS=    10 IAt=     4 ISR=     1 T=0 IP=      2 IndIP=     20 IndIPD=      1 C=  5.516897D+00  0.000000D+00                             NZ=T
 IS=    10 IAt=     4 ISR=     1 T=0 IP=      3 IndIP=     21 IndIPD=      2 C=  3.548929D+00  0.000000D+00                             NZ=T
 IS=    11 IAt=     4 ISR=     2 T=1 IP=      1 IndIP=     22 IndIPD=      0 C= -1.605190D+00  6.079443D+00                             NZ=T
 IS=    11 IAt=     4 ISR=     2 T=1 IP=      2 IndIP=     23 IndIPD=      1 C=  1.513205D+00  3.046004D+00                             NZ=T
 IS=    12 IAt=     4 ISR=     3 T=1 IP=      1 IndIP=     24 IndIPD=      0 C=  4.125286D-01  5.730336D-01                             NZ=T
 IExCor=  402 DFT=T Ex=B Corr=LYP ExCW=0 ScaHFX=  0.000000
 ScaDFX=  1.000000  1.000000  1.000000  1.000000 ScalE2=  1.000000  1.000000
 IRadAn=      5 IRanWt=     -1 IRanGd=            0 ICorTp=0 IEmpDi=  4
 NAtoms=    4 NActive=    4 NUniq=    4 SFac= 1.00D+00 NAtFMM=   60 NAOKFM=F Big=F
 Integral buffers will be    131072 words long.
 Raffenetti 2 integral format.
 Two-electron integral symmetry is turned off.
 NPDir=0 NMtPBC=     1 NCelOv=     1 NCel=       1 NClECP=     1 NCelD=      1
         NCelK=      1 NCelE2=     1 NClLst=     1 CellRange=     0.0.
 One-electron integrals computed using PRISM.
 Entering OneElI...
 Calculate overlap and kinetic energy integrals
    NBasis =  36  MinDer = 0  MaxDer = 0
 Requested accuracy = 0.1000D-12
 PrmmSu-InSpLW:  IPartL=    0 NPrtUS=    1 NPrtUL=    1 DoSpLW=F IThBeg=    0 IThEnd=    0 NThAct=    1.
 PrSmSu:  IncTry=   512 NBBP=             78 NTPThr=   100 NPartT=    1 Incr=           1 LDynOK=F GPUOK=F.
 PrsmSu:  NPrtUS=   1 ThrOK=F IAlg=2 LenDen=           0 ISkipM=0 DoSpLW=F IThBeg=    0 IThEnd=    0.
 Prism:   IPart=     0 DynPar=F LinDyn=F Incr=           1.
 PRISM was handed  1342167967 working-precision words and    78 shell-pairs
 IPart=  0 NShTot=          78 NBatch=           7 AvBLen=        11.1
 PrSmSu:  NxtVal=              2.
 *** Overlap *** 
                1             2             3             4             5 
      1  0.100000D+01
      2  0.177215D+00  0.100000D+01
      3  0.000000D+00  0.000000D+00  0.100000D+01
      4  0.000000D+00  0.000000D+00  0.000000D+00  0.100000D+01
      5  0.000000D+00  0.000000D+00  0.000000D+00  0.000000D+00  0.100000D+01
      6  0.140674D+00  0.782781D+00  0.000000D+00  0.000000D+00  0.000000D+00
      7  0.000000D+00  0.000000D+00  0.588593D+00  0.000000D+00  0.000000D+00
      8  0.000000D+00  0.000000D+00  0.000000D+00  0.588593D+00  0.000000D+00
      9  0.000000D+00  0.000000D+00  0.000000D+00  0.000000D+00  0.588593D+00
     10  0.000000D+00  0.219335D-02 -0.326488D-02 -0.325556D-02  0.456558D-02
     11  0.000000D+00  0.128130D-01 -0.182295D-01 -0.181774D-01  0.254920D-01
     12  0.000000D+00  0.406595D-02 -0.233755D-02 -0.580115D-02  0.813550D-02
     13  0.000000D+00  0.405434D-02 -0.580115D-02 -0.230437D-02  0.811227D-02
     14  0.000000D+00 -0.568579D-02  0.813550D-02  0.811227D-02 -0.789640D-02
     15  0.689510D-05  0.436170D-01 -0.540506D-01 -0.538962D-01  0.755838D-01
     16  0.195961D-04  0.309385D-01 -0.119121D-01 -0.383988D-01  0.538503D-01
     17  0.195401D-04  0.308502D-01 -0.383988D-01 -0.116925D-01  0.536965D-01
     18 -0.274030D-04 -0.432641D-01  0.538503D-01  0.536965D-01 -0.487071D-01
     19  0.999594D+00  0.177230D+00 -0.170727D-02 -0.168614D-02  0.532255D-02
     20  0.177230D+00  0.999982D+00 -0.133293D-02 -0.131643D-02  0.415551D-02
     21  0.170727D-02  0.133293D-02  0.999976D+00 -0.347044D-05  0.109550D-04
     22  0.168614D-02  0.131643D-02 -0.347044D-05  0.999976D+00  0.108194D-04
     23 -0.532255D-02 -0.415551D-02  0.109550D-04  0.108194D-04  0.999945D+00
     24  0.140672D+00  0.782775D+00 -0.531437D-03 -0.524859D-03  0.165680D-02
     25  0.248455D-03  0.108183D-02  0.588588D+00  0.000000D+00  0.235598D-05
     26  0.245380D-03  0.106844D-02  0.000000D+00  0.588588D+00  0.232682D-05
     27 -0.774578D-03 -0.337268D-02  0.235598D-05  0.232682D-05  0.588582D+00
     28  0.000000D+00  0.221173D-02 -0.328692D-02 -0.327754D-02  0.460014D-02
     29  0.000000D+00  0.129156D-01 -0.183457D-01 -0.182934D-01  0.256754D-01
     30  0.000000D+00  0.409206D-02 -0.233741D-02 -0.582898D-02  0.818116D-02
     31  0.000000D+00  0.408039D-02 -0.582898D-02 -0.230411D-02  0.815783D-02
     32  0.000000D+00 -0.572696D-02  0.818116D-02  0.815783D-02 -0.794154D-02
     33  0.708890D-05  0.439198D-01 -0.543393D-01 -0.541843D-01  0.760495D-01
     34  0.201146D-04  0.311019D-01 -0.118709D-01 -0.385427D-01  0.540960D-01
     35  0.200573D-04  0.310132D-01 -0.385427D-01 -0.116507D-01  0.539417D-01
     36 -0.281511D-04 -0.435280D-01  0.540960D-01  0.539417D-01 -0.489269D-01
                6             7             8             9            10 
      6  0.100000D+01
      7  0.000000D+00  0.100000D+01
      8  0.000000D+00  0.000000D+00  0.100000D+01
      9  0.000000D+00  0.000000D+00  0.000000D+00  0.100000D+01
     10  0.878255D-02 -0.867002D-02 -0.864526D-02  0.121241D-01  0.100000D+01
     11  0.468196D-01 -0.456240D-01 -0.454937D-01  0.638001D-01  0.214714D+00
     12  0.434014D-02  0.453983D-02 -0.422442D-02  0.592430D-02  0.000000D+00
     13  0.432775D-02 -0.422442D-02  0.456400D-02  0.590738D-02  0.000000D+00
     14 -0.606921D-02  0.592430D-02  0.590738D-02  0.491859D-03  0.000000D+00
     15  0.125124D+00 -0.116836D+00 -0.116502D+00  0.163382D+00  0.183583D+00
     16  0.284311D-01  0.309436D-01 -0.264720D-01  0.371243D-01  0.000000D+00
     17  0.283499D-01 -0.264720D-01  0.310950D-01  0.370182D-01  0.000000D+00
     18 -0.397578D-01  0.371243D-01  0.370182D-01  0.557724D-02  0.000000D+00
     19  0.140672D+00 -0.248455D-03 -0.245380D-03  0.774578D-03  0.000000D+00
     20  0.782775D+00 -0.108183D-02 -0.106844D-02  0.337268D-02  0.223791D-02
     21  0.531437D-03  0.588588D+00  0.000000D+00  0.235598D-05 -0.332513D-02
     22  0.524859D-03  0.000000D+00  0.588588D+00  0.232682D-05 -0.331569D-02
     23 -0.165680D-02  0.235598D-05  0.232682D-05  0.588582D+00  0.463937D-02
     24  0.999995D+00 -0.902895D-03 -0.891720D-03  0.281485D-02  0.883227D-02
     25  0.902895D-03  0.999994D+00  0.000000D+00  0.254153D-05 -0.870319D-02
     26  0.891720D-03  0.000000D+00  0.999994D+00  0.251007D-05 -0.867849D-02
     27 -0.281485D-02  0.254153D-05  0.251007D-05  0.999987D+00  0.121431D-01
     28  0.880315D-02 -0.867629D-02 -0.865154D-02  0.121427D-01  0.999278D+00
     29  0.469280D-01 -0.456555D-01 -0.455253D-01  0.638963D-01  0.214783D+00
     30  0.434316D-02  0.456411D-02 -0.422053D-02  0.592365D-02 -0.917146D-02
     31  0.433078D-02 -0.422053D-02  0.458822D-02  0.590675D-02 -0.912439D-02
     32 -0.607839D-02  0.592365D-02  0.590675D-02  0.506377D-03  0.638099D-02
     33  0.125402D+00 -0.116905D+00 -0.116572D+00  0.163613D+00  0.183579D+00
     34  0.284480D-01  0.310984D-01 -0.264450D-01  0.371164D-01 -0.117142D-02
     35  0.283669D-01 -0.264450D-01  0.312495D-01  0.370106D-01 -0.116541D-02
     36 -0.398139D-01  0.371164D-01  0.370106D-01  0.567344D-02  0.815013D-03
               11            12            13            14            15 
     11  0.100000D+01
     12  0.000000D+00  0.100000D+01
     13  0.000000D+00  0.000000D+00  0.100000D+01
     14  0.000000D+00  0.000000D+00  0.000000D+00  0.100000D+01
     15  0.732193D+00  0.000000D+00  0.000000D+00  0.000000D+00  0.100000D+01
     16  0.000000D+00  0.488370D+00  0.000000D+00  0.000000D+00  0.000000D+00
     17  0.000000D+00  0.000000D+00  0.488370D+00  0.000000D+00  0.000000D+00
     18  0.000000D+00  0.000000D+00  0.000000D+00  0.488370D+00  0.000000D+00
     19  0.000000D+00  0.000000D+00  0.000000D+00  0.000000D+00  0.737136D-05
     20  0.130616D-01  0.413774D-02  0.412599D-02 -0.577316D-02  0.443501D-01
     21 -0.185493D-01 -0.236156D-02 -0.589293D-02  0.824549D-02 -0.548628D-01
     22 -0.184967D-01 -0.589293D-02 -0.232806D-02  0.822208D-02 -0.547071D-01
     23  0.258809D-01  0.824549D-02  0.822208D-02 -0.795634D-02  0.765471D-01
     24  0.470812D-01  0.435647D-02  0.434410D-02 -0.607835D-02  0.125794D+00
     25 -0.457952D-01  0.458079D-02 -0.423264D-02  0.592239D-02 -0.117247D+00
     26 -0.456652D-01 -0.423264D-02  0.460485D-02  0.590557D-02 -0.116914D+00
     27  0.638955D-01  0.592239D-02  0.590557D-02  0.562294D-03  0.163588D+00
     28  0.214783D+00  0.917146D-02  0.912439D-02 -0.638099D-02  0.183579D+00
     29  0.999931D+00  0.408968D-02  0.406869D-02 -0.284537D-02  0.732178D+00
     30 -0.408968D-02  0.999857D+00 -0.634980D-04  0.444063D-04 -0.160751D-02
     31 -0.406869D-02 -0.634980D-04  0.999858D+00  0.441784D-04 -0.159926D-02
     32  0.284537D-02  0.444063D-04  0.441784D-04  0.999890D+00  0.111842D-02
     33  0.732178D+00  0.160751D-02  0.159926D-02 -0.111842D-02  0.999987D+00
     34 -0.381093D-02  0.488350D+00 -0.863850D-05  0.604120D-05 -0.329162D-02
     35 -0.379138D-02 -0.863850D-05  0.488350D+00  0.601019D-05 -0.327473D-02
     36  0.265144D-02  0.604120D-05  0.601019D-05  0.488355D+00  0.229013D-02
               16            17            18            19            20 
     16  0.100000D+01
     17  0.000000D+00  0.100000D+01
     18  0.000000D+00  0.000000D+00  0.100000D+01
     19  0.209124D-04  0.208530D-04 -0.291779D-04  0.100000D+01
     20  0.313987D-01  0.313096D-01 -0.438090D-01  0.177215D+00  0.100000D+01
     21 -0.119733D-01 -0.389083D-01  0.544412D-01  0.000000D+00  0.000000D+00
     22 -0.389083D-01 -0.117521D-01  0.542867D-01  0.000000D+00  0.000000D+00
     23  0.544412D-01  0.542867D-01 -0.489131D-01  0.000000D+00  0.000000D+00
     24  0.285311D-01  0.284501D-01 -0.398079D-01  0.140674D+00  0.782781D+00
     25  0.312067D-01 -0.265171D-01  0.371033D-01  0.000000D+00  0.000000D+00
     26 -0.265171D-01  0.313574D-01  0.369979D-01  0.000000D+00  0.000000D+00
     27  0.371033D-01  0.369979D-01  0.603113D-02  0.000000D+00  0.000000D+00
     28  0.117142D-02  0.116541D-02 -0.815013D-03  0.000000D+00  0.225662D-02
     29  0.381093D-02  0.379138D-02 -0.265144D-02  0.000000D+00  0.131660D-01
     30  0.488350D+00 -0.863850D-05  0.604120D-05  0.000000D+00  0.416421D-02
     31 -0.863850D-05  0.488350D+00  0.601019D-05  0.000000D+00  0.415240D-02
     32  0.604120D-05  0.601019D-05  0.488355D+00  0.000000D+00 -0.581483D-02
     33  0.329162D-02  0.327473D-02 -0.229013D-02  0.757802D-05  0.446572D-01
     34  0.999976D+00 -0.107793D-04  0.753833D-05  0.214642D-04  0.315638D-01
     35 -0.107793D-04  0.999976D+00  0.749964D-05  0.214034D-04  0.314743D-01
     36  0.753833D-05  0.749964D-05  0.999981D+00 -0.299723D-04 -0.440752D-01
               21            22            23            24            25 
     21  0.100000D+01
     22  0.000000D+00  0.100000D+01
     23  0.000000D+00  0.000000D+00  0.100000D+01
     24  0.000000D+00  0.000000D+00  0.000000D+00  0.100000D+01
     25  0.588593D+00  0.000000D+00  0.000000D+00  0.000000D+00  0.100000D+01
     26  0.000000D+00  0.588593D+00  0.000000D+00  0.000000D+00  0.000000D+00
     27  0.000000D+00  0.000000D+00  0.588593D+00  0.000000D+00  0.000000D+00
     28 -0.334749D-02 -0.333800D-02  0.467437D-02  0.885294D-02 -0.870940D-02
     29 -0.186672D-01 -0.186142D-01  0.260665D-01  0.471900D-01 -0.458264D-01
     30 -0.236123D-02 -0.592104D-02  0.829155D-02  0.435946D-02  0.460518D-02
     31 -0.592104D-02 -0.232761D-02  0.826804D-02  0.434710D-02 -0.422869D-02
     32  0.829155D-02  0.826804D-02 -0.800152D-02 -0.608748D-02  0.592166D-02
     33 -0.551548D-01 -0.549984D-01  0.770172D-01  0.126072D+00 -0.117316D+00
     34 -0.119305D-01 -0.390533D-01  0.546884D-01  0.285479D-01  0.313621D-01
     35 -0.390533D-01 -0.117087D-01  0.545334D-01  0.284669D-01 -0.264897D-01
     36  0.546884D-01  0.545334D-01 -0.491321D-01 -0.398637D-01  0.370950D-01
               26            27            28            29            30 
     26  0.100000D+01
     27  0.000000D+00  0.100000D+01
     28 -0.868471D-02  0.121617D-01  0.100000D+01
     29 -0.456965D-01  0.639913D-01  0.214714D+00  0.100000D+01
     30 -0.422869D-02  0.592166D-02  0.000000D+00  0.000000D+00  0.100000D+01
     31  0.462919D-02  0.590487D-02  0.000000D+00  0.000000D+00  0.000000D+00
     32  0.590487D-02  0.576993D-03  0.000000D+00  0.000000D+00  0.000000D+00
     33 -0.116983D+00  0.163818D+00  0.183583D+00  0.732193D+00  0.000000D+00
     34 -0.264897D-01  0.370950D-01  0.000000D+00  0.000000D+00  0.488370D+00
     35  0.315125D-01  0.369898D-01  0.000000D+00  0.000000D+00  0.000000D+00
     36  0.369898D-01  0.612840D-02  0.000000D+00  0.000000D+00  0.000000D+00
               31            32            33            34            35 
     31  0.100000D+01
     32  0.000000D+00  0.100000D+01
     33  0.000000D+00  0.000000D+00  0.100000D+01
     34  0.000000D+00  0.000000D+00  0.000000D+00  0.100000D+01
     35  0.488370D+00  0.000000D+00  0.000000D+00  0.000000D+00  0.100000D+01
     36  0.000000D+00  0.488370D+00  0.000000D+00  0.000000D+00  0.000000D+00
               36 
     36  0.100000D+01
 *** Kinetic Energy *** 
                1             2             3             4             5 
      1  0.365490D+01
      2 -0.135538D+00  0.159492D+00
      3  0.000000D+00  0.000000D+00  0.307817D+00
      4  0.000000D+00  0.000000D+00  0.000000D+00  0.307817D+00
      5  0.000000D+00  0.000000D+00  0.000000D+00  0.000000D+00  0.307817D+00
      6  0.117904D-01  0.513380D-01  0.000000D+00  0.000000D+00  0.000000D+00
      7  0.000000D+00  0.000000D+00  0.661980D-01  0.000000D+00  0.000000D+00
      8  0.000000D+00  0.000000D+00  0.000000D+00  0.661980D-01  0.000000D+00
      9  0.000000D+00  0.000000D+00  0.000000D+00  0.000000D+00  0.661980D-01
     10  0.000000D+00 -0.861950D-03  0.619923D-03  0.618152D-03 -0.866894D-03
     11  0.000000D+00 -0.443214D-02  0.276810D-02  0.276020D-02 -0.387089D-02
     12  0.000000D+00 -0.634769D-03 -0.767502D-03 -0.221894D-03  0.311183D-03
     13  0.000000D+00 -0.632956D-03 -0.221894D-03 -0.766232D-03  0.310294D-03
     14  0.000000D+00  0.887655D-03  0.311183D-03  0.310294D-03 -0.980127D-03
     15 -0.461162D-04 -0.979735D-02  0.340141D-02  0.339170D-02 -0.475650D-02
     16 -0.118066D-03 -0.153155D-02 -0.553210D-02 -0.384735D-02  0.539550D-02
     17 -0.117729D-03 -0.152718D-02 -0.384735D-02 -0.551009D-02  0.538009D-02
     18  0.165102D-03  0.214171D-02  0.539550D-02  0.538009D-02 -0.921875D-02
     19  0.364847D+01 -0.135489D+00 -0.192032D-02 -0.189655D-02  0.598674D-02
     20 -0.135489D+00  0.159482D+00 -0.107723D-03 -0.106390D-03  0.335836D-03
     21  0.192032D-02  0.107723D-03  0.307803D+00 -0.201124D-05  0.634879D-05
     22  0.189655D-02  0.106390D-03 -0.201124D-05  0.307803D+00  0.627021D-05
     23 -0.598674D-02 -0.335836D-03  0.634879D-05  0.627021D-05  0.307785D+00
     24  0.117903D-01  0.513374D-01 -0.597696D-04 -0.590298D-04  0.186336D-03
     25  0.347084D-04  0.117643D-03  0.661972D-01  0.000000D+00  0.000000D+00
     26  0.342789D-04  0.116187D-03  0.000000D+00  0.661972D-01  0.000000D+00
     27 -0.108206D-03 -0.366763D-03  0.000000D+00  0.000000D+00  0.661962D-01
     28  0.000000D+00 -0.865424D-03  0.618535D-03  0.616770D-03 -0.865658D-03
     29  0.000000D+00 -0.444758D-02  0.275739D-02  0.274952D-02 -0.385905D-02
     30  0.000000D+00 -0.632400D-03 -0.776560D-03 -0.232018D-03  0.325645D-03
     31  0.000000D+00 -0.630596D-03 -0.232018D-03 -0.775235D-03  0.324716D-03
     32  0.000000D+00  0.885063D-03  0.325645D-03  0.324716D-03 -0.999629D-03
     33 -0.472820D-04 -0.981214D-02  0.335800D-02  0.334842D-02 -0.469962D-02
     34 -0.120821D-03 -0.149980D-02 -0.556945D-02 -0.390323D-02  0.547831D-02
     35 -0.120477D-03 -0.149553D-02 -0.390323D-02 -0.554715D-02  0.546269D-02
     36  0.169093D-03  0.209902D-02  0.547831D-02  0.546269D-02 -0.932212D-02
                6             7             8             9            10 
      6  0.428467D-01
      7  0.000000D+00  0.714113D-01
      8  0.000000D+00  0.000000D+00  0.714113D-01
      9  0.000000D+00  0.000000D+00  0.000000D+00  0.714113D-01
     10  0.268360D-03 -0.759297D-03 -0.757129D-03  0.106179D-02  0.389908D+02
     11  0.144497D-02 -0.397605D-02 -0.396470D-02  0.556007D-02 -0.375452D+01
     12  0.378481D-03  0.157030D-03 -0.606573D-03  0.850655D-03  0.000000D+00
     13  0.377400D-03 -0.606573D-03  0.160499D-03  0.848225D-03  0.000000D+00
     14 -0.529264D-03  0.850655D-03  0.848225D-03 -0.424208D-03  0.000000D+00
     15  0.396851D-02 -0.100072D-01 -0.997863D-02  0.139940D-01  0.257510D+00
     16  0.243518D-02  0.121851D-02 -0.369515D-02  0.518207D-02  0.000000D+00
     17  0.242822D-02 -0.369515D-02  0.123965D-02  0.516727D-02  0.000000D+00
     18 -0.340533D-02  0.518207D-02  0.516727D-02 -0.232230D-02  0.000000D+00
     19  0.117903D-01 -0.347084D-04 -0.342789D-04  0.108206D-03  0.000000D+00
     20  0.513374D-01 -0.117643D-03 -0.116187D-03  0.366763D-03 -0.870317D-03
     21  0.597696D-04  0.661972D-01  0.000000D+00  0.000000D+00  0.617781D-03
     22  0.590298D-04  0.000000D+00  0.661972D-01  0.000000D+00  0.616027D-03
     23 -0.186336D-03  0.000000D+00  0.000000D+00  0.661962D-01 -0.861956D-03
     24  0.428464D-01 -0.644768D-04 -0.636787D-04  0.201011D-03  0.272723D-03
     25  0.644768D-04  0.714107D-01  0.000000D+00  0.000000D+00 -0.765003D-03
     26  0.636787D-04  0.000000D+00  0.714107D-01  0.000000D+00 -0.762832D-03
     27 -0.201011D-03  0.000000D+00  0.000000D+00  0.714100D-01  0.106737D-02
     28  0.270166D-03 -0.761005D-03 -0.758834D-03  0.106505D-02  0.388808D+02
     29  0.145443D-02 -0.398474D-02 -0.397338D-02  0.557677D-02 -0.375085D+01
     30  0.379312D-03  0.159963D-03 -0.606565D-03  0.851334D-03 -0.184695D+00
     31  0.378230D-03 -0.606565D-03  0.163429D-03  0.848906D-03 -0.183747D+00
     32 -0.530858D-03  0.851334D-03  0.848906D-03 -0.423205D-03  0.128500D+00
     33  0.399231D-02 -0.100271D-01 -0.999854D-02  0.140333D-01  0.257499D+00
     34  0.244003D-02  0.123696D-02 -0.369454D-02  0.518541D-02 -0.273881D-02
     35  0.243307D-02 -0.369454D-02  0.125806D-02  0.517062D-02 -0.272475D-02
     36 -0.341489D-02  0.518541D-02  0.517062D-02 -0.231508D-02  0.190551D-02
               11            12            13            14            15 
     11  0.370045D+01
     12  0.000000D+00  0.710468D+01
     13  0.000000D+00  0.000000D+00  0.710468D+01
     14  0.000000D+00  0.000000D+00  0.000000D+00  0.710468D+01
     15  0.837738D+00  0.000000D+00  0.000000D+00  0.000000D+00  0.723575D+00
     16  0.000000D+00  0.966459D+00  0.000000D+00  0.000000D+00  0.000000D+00
     17  0.000000D+00  0.000000D+00  0.966459D+00  0.000000D+00  0.000000D+00
     18  0.000000D+00  0.000000D+00  0.000000D+00  0.966459D+00  0.000000D+00
     19  0.000000D+00  0.000000D+00  0.000000D+00  0.000000D+00 -0.489750D-04
     20 -0.446929D-02 -0.630273D-03 -0.628483D-03  0.879385D-03 -0.983251D-02
     21  0.274757D-02 -0.790423D-03 -0.247472D-03  0.346267D-03  0.330274D-02
     22  0.273978D-02 -0.247472D-03 -0.789016D-03  0.345284D-03  0.329337D-02
     23 -0.383354D-02  0.346267D-03  0.345284D-03 -0.102537D-02 -0.460814D-02
     24  0.146781D-02  0.381276D-03  0.380194D-03 -0.531974D-03  0.402599D-02
     25 -0.400533D-02  0.161582D-03 -0.609086D-03  0.852243D-03 -0.100762D-01
     26 -0.399396D-02 -0.609086D-03  0.165045D-03  0.849824D-03 -0.100476D-01
     27  0.558842D-02  0.852243D-03  0.849824D-03 -0.416687D-03  0.140588D-01
     28 -0.375085D+01  0.184695D+00  0.183747D+00 -0.128500D+00  0.257499D+00
     29  0.369944D+01 -0.125581D-01 -0.124936D-01  0.873720D-02  0.837709D+00
     30  0.125581D-01  0.710266D+01 -0.898769D-03  0.628539D-03 -0.318116D-02
     31  0.124936D-01 -0.898769D-03  0.710267D+01  0.625314D-03 -0.316484D-02
     32 -0.873720D-02  0.628539D-03  0.625314D-03  0.710313D+01  0.221328D-02
     33  0.837709D+00  0.318116D-02  0.316484D-02 -0.221328D-02  0.723558D+00
     34 -0.722635D-02  0.966405D+00 -0.239721D-04  0.167645D-04 -0.396953D-02
     35 -0.718926D-02 -0.239721D-04  0.966406D+00  0.166785D-04 -0.394916D-02
     36  0.502769D-02  0.167645D-04  0.166785D-04  0.966418D+00  0.276178D-02
               16            17            18            19            20 
     16  0.120596D+01
     17  0.000000D+00  0.120596D+01
     18  0.000000D+00  0.000000D+00  0.120596D+01
     19 -0.125073D-03 -0.124718D-03  0.174507D-03  0.365490D+01
     20 -0.145737D-02 -0.145323D-02  0.203339D-02 -0.135538D+00  0.159492D+00
     21 -0.563873D-02 -0.399919D-02  0.559574D-02  0.000000D+00  0.000000D+00
     22 -0.399919D-02 -0.561599D-02  0.557986D-02  0.000000D+00  0.000000D+00
     23  0.559574D-02  0.557986D-02 -0.943559D-02  0.000000D+00  0.000000D+00
     24  0.245196D-02  0.244500D-02 -0.342109D-02  0.117904D-01  0.513380D-01
     25  0.124762D-02 -0.370909D-02  0.518982D-02  0.000000D+00  0.000000D+00
     26 -0.370909D-02  0.126870D-02  0.517509D-02  0.000000D+00  0.000000D+00
     27  0.518982D-02  0.517509D-02 -0.227381D-02  0.000000D+00  0.000000D+00
     28  0.273881D-02  0.272475D-02 -0.190551D-02  0.000000D+00 -0.873775D-03
     29  0.722635D-02  0.718926D-02 -0.502769D-02  0.000000D+00 -0.448461D-02
     30  0.966405D+00 -0.239721D-04  0.167645D-04  0.000000D+00 -0.627761D-03
     31 -0.239721D-04  0.966406D+00  0.166785D-04  0.000000D+00 -0.625981D-03
     32  0.167645D-04  0.166785D-04  0.966418D+00  0.000000D+00  0.876595D-03
     33  0.396953D-02  0.394916D-02 -0.276178D-02 -0.502090D-04 -0.984656D-02
     34  0.120592D+01 -0.181991D-04  0.127272D-04 -0.127981D-03 -0.142462D-02
     35 -0.181991D-04  0.120592D+01  0.126619D-04 -0.127618D-03 -0.142058D-02
     36  0.127272D-04  0.126619D-04  0.120593D+01  0.178710D-03  0.198932D-02
               21            22            23            24            25 
     21  0.307817D+00
     22  0.000000D+00  0.307817D+00
     23  0.000000D+00  0.000000D+00  0.307817D+00
     24  0.000000D+00  0.000000D+00  0.000000D+00  0.428467D-01
     25  0.661980D-01  0.000000D+00  0.000000D+00  0.000000D+00  0.714113D-01
     26  0.000000D+00  0.661980D-01  0.000000D+00  0.000000D+00  0.000000D+00
     27  0.000000D+00  0.000000D+00  0.661980D-01  0.000000D+00  0.000000D+00
     28  0.616276D-03  0.614529D-03 -0.860557D-03  0.274541D-03 -0.766710D-03
     29  0.273625D-02  0.272849D-02 -0.382085D-02  0.147733D-02 -0.401402D-02
     30 -0.799588D-03 -0.257828D-03  0.361050D-03  0.382106D-03  0.164541D-03
     31 -0.257828D-03 -0.798124D-03  0.360027D-03  0.381023D-03 -0.609068D-03
     32  0.361050D-03  0.360027D-03 -0.104519D-02 -0.533566D-03  0.852910D-03
     33  0.325802D-02  0.324878D-02 -0.454944D-02  0.404993D-02 -0.100961D-01
     34 -0.567616D-02 -0.405591D-02  0.567971D-02  0.245680D-02  0.126621D-02
     35 -0.405591D-02 -0.565313D-02  0.566361D-02  0.244984D-02 -0.370841D-02
     36  0.567971D-02  0.566361D-02 -0.953976D-02 -0.343064D-02  0.519309D-02
               26            27            28            29            30 
     26  0.714113D-01
     27  0.000000D+00  0.714113D-01
     28 -0.764536D-03  0.107062D-02  0.389908D+02
     29 -0.400264D-02  0.560511D-02 -0.375452D+01  0.370045D+01
     30 -0.609068D-03  0.852910D-03  0.000000D+00  0.000000D+00  0.710468D+01
     31  0.167999D-03  0.850492D-03  0.000000D+00  0.000000D+00  0.000000D+00
     32  0.850492D-03 -0.415648D-03  0.000000D+00  0.000000D+00  0.000000D+00
     33 -0.100675D-01  0.140980D-01  0.257510D+00  0.837738D+00  0.000000D+00
     34 -0.370841D-02  0.519309D-02  0.000000D+00  0.000000D+00  0.966459D+00
     35  0.128726D-02  0.517836D-02  0.000000D+00  0.000000D+00  0.000000D+00
     36  0.517836D-02 -0.226637D-02  0.000000D+00  0.000000D+00  0.000000D+00
               31            32            33            34            35 
     31  0.710468D+01
     32  0.000000D+00  0.710468D+01
     33  0.000000D+00  0.000000D+00  0.723575D+00
     34  0.000000D+00  0.000000D+00  0.000000D+00  0.120596D+01
     35  0.966459D+00  0.000000D+00  0.000000D+00  0.000000D+00  0.120596D+01
     36  0.000000D+00  0.966459D+00  0.000000D+00  0.000000D+00  0.000000D+00
               36 
     36  0.120596D+01
 Entering OneElI...
 Calculate potential energy integrals
    NBasis =  36  MinDer = 0  MaxDer = 0
 Requested accuracy = 0.1000D-12
 PrmmSu-InSpLW:  IPartL=    0 NPrtUS=    1 NPrtUL=    1 DoSpLW=F IThBeg=    0 IThEnd=    0 NThAct=    1.
 PrSmSu:  IncTry=   512 NBBP=            296 NTPThr=   100 NPartT=    1 Incr=           2 LDynOK=F GPUOK=F.
 PrsmSu:  NPrtUS=   1 ThrOK=F IAlg=2 LenDen=           0 ISkipM=0 DoSpLW=F IThBeg=    0 IThEnd=    0.
 Prism:   IPart=     0 DynPar=F LinDyn=F Incr=           2.
 PRISM was handed  1342168168 working-precision words and    74 shell-pairs
 IPart=  0 NShTot=         296 NBatch=          74 AvBLen=         4.0
 PrSmSu:  NxtVal=              3.
 ***** Potential Energy ***** 
                1             2             3             4             5 
      1  0.192498D+02
      2  0.180812D+01  0.554280D+01
      3 -0.351381D-01 -0.446869D+00  0.537090D+01
      4 -0.350057D-01 -0.445576D+00  0.148077D+00  0.537005D+01
      5  0.549610D-01  0.628226D+00 -0.207759D+00 -0.207166D+00  0.551308D+01
      6  0.166386D+01  0.413158D+01 -0.453898D+00 -0.452591D+00  0.637170D+00
      7 -0.526368D-02 -0.282525D+00  0.275520D+01  0.134565D+00 -0.188792D+00
      8 -0.524513D-02 -0.281714D+00  0.134565D+00  0.275443D+01 -0.188253D+00
      9  0.799863D-02  0.396129D+00 -0.188792D+00 -0.188253D+00  0.288437D+01
     10  0.000000D+00  0.194005D+00 -0.289497D+00 -0.288670D+00  0.404884D+00
     11  0.000000D+00  0.331706D+00 -0.477370D+00 -0.476007D+00  0.667636D+00
     12  0.000000D+00  0.885460D-01 -0.534442D-01 -0.127516D+00  0.178843D+00
     13  0.000000D+00  0.882911D-01 -0.127513D+00 -0.527119D-01  0.178328D+00
     14  0.000000D+00 -0.123203D+00  0.177915D+00  0.177407D+00 -0.174378D+00
     15  0.545833D-04  0.618002D+00 -0.804255D+00 -0.801958D+00  0.112480D+01
     16  0.156739D-03  0.332672D+00 -0.145689D+00 -0.422584D+00  0.592678D+00
     17  0.156292D-03  0.331721D+00 -0.422582D+00 -0.143270D+00  0.590983D+00
     18 -0.219165D-03 -0.464823D+00  0.592104D+00  0.590413D+00 -0.549955D+00
     19  0.192467D+02  0.181018D+01 -0.520368D-01 -0.516974D-01  0.107249D+00
     20  0.180804D+01  0.554724D+01 -0.454213D+00 -0.452847D+00  0.648093D+00
     21 -0.117138D-01 -0.438988D+00  0.537522D+01  0.148819D+00 -0.209754D+00
     22 -0.118717D-01 -0.437813D+00  0.148833D+00  0.537437D+01 -0.209168D+00
     23 -0.181460D-01  0.600051D+00 -0.207289D+00 -0.206690D+00  0.551723D+01
     24  0.166388D+01  0.413317D+01 -0.457035D+00 -0.455696D+00  0.645625D+00
     25 -0.230511D-02 -0.277002D+00  0.275572D+01  0.134337D+00 -0.188671D+00
     26 -0.232319D-02 -0.276264D+00  0.134345D+00  0.275496D+01 -0.188142D+00
     27 -0.122667D-02  0.378050D+00 -0.187264D+00 -0.186728D+00  0.288324D+01
     28  0.000000D+00  0.195101D+00 -0.290814D+00 -0.289985D+00  0.406949D+00
     29  0.000000D+00  0.333562D+00 -0.479488D+00 -0.478120D+00  0.670973D+00
     30  0.000000D+00  0.872319D-01 -0.508278D-01 -0.125401D+00  0.175992D+00
     31  0.000000D+00  0.869851D-01 -0.125404D+00 -0.501143D-01  0.175494D+00
     32  0.000000D+00 -0.122700D+00  0.176914D+00  0.176409D+00 -0.172647D+00
     33  0.561336D-04  0.621251D+00 -0.807472D+00 -0.805169D+00  0.112995D+01
     34  0.160945D-03  0.333102D+00 -0.143870D+00 -0.422442D+00  0.592875D+00
     35  0.160486D-03  0.332153D+00 -0.422444D+00 -0.141459D+00  0.591186D+00
     36 -0.225233D-03 -0.466543D+00  0.593409D+00  0.591716D+00 -0.550661D+00
                6             7             8             9            10 
      6  0.456219D+01
      7 -0.573865D+00  0.370469D+01
      8 -0.572223D+00  0.261343D+00  0.370319D+01
      9  0.803652D+00 -0.366657D+00 -0.365610D+00  0.395553D+01
     10  0.780484D+00 -0.770864D+00 -0.768662D+00  0.107811D+01  0.159279D+03
     11  0.123865D+01 -0.121063D+01 -0.120717D+01  0.169315D+01  0.123049D+02
     12  0.997165D-01  0.921624D-01 -0.972534D-01  0.136400D+00  0.222497D+00
     13  0.994238D-01 -0.972456D-01  0.927265D-01  0.136000D+00  0.221367D+00
     14 -0.136988D+00  0.133973D+00  0.133590D+00  0.233223D-02 -0.158470D+00
     15  0.192205D+01 -0.182254D+01 -0.181734D+01  0.254896D+01  0.166168D+02
     16  0.322457D+00  0.309929D+00 -0.300727D+00  0.421773D+00  0.187359D-01
     17  0.321532D+00 -0.300722D+00  0.311653D+00  0.420563D+00  0.186414D-01
     18 -0.449534D+00  0.420402D+00  0.419201D+00  0.235816D-01 -0.135455D-01
     19  0.166510D+01 -0.751971D-02 -0.747365D-02  0.149594D-01  0.000000D+00
     20  0.413681D+01 -0.288767D+00 -0.287895D+00  0.412558D+00  0.197956D+00
     21 -0.451041D+00  0.275942D+01  0.135931D+00 -0.191483D+00 -0.294854D+00
     22 -0.449796D+00  0.135939D+00  0.275864D+01 -0.190942D+00 -0.294017D+00
     23  0.623304D+00 -0.190070D+00 -0.189521D+00  0.289006D+01  0.411449D+00
     24  0.456546D+01 -0.578475D+00 -0.576790D+00  0.815446D+00  0.784905D+00
     25 -0.570231D+00  0.370686D+01  0.261768D+00 -0.367728D+00 -0.773815D+00
     26 -0.568648D+00  0.261778D+00  0.370537D+01 -0.366689D+00 -0.771618D+00
     27  0.789744D+00 -0.365944D+00 -0.364896D+00  0.395694D+01  0.107981D+01
     28  0.781723D+00 -0.771248D+00 -0.769048D+00  0.107924D+01  0.159171D+03
     29  0.124066D+01 -0.121125D+01 -0.120780D+01  0.169496D+01  0.123118D+02
     30  0.927832D-01  0.994782D-01 -0.903253D-01  0.126767D+00 -0.892407D+00
     31  0.925266D-01 -0.903332D-01  0.999864D-01  0.126416D+00 -0.887815D+00
     32 -0.132302D+00  0.129186D+00  0.128817D+00  0.927474D-02  0.617216D+00
     33  0.192518D+01 -0.182345D+01 -0.181825D+01  0.255165D+01  0.166165D+02
     34  0.318765D+00  0.315100D+00 -0.296752D+00  0.416477D+00 -0.886671D-01
     35  0.317860D+00 -0.296757D+00  0.316791D+00  0.415295D+00 -0.882104D-01
     36 -0.447452D+00  0.417791D+00  0.416599D+00  0.280262D-01  0.611795D-01
               11            12            13            14            15 
     11  0.316923D+02
     12  0.119675D+00  0.346889D+02
     13  0.119137D+00  0.409511D-02  0.346889D+02
     14 -0.106476D+00 -0.445428D-02 -0.443868D-02  0.346902D+02
     15  0.209435D+02  0.970269D-01  0.966009D-01 -0.895879D-01  0.209829D+02
     16  0.419245D-01  0.117255D+02  0.236898D-02 -0.313783D-02  0.863841D-01
     17  0.417545D-01  0.236898D-02  0.117255D+02 -0.312849D-02  0.860881D-01
     18 -0.430323D-01 -0.313783D-02 -0.312849D-02  0.117274D+02 -0.105317D+00
     19  0.000000D+00  0.000000D+00  0.000000D+00  0.000000D+00  0.582789D-04
     20  0.338219D+00  0.901287D-01  0.898708D-01 -0.125125D+00  0.628938D+00
     21 -0.485855D+00 -0.540264D-01 -0.129559D+00  0.180363D+00 -0.817076D+00
     22 -0.484476D+00 -0.129562D+00 -0.532868D-01  0.179851D+00 -0.814757D+00
     23  0.677975D+00  0.181300D+00  0.180781D+00 -0.175766D+00  0.114016D+01
     24  0.124560D+01  0.100104D+00  0.998114D-01 -0.137220D+00  0.193250D+01
     25 -0.121519D+01  0.930272D-01 -0.974463D-01  0.133954D+00 -0.182911D+01
     26 -0.121174D+01 -0.974542D-01  0.935892D-01  0.133573D+00 -0.182391D+01
     27  0.169571D+01  0.136372D+00  0.135974D+00  0.384516D-02  0.255238D+01
     28  0.123123D+02  0.902889D+00  0.898267D+00 -0.631858D+00  0.166167D+02
     29  0.316907D+02  0.159509D+00  0.158766D+00 -0.134225D+00  0.209439D+02
     30 -0.932280D-01  0.346819D+02 -0.101021D-02 -0.738686D-03 -0.725790D-01
     31 -0.926738D-01 -0.100924D-02  0.346819D+02 -0.742508D-03 -0.721344D-01
     32  0.416033D-01 -0.103688D-02 -0.103849D-02  0.346857D+02  0.283487D-01
     33  0.209434D+02  0.135636D+00  0.135012D+00 -0.116464D+00  0.209834D+02
     34 -0.737534D-01  0.117247D+02  0.163906D-02 -0.250949D-02 -0.451002D-02
     35 -0.733298D-01  0.163953D-02  0.117247D+02 -0.250344D-02 -0.433927D-02
     36  0.374406D-01 -0.265496D-02 -0.264782D-02  0.117269D+02 -0.421599D-01
               16            17            18            19            20 
     16  0.143294D+02
     17  0.121285D-01  0.143293D+02
     18 -0.169293D-01 -0.168809D-01  0.143408D+02
     19  0.166997D-03  0.166523D-03 -0.233017D-03  0.192590D+02
     20  0.337790D+00  0.336830D+00 -0.470938D+00  0.180974D+01  0.555188D+01
     21 -0.146678D+00 -0.428391D+00  0.598912D+00 -0.286063D-01 -0.446357D+00
     22 -0.428393D+00 -0.144241D+00  0.597212D+00 -0.285574D-01 -0.445108D+00
     23  0.599453D+00  0.597749D+00 -0.552748D+00  0.341144D-01  0.619952D+00
     24  0.323631D+00  0.322708D+00 -0.450214D+00  0.166514D+01  0.413846D+01
     25  0.312688D+00 -0.301266D+00  0.420256D+00 -0.455908D-02 -0.283246D+00
     26 -0.301270D+00  0.314405D+00  0.419063D+00 -0.454967D-02 -0.282447D+00
     27  0.421570D+00  0.420367D+00  0.284175D-01  0.572752D-02  0.394470D+00
     28  0.901251D-01  0.896642D-01 -0.632159D-01  0.000000D+00  0.199072D+00
     29  0.113345D+00  0.112809D+00 -0.927636D-01  0.000000D+00  0.340107D+00
     30  0.117253D+02  0.190787D-02 -0.279462D-02  0.000000D+00  0.887853D-01
     31  0.190834D-02  0.117253D+02 -0.278733D-02  0.000000D+00  0.885357D-01
     32 -0.294043D-02 -0.293206D-02  0.117275D+02  0.000000D+00 -0.124607D+00
     33  0.133630D+00  0.133092D+00 -0.138270D+00  0.599295D-04  0.632235D+00
     34  0.143296D+02  0.118759D-01 -0.166226D-01  0.171464D-03  0.338216D+00
     35  0.118768D-01  0.143295D+02 -0.165763D-01  0.170978D-03  0.337258D+00
     36 -0.169208D-01 -0.168723D-01  0.143412D+02 -0.239448D-03 -0.472667D+00
               21            22            23            24            25 
     21  0.537982D+01
     22  0.149642D+00  0.537897D+01
     23 -0.209479D+00 -0.208884D+00  0.552219D+01
     24 -0.454191D+00 -0.452914D+00  0.631778D+00  0.456876D+01
     25  0.275999D+01  0.135725D+00 -0.189988D+00 -0.574847D+00  0.370908D+01
     26  0.135725D+00  0.275922D+01 -0.189449D+00 -0.573221D+00  0.262211D+00
     27 -0.189988D+00 -0.189449D+00  0.288907D+01  0.801541D+00 -0.367041D+00
     28 -0.296191D+00 -0.295351D+00  0.413540D+00  0.786148D+00 -0.774196D+00
     29 -0.488003D+00 -0.486619D+00  0.681351D+00  0.124761D+01 -0.121581D+01
     30 -0.513588D-01 -0.127403D+00  0.178397D+00  0.931304D-01  0.100371D+00
     31 -0.127407D+00 -0.506384D-01  0.177895D+00  0.928744D-01 -0.905067D-01
     32  0.179335D+00  0.178827D+00 -0.173995D+00 -0.132506D+00  0.129147D+00
     33 -0.820331D+00 -0.818005D+00  0.114535D+01  0.193564D+01 -0.183001D+01
     34 -0.144820D+00 -0.428236D+00  0.599633D+00  0.319916D+00  0.317880D+00
     35 -0.428238D+00 -0.142390D+00  0.597935D+00  0.319013D+00 -0.297283D+00
     36  0.600214D+00  0.598512D+00 -0.553427D+00 -0.448115D+00  0.417631D+00
               26            27            28            29            30 
     26  0.370759D+01
     27 -0.365999D+00  0.395845D+01
     28 -0.772001D+00  0.108093D+01  0.159280D+03
     29 -0.121236D+01  0.169751D+01  0.123052D+02  0.316936D+02
     30 -0.904988D-01  0.126722D+00 -0.212019D+00 -0.533882D-01  0.346902D+02
     31  0.100877D+00  0.126374D+00 -0.210919D+00 -0.530383D-01  0.410158D-02
     32  0.128781D+00  0.108013D-01  0.143829D+00  0.138473D-01 -0.446593D-02
     33 -0.182482D+01  0.255505D+01  0.166170D+02  0.209444D+02 -0.339676D-01
     34 -0.297279D+00  0.416262D+00 -0.172793D-01 -0.233450D-02  0.117261D+02
     35  0.319564D+00  0.415087D+00 -0.171889D-01 -0.227718D-02  0.237501D-02
     36  0.416447D+00  0.328777D-01  0.115100D-01 -0.122901D-01 -0.314869D-02
               31            32            33            34            35 
     31  0.346902D+02
     32 -0.445031D-02  0.346914D+02
     33 -0.337210D-01  0.146993D-02  0.209842D+02
     34  0.237501D-02 -0.314869D-02  0.427380D-01  0.143306D+02
     35  0.117261D+02 -0.313932D-02  0.426666D-01  0.121629D-01  0.143305D+02
     36 -0.313932D-02  0.117280D+02 -0.751160D-01 -0.169912D-01 -0.169427D-01
               36 
     36  0.143421D+02
 ****** Core Hamiltonian ****** 
                1             2             3             4             5 
      1 -0.155949D+02
      2 -0.194366D+01 -0.538331D+01
      3  0.351381D-01  0.446869D+00 -0.506308D+01
      4  0.350057D-01  0.445576D+00 -0.148077D+00 -0.506224D+01
      5 -0.549610D-01 -0.628226D+00  0.207759D+00  0.207166D+00 -0.520526D+01
      6 -0.165207D+01 -0.408024D+01  0.453898D+00  0.452591D+00 -0.637170D+00
      7  0.526368D-02  0.282525D+00 -0.268900D+01 -0.134565D+00  0.188792D+00
      8  0.524513D-02  0.281714D+00 -0.134565D+00 -0.268823D+01  0.188253D+00
      9 -0.799863D-02 -0.396129D+00  0.188792D+00  0.188253D+00 -0.281817D+01
     10  0.000000D+00 -0.194867D+00  0.290117D+00  0.289288D+00 -0.405751D+00
     11  0.000000D+00 -0.336138D+00  0.480139D+00  0.478768D+00 -0.671507D+00
     12  0.000000D+00 -0.891807D-01  0.526767D-01  0.127294D+00 -0.178532D+00
     13  0.000000D+00 -0.889240D-01  0.127291D+00  0.519457D-01 -0.178018D+00
     14  0.000000D+00  0.124091D+00 -0.177604D+00 -0.177097D+00  0.173398D+00
     15 -0.100699D-03 -0.627799D+00  0.807656D+00  0.805350D+00 -0.112956D+01
     16 -0.274805D-03 -0.334204D+00  0.140157D+00  0.418737D+00 -0.587283D+00
     17 -0.274021D-03 -0.333248D+00  0.418735D+00  0.137760D+00 -0.585603D+00
     18  0.384268D-03  0.466965D+00 -0.586708D+00 -0.585033D+00  0.540736D+00
     19 -0.155982D+02 -0.194567D+01  0.501165D-01  0.498008D-01 -0.101262D+00
     20 -0.194352D+01 -0.538776D+01  0.454105D+00  0.452740D+00 -0.647757D+00
     21  0.136341D-01  0.439096D+00 -0.506742D+01 -0.148821D+00  0.209761D+00
     22  0.137683D-01  0.437919D+00 -0.148835D+00 -0.506657D+01  0.209174D+00
     23  0.121592D-01 -0.600387D+00  0.207295D+00  0.206696D+00 -0.520945D+01
     24 -0.165209D+01 -0.408183D+01  0.456976D+00  0.455637D+00 -0.645439D+00
     25  0.233982D-02  0.277120D+00 -0.268952D+01 -0.134337D+00  0.188672D+00
     26  0.235747D-02  0.276381D+00 -0.134345D+00 -0.268876D+01  0.188143D+00
     27  0.111846D-02 -0.378416D+00  0.187265D+00  0.186729D+00 -0.281704D+01
     28  0.000000D+00 -0.195966D+00  0.291433D+00  0.290601D+00 -0.407815D+00
     29  0.000000D+00 -0.338010D+00  0.482246D+00  0.480870D+00 -0.674832D+00
     30  0.000000D+00 -0.878643D-01  0.500512D-01  0.125169D+00 -0.175666D+00
     31  0.000000D+00 -0.876157D-01  0.125172D+00  0.493391D-01 -0.175169D+00
     32  0.000000D+00  0.123585D+00 -0.176588D+00 -0.176085D+00  0.171647D+00
     33 -0.103416D-03 -0.631063D+00  0.810830D+00  0.808517D+00 -0.113465D+01
     34 -0.281767D-03 -0.334601D+00  0.138301D+00  0.418539D+00 -0.587397D+00
     35 -0.280963D-03 -0.333648D+00  0.418541D+00  0.135911D+00 -0.585724D+00
     36  0.394326D-03  0.468642D+00 -0.587931D+00 -0.586253D+00  0.541339D+00
                6             7             8             9            10 
      6 -0.451934D+01
      7  0.573865D+00 -0.363327D+01
      8  0.572223D+00 -0.261343D+00 -0.363178D+01
      9 -0.803652D+00  0.366657D+00  0.365610D+00 -0.388412D+01
     10 -0.780215D+00  0.770104D+00  0.767905D+00 -0.107705D+01 -0.120288D+03
     11 -0.123721D+01  0.120665D+01  0.120321D+01 -0.168759D+01 -0.160595D+02
     12 -0.993380D-01 -0.920054D-01  0.966469D-01 -0.135550D+00 -0.222497D+00
     13 -0.990464D-01  0.966390D-01 -0.925660D-01 -0.135152D+00 -0.221367D+00
     14  0.136459D+00 -0.133122D+00 -0.132742D+00 -0.275644D-02  0.158470D+00
     15 -0.191808D+01  0.181254D+01  0.180736D+01 -0.253497D+01 -0.163593D+02
     16 -0.320022D+00 -0.308711D+00  0.297031D+00 -0.416591D+00 -0.187359D-01
     17 -0.319103D+00  0.297027D+00 -0.310414D+00 -0.415396D+00 -0.186414D-01
     18  0.446129D+00 -0.415220D+00 -0.414034D+00 -0.259039D-01  0.135455D-01
     19 -0.165331D+01  0.748501D-02  0.743937D-02 -0.148512D-01  0.000000D+00
     20 -0.408548D+01  0.288649D+00  0.287779D+00 -0.412191D+00 -0.198827D+00
     21  0.451101D+00 -0.269322D+01 -0.135932D+00  0.191484D+00  0.295472D+00
     22  0.449855D+00 -0.135939D+00 -0.269245D+01  0.190942D+00  0.294633D+00
     23 -0.623491D+00  0.190070D+00  0.189522D+00 -0.282386D+01 -0.412311D+00
     24 -0.452261D+01  0.578411D+00  0.576726D+00 -0.815245D+00 -0.784632D+00
     25  0.570296D+00 -0.363545D+01 -0.261768D+00  0.367728D+00  0.773050D+00
     26  0.568711D+00 -0.261778D+00 -0.363396D+01  0.366689D+00  0.770856D+00
     27 -0.789945D+00  0.365944D+00  0.364896D+00 -0.388553D+01 -0.107874D+01
     28 -0.781453D+00  0.770487D+00  0.768289D+00 -0.107818D+01 -0.120290D+03
     29 -0.123921D+01  0.120727D+01  0.120382D+01 -0.168939D+01 -0.160627D+02
     30 -0.924039D-01 -0.993183D-01  0.897187D-01 -0.125916D+00  0.707712D+00
     31 -0.921483D-01  0.897266D-01 -0.998230D-01 -0.125568D+00  0.704068D+00
     32  0.131772D+00 -0.128334D+00 -0.127968D+00 -0.969794D-02 -0.488715D+00
     33 -0.192119D+01  0.181343D+01  0.180825D+01 -0.253762D+01 -0.163590D+02
     34 -0.316325D+00 -0.313863D+00  0.293057D+00 -0.411291D+00  0.859283D-01
     35 -0.315427D+00  0.293062D+00 -0.315533D+00 -0.410124D+00  0.854857D-01
     36  0.444037D+00 -0.412605D+00 -0.411428D+00 -0.303413D-01 -0.592740D-01
               11            12            13            14            15 
     11 -0.279919D+02
     12 -0.119675D+00 -0.275843D+02
     13 -0.119137D+00 -0.409511D-02 -0.275842D+02
     14  0.106476D+00  0.445428D-02  0.443868D-02 -0.275855D+02
     15 -0.201057D+02 -0.970269D-01 -0.966009D-01  0.895879D-01 -0.202593D+02
     16 -0.419245D-01 -0.107591D+02 -0.236898D-02  0.313783D-02 -0.863841D-01
     17 -0.417545D-01 -0.236898D-02 -0.107590D+02  0.312849D-02 -0.860881D-01
     18  0.430323D-01  0.313783D-02  0.312849D-02 -0.107609D+02  0.105317D+00
     19  0.000000D+00  0.000000D+00  0.000000D+00  0.000000D+00 -0.107254D-03
     20 -0.342689D+00 -0.907589D-01 -0.904993D-01  0.126005D+00 -0.638771D+00
     21  0.488603D+00  0.532360D-01  0.129311D+00 -0.180016D+00  0.820379D+00
     22  0.487216D+00  0.129314D+00  0.524978D-01 -0.179506D+00  0.818050D+00
     23 -0.681808D+00 -0.180953D+00 -0.180435D+00  0.174741D+00 -0.114476D+01
     24 -0.124413D+01 -0.997223D-01 -0.994312D-01  0.136688D+00 -0.192847D+01
     25  0.121118D+01 -0.928657D-01  0.968372D-01 -0.133101D+00  0.181903D+01
     26  0.120775D+01  0.968451D-01 -0.934241D-01 -0.132724D+00  0.181387D+01
     27 -0.169012D+01 -0.135520D+00 -0.135124D+00 -0.426185D-02 -0.253832D+01
     28 -0.160631D+02 -0.718194D+00 -0.714520D+00  0.503358D+00 -0.163592D+02
     29 -0.279913D+02 -0.172067D+00 -0.171259D+00  0.142962D+00 -0.201062D+02
     30  0.105786D+00 -0.275792D+02  0.111440D-03  0.136723D-02  0.693979D-01
     31  0.105167D+00  0.110469D-03 -0.275792D+02  0.136782D-02  0.689696D-01
     32 -0.503406D-01  0.166542D-02  0.166381D-02 -0.275826D+02 -0.261354D-01
     33 -0.201057D+02 -0.132454D+00 -0.131847D+00  0.114250D+00 -0.202598D+02
     34  0.665271D-01 -0.107583D+02 -0.166303D-02  0.252626D-02  0.540486D-03
     35  0.661405D-01 -0.166350D-02 -0.107583D+02  0.252011D-02  0.390113D-03
     36 -0.324129D-01  0.267172D-02  0.266450D-02 -0.107605D+02  0.449217D-01
               16            17            18            19            20 
     16 -0.131234D+02
     17 -0.121285D-01 -0.131233D+02
     18  0.169293D-01  0.168809D-01 -0.131349D+02
     19 -0.292070D-03 -0.291241D-03  0.407524D-03 -0.156041D+02
     20 -0.339248D+00 -0.338283D+00  0.472972D+00 -0.194527D+01 -0.539239D+01
     21  0.141039D+00  0.424392D+00 -0.593316D+00  0.286063D-01  0.446357D+00
     22  0.424394D+00  0.138625D+00 -0.591632D+00  0.285574D-01  0.445108D+00
     23 -0.593858D+00 -0.592169D+00  0.543312D+00 -0.341144D-01 -0.619952D+00
     24 -0.321179D+00 -0.320263D+00  0.446793D+00 -0.165335D+01 -0.408712D+01
     25 -0.311440D+00  0.297557D+00 -0.415066D+00  0.455908D-02  0.283246D+00
     26  0.297561D+00 -0.313136D+00 -0.413888D+00  0.454967D-02  0.282447D+00
     27 -0.416380D+00 -0.415192D+00 -0.306913D-01 -0.572752D-02 -0.394470D+00
     28 -0.873863D-01 -0.869395D-01  0.613104D-01  0.000000D+00 -0.199945D+00
     29 -0.106119D+00 -0.105620D+00  0.877359D-01  0.000000D+00 -0.344591D+00
     30 -0.107589D+02 -0.193184D-02  0.281138D-02  0.000000D+00 -0.894131D-01
     31 -0.193232D-02 -0.107589D+02  0.280401D-02  0.000000D+00 -0.891616D-01
     32  0.295719D-02  0.294874D-02 -0.107611D+02  0.000000D+00  0.125483D+00
     33 -0.129661D+00 -0.129143D+00  0.135509D+00 -0.110139D-03 -0.642082D+00
     34 -0.131236D+02 -0.118941D-01  0.166353D-01 -0.299445D-03 -0.339640D+00
     35 -0.118950D-01 -0.131236D+02  0.165889D-01 -0.298596D-03 -0.338678D+00
     36  0.169335D-01  0.168849D-01 -0.131353D+02  0.418159D-03  0.474656D+00
               21            22            23            24            25 
     21 -0.507201D+01
     22 -0.149642D+00 -0.507116D+01
     23  0.209479D+00  0.208884D+00 -0.521437D+01
     24  0.454191D+00  0.452914D+00 -0.631778D+00 -0.452592D+01
     25 -0.269379D+01 -0.135725D+00  0.189988D+00  0.574847D+00 -0.363767D+01
     26 -0.135725D+00 -0.269302D+01  0.189449D+00  0.573221D+00 -0.262211D+00
     27  0.189988D+00  0.189449D+00 -0.282288D+01 -0.801541D+00  0.367041D+00
     28  0.296807D+00  0.295965D+00 -0.414401D+00 -0.785874D+00  0.773429D+00
     29  0.490739D+00  0.489347D+00 -0.685172D+00 -0.124613D+01  0.121180D+01
     30  0.505592D-01  0.127146D+00 -0.178036D+00 -0.927483D-01 -0.100207D+00
     31  0.127149D+00  0.498402D-01 -0.177535D+00 -0.924934D-01  0.898976D-01
     32 -0.178974D+00 -0.178467D+00  0.172950D+00  0.131972D+00 -0.128294D+00
     33  0.823589D+00  0.821254D+00 -0.114990D+01 -0.193159D+01  0.181991D+01
     34  0.139144D+00  0.424180D+00 -0.593953D+00 -0.317459D+00 -0.316613D+00
     35  0.424182D+00  0.136737D+00 -0.592272D+00 -0.316564D+00  0.293574D+00
     36 -0.594534D+00 -0.592848D+00  0.543887D+00  0.444684D+00 -0.412438D+00
               26            27            28            29            30 
     26 -0.363618D+01
     27  0.365999D+00 -0.388704D+01
     28  0.771236D+00 -0.107986D+01 -0.120290D+03
     29  0.120836D+01 -0.169191D+01 -0.160597D+02 -0.279931D+02
     30  0.898897D-01 -0.125870D+00  0.212019D+00  0.533882D-01 -0.275855D+02
     31 -0.100709D+00 -0.125524D+00  0.210919D+00  0.530383D-01 -0.410158D-02
     32 -0.127930D+00 -0.112170D-01 -0.143829D+00 -0.138473D-01  0.446593D-02
     33  0.181475D+01 -0.254095D+01 -0.163595D+02 -0.201067D+02  0.339676D-01
     34  0.293570D+00 -0.411069D+00  0.172793D-01  0.233450D-02 -0.107597D+02
     35 -0.318276D+00 -0.409909D+00  0.171889D-01  0.227718D-02 -0.237501D-02
     36 -0.411269D+00 -0.351441D-01 -0.115100D-01  0.122901D-01  0.314869D-02
               31            32            33            34            35 
     31 -0.275855D+02
     32  0.445031D-02 -0.275868D+02
     33  0.337210D-01 -0.146993D-02 -0.202606D+02
     34 -0.237501D-02  0.314869D-02 -0.427380D-01 -0.131247D+02
     35 -0.107597D+02  0.313932D-02 -0.426666D-01 -0.121629D-01 -0.131246D+02
     36  0.313932D-02 -0.107616D+02  0.751160D-01  0.169912D-01  0.169427D-01
               36 
     36 -0.131362D+02
 SVDSVc IOpt=   1 NormSV=T IR=1
 SVDSVc V= 4.07D+00 3.61D+00 3.22D+00 3.22D+00 3.13D+00 2.94D+00 2.94D+00 2.76D+00 1.88D+00 1.79D+00
 SVDSVc V= 1.03D+00 1.02D+00 1.02D+00 8.19D-01 8.19D-01 8.01D-01 5.21D-01 4.03D-01 6.19D-04 3.86D-04
 SVDSVc V= 1.21D-04 8.07D-05 8.07D-05 3.43D-05 2.29D-05 2.18D-05 2.17D-05 1.78D-05 1.15D-05 1.15D-05
 SVDSVc V= 6.34D-06 4.62D-06 3.59D-06 3.52D-06 1.81D-15 3.72D-16
 TstOVc:  Largest diagonal error= 1.26D-10 IB=1 I=   33.
 TstOVc:  Largest same sym error= 4.02D-11 IB=1 I=   33 J=   27.
 Orthogonalized basis functions: 
                 1             2             3             4             5 
      1   0.358256D-01  0.863729D-01  0.000000D+00 -0.191906D-03  0.403990D-02
      2   0.112097D+00  0.222030D+00  0.000000D+00 -0.240742D-03  0.260004D-02
      3  -0.489711D-01  0.428099D-01  0.181779D+00  0.127265D+00  0.843853D-01
      4  -0.488311D-01  0.426895D-01 -0.181390D+00  0.128192D+00  0.841452D-01
      5   0.685605D-01 -0.595593D-01  0.648404D-03  0.182529D+00 -0.117943D+00
      6   0.123142D+00  0.213076D+00  0.000000D+00 -0.143769D-03  0.123779D-01
      7  -0.581429D-01  0.495923D-01  0.184128D+00  0.128907D+00  0.675065D-01
      8  -0.579767D-01  0.494523D-01 -0.183733D+00  0.129845D+00  0.673145D-01
      9   0.813746D-01 -0.690941D-01  0.656779D-03  0.184890D+00 -0.943422D-01
     10   0.717880D-01 -0.454966D-01 -0.105894D-05 -0.152706D-03  0.729623D-01
     11   0.167912D+00 -0.934331D-01  0.000000D+00 -0.124211D-03  0.122498D+00
     12   0.127538D-01  0.719600D-02  0.674907D-01  0.472420D-01 -0.973588D-01
     13   0.127165D-01  0.717612D-02 -0.673460D-01  0.475859D-01 -0.970828D-01
     14  -0.175377D-01 -0.102398D-01  0.240763D-03  0.677803D-01  0.136348D+00
     15   0.187326D+00 -0.902199D-01  0.000000D+00 -0.866245D-04  0.973402D-01
     16   0.215506D-01  0.108360D-01  0.795539D-01  0.556837D-01 -0.108242D+00
     17   0.214885D-01  0.108056D-01 -0.793834D-01  0.560890D-01 -0.107935D+00
     18  -0.298779D-01 -0.152795D-01  0.283825D-03  0.798992D-01  0.151446D+00
     19   0.361312D-01  0.860713D-01  0.000000D+00  0.191859D-03  0.338704D-02
     20   0.112605D+00  0.221600D+00  0.000000D+00  0.240444D-03  0.178121D-02
     21  -0.489549D-01  0.431674D-01  0.181805D+00  0.127276D+00  0.844310D-01
     22  -0.488164D-01  0.430431D-01 -0.181415D+00  0.128202D+00  0.841908D-01
     23   0.682775D-01 -0.605808D-01  0.648475D-03  0.182564D+00 -0.118001D+00
     24   0.123475D+00  0.212791D+00  0.000000D+00  0.144523D-03  0.119915D-01
     25  -0.580744D-01  0.498758D-01  0.184145D+00  0.128915D+00  0.674559D-01
     26  -0.579098D-01  0.497328D-01 -0.183750D+00  0.129853D+00  0.672639D-01
     27   0.810240D-01 -0.698987D-01  0.656828D-03  0.184914D+00 -0.942963D-01
     28   0.719948D-01 -0.453614D-01  0.106903D-05  0.159934D-03  0.710145D-01
     29   0.168133D+00 -0.933054D-01  0.000000D+00  0.137093D-03  0.120922D+00
     30   0.119472D-01  0.772147D-02  0.674962D-01  0.472471D-01 -0.982025D-01
     31   0.119141D-01  0.769890D-02 -0.673515D-01  0.475910D-01 -0.979222D-01
     32  -0.169803D-01 -0.106069D-01  0.240771D-03  0.677840D-01  0.136940D+00
     33   0.187533D+00 -0.901121D-01  0.000000D+00  0.974482D-04  0.962812D-01
     34   0.209068D-01  0.112444D-01  0.795897D-01  0.557171D-01 -0.108812D+00
     35   0.208481D-01  0.112119D-01 -0.794190D-01  0.561226D-01 -0.108501D+00
     36  -0.294523D-01 -0.155762D-01  0.283871D-03  0.799232D-01  0.151867D+00
                 6             7             8             9            10 
      1   0.000000D+00  0.928663D-04  0.349013D-01  0.486261D+00 -0.100844D+00
      2   0.000000D+00  0.105445D-03  0.458966D-01 -0.771514D-01  0.376556D-01
      3   0.798255D-01 -0.566344D-01 -0.940165D-01 -0.351061D-02 -0.270075D-01
      4  -0.803644D-01 -0.560320D-01 -0.937487D-01 -0.349722D-02 -0.269313D-01
      5  -0.222251D-03 -0.805197D-01  0.131446D+00  0.551852D-02  0.376226D-01
      6   0.000000D+00  0.595831D-04  0.371093D-01 -0.103520D+00  0.259748D-01
      7   0.733796D-01 -0.520631D-01 -0.947073D-01 -0.978972D-03 -0.884624D-02
      8  -0.738751D-01 -0.515093D-01 -0.944377D-01 -0.976486D-03 -0.882102D-02
      9  -0.204282D-03 -0.740153D-01  0.132377D+00  0.131378D-02  0.123699D-01
     10   0.000000D+00 -0.484856D-03 -0.823975D-01  0.106267D+00  0.480427D+00
     11   0.000000D+00 -0.368972D-03 -0.110948D+00 -0.403056D-02 -0.122178D+00
     12  -0.193560D+00  0.137331D+00 -0.110997D+00  0.105065D-01 -0.986039D-02
     13   0.194867D+00  0.135870D+00 -0.110680D+00  0.104755D-01 -0.983704D-02
     14   0.538654D-03  0.195240D+00  0.154753D+00 -0.143380D-01  0.152244D-01
     15   0.000000D+00 -0.224462D-03 -0.690713D-01 -0.234448D-01 -0.130875D+00
     16  -0.187879D+00  0.133305D+00 -0.925269D-01  0.259555D-03  0.536471D-03
     17   0.189148D+00  0.131887D+00 -0.922630D-01  0.258785D-03  0.535357D-03
     18   0.522846D-03  0.189504D+00  0.129098D+00 -0.353236D-03 -0.876141D-03
     19   0.000000D+00 -0.902048D-04  0.357451D-01  0.486299D+00 -0.100503D+00
     20   0.000000D+00 -0.100213D-03  0.467479D-01 -0.771268D-01  0.378578D-01
     21   0.797588D-01 -0.566055D-01 -0.937284D-01 -0.278504D-02 -0.269950D-01
     22  -0.802976D-01 -0.560035D-01 -0.934620D-01 -0.278051D-02 -0.269176D-01
     23  -0.221854D-03 -0.804270D-01  0.130918D+00  0.327887D-02  0.378398D-01
     24   0.000000D+00 -0.557482D-04  0.376513D-01 -0.103515D+00  0.260251D-01
     25   0.733336D-01 -0.520431D-01 -0.946231D-01 -0.103089D-02 -0.873719D-02
     26  -0.738290D-01 -0.514896D-01 -0.943540D-01 -0.102766D-02 -0.871238D-02
     27  -0.204009D-03 -0.739514D-01  0.132202D+00  0.149484D-02  0.122013D-01
     28   0.000000D+00  0.473574D-03 -0.847956D-01  0.106553D+00  0.480073D+00
     29   0.000000D+00  0.351792D-03 -0.112620D+00 -0.391737D-02 -0.122306D+00
     30  -0.193558D+00  0.137329D+00 -0.110024D+00  0.952511D-02 -0.139757D-01
     31   0.194865D+00  0.135868D+00 -0.109712D+00  0.949913D-02 -0.139312D-01
     32   0.538646D-03  0.195238D+00  0.154069D+00 -0.136529D-01  0.180837D-01
     33   0.000000D+00  0.212202D-03 -0.699713D-01 -0.234425D-01 -0.130868D+00
     34  -0.187863D+00  0.133289D+00 -0.919587D-01  0.211457D-03  0.927699D-03
     35   0.189131D+00  0.131871D+00 -0.916976D-01  0.210885D-03  0.924649D-03
     36   0.522797D-03  0.189493D+00  0.128665D+00 -0.304377D-03 -0.117044D-02
                11            12            13            14            15 
      1   0.125797D-01 -0.141482D-03 -0.126879D-05  0.119146D-02  0.744217D-05
      2  -0.161483D-01 -0.452619D-04  0.000000D+00  0.203236D-03  0.126823D-05
      3  -0.572574D-01  0.392869D-01 -0.554237D-01 -0.271994D+00  0.384981D+00
      4  -0.570940D-01  0.388303D-01  0.558245D-01 -0.270644D+00 -0.386486D+00
      5   0.800271D-01  0.560078D-01  0.174006D-03 -0.387752D+00 -0.289671D-03
      6  -0.247393D-01  0.122976D-04  0.000000D+00 -0.305243D-03 -0.190662D-05
      7   0.899048D-01 -0.227360D-01  0.320529D-01  0.274511D+00 -0.388562D+00
      8   0.896489D-01 -0.224719D-01 -0.322854D-01  0.273149D+00  0.390080D+00
      9  -0.125595D+00 -0.323697D-01 -0.100115D-03  0.391377D+00  0.292477D-03
     10  -0.936498D-02 -0.191215D-02  0.000000D+00 -0.281830D-03  0.000000D+00
     11   0.603538D-01 -0.355733D-04  0.000000D+00  0.170917D-04  0.000000D+00
     12  -0.235931D+00  0.245123D+00 -0.345404D+00  0.299482D-01 -0.423908D-01
     13  -0.235259D+00  0.242277D+00  0.347906D+00  0.297996D-01  0.425564D-01
     14   0.329404D+00  0.348650D+00  0.108177D-02  0.426967D-01  0.319083D-04
     15  -0.183111D-01  0.391234D-03  0.000000D+00  0.647385D-04  0.000000D+00
     16   0.233992D+00 -0.244795D+00  0.344934D+00 -0.391686D-01  0.554512D-01
     17   0.233325D+00 -0.241952D+00 -0.347432D+00 -0.389743D-01 -0.556680D-01
     18  -0.326530D+00 -0.348170D+00 -0.108030D-02 -0.558613D-01 -0.417141D-04
     19   0.135162D-01  0.153128D-03  0.126158D-05 -0.119169D-02 -0.744286D-05
     20  -0.157566D-01  0.291805D-04  0.000000D+00 -0.203224D-03 -0.127051D-05
     21  -0.577999D-01  0.391746D-01 -0.551657D-01 -0.272017D+00  0.385035D+00
     22  -0.576357D-01  0.387199D-01  0.555658D-01 -0.270668D+00 -0.386540D+00
     23   0.806402D-01  0.556495D-01  0.172349D-03 -0.387827D+00 -0.289841D-03
     24  -0.252541D-01 -0.385255D-04  0.000000D+00  0.304942D-03  0.190457D-05
     25   0.899248D-01 -0.228119D-01  0.322276D-01  0.274495D+00 -0.388525D+00
     26   0.896688D-01 -0.225464D-01 -0.324606D-01  0.273133D+00  0.390044D+00
     27  -0.125630D+00 -0.326125D-01 -0.101237D-03  0.391326D+00  0.292361D-03
     28  -0.202489D-01  0.189699D-02  0.000000D+00  0.281971D-03  0.000000D+00
     29   0.599414D-01  0.982092D-04  0.000000D+00 -0.187462D-04  0.000000D+00
     30  -0.236077D+00  0.245125D+00 -0.345406D+00  0.299414D-01 -0.423835D-01
     31  -0.235404D+00  0.242279D+00  0.347907D+00  0.297928D-01  0.425492D-01
     32   0.329496D+00  0.348652D+00  0.108178D-02  0.426918D-01  0.318968D-04
     33  -0.160299D-01 -0.409497D-03  0.000000D+00 -0.640185D-04  0.000000D+00
     34   0.233768D+00 -0.244784D+00  0.344922D+00 -0.392200D-01  0.555057D-01
     35   0.233102D+00 -0.241941D+00 -0.347420D+00 -0.390254D-01 -0.557226D-01
     36  -0.326425D+00 -0.348162D+00 -0.108026D-02 -0.558981D-01 -0.418004D-04
                16            17            18            19            20 
      1  -0.850147D-02  0.257185D-01  0.275636D-01 -0.230922D+00 -0.359170D+02
      2   0.106849D-01 -0.343549D+00 -0.685939D+00  0.508261D-01  0.248227D+01
      3  -0.268491D+00 -0.443974D-01  0.219730D-01 -0.776391D-01  0.787506D-01
      4  -0.267727D+00 -0.442750D-01  0.218983D-01 -0.775727D-01  0.781628D-01
      5   0.375140D+00  0.613267D-01 -0.329167D-01  0.117560D+00 -0.175853D+00
      6   0.960394D-02  0.294428D+00  0.709731D+00  0.136828D-02 -0.598486D-03
      7   0.251608D+00  0.950830D-01 -0.545340D-01  0.102561D-01 -0.242119D-01
      8   0.250892D+00  0.948121D-01 -0.543824D-01  0.101457D-01 -0.239260D-01
      9  -0.351594D+00 -0.132934D+00  0.755613D-01 -0.150338D-02  0.726450D-01
     10  -0.223172D-01  0.251462D-01 -0.356521D-02  0.279487D+02 -0.300383D+00
     11   0.150594D+00 -0.593498D+00  0.316954D+00 -0.514177D+01 -0.881627D-02
     12   0.749930D-01 -0.408320D-02 -0.557256D-03  0.151729D+00  0.116546D-01
     13   0.747788D-01 -0.406615D-02 -0.559289D-03  0.150948D+00  0.117045D-01
     14  -0.104539D+00  0.404091D-02  0.189119D-02 -0.104760D+00 -0.271281D-01
     15  -0.822371D-01  0.597921D+00 -0.389368D+00 -0.859313D-03  0.549570D-03
     16  -0.984481D-01  0.208854D-02  0.311237D-02 -0.746109D-01  0.119011D+00
     17  -0.981689D-01  0.208379D-02  0.310394D-02 -0.742419D-01  0.118901D+00
     18   0.137840D+00 -0.328707D-02 -0.448296D-02  0.568778D-01 -0.167973D+00
     19  -0.223392D-02  0.270373D-01  0.268447D-01  0.228537D+00  0.359177D+02
     20   0.116127D-01 -0.343427D+00 -0.685983D+00 -0.442072D-01 -0.248352D+01
     21  -0.268120D+00 -0.465365D-01  0.205891D-01  0.677886D-01  0.705587D-02
     22  -0.267357D+00 -0.464001D-01  0.205428D-01  0.677471D-01  0.660670D-02
     23   0.374698D+00  0.657416D-01 -0.265586D-01 -0.105146D+00 -0.871156D-01
     24   0.816332D-02  0.293887D+00  0.710043D+00  0.136336D-02 -0.372101D-03
     25   0.251622D+00  0.941477D-01 -0.544740D-01 -0.641429D-02 -0.192731D-01
     26   0.250906D+00  0.938802D-01 -0.543154D-01 -0.632474D-02 -0.190278D-01
     27  -0.351600D+00 -0.131494D+00  0.767651D-01  0.498658D-03  0.615974D-01
     28  -0.180588D-01  0.250026D-01 -0.379878D-02 -0.279487D+02  0.299671D+00
     29   0.150284D+00 -0.593465D+00  0.317022D+00  0.514310D+01  0.466169D-02
     30   0.743312D-01  0.656316D-03 -0.381612D-02  0.149616D+00 -0.216760D-01
     31   0.741206D-01  0.649023D-03 -0.380163D-02  0.148851D+00 -0.216897D-01
     32  -0.104141D+00  0.749567D-03  0.422240D-02 -0.105237D+00  0.386943D-01
     33  -0.831991D-01  0.597946D+00 -0.389339D+00 -0.140508D-02  0.645838D-03
     34  -0.987153D-01  0.305320D-02  0.289950D-02 -0.607599D-01 -0.995612D-01
     35  -0.984336D-01  0.304331D-02  0.289081D-02 -0.604370D-01 -0.995110D-01
     36   0.137683D+00 -0.390053D-02 -0.392138D-02  0.382199D-01  0.141561D+00
                21            22            23            24            25 
      1   0.109996D+00  0.179193D-03 -0.700821D-01 -0.293092D+00  0.336306D+00
      2   0.708604D-01  0.231189D-03 -0.862857D-01 -0.532746D+00  0.152240D+01
      3   0.186051D+00 -0.416897D+00  0.419673D+00 -0.302854D+02 -0.129968D+02
      4   0.185280D+00  0.416996D+00  0.416873D+00 -0.298663D+02 -0.133010D+02
      5   0.507570D-01  0.362935D-02  0.155976D+00  0.106160D+03 -0.174352D+02
      6  -0.131207D-01  0.858912D-05  0.197721D-02  0.238056D+00 -0.187916D-01
      7   0.205257D+00 -0.669225D-01  0.299360D-01 -0.486121D+01 -0.211363D+01
      8   0.205116D+00  0.671188D-01  0.294430D-01 -0.478808D+01 -0.219406D+01
      9  -0.153489D+00  0.514663D-03  0.654129D-01  0.183002D+02 -0.515088D+01
     10  -0.441042D+00 -0.180137D-04 -0.448251D-02 -0.217716D+01 -0.262695D+02
     11  -0.255399D+00 -0.339239D-04 -0.819315D-02 -0.896713D+01 -0.142765D+03
     12   0.405892D+02 -0.547855D+02  0.244603D+02 -0.222180D+01  0.284649D+00
     13   0.403809D+02  0.551564D+02  0.241361D+02 -0.223026D+01  0.293444D+00
     14  -0.282200D+02  0.126335D+00  0.697400D+02  0.160904D+01  0.406536D+00
     15   0.174744D+00  0.269598D-05 -0.911460D-03  0.749587D-01  0.117967D-01
     16   0.462502D+01 -0.875142D+01  0.391423D+01  0.204327D+02 -0.446288D+01
     17   0.460119D+01  0.881087D+01  0.386245D+01  0.203852D+02 -0.448459D+01
     18  -0.318842D+01  0.201217D-01  0.111146D+02 -0.139985D+02  0.490292D+00
     19  -0.109336D+00 -0.204576D-03  0.711607D-01 -0.304803D+00 -0.294692D+00
     20  -0.502435D-01 -0.262177D-03  0.800282D-01 -0.329685D+00 -0.143832D+01
     21  -0.192360D+00  0.414032D+00 -0.413012D+00  0.302849D+02  0.129785D+02
     22  -0.191577D+00 -0.414122D+00 -0.410245D+00  0.298658D+02  0.132829D+02
     23  -0.388480D-01 -0.361477D-02 -0.160908D+00 -0.106154D+03  0.174623D+02
     24  -0.131638D-01  0.858430D-05  0.198615D-02  0.238014D+00 -0.188098D-01
     25  -0.190022D+00  0.663802D-01 -0.326417D-01  0.487486D+01  0.212298D+01
     26  -0.189927D+00 -0.665675D-01 -0.321427D-01  0.480166D+01  0.220339D+01
     27   0.132532D+00 -0.517301D-03 -0.606340D-01 -0.183228D+02  0.514586D+01
     28  -0.446151D+00  0.176490D-04  0.495311D-02  0.220017D+01  0.262619D+02
     29  -0.261145D+00  0.305851D-04  0.901922D-02  0.873789D+01  0.142782D+03
     30  -0.405891D+02  0.547855D+02 -0.244606D+02  0.213372D+01 -0.996351D+00
     31  -0.403807D+02 -0.551565D+02 -0.241363D+02  0.214241D+01 -0.100141D+01
     32   0.282199D+02 -0.126334D+00 -0.697397D+02 -0.154831D+01  0.949586D-01
     33   0.174743D+00  0.270611D-05 -0.909183D-03  0.754855D-01  0.111325D-01
     34  -0.462524D+01  0.875131D+01 -0.391380D+01 -0.203338D+02  0.422933D+01
     35  -0.460141D+01 -0.881075D+01 -0.386202D+01 -0.202862D+02  0.425200D+01
     36   0.318871D+01 -0.201231D-01 -0.111151D+02  0.139260D+02 -0.345426D+00
                26            27            28            29            30 
      1  -0.411156D+00 -0.117837D-01 -0.169644D+01 -0.100239D-02  0.100888D+01
      2  -0.182339D+01 -0.519503D-01 -0.963020D+01 -0.778332D-02  0.804443D+01
      3   0.774231D+02  0.106034D+03 -0.549416D+02 -0.172686D+02  0.176294D+02
      4   0.848552D+02 -0.100047D+03 -0.555263D+02  0.174184D+02  0.174754D+02
      5   0.626463D+02  0.259315D+01  0.137114D+02  0.431178D-01  0.850643D+01
      6   0.264209D-01  0.784995D-03  0.516766D-01  0.135792D-03 -0.157582D-01
      7   0.208247D+02  0.272292D+02 -0.938726D+01 -0.736489D+01  0.912841D+01
      8   0.227217D+02 -0.256469D+02 -0.956812D+01  0.742143D+01  0.906384D+01
      9   0.143937D+02  0.622785D+00 -0.392487D+01  0.129862D-01  0.127883D+01
     10  -0.373346D+01 -0.106005D+00  0.219093D+01 -0.494637D-03 -0.157430D+00
     11  -0.206992D+02 -0.589256D+00  0.147364D+02 -0.416784D-02 -0.131898D+01
     12   0.307586D+01 -0.286586D+01  0.116451D+02 -0.228257D+02  0.958429D+01
     13   0.284323D+01  0.302134D+01  0.116022D+02  0.230078D+02  0.937948D+01
     14  -0.600561D+01 -0.205732D+00 -0.468790D+01  0.100475D+00  0.294180D+02
     15   0.376544D-02 -0.332275D-03  0.278107D+00 -0.118570D-03 -0.312686D-01
     16  -0.353312D+02  0.123178D+02 -0.964114D+02  0.143779D+03 -0.594752D+02
     17  -0.341715D+02 -0.142971D+02 -0.960044D+02 -0.144918D+03 -0.581880D+02
     18   0.418064D+02  0.136830D+01  0.498757D+02 -0.635855D+00 -0.186322D+03
     19   0.362640D+00  0.105677D-01  0.147893D+01  0.684350D-03 -0.100120D+01
     20   0.172355D+01  0.491999D-01  0.929318D+01  0.732576D-02 -0.796029D+01
     21  -0.774051D+02 -0.106030D+03  0.549989D+02  0.172925D+02 -0.176927D+02
     22  -0.848370D+02  0.100044D+03  0.555833D+02 -0.174425D+02 -0.175382D+02
     23  -0.626819D+02 -0.259418D+01 -0.138400D+02 -0.431840D-01 -0.843833D+01
     24   0.264189D-01  0.785209D-03  0.515253D-01  0.135780D-03 -0.157838D-01
     25  -0.208294D+02 -0.272331D+02  0.943418D+01  0.736947D+01 -0.911784D+01
     26  -0.227267D+02  0.256503D+02  0.961492D+01 -0.742605D+01 -0.905324D+01
     27  -0.143937D+02 -0.622672D+00  0.385164D+01 -0.130059D-01 -0.129668D+01
     28   0.368188D+01  0.104622D+00 -0.235356D+01  0.535857D-03  0.168427D+00
     29   0.210038D+02  0.598550D+00 -0.142977D+02  0.413583D-02  0.131146D+01
     30  -0.317892D+01  0.283876D+01 -0.115983D+02  0.228305D+02 -0.958713D+01
     31  -0.294752D+01 -0.300020D+01 -0.115556D+02 -0.230127D+02 -0.938226D+01
     32   0.604223D+01  0.206435D+00  0.467729D+01 -0.100497D+00 -0.294254D+02
     33   0.354218D-02 -0.338643D-03  0.278640D+00 -0.118946D-03 -0.313794D-01
     34   0.352947D+02 -0.122522D+02  0.965000D+02 -0.143792D+03  0.594640D+02
     35   0.341400D+02  0.142297D+02  0.960923D+02  0.144931D+03  0.581768D+02
     36  -0.416819D+02 -0.136379D+01 -0.500014D+02  0.635957D+00  0.186356D+03
                31            32            33            34 
      1  -0.509915D+00 -0.224628D+02  0.641474D-04 -0.350491D+00
      2  -0.456483D+01 -0.327236D+03  0.104734D-02 -0.619516D+01
      3  -0.101807D+02  0.446750D+01  0.663249D+02  0.599523D+02
      4  -0.998391D+01  0.445989D+01 -0.660519D+02  0.603921D+02
      5   0.427476D+02 -0.530507D+01  0.349690D+00  0.373207D+02
      6   0.191545D+00 -0.835048D-02 -0.140598D-05 -0.248657D-01
      7   0.740077D+02  0.300561D+01 -0.255882D+03 -0.238642D+03
      8   0.729590D+02  0.305539D+01  0.254823D+03 -0.240358D+03
      9  -0.256765D+03  0.696634D+01 -0.135140D+01 -0.135979D+03
     10   0.319948D+00 -0.393523D+00 -0.531360D-03 -0.272310D+00
     11   0.314441D+01 -0.448918D+01 -0.619719D-02 -0.312031D+01
     12  -0.147923D+01 -0.656190D+00  0.623114D+00  0.134026D+01
     13  -0.146589D+01 -0.662936D+00 -0.623255D+00  0.133554D+01
     14   0.335403D+00  0.196844D+01  0.226974D-02  0.477839D+00
     15  -0.118746D+00 -0.448770D-01 -0.111983D-04  0.101513D+00
     16   0.727825D+01  0.785513D+01 -0.506260D+01 -0.709317D+01
     17   0.719715D+01  0.789560D+01  0.505059D+01 -0.707336D+01
     18   0.482833D+00 -0.179110D+02 -0.136707D-01 -0.683533D+01
     19   0.330781D+00  0.224933D+02 -0.632902D-04  0.353028D+00
     20   0.512083D+01  0.327277D+03 -0.104671D-02  0.617834D+01
     21   0.101973D+02 -0.408259D+01 -0.663264D+02 -0.599555D+02
     22   0.100004D+02 -0.407990D+01  0.660533D+02 -0.603953D+02
     23  -0.427799D+02  0.407561D+01 -0.349694D+00 -0.373329D+02
     24   0.191631D+00 -0.869664D-02 -0.142263D-05 -0.249438D-01
     25  -0.740309D+02 -0.288647D+01  0.255886D+03  0.238670D+03
     26  -0.729822D+02 -0.293777D+01 -0.254826D+03  0.240386D+03
     27   0.256800D+03 -0.734387D+01  0.135142D+01  0.135941D+03
     28  -0.289800D+00  0.409607D+00  0.530124D-03  0.248873D+00
     29  -0.307365D+01  0.444981D+01  0.629956D-02  0.305435D+01
     30   0.148285D+01  0.663115D+00 -0.602267D+00 -0.132686D+01
     31   0.146962D+01  0.669881D+00  0.602440D+00 -0.132199D+01
     32  -0.302864D+00 -0.199059D+01 -0.213640D-02 -0.473311D+00
     33  -0.118265D+00 -0.458298D-01 -0.116946D-04  0.100796D+00
     34  -0.724423D+01 -0.793304D+01  0.500330D+01  0.701389D+01
     35  -0.716368D+01 -0.797325D+01 -0.499155D+01  0.699387D+01
     36  -0.607385D+00  0.180148D+02  0.133482D-01  0.685180D+01
 NBasis=    36 RedAO= T EigKep=  3.52D-06  NBF=    36
 NBsUse=    34 1.00D-06 EigRej=  1.81D-15 NBFU=    34
 Precomputing XC quadrature grid using
 IXCGrd= 4 IRadAn=           5 IRanWt=          -1 IRanGd=           0 AccXCQ= 0.00D+00.
 SetAtRh:  ITypeU=  23 NETotI=       0 ICharg=  4 NETot=       0.
 StAtR1:  I=    1 I1=    1 IA=  3 C=   3.0 OKShel=TT
                                                  SS
                                                  21
 StAtR1:  I=    2 I1=    2 IA=  9 C=   9.0 OKShel=TTT
                                                  SSP
                                                  225
 StAtR1:  I=    3 I1=    3 IA=  3 C=   3.0 OKShel=TT
                                                  SS
                                                  21
 StAtR1:  I=    4 I1=    4 IA=  9 C=   9.0 OKShel=TTT
                                                  SSP
                                                  225
          I=    1 IA=  3 I1=    1 NAtG= 0 NE=   3.000 C=   0.000 Err=-3.00D+00
          I=    2 IA=  9 I1=    2 NAtG= 0 NE=   9.000 C=   0.000 Err=-9.00D+00
          I=    3 IA=  3 I1=    3 NAtG= 0 NE=   3.000 C=   0.000 Err=-3.00D+00
          I=    4 IA=  9 I1=    4 NAtG= 0 NE=   9.000 C=   0.000 Err=-9.00D+00
 Generated NRdTot=       0 NPtTot=           0 NUsed=           0 NTot=          32
 NSgBfM=    36    36    36    36    36 MxSgAt=     4 MxSgA2=     4.
 IGWInf( 1) =          32 (NGWInf)
 IGWInf( 2) =           4 (NAtomA)
 IGWInf( 3) =           5 (IRadAn)
 IGWInf( 4) =          -1 (IRanWt)
 IGWInf( 5) =           0 (IRanGd)
 IGWInf( 6) =           2 (IRType)
 IGWInf( 7) =           0 (NRdTot)
 IGWInf( 8) =           0 (NGWTot)
 IGWInf( 9) =       88832 (LGWBtD)
 IGWInf(10) =           0 (NAtBtD)
 IGWInf(11) =           0 (NIRBtD)
 IGWInf(12) =           0 (NRRBtD)
 IGWInf(13) =           1 (NClRep)
[...]
  20        2S       **********-218.95984-217.72120 128.27968   7.99859
  21        2PX       580.97344 152.35431 151.36344-102.35538  -3.98363
  22        2PY       581.51203 151.85488 151.37723-102.22836  -3.98049
  23        2PZ      -649.23378-202.22187-201.28454 130.36347   4.45939
  24        3S          1.10586  -4.00568  -3.98507   2.75234   0.14941
  25        3PX      **********1061.705021054.18699-723.60156 -37.73662
  26        3PY      **********1061.316661057.89451-724.73497 -37.78927
  27        3PZ       295.78892-581.21137-578.20273 400.81846  21.59763
  28 4   F  1S        392.06790 -10.48347 -10.42875   7.20332  -0.01180
  29        2S       ********** -18.75316 -18.67905  15.32864  -0.25315
  30        2PX        28.28305-512.99960-510.85402 356.77484   1.56808
  31        2PY        28.11654-510.85380-507.74799 354.94560   1.56001
  32        2PZ       -17.38816 356.80202 354.97276-247.54153  -1.06561
  33        3S          0.14235  -1.56622  -1.55818   1.06831   0.15588
  34        3PX         0.82936 -95.94560 -94.59598  64.74256   9.20039
  35        3PY         0.73840 -94.58930 -94.96158  64.40561   9.15438
  36        3PZ        -1.78343  59.06089  58.75688 -41.50689  -6.27576
                          16        17        18        19        20
  16        3PX       559.15021
  17        3PY       552.51631 553.67962
  18        3PZ      -378.51452-376.65309 263.21220
  19 3   Li 1S         12.75940  12.70318  -6.66899  12.46924
  20        2S       -488.11938-485.06926 224.11984-526.19348**********
  21        2PX       205.69361 206.72717-108.19241   9.10874**********
  22        2PY       208.20512 204.26290-108.45223   9.24061**********
  23        2PZ      -198.42938-196.15695  53.28386   6.982322000.77664
  24        3S         -9.07110  -9.02832   6.16993  -0.38710  14.13198
  25        3PX      2270.203722267.41536**********  45.86510**********
  26        3PY      2281.885632261.63123**********  46.10429**********
  27        3PZ      ******************** 897.27477 -59.104571820.90472
  28 4   F  1S          2.06128   2.05689  -1.72725   0.67719 -55.76099
  29        2S         27.13274  26.90881 -19.78659 -12.229851193.89792
  30        2PX       -96.17282 -95.15567  59.55960  -2.45532 211.35616
  31        2PY       -95.16128 -95.17913  59.24983  -2.43814 210.17206
  32        2PZ        64.76367  64.42455 -40.88024   1.19273-126.99673
  33        3S         -9.21113  -9.16505   6.28239  -0.18484   8.09858
  34        3PX      -558.26371-551.51906 377.54439 -13.15848 523.83837
  35        3PY      -551.51867-552.80840 375.68980 -13.10003 520.59259
  36        3PZ       377.81652 375.96098-262.77372   6.90276-245.71224
                          21        22        23        24        25
  21        2PX      1095.15959
  22        2PY      1087.367931084.62080
  23        2PZ      ********************4970.88435
  24        3S         -1.27312  -1.29577  -2.72916   0.17488
  25        3PX       186.00696 173.24930-351.36601 -41.56111**********
  26        3PY       184.33781 192.06036-366.06006 -41.59951**********
  27        3PZ         0.51040  -3.55809-725.05677  25.93704**********
  28 4   F  1S         25.69157  25.72229 -27.94040   0.08790 -78.16031
  29        2S       -575.46107-576.00690 642.17600  -1.251191423.77135
  30        2PX      -148.11844-148.95810 199.03030   4.01192**********
  31        2PY      -148.49546-147.15627 198.11434   3.99124**********
  32        2PZ       102.36190 102.22932-128.77017  -2.75399 730.08070
  33        3S         -4.03957  -4.03655   4.51051   0.14933 -37.59906
  34        3PX      -220.95324-223.32804 213.78298   9.03968**********
  35        3PY      -221.74876-219.46928 211.42996   8.99712**********
  36        3PZ       117.64744 117.93043 -61.90959  -6.146851519.45190
                          26        27        28        29        30
  26        3PY      **********
  27        3PZ      **********3930.41969
  28 4   F  1S        -77.90690  19.52622  28.85180
  29        2S       1418.29870-317.05308-392.459835560.48413
  30        2PX      ********** 584.67055  15.73856 -53.55616 514.27279
  31        2PY      ********** 581.64599  15.65692 -53.26002 510.92838
  32        2PZ       731.17842-396.30250 -10.86313  34.95687-356.84470
  33        3S        -37.65225  21.57548  -0.01733  -0.15048   1.56748
  34        3PX      **********1317.08892  -3.31908  -2.88220  95.64183
  35        3PY      **********1311.03495  -3.30836  -2.78046  94.81171
  36        3PZ      1521.27723-892.46898   2.60477   2.93499 -59.25202
                          31        32        33        34        35
  31        2PY       509.02000
  32        2PZ      -355.01512 248.79572
  33        3S          1.55942  -1.06553   0.15589
  34        3PX        94.81722 -64.59601   9.20201 557.99694
  35        3PY        94.65291 -64.25819   9.15602 551.07232 552.55136
  36        3PZ       -58.94416  40.54424  -6.27618-377.22973-375.37911
                          36
  36        3PZ       262.67045
    Full Mulliken population analysis:
                           1         2         3         4         5
   1 1   Li 1S         12.68666
   2        2S        -95.51460**********
   3        2PX         0.00000   0.000001102.13825
   4        2PY         0.00000   0.00000   0.000001091.56111
   5        2PZ         0.00000   0.00000   0.00000   0.000004997.83395
   6        3S          0.03788 -10.92732   0.00000   0.00000   0.00000
   7        3PX         0.00000   0.00000 118.60803   0.00000   0.00000
   8        3PY         0.00000   0.00000   0.00000 122.18387   0.00000
   9        3PZ         0.00000   0.00000   0.00000   0.00000-421.82419
  10 2   F  1S          0.00000  -0.13243  -0.09452  -0.09435  -0.14699
  11        2S         -0.00000  15.35596  10.58637  10.56584  16.64303
  12        2PX        -0.00000   0.88938   0.35971   0.88718   1.66226
  13        2PY        -0.00000   0.88183   0.88434   0.35232   1.64982
  14        2PZ        -0.00000   0.72751   0.83608   0.83263   1.04042
  15        3S          0.00000  -0.34830  -0.21820  -0.21739  -0.34405
  16        3PX        -0.00019  15.07188   2.51787   8.10386  10.96910
  17        3PY        -0.00018  14.93461   8.04710   2.45435  10.81423
  18        3PZ        -0.00011   9.62041   5.86228   5.85915   2.77238
  19 3   Li 1S        -11.25006  93.23369   0.01904   0.01899  -0.00421
  20        2S         95.50354**********  -2.20833  -2.17956  -9.45918
  21        2PX        -0.06251   2.10865**********   0.00379   0.02334
  22        2PY        -0.06151   2.08219   0.00379**********   0.02288
  23        2PZ        -0.35375   8.52349   0.02331   0.02285**********
  24        3S          0.03809 -10.97619  -0.00074  -0.00075   0.00427
  25        3PX        -0.01022   1.08630-120.16351   0.00015   0.00089
  26        3PY        -0.01019   1.09336   0.00016-123.72530   0.00091
  27        3PZ        -0.02474   6.08836   0.00005   0.00006 415.37279
  28 4   F  1S         -0.00000   0.12299   0.08439   0.08425   0.12929
  29        2S          0.00000 -15.37738 -10.55201 -10.53181 -16.57954
  30        2PX         0.00000  -0.86404  -0.34973  -0.87460  -1.64532
  31        2PY         0.00000  -0.85675  -0.87191  -0.34250  -1.63306
  32        2PZ         0.00000  -0.72556  -0.84103  -0.83752  -1.03356
  33        3S          0.00000  -0.35509  -0.22240  -0.22159  -0.35006
  34        3PX         0.00020 -16.25919  -2.69108  -8.71682 -11.85582
  35        3PY         0.00020 -16.11204  -8.65594  -2.62351 -11.69352
  36        3PZ         0.00012 -10.61479  -6.39745  -6.39413  -3.21129
                           6         7         8         9        10
   6        3S          0.17399
   7        3PX         0.00000**********
   8        3PY         0.00000   0.00000**********
   9        3PZ         0.00000   0.00000   0.000003869.43215
  10 2   F  1S         -0.00019   0.51348   0.50958   0.11341  28.83558
  11        2S          0.05159 -63.01465 -62.58366 -18.79515 -84.27252
  12        2PX        -0.01733  -4.80229   4.46713   3.41001   0.00000
  13        2PY        -0.01720   4.43705  -4.81061   3.38266   0.00000
  14        2PZ        -0.01666   4.27124   4.26579  -0.19526   0.00000
  15        3S          0.01864  -4.39289  -4.38654  -3.49599  -0.00612
  16        3PX        -0.25720 -69.99090  60.18847  48.74896   0.00000
  17        3PY        -0.25525  59.80579 -70.06903  48.38607   0.00000
  18        3PZ        -0.24465  57.22165  57.12303  -4.96017   0.00000
  19 3   Li 1S         -0.05426   0.01134   0.01126   0.04538  -0.00000
  20        2S         11.01328  -1.07406  -1.08123  -6.06043   0.13550
  21        2PX        -0.00067-108.00774   0.00014  -0.00002   0.09627
  22        2PY        -0.00067   0.00013-111.58438  -0.00001   0.09609
  23        2PZ         0.00456   0.00082   0.00084 433.04078   0.14845
  24        3S          0.17443  -0.03739  -0.03696  -0.07241  -0.00019
  25        3PX        -0.03742**********   0.00990   0.01568  -0.51676
  26        3PY        -0.03699   0.00990**********   0.01549  -0.51284
  27        3PZ        -0.07283   0.01576   0.01558**********  -0.11378
  28 4   F  1S          0.00077  -0.67625  -0.67213  -0.23575 -27.38366
  29        2S         -0.05851  64.82898  64.39560  20.16915  84.22173
  30        2PX         0.01737   4.84552  -4.50922  -3.43005  -0.08915
  31        2PY         0.01723  -4.47912   4.85335  -3.40257  -0.08825
  32        2PZ         0.01669  -4.30902  -4.30327   0.19874  -0.04377
  33        3S          0.01868  -4.37947  -4.37323  -3.49732  -0.00511
  34        3PX         0.25646  69.16507 -59.10536 -48.44374   0.00347
  35        3PY         0.25453 -58.72473  69.24620 -48.08373   0.00343
  36        3PZ         0.24408 -56.19497 -56.10292   5.01865   0.00167
                          11        12        13        14        15
  11        2S       5560.08896
  12        2PX         0.00000 514.09580
  13        2PY         0.00000   0.00000 508.84478
  14        2PZ         0.00000   0.00000   0.00000 248.62937
  15        3S          0.17939   0.00000   0.00000   0.00000   0.15587
  16        3PX         0.00000  46.92825   0.00000   0.00000   0.00000
  17        3PY         0.00000   0.00000  46.44534   0.00000   0.00000
  18        3PZ         0.00000   0.00000   0.00000  20.24411   0.00000
  19 3   Li 1S          0.00000   0.00000   0.00000   0.00000  -0.00000
  20        2S        -15.69713  -0.90600  -0.89832  -0.74058   0.35474
  21        2PX       -10.77667  -0.35979  -0.89197  -0.84397   0.21855
  22        2PY       -10.75604  -0.89487  -0.35241  -0.84053   0.21776
  23        2PZ       -16.80274  -1.66742  -1.65498  -1.03722   0.34135
  24        3S          0.05207  -0.01745  -0.01731  -0.01673   0.01879
  25        3PX        63.41923   4.86344  -4.46199  -4.28545   4.42450
  26        3PY        62.98658  -4.49217   4.87145  -4.27998   4.41810
  27        3PZ        18.89959  -3.44216  -3.41462   0.22538   3.53312
  28 4   F  1S         84.20957  -0.09615  -0.09516  -0.04596  -0.00217
  29        2S       **********  -0.07669  -0.07600  -0.04362  -0.18535
  30        2PX        -0.11567-512.92636   0.03244   0.01584  -0.00252
  31        2PY        -0.11440   0.03244-507.67583   0.01568  -0.00249
  32        2PZ        -0.04948   0.01584   0.01568-247.51434  -0.00119
  33        3S          0.10422  -0.00252  -0.00249  -0.00119   0.15587
  34        3PX        -0.00316 -46.85507   0.00082   0.00039  -0.03028
  35        3PY        -0.00280   0.00082 -46.37453   0.00039  -0.02998
  36        3PZ        -0.00473   0.00036   0.00035 -20.27009  -0.01437
                          16        17        18        19        20
  16        3PX       559.15021
  17        3PY         0.00000 553.67962
  18        3PZ         0.00000   0.00000 263.21220
  19 3   Li 1S          0.00027   0.00026   0.00019  12.46924
  20        2S        -15.32634 -15.18733  -9.81846 -93.24912**********
  21        2PX        -2.46284  -8.04341  -5.89013   0.00000   0.00000
  22        2PY        -8.10092  -2.40053  -5.88751   0.00000   0.00000
  23        2PZ       -10.80274 -10.64871  -2.60628   0.00000   0.00000
  24        3S         -0.25881  -0.25686  -0.24561  -0.05446  11.06225
  25        3PX        70.84546 -60.12538 -57.39373   0.00000   0.00000
  26        3PY       -60.50909  70.91890 -57.29489   0.00000   0.00000
  27        3PZ       -49.16465 -48.79932   5.41158   0.00000   0.00000
  28 4   F  1S          0.00241   0.00240   0.00141   0.00000  -0.12583
  29        2S          0.10340   0.10202   0.05246  -0.00000  15.71885
  30        2PX       -46.96603   0.00082   0.00036  -0.00000   0.88013
  31        2PY         0.00082 -46.48077   0.00036  -0.00000   0.87272
  32        2PZ         0.00039   0.00039 -19.96406  -0.00000   0.73846
  33        3S         -0.03032  -0.03001  -0.01439  -0.00000   0.36166
  34        3PX      -558.25018   0.00594   0.00285  -0.00028  16.53434
  35        3PY         0.00594-552.79506   0.00282  -0.00028  16.38531
  36        3PZ         0.00285   0.00282-262.76882  -0.00021  10.82981
                          21        22        23        24        25
  21        2PX      1095.15959
  22        2PY         0.000001084.62080
  23        2PZ         0.00000   0.000004970.88435
  24        3S          0.00000   0.00000   0.00000   0.17488
  25        3PX       109.48246   0.00000   0.00000   0.00000**********
  26        3PY         0.00000 113.04545   0.00000   0.00000   0.00000
  27        3PZ         0.00000   0.00000-426.76360   0.00000   0.00000
  28 4   F  1S         -0.08600  -0.08586  -0.13060   0.00078   0.68073
  29        2S         10.74222  10.72193  16.73928  -0.05904 -65.24639
  30        2PX         0.34974   0.88199   1.65027   0.01749  -4.90710
  31        2PY         0.87925   0.34252   1.63802   0.01735   4.50420
  32        2PZ         0.84874   0.84524   1.03036   0.01676   4.32329
  33        3S          0.22280   0.22200   0.34739   0.01883   4.41096
  34        3PX         2.63608   8.72170  11.69145   0.25806 -70.00942
  35        3PY         8.66002   2.56971  11.52999   0.25612  59.03881
  36        3PZ         6.43395   6.43114   3.04175   0.24504  56.36403
                          26        27        28        29        30
  26        3PY      **********
  27        3PZ         0.000003930.41969
  28 4   F  1S          0.67660   0.23747  28.85180
  29        2S        -64.81134 -20.28863 -84.266475560.48413
  30        2PX         4.53439   3.46222   0.00000   0.00000 514.27279
  31        2PY        -4.91460   3.43454   0.00000   0.00000   0.00000
  32        2PZ         4.31751  -0.22866   0.00000   0.00000   0.00000
  33        3S          4.40468   3.53445  -0.00318  -0.11018   0.00000
  34        3PX        59.42046  48.85738   0.00000   0.00000  46.70858
  35        3PY       -70.08597  48.49494   0.00000   0.00000   0.00000
  36        3PZ        56.27177  -5.46941   0.00000   0.00000   0.00000
                          31        32        33        34        35
  31        2PY       509.02000
  32        2PZ         0.00000 248.79572
  33        3S          0.00000   0.00000   0.15589
  34        3PX         0.00000   0.00000   0.00000 557.99694
  35        3PY        46.22562   0.00000   0.00000   0.00000 552.55136
  36        3PZ         0.00000  19.80058   0.00000   0.00000   0.00000
                          36
  36        3PZ       262.67045
     Gross orbital populations:
                           1
   1 1   Li 1S          0.97864
   2        2S         -8.85357
   3        2PX        -0.79876
   4        2PY        -0.77641
   5        2PZ        -3.12339
   6        3S          0.30304
   7        3PX       -39.14550
   8        3PY       -39.03308
   9        3PZ       -30.24621
  10 2   F  1S          1.17803
  11        2S          0.98723
  12        2PX         1.05636
  13        2PY         1.05545
  14        2PZ         0.97326
  15        3S          0.35885
  16        3PX         0.51996
  17        3PY         0.50883
  18        3PZ         0.29842
  19 3   Li 1S          1.19678
  20        2S          9.82865
  21        2PX         2.93721
  22        2PY         2.91311
  23        2PZ         5.90909
  24        3S          0.30430
  25        3PX        39.40245
  26        3PY        39.28923
  27        3PZ        30.49399
  28 4   F  1S          1.17969
  29        2S          0.85040
  30        2PX         0.99017
  31        2PY         0.99185
  32        2PZ         1.11293
  33        3S          0.35887
  34        3PX         0.03979
  35        3PY         0.04411
  36        3PZ        -0.08376
          Condensed to atoms (all electrons):
               1          2          3          4
     1  Li*********** 204.194141***********-231.303907
     2  F  204.1941418295.729265-205.417957***********
     3  Li***********-205.417957*********** 232.848054
     4  F -231.303907*********** 232.8480548291.508973
 Mulliken charges:
               1
     1  Li 123.695247
     2  F    2.063618
     3  Li-129.274811
     4  F    3.515947
 Sum of Mulliken charges =  -0.00000
 Mulliken charges with hydrogens summed into heavy atoms:
               1
     1  Li 123.695247
     2  F    2.063618
     3  Li-129.274811
     4  F    3.515947
 N-N= 1.137752851669D+04 E-N=-8.143116879920D+02  KE= 2.031817687448D+02
 Orbital energies and kinetic energies (alpha):
                                 1                 2
   1         O               -87.318133         45.692343
   2         O               -10.029174         23.020105
   3         O                -6.829075          4.250017
   4         O                -6.669764          6.980557
   5         O                -5.986089          7.876229
   6         O                -5.985456          7.873961
   7         O                -0.336308          0.364222
   8         O                -0.269681          0.919543
   9         O                -0.175677          0.845947
  10         O                -0.162941          0.314480
  11         O                -0.139241          2.137002
  12         O                -0.136547          1.316479
  13         V                -0.005277          0.199251
  14         V                 0.002549          0.219997
  15         V                 0.004946          0.244777
  16         V                 0.019584          0.142352
  17         V                 0.019751          0.141472
  18         V                 0.053462          0.277024
  19         V                 0.169044          1.505536
  20         V                 0.223175          1.001532
  21         V                 0.234457          0.920181
  22         V                 0.258082          1.591272
  23         V                 0.267406          1.469432
  24         V                 0.270761          1.114830
  25         V                 0.375471          1.926376
  26         V                 0.665893          2.490475
  27         V                 0.670467          2.503633
  28         V                 1.447929          3.302547
  29         V                 3.584843         14.628204
  30         V                 3.586451         14.640686
  31         V                 3.695351         16.874101
  32         V                 3.760474         16.429617
  33         V                 9.713422         21.686747
  34         V               121.505492        275.527512
 Total kinetic energy from orbitals= 2.031817687448D+02

 This type of calculation cannot be archived.


 ALL MEN WHO EXPLORE
 DEPLORE
 THAT FRUSTRATING HURDLE
 THE GIRDLE.

         -- COLIN FLETCHER
 Job cpu time:       0 days  0 hours  0 minutes  0.9 seconds.
 Elapsed time:       0 days  0 hours  0 minutes  1.2 seconds.
 File lengths (MBytes):  RWF=    272 Int=      0 D2E=      0 Chk=     32 Scr=     32
 Normal termination of Gaussian 16 at Thu Dec 29 13:13:03 2022.
