 Entering Gaussian System, Link 0=g16
 Initial command:
 /software/gaussian/g16-c01/avx2/g16/l1.exe "/gpfs/fs2/scratch/bweight/software/many_molecule_many_mode_NAMD/src/NAMD/TEST_NVT/TRAJ/traj-79/G16/GS_NEW/Gau-30194.inp" -scrdir="/gpfs/fs2/scratch/bweight/software/many_molecule_many_mode_NAMD/src/NAMD/TEST_NVT/TRAJ/traj-79/G16/GS_NEW/"
 Entering Link 1 = /software/gaussian/g16-c01/avx2/g16/l1.exe PID=     30198.
  
 Copyright (c) 1988-2019, Gaussian, Inc.  All Rights Reserved.
  
 This is part of the Gaussian(R) 16 program.  It is based on
 the Gaussian(R) 09 system (copyright 2009, Gaussian, Inc.),
 the Gaussian(R) 03 system (copyright 2003, Gaussian, Inc.),
 the Gaussian(R) 98 system (copyright 1998, Gaussian, Inc.),
 the Gaussian(R) 94 system (copyright 1995, Gaussian, Inc.),
 the Gaussian 92(TM) system (copyright 1992, Gaussian, Inc.),
 the Gaussian 90(TM) system (copyright 1990, Gaussian, Inc.),
 the Gaussian 88(TM) system (copyright 1988, Gaussian, Inc.),
 the Gaussian 86(TM) system (copyright 1986, Carnegie Mellon
 University), and the Gaussian 82(TM) system (copyright 1983,
 Carnegie Mellon University). Gaussian is a federally registered
 trademark of Gaussian, Inc.
  
 This software contains proprietary and confidential information,
 including trade secrets, belonging to Gaussian, Inc.
  
 This software is provided under written license and may be
 used, copied, transmitted, or stored only in accord with that
 written license.
  
 The following legend is applicable only to US Government
 contracts under FAR:
  
                    RESTRICTED RIGHTS LEGEND
  
 Use, reproduction and disclosure by the US Government is
 subject to restrictions as set forth in subparagraphs (a)
 and (c) of the Commercial Computer Software - Restricted
 Rights clause in FAR 52.227-19.
  
 Gaussian, Inc.
 340 Quinnipiac St., Bldg. 40, Wallingford CT 06492
  
  
 ---------------------------------------------------------------
 Warning -- This program may not be used in any manner that
 competes with the business of Gaussian, Inc. or will provide
 assistance to any competitor of Gaussian, Inc.  The licensee
 of this program is prohibited from giving any competitor of
 Gaussian, Inc. access to this program.  By using this program,
 the user acknowledges that Gaussian, Inc. is engaged in the
 business of creating and licensing software in the field of
 computational chemistry and represents and warrants to the
 licensee that it is not a competitor of Gaussian, Inc. and that
 it will not use this program in any manner prohibited above.
 ---------------------------------------------------------------
  

 Cite this work as:
 Gaussian 16, Revision C.01,
 M. J. Frisch, G. W. Trucks, H. B. Schlegel, G. E. Scuseria, 
 M. A. Robb, J. R. Cheeseman, G. Scalmani, V. Barone, 
 G. A. Petersson, H. Nakatsuji, X. Li, M. Caricato, A. V. Marenich, 
 J. Bloino, B. G. Janesko, R. Gomperts, B. Mennucci, H. P. Hratchian, 
 J. V. Ortiz, A. F. Izmaylov, J. L. Sonnenberg, D. Williams-Young, 
 F. Ding, F. Lipparini, F. Egidi, J. Goings, B. Peng, A. Petrone, 
 T. Henderson, D. Ranasinghe, V. G. Zakrzewski, J. Gao, N. Rega, 
 G. Zheng, W. Liang, M. Hada, M. Ehara, K. Toyota, R. Fukuda, 
 J. Hasegawa, M. Ishida, T. Nakajima, Y. Honda, O. Kitao, H. Nakai, 
 T. Vreven, K. Throssell, J. A. Montgomery, Jr., J. E. Peralta, 
 F. Ogliaro, M. J. Bearpark, J. J. Heyd, E. N. Brothers, K. N. Kudin, 
 V. N. Staroverov, T. A. Keith, R. Kobayashi, J. Normand, 
 K. Raghavachari, A. P. Rendell, J. C. Burant, S. S. Iyengar, 
 J. Tomasi, M. Cossi, J. M. Millam, M. Klene, C. Adamo, R. Cammi, 
 J. W. Ochterski, R. L. Martin, K. Morokuma, O. Farkas, 
 J. B. Foresman, and D. J. Fox, Gaussian, Inc., Wallingford CT, 2019.
 
 ******************************************
 Gaussian 16:  ES64L-G16RevC.01  3-Jul-2019
                11-Jan-2023 
 ******************************************
 %oldchk=../GS_OLD/geometry.chk
 %chk=geometry.chk
 %nprocshared=4
 Will use up to    4 processors via shared memory.
 %mem=5GB
 Copying data from "../GS_OLD/geometry.chk" to current chk file "geometry.chk"
 IOpt=  2 FromEx=T IUOpen= 4 IOptOp= 5 NList=   0 IFRang= 0 IUIn= 4 IUOut= 2.
 -------------------------------------------------------
 # WB97XD/6-311G SCF=XQC FORCE nosym pop=full guess=read
 -------------------------------------------------------
 1/10=7,30=1,38=1/1,3;
 2/12=2,15=1,17=6,18=5,40=1/2;
 3/5=4,6=6,11=2,25=1,30=1,71=1,74=-58,116=-2/1,2,3;
 4/5=1/1;
 5/5=2,8=3,13=1,38=6/2,8;
 6/7=3,28=1/1;
 7/29=1,30=1/1,2,3,16;
 1/10=7,30=1/3;
 99//99;
 ------------
 MD Step 1000
 ------------
 Symbolic Z-matrix:
 Charge =  0 Multiplicity = 1
 C                    -0.33877  -0.58638   0.00612 
 H                     0.23523  -1.51064  -0.01694 
 H                    -1.4173   -0.56448  -0.01847 
 C                     0.33237   0.57603   0.0037 
 H                    -0.14231   1.57333  -0.0215 
 H                     1.44087   0.66537  -0.01988 
 

 GradGradGradGradGradGradGradGradGradGradGradGradGradGradGradGradGradGrad
 Berny optimization.
 Initialization pass.
 Trust Radius=3.00D-01 FncErr=1.00D-07 GrdErr=1.00D-07 EigMax=2.50D+02 EigMin=1.00D-04
 Number of steps in this run=      2 maximum allowed number of steps=      2.
 GradGradGradGradGradGradGradGradGradGradGradGradGradGradGradGradGradGrad

                          Input orientation:                          
 ---------------------------------------------------------------------
 Center     Atomic      Atomic             Coordinates (Angstroms)
 Number     Number       Type             X           Y           Z
 ---------------------------------------------------------------------
      1          6           0       -0.338772   -0.586384    0.006120
      2          1           0        0.235231   -1.510637   -0.016938
      3          1           0       -1.417297   -0.564478   -0.018466
      4          6           0        0.332374    0.576033    0.003703
      5          1           0       -0.142312    1.573333   -0.021505
      6          1           0        1.440872    0.665369   -0.019883
 ---------------------------------------------------------------------
                    Distance matrix (angstroms):
                    1          2          3          4          5
     1  C    0.000000
     2  H    1.088235   0.000000
     3  H    1.079027   1.904223   0.000000
     4  C    1.342258   2.089032   2.088685   0.000000
     5  H    2.168810   3.106996   2.489142   1.104793   0.000000
     6  H    2.175935   2.487686   3.111536   1.112342   1.825068
                    6
     6  H    0.000000
 Symmetry turned off by external request.
 Stoichiometry    C2H4
 Framework group  C1[X(C2H4)]
 Deg. of freedom    12
 Full point group                 C1      NOp   1
 Rotational constants (GHZ):         144.0751269          29.6203366          24.5739327
 Standard basis: 6-311G (5D, 7F)
    38 basis functions,    72 primitive gaussians,    38 cartesian basis functions
     8 alpha electrons        8 beta electrons
       nuclear repulsion energy        33.0779104898 Hartrees.
 NAtoms=    6 NActive=    6 NUniq=    6 SFac= 1.00D+00 NAtFMM=   60 NAOKFM=F Big=F
 Integral buffers will be    131072 words long.
 Raffenetti 2 integral format.
 Two-electron integral symmetry is turned off.
 Nuclear repulsion after empirical dispersion term =       33.0770677809 Hartrees.
 One-electron integrals computed using PRISM.
 NBasis=    38 RedAO= T EigKep=  6.51D-03  NBF=    38
 NBsUse=    38 1.00D-06 EigRej= -1.00D+00 NBFU=    38
 Initial guess from the checkpoint file:  "geometry.chk"
 B after Tr=    -0.000314   -0.000347   -0.000423
         Rot=    1.000000    0.000003   -0.000000    0.000005 Ang=   0.00 deg.
 Keep R1 ints in memory in canonical form, NReq=4036876.
 Requested convergence on RMS density matrix=1.00D-08 within  32 cycles.
 Requested convergence on MAX density matrix=1.00D-06.
 Requested convergence on             energy=1.00D-06.
 No special actions if energy rises.
 SCF Done:  E(RwB97XD) =  -78.5546603801     A.U. after    8 cycles
            NFock=  8  Conv=0.50D-08     -V/T= 2.0050
 QCSCF skips out because SCF is already converged.

 **********************************************************************

            Population analysis using the SCF Density.

 **********************************************************************

 Alpha  occ. eigenvalues --  -10.29031 -10.28737  -0.86357  -0.67348  -0.56127
 Alpha  occ. eigenvalues --   -0.50815  -0.43724  -0.35612
 Alpha virt. eigenvalues --    0.07904   0.14113   0.16573   0.17070   0.24058
 Alpha virt. eigenvalues --    0.36704   0.39526   0.40372   0.46474   0.49072
 Alpha virt. eigenvalues --    0.49433   0.59075   0.66678   0.69406   0.77219
 Alpha virt. eigenvalues --    0.77634   0.84370   0.94843   2.22963   2.29258
 Alpha virt. eigenvalues --    2.33366   2.40900   2.67057   2.81841   2.87717
 Alpha virt. eigenvalues --    2.95159   3.14014   3.32433  23.35476  23.70357
     Molecular Orbital Coefficients:
                           1         2         3         4         5
                           O         O         O         O         O
     Eigenvalues --   -10.29031 -10.28737  -0.86357  -0.67348  -0.56127
   1 1   C  1S          0.08247   0.55732  -0.08867   0.06646  -0.00023
   2        2S          0.06807   0.45866  -0.14020   0.10638  -0.00038
   3        2PX         0.00016   0.00000   0.02556   0.03449   0.14217
   4        2PY         0.00028   0.00001   0.04529   0.05719  -0.07713
   5        2PZ        -0.00000  -0.00001  -0.00108   0.00147   0.00022
   6        3S          0.00130   0.01462   0.37625  -0.29026   0.00104
   7        3PX        -0.00061   0.00040   0.03464   0.05537   0.22287
   8        3PY        -0.00105   0.00072   0.06097   0.09269  -0.12161
   9        3PZ        -0.00001  -0.00003  -0.00180   0.00259   0.00033
  10        4S          0.00363  -0.01457   0.19279  -0.22096   0.00056
  11        4PX         0.00152  -0.00151   0.00476   0.02227   0.11341
  12        4PY         0.00262  -0.00258   0.00842   0.03822  -0.06251
  13        4PZ        -0.00000   0.00007  -0.00060   0.00127   0.00016
  14 2   H  1S         -0.00004  -0.00008   0.05437  -0.08631   0.10802
  15        2S         -0.00030   0.00010   0.05541  -0.10394   0.13574
  16        3S          0.00079   0.00175  -0.00196  -0.01459   0.04351
  17 3   H  1S         -0.00004  -0.00008   0.05539  -0.08916  -0.11068
  18        2S         -0.00030   0.00008   0.05605  -0.10667  -0.13824
  19        3S          0.00081   0.00177  -0.00201  -0.01532  -0.04430
  20 4   C  1S          0.55733  -0.08266  -0.08630  -0.06886  -0.00015
  21        2S          0.45872  -0.06783  -0.13623  -0.11046  -0.00022
  22        2PX         0.00001  -0.00017  -0.02712   0.03911   0.11306
  23        2PY         0.00001  -0.00030  -0.04609   0.06944  -0.07010
  24        2PZ        -0.00000   0.00000  -0.00073  -0.00159   0.00021
  25        3S          0.01412  -0.00298   0.36484   0.30207   0.00058
  26        3PX        -0.00022   0.00072  -0.03358   0.06316   0.17651
  27        3PY        -0.00036   0.00124  -0.05702   0.11163  -0.10860
  28        3PZ        -0.00002  -0.00001  -0.00128  -0.00285   0.00032
  29        4S         -0.01242   0.00793   0.18816   0.23918  -0.00031
  30        4PX         0.00091  -0.00185  -0.00546   0.02796   0.09838
  31        4PY         0.00154  -0.00324  -0.00933   0.04844  -0.06000
  32        4PZ         0.00005  -0.00001  -0.00056  -0.00147   0.00017
  33 5   H  1S         -0.00006  -0.00005   0.04925   0.09538  -0.08419
  34        2S         -0.00001  -0.00032   0.05035   0.11310  -0.10536
  35        3S          0.00178   0.00019  -0.00083   0.01691  -0.03348
  36 6   H  1S         -0.00005  -0.00005   0.04834   0.09369   0.08059
  37        2S         -0.00001  -0.00033   0.04981   0.11161   0.10130
  38        3S          0.00175   0.00018  -0.00088   0.01646   0.03249
                           6         7         8         9        10
                           O         O         O         V         V
     Eigenvalues --    -0.50815  -0.43724  -0.35612   0.07904   0.14113
   1 1   C  1S         -0.00176   0.00017  -0.00084   0.00208  -0.03260
   2        2S         -0.00242   0.00029  -0.00136   0.00345  -0.05230
   3        2PX         0.09519  -0.10628  -0.00258   0.00112  -0.03189
   4        2PY         0.16937   0.06310  -0.00425   0.00168  -0.06324
   5        2PZ         0.00378  -0.00004   0.17934  -0.18909  -0.00188
   6        3S          0.01225  -0.00067   0.00398  -0.01046   0.11326
   7        3PX         0.13809  -0.16911  -0.00367   0.00168  -0.03806
   8        3PY         0.24708   0.10068  -0.00601   0.00251  -0.07843
   9        3PZ         0.00600  -0.00005   0.28884  -0.27839  -0.00302
  10        4S         -0.06100  -0.00270   0.00539  -0.01192   1.22178
  11        4PX         0.06934  -0.10520  -0.00310   0.00956  -0.18536
  12        4PY         0.12499   0.06312  -0.00509   0.01540  -0.36199
  13        4PZ         0.00341  -0.00000   0.26769  -0.69221  -0.01091
  14 2   H  1S         -0.08164  -0.11088   0.00007   0.00330  -0.01727
  15        2S         -0.11346  -0.16951   0.00149   0.00515  -0.04760
  16        3S         -0.04250  -0.07763   0.00091   0.01322  -0.81260
  17 3   H  1S         -0.08013   0.10872   0.00002   0.00330  -0.01429
  18        2S         -0.11082   0.16559   0.00142   0.00522  -0.04007
  19        3S         -0.04122   0.07570   0.00087   0.01308  -0.76176
  20 4   C  1S         -0.01047  -0.00043  -0.00054  -0.00191  -0.03706
  21        2S         -0.01651  -0.00072  -0.00089  -0.00315  -0.05956
  22        2PX        -0.09711   0.12986   0.00247   0.00123   0.04008
  23        2PY        -0.16116  -0.07650   0.00470   0.00243   0.06159
  24        2PZ         0.00414   0.00023   0.17887   0.18972  -0.00224
  25        3S          0.05195   0.00206   0.00264   0.00948   0.13202
  26        3PX        -0.14431   0.20706   0.00344   0.00192   0.04871
  27        3PY        -0.23816  -0.12139   0.00660   0.00379   0.07269
  28        3PZ         0.00653   0.00035   0.28603   0.27816  -0.00338
  29        4S         -0.01689   0.00275   0.00479   0.00988   1.25176
  30        4PX        -0.07618   0.13388   0.00257   0.00956   0.27079
  31        4PY        -0.12462  -0.07779   0.00509   0.01778   0.43240
  32        4PZ         0.00380   0.00021   0.26829   0.69408  -0.01355
  33 5   H  1S         -0.07345  -0.12826   0.00021  -0.00289  -0.01160
  34        2S         -0.09971  -0.19968   0.00166  -0.00485  -0.03830
  35        3S         -0.03735  -0.09395   0.00092  -0.01245  -0.84529
  36 6   H  1S         -0.07819   0.12787   0.00015  -0.00289  -0.01449
  37        2S         -0.10659   0.19991   0.00155  -0.00485  -0.04525
  38        3S         -0.04010   0.09411   0.00085  -0.01260  -0.89621
                          11        12        13        14        15
                           V         V         V         V         V
     Eigenvalues --     0.16573   0.17070   0.24058   0.36704   0.39526
   1 1   C  1S          0.00134  -0.04630   0.00001   0.00732   0.00018
   2        2S          0.00217  -0.07548   0.00001   0.00921   0.00022
   3        2PX         0.09504  -0.01849   0.09934  -0.03454  -0.02007
   4        2PY        -0.05239  -0.03635  -0.05690  -0.06207   0.01032
   5        2PZ         0.00018  -0.00497   0.00007  -0.00341  -0.00010
   6        3S         -0.00479   0.17112   0.00026   0.03824   0.00100
   7        3PX         0.13521  -0.00900   0.10288  -0.03996  -0.10049
   8        3PY        -0.07573  -0.02233  -0.05959  -0.07416   0.05433
   9        3PZ         0.00025  -0.00692   0.00004  -0.00729  -0.00025
  10        4S         -0.05541   1.46990  -0.01150  -2.17667  -0.05956
  11        4PX         0.59820  -0.10925   1.18338  -1.45368  -0.51403
  12        4PY        -0.32367  -0.20459  -0.67564  -2.52942   0.20505
  13        4PZ         0.00121  -0.03265   0.00118  -0.03050  -0.00157
  14 2   H  1S         -0.02720  -0.02565   0.01668  -0.06503   0.07211
  15        2S         -0.08255  -0.01766  -0.02367  -0.70450   0.73256
  16        3S         -1.04534  -1.03615  -1.56124  -0.24671  -0.23795
  17 3   H  1S          0.02726  -0.02490  -0.01844  -0.06059  -0.07423
  18        2S          0.08240  -0.01901   0.01849  -0.67157  -0.75361
  19        3S          1.11756  -1.02044   1.58235  -0.30011   0.20487
  20 4   C  1S          0.00062   0.04137  -0.00007  -0.02022   0.00015
  21        2S          0.00097   0.06730  -0.00013  -0.03366   0.00031
  22        2PX         0.10286  -0.02226  -0.10042  -0.03950  -0.03258
  23        2PY        -0.06134  -0.03857   0.05754  -0.06974   0.01657
  24        2PZ         0.00013   0.00470  -0.00008   0.00224   0.00010
  25        3S         -0.00175  -0.14784   0.00036   0.05550  -0.00203
  26        3PX         0.14680  -0.01744  -0.11612  -0.09337  -0.11067
  27        3PY        -0.08693  -0.02960   0.06557  -0.16577   0.05966
  28        3PZ         0.00019   0.00645  -0.00007   0.00233   0.00012
  29        4S         -0.03635  -1.32289   0.00763   3.01116   0.08061
  30        4PX         0.53341  -0.10950  -1.11388  -1.00355  -0.51913
  31        4PY        -0.32356  -0.19802   0.64716  -1.74768   0.21553
  32        4PZ         0.00079   0.03075  -0.00122   0.02533   0.00053
  33 5   H  1S          0.03075   0.02453   0.00327   0.00118  -0.08508
  34        2S          0.06176   0.02201  -0.04134  -0.03837  -0.84983
  35        3S          1.06499   0.93628  -1.52299   0.43259   0.50231
  36 6   H  1S         -0.03145   0.02467  -0.00211  -0.00149   0.08851
  37        2S         -0.06288   0.01972   0.04222  -0.05930   0.89198
  38        3S         -1.01675   0.92089   1.50976   0.43839  -0.50433
                          16        17        18        19        20
                           V         V         V         V         V
     Eigenvalues --     0.40372   0.46474   0.49072   0.49433   0.59075
   1 1   C  1S         -0.02057   0.01524   0.04423  -0.00232  -0.00039
   2        2S         -0.03552   0.03348   0.07317  -0.00363  -0.00068
   3        2PX         0.03392  -0.06162  -0.00686   0.00117   0.00154
   4        2PY         0.06031  -0.10701  -0.00773   0.00144   0.00222
   5        2PZ         0.00072  -0.00018  -0.01109  -0.15146  -0.19228
   6        3S          0.06878  -0.33917  -0.05676  -0.00492  -0.00118
   7        3PX         0.11732  -0.23585   0.05834  -0.00281   0.00506
   8        3PY         0.21195  -0.40847   0.10998  -0.00668   0.00726
   9        3PZ        -0.00179  -0.00305  -0.04719  -0.62669  -0.68481
  10        4S          3.19927   0.06330  -3.00003   0.20684   0.05432
  11        4PX         0.50503   0.21735  -0.83850   0.06149   0.01581
  12        4PY         0.87354   0.40061  -1.44904   0.10817   0.02923
  13        4PZ        -0.00109   0.00413   0.10061   0.68107   1.23976
  14 2   H  1S         -0.02368  -0.02633   0.07599  -0.00566  -0.00127
  15        2S         -0.50982  -0.25757   0.91114  -0.06289  -0.01064
  16        3S          0.39121   0.01800  -0.62731   0.05276   0.01762
  17 3   H  1S         -0.02650  -0.02825   0.07430  -0.00553  -0.00124
  18        2S         -0.52703  -0.27834   0.88676  -0.06139  -0.00998
  19        3S          0.39228   0.02189  -0.60518   0.05113   0.01736
  20 4   C  1S          0.00359  -0.00658  -0.05087   0.00472   0.00058
  21        2S          0.00227  -0.00376  -0.08944   0.00844   0.00108
  22        2PX         0.01378   0.05220  -0.03170   0.00167   0.00159
  23        2PY         0.02399   0.08977  -0.05614   0.00271   0.00318
  24        2PZ        -0.00303  -0.00169  -0.01101  -0.15281   0.19191
  25        3S          0.07322  -0.26453   0.26282  -0.02931  -0.00264
  26        3PX        -0.03239   0.22874  -0.08034   0.00448   0.00558
  27        3PY        -0.05313   0.39734  -0.13957   0.00663   0.01113
  28        3PZ        -0.00804  -0.00650  -0.04386  -0.63173   0.68109
  29        4S         -1.44171   0.89290   3.01556  -0.22423  -0.04484
  30        4PX         1.48481  -0.31062  -0.52069   0.03362   0.01671
  31        4PY         2.62511  -0.51684  -0.88196   0.05739   0.02666
  32        4PZ        -0.02812  -0.01520   0.00704   0.69498  -1.23505
  33 5   H  1S         -0.03842  -0.07042  -0.06004   0.00460   0.00117
  34        2S         -0.79094  -0.74483  -0.78561   0.06403   0.00387
  35        3S         -0.32416   0.29907   0.49987  -0.03048  -0.01701
  36 6   H  1S         -0.03602  -0.06955  -0.05949   0.00458   0.00118
  37        2S         -0.75598  -0.73237  -0.77576   0.06319   0.00391
  38        3S         -0.32002   0.31483   0.51115  -0.03168  -0.01713
                          21        22        23        24        25
                           V         V         V         V         V
     Eigenvalues --     0.66678   0.69406   0.77219   0.77634   0.84370
   1 1   C  1S          0.00066  -0.00049   0.02790   0.08419   0.00085
   2        2S          0.00138  -0.00106   0.05833   0.17926   0.00195
   3        2PX        -0.12770   0.20244  -0.05809   0.10056  -0.00568
   4        2PY         0.07418  -0.12070  -0.09696   0.16515   0.01053
   5        2PZ        -0.00011   0.00021  -0.00051   0.00361   0.00008
   6        3S         -0.01106   0.01290  -0.30549  -1.49029  -0.02144
   7        3PX        -0.59727   0.72396  -0.29473   0.36806  -0.20937
   8        3PY         0.34398  -0.43158  -0.49304   0.59370   0.14911
   9        3PZ        -0.00057   0.00078  -0.00150   0.01262   0.00017
  10        4S          0.01839  -0.04783   0.01561   2.47611  -0.00184
  11        4PX         1.02243  -0.88441   0.37127  -0.66810   4.62493
  12        4PY        -0.59000   0.53548   0.49081  -0.92269  -2.63693
  13        4PZ         0.00074   0.00016   0.01799  -0.03719   0.00508
  14 2   H  1S          0.02331  -0.05896  -0.00054   0.03434  -0.02968
  15        2S          0.14279  -0.63870   0.04598   0.12269  -1.65770
  16        3S         -1.01984   1.15596   0.22100  -1.10059  -1.26813
  17 3   H  1S         -0.02262   0.05843  -0.00070   0.03476   0.03290
  18        2S         -0.15356   0.66050   0.07695   0.09733   1.69119
  19        3S          1.01120  -1.12230   0.27483  -1.21476   1.26774
  20 4   C  1S          0.00087  -0.00024   0.07108   0.05527   0.00059
  21        2S          0.00177  -0.00045   0.15163   0.11692   0.00117
  22        2PX        -0.15647  -0.17989  -0.10938   0.02336   0.00430
  23        2PY         0.08975   0.10020  -0.19656   0.04293   0.00391
  24        2PZ        -0.00015  -0.00020   0.00397   0.00025  -0.00010
  25        3S         -0.01316  -0.00134  -1.31369  -0.81357  -0.00498
  26        3PX        -0.70293  -0.60872  -0.42210   0.16927   0.20912
  27        3PY         0.40559   0.33649  -0.76322   0.30677  -0.08842
  28        3PZ        -0.00072  -0.00069   0.01421   0.00051  -0.00016
  29        4S          0.01145   0.02954   2.50059   0.97581  -0.01351
  30        4PX         1.34410   0.81575   0.59523  -0.12643  -4.04985
  31        4PY        -0.77272  -0.44331   1.19840  -0.39516   2.31696
  32        4PZ         0.00137  -0.00006  -0.04296   0.00751  -0.00440
  33 5   H  1S         -0.02607  -0.05322   0.03187   0.01319  -0.02252
  34        2S         -0.14503  -0.50313   0.05641   0.08655  -1.37502
  35        3S          1.14660   0.97662  -1.19927  -0.04287  -1.05667
  36 6   H  1S          0.02662   0.05331   0.03133   0.01353   0.02242
  37        2S          0.13935   0.48039   0.07357   0.03958   1.36299
  38        3S         -1.14868  -0.99758  -1.12008  -0.08600   1.06749
                          26        27        28        29        30
                           V         V         V         V         V
     Eigenvalues --     0.94843   2.22963   2.29258   2.33366   2.40900
   1 1   C  1S          0.09653  -0.01016  -0.01549   0.00029  -0.00039
   2        2S          0.20067   0.00157  -0.01550   0.00063  -0.00045
   3        2PX        -0.08975  -0.06141  -0.12872   0.35629  -0.40893
   4        2PY        -0.15553  -0.11814  -0.22654  -0.20214   0.23104
   5        2PZ         0.00032  -0.00993  -0.01400   0.00024  -0.00072
   6        3S         -1.55838  -0.18907  -0.04393  -0.00057  -0.00405
   7        3PX        -0.22670   0.04838   0.20118  -0.42175   0.56892
   8        3PY        -0.38711   0.10667   0.36486   0.24067  -0.32291
   9        3PZ        -0.00150   0.00978   0.01718  -0.00022   0.00087
  10        4S          5.70776  -0.09914  -0.88050  -0.00002  -0.01385
  11        4PX         1.19365   0.05725  -0.18996  -0.10512   1.03439
  12        4PY         1.98690   0.08290  -0.35553   0.05237  -0.57501
  13        4PZ        -0.01632   0.00202   0.00676  -0.00025   0.00157
  14 2   H  1S          0.01418  -0.68689  -0.82359  -0.70037   0.65029
  15        2S         -0.27711   0.97086   1.22886   1.10647  -1.48593
  16        3S         -0.11568  -0.28288  -0.48489  -0.44421   0.33906
  17 3   H  1S          0.01458  -0.67579  -0.81996   0.69633  -0.67128
  18        2S         -0.25109   0.95447   1.22674  -1.10301   1.52755
  19        3S         -0.09805  -0.26273  -0.46865   0.43630  -0.33310
  20 4   C  1S         -0.09331  -0.01068   0.01216   0.00039   0.00023
  21        2S         -0.19334  -0.00097   0.01215   0.00049   0.00047
  22        2PX        -0.09142   0.14892  -0.11590   0.29486   0.41660
  23        2PY        -0.15779   0.25921  -0.19345  -0.17102  -0.23999
  24        2PZ         0.00037  -0.01105   0.01318   0.00044   0.00044
  25        3S          1.49497  -0.16008   0.01652   0.00073  -0.00051
  26        3PX        -0.22069  -0.19394   0.20040  -0.37087  -0.58345
  27        3PY        -0.38507  -0.33348   0.33023   0.21259   0.33679
  28        3PZ         0.00300   0.01203  -0.01677  -0.00049  -0.00062
  29        4S         -5.66808  -0.19285   0.89038   0.01340   0.00016
  30        4PX         1.09075  -0.01151  -0.18631   0.14358  -0.84155
  31        4PY         1.94718  -0.02741  -0.29853  -0.08127   0.49386
  32        4PZ         0.00773   0.00392  -0.00453   0.00004  -0.00132
  33 5   H  1S         -0.01806  -0.80471   0.65002   0.70899   0.68822
  34        2S          0.29872   1.17712  -0.99840  -1.01585  -1.45063
  35        3S          0.06751  -0.36675   0.38264   0.52371   0.43491
  36 6   H  1S         -0.01807  -0.80095   0.66814  -0.69568  -0.68793
  37        2S          0.31707   1.16931  -1.02059   0.99385   1.44387
  38        3S          0.07523  -0.36812   0.40637  -0.52017  -0.44156
                          31        32        33        34        35
                           V         V         V         V         V
     Eigenvalues --     2.67057   2.81841   2.87717   2.95159   3.14014
   1 1   C  1S          0.00039   0.00196  -0.01338  -0.00005  -0.01080
   2        2S          0.00031   0.00542  -0.04255  -0.00032  -0.03210
   3        2PX         0.00355   0.05708  -0.49507  -0.70386   0.42619
   4        2PY         0.00461   0.10000  -0.89302   0.39392   0.74202
   5        2PZ        -0.92430  -0.93449  -0.10472  -0.00111   0.00336
   6        3S         -0.00127  -0.04362   0.36616   0.00421   0.26394
   7        3PX        -0.00234  -0.09694   0.85481   0.85212  -0.38980
   8        3PY        -0.00261  -0.16883   1.51814  -0.46483  -0.67686
   9        3PZ         0.93995   1.14129   0.13104   0.00145  -0.00454
  10        4S          0.00978   0.10531  -0.85949  -0.01276  -0.52345
  11        4PX        -0.00183   0.07649  -0.71499  -0.66712   0.17918
  12        4PY        -0.00296   0.13417  -1.27231   0.35508   0.30262
  13        4PZ        -0.33823  -0.61804  -0.08244  -0.00116   0.00210
  14 2   H  1S          0.00911  -0.01195   0.24309  -0.35997  -0.20033
  15        2S         -0.01004   0.00529  -0.18949   0.37480   0.15025
  16        3S         -0.00279   0.03246  -0.31066   0.29023   0.03547
  17 3   H  1S          0.00926  -0.01151   0.23412   0.36138  -0.20152
  18        2S         -0.01040   0.00420  -0.17376  -0.37230   0.15261
  19        3S         -0.00305   0.03232  -0.30862  -0.30516   0.04416
  20 4   C  1S          0.00037  -0.00187   0.01372   0.00048  -0.00700
  21        2S          0.00038  -0.00586   0.04863   0.00112  -0.02100
  22        2PX        -0.00565   0.04667  -0.38495  -0.82889  -0.52297
  23        2PY        -0.01124   0.08409  -0.68462   0.46070  -0.92436
  24        2PZ        -0.92504   0.93309   0.10837  -0.00025   0.01170
  25        3S         -0.00224   0.05038  -0.43746  -0.00851   0.17779
  26        3PX         0.00603  -0.08676   0.74502   0.99027   0.57928
  27        3PY         0.01178  -0.15443   1.31445  -0.54315   1.03068
  28        3PZ         0.94123  -1.13979  -0.13672   0.00029  -0.01480
  29        4S          0.01188  -0.10819   0.90288   0.02492  -0.33602
  30        4PX        -0.00088   0.07553  -0.70245  -0.71100  -0.37245
  31        4PY        -0.00235   0.13271  -1.22803   0.38459  -0.66268
  32        4PZ        -0.33890   0.61693   0.08726  -0.00023   0.01197
  33 5   H  1S          0.00836   0.02199  -0.29873   0.43137  -0.28052
  34        2S         -0.01050  -0.01861   0.27863  -0.44023   0.22297
  35        3S         -0.00071  -0.02824   0.27670  -0.23969   0.14627
  36 6   H  1S          0.00846   0.02197  -0.29469  -0.44187  -0.27046
  37        2S         -0.01087  -0.01908   0.27875   0.45016   0.21596
  38        3S         -0.00045  -0.02711   0.26471   0.24153   0.13960
                          36        37        38
                           V         V         V
     Eigenvalues --     3.32433  23.35476  23.70357
   1 1   C  1S         -0.00027  -1.40514  -1.46089
   2        2S         -0.00038   1.49868   1.57960
   3        2PX         0.80691  -0.00669   0.01212
   4        2PY        -0.45242  -0.01108   0.02121
   5        2PZ         0.00105  -0.00042  -0.00022
   6        3S         -0.00075  -0.29506  -0.40050
   7        3PX        -1.15542   0.02401  -0.05490
   8        3PY         0.64388   0.04020  -0.09549
   9        3PZ        -0.00158   0.00117   0.00069
  10        4S         -0.00357   0.27499   0.76484
  11        4PX         2.03371  -0.02557   0.13236
  12        4PY        -1.13210  -0.04373   0.22784
  13        4PZ         0.00274  -0.00199  -0.00257
  14 2   H  1S          0.58956   0.01400   0.00895
  15        2S         -0.91749   0.00699  -0.01556
  16        3S         -0.49134  -0.08547  -0.04096
  17 3   H  1S         -0.59800   0.01535   0.00978
  18        2S          0.93023   0.00687  -0.01542
  19        3S          0.51384  -0.08716  -0.04090
  20 4   C  1S          0.00005  -1.45617   1.40976
  21        2S         -0.00018   1.55321  -1.52443
  22        2PX        -0.68415   0.00634   0.01275
  23        2PY         0.39351   0.01135   0.02177
  24        2PZ        -0.00089  -0.00042   0.00008
  25        3S          0.00384  -0.30530   0.38650
  26        3PX         0.97689  -0.02255  -0.05588
  27        3PY        -0.56936  -0.04001  -0.09616
  28        3PZ         0.00133   0.00120  -0.00015
  29        4S         -0.01700   0.28119  -0.75170
  30        4PX        -1.72906   0.02363   0.12881
  31        4PY         1.01451   0.04291   0.22319
  32        4PZ        -0.00235  -0.00191   0.00141
  33 5   H  1S          0.45953   0.01344  -0.00423
  34        2S         -0.71721   0.00832   0.01361
  35        3S         -0.42479  -0.08258   0.03717
  36 6   H  1S         -0.45511   0.01231  -0.00336
  37        2S          0.71255   0.00918   0.01328
  38        3S          0.41554  -0.08101   0.03680
     Density Matrix:
                           1         2         3         4         5
   1 1   C  1S          0.65938
   2        2S          0.56149   0.49197
   3        2PX        -0.00035  -0.00043   0.08483
   4        2PY        -0.00091  -0.00120   0.00318   0.08791
   5        2PZ         0.00007   0.00010  -0.00009  -0.00021   0.06436
   6        3S         -0.08885  -0.15374   0.00196   0.00476  -0.00015
   7        3PX         0.00093   0.00143   0.13121   0.00056  -0.00007
   8        3PY         0.00137   0.00211   0.00060   0.13134  -0.00021
   9        3PZ         0.00013   0.00021  -0.00016  -0.00035   0.10366
  10        4S         -0.07900  -0.11366  -0.01630  -0.02894   0.00041
  11        4PX         0.00036   0.00176   0.06960  -0.00427  -0.00048
  12        4PY         0.00076   0.00325  -0.00430   0.06513  -0.00082
  13        4PZ        -0.00011  -0.00025  -0.00063  -0.00105   0.09605
  14 2   H  1S         -0.02101  -0.03343   0.03557  -0.06326  -0.00091
  15        2S         -0.02331  -0.03726   0.04868  -0.08764  -0.00067
  16        3S          0.00059  -0.00072   0.01967  -0.03276  -0.00001
  17 3   H  1S         -0.02141  -0.03405  -0.07315  -0.00153  -0.00104
  18        2S         -0.02358  -0.03765  -0.10010  -0.00246  -0.00084
  19        3S          0.00062  -0.00069  -0.03770   0.00048  -0.00007
  20 4   C  1S          0.00598   0.00965  -0.01092  -0.01896  -0.00029
  21        2S          0.00960   0.01501  -0.01748  -0.03036  -0.00047
  22        2PX         0.01015   0.01622  -0.01264  -0.03195   0.00036
  23        2PY         0.01764   0.02820  -0.03194  -0.04971   0.00075
  24        2PZ        -0.00039  -0.00064  -0.00027  -0.00037   0.06419
  25        3S         -0.02572  -0.03910   0.04909   0.08535   0.00144
  26        3PX         0.01561   0.02416  -0.01868  -0.04583   0.00046
  27        3PY         0.02711   0.04198  -0.04566  -0.07170   0.00098
  28        3PZ        -0.00066  -0.00107  -0.00048  -0.00067   0.10264
  29        4S          0.00526   0.00378   0.02220   0.03903   0.00188
  30        4PX         0.00303   0.00627  -0.01335  -0.02141   0.00047
  31        4PY         0.00517   0.01075  -0.02141  -0.03812   0.00103
  32        4PZ        -0.00056  -0.00091  -0.00079  -0.00121   0.09626
  33 5   H  1S          0.00414   0.00678  -0.00156  -0.01271  -0.00033
  34        2S          0.00608   0.01009   0.00387  -0.02524   0.00003
  35        3S          0.00302   0.00440   0.00446  -0.01749   0.00009
  36 6   H  1S          0.00410   0.00672  -0.01022  -0.00769  -0.00034
  37        2S          0.00603   0.01003  -0.02375  -0.00924  -0.00000
  38        3S          0.00299   0.00438  -0.01731  -0.00492   0.00006
                           6         7         8         9        10
   6        3S          0.45239
   7        3PX        -0.00202   0.20323
   8        3PY        -0.00229  -0.00548   0.19664
   9        3PZ        -0.00042  -0.00014  -0.00033   0.16695
  10        4S          0.27149  -0.02685  -0.04837   0.00054   0.17995
  11        4PX        -0.00734   0.10809  -0.00976  -0.00078  -0.01575
  12        4PY        -0.01311  -0.00985   0.09784  -0.00132  -0.02926
  13        4PZ         0.00103  -0.00085  -0.00141   0.15469   0.00167
  14 2   H  1S          0.08939   0.05731  -0.09831  -0.00150   0.06979
  15        2S          0.09978   0.07882  -0.13574  -0.00113   0.08222
  16        3S          0.00621   0.03215  -0.05017  -0.00002   0.01131
  17 3   H  1S          0.09110  -0.11427  -0.00056  -0.00169   0.06983
  18        2S          0.10089  -0.15617  -0.00075  -0.00137   0.08123
  19        3S          0.00624  -0.05858   0.00255  -0.00010   0.01053
  20 4   C  1S         -0.02620  -0.01716  -0.02980  -0.00049   0.00489
  21        2S         -0.03959  -0.02670  -0.04639  -0.00080   0.00360
  22        2PX        -0.04541  -0.01791  -0.04543   0.00062  -0.01643
  23        2PY        -0.07895  -0.04542  -0.07080   0.00127  -0.02840
  24        2PZ         0.00190  -0.00038  -0.00049   0.10338   0.00184
  25        3S          0.10043   0.07260   0.12636   0.00240   0.00106
  26        3PX        -0.06533  -0.02656  -0.06498   0.00080  -0.02416
  27        3PY        -0.11352  -0.06476  -0.10205   0.00168  -0.04169
  28        3PZ         0.00313  -0.00068  -0.00090   0.16530   0.00305
  29        4S          0.00257   0.03377   0.05954   0.00313  -0.03137
  30        4PX        -0.02222  -0.01977  -0.03014   0.00079  -0.00569
  31        4PY        -0.03827  -0.03017  -0.05488   0.00170  -0.00929
  32        4PZ         0.00266  -0.00112  -0.00168   0.15502   0.00286
  33 5   H  1S         -0.02011  -0.00046  -0.01796  -0.00048  -0.01360
  34        2S         -0.03015   0.00903  -0.03677   0.00012  -0.01741
  35        3S         -0.01128   0.00834  -0.02621   0.00016  -0.00275
  36 6   H  1S         -0.01993  -0.01520  -0.00923  -0.00050  -0.01382
  37        2S         -0.02998  -0.03610  -0.01031   0.00006  -0.01806
  38        3S         -0.01124  -0.02667  -0.00584   0.00011  -0.00318
                          11        12        13        14        15
  11        4PX         0.05854
  12        4PY        -0.00830   0.05017
  13        4PZ        -0.00110  -0.00180   0.14334
  14 2   H  1S          0.03318  -0.05359  -0.00077   0.08207
  15        2S          0.04660  -0.07376  -0.00026   0.10941   0.14782
  16        3S          0.01963  -0.02703   0.00018   0.03586   0.05059
  17 3   H  1S         -0.06253   0.00165  -0.00087  -0.01352  -0.02405
  18        2S         -0.08579   0.00326  -0.00038  -0.02399  -0.04013
  19        3S         -0.03240   0.00357   0.00013  -0.01720  -0.02537
  20 4   C  1S         -0.00333  -0.00601  -0.00045   0.00424   0.00688
  21        2S         -0.00680  -0.01216  -0.00072   0.00703   0.01150
  22        2PX        -0.01368  -0.01951   0.00083   0.00179  -0.00242
  23        2PY        -0.01953  -0.03670   0.00162   0.01114   0.02395
  24        2PZ        -0.00061  -0.00092   0.09579  -0.00046  -0.00018
  25        3S          0.02387   0.04248   0.00211  -0.02128  -0.03470
  26        3PX        -0.02107  -0.02778   0.00111   0.00123  -0.00637
  27        3PY        -0.02773  -0.05379   0.00223   0.01687   0.03621
  28        3PZ        -0.00101  -0.00151   0.15317  -0.00068  -0.00021
  29        4S          0.00936   0.01746   0.00284  -0.01874  -0.02603
  30        4PX        -0.01523  -0.01241   0.00097  -0.00142  -0.00780
  31        4PY        -0.01247  -0.02995   0.00199   0.01526   0.02727
  32        4PZ        -0.00122  -0.00189   0.14366  -0.00040   0.00016
  33 5   H  1S          0.00242  -0.01591  -0.00023   0.01114   0.02292
  34        2S          0.00979  -0.02748   0.00040   0.02375   0.04379
  35        3S          0.00774  -0.01573   0.00027   0.01669   0.02763
  36 6   H  1S         -0.01484  -0.00550  -0.00025  -0.00909  -0.01785
  37        2S         -0.02843  -0.00471   0.00036  -0.01889  -0.03376
  38        3S         -0.01727  -0.00096   0.00024  -0.01024  -0.01750
                          16        17        18        19        20
  16        3S          0.01990
  17 3   H  1S         -0.01731   0.08301
  18        2S         -0.02542   0.10959   0.14667
  19        3S         -0.01164   0.03538   0.04950   0.01927
  20 4   C  1S          0.00388   0.00430   0.00688   0.00387   0.65950
  21        2S          0.00574   0.00712   0.01149   0.00570   0.56160
  22        2PX        -0.00310   0.00879   0.02190   0.01656   0.00121
  23        2PY         0.01764   0.00722   0.00980   0.00598   0.00191
  24        2PZ         0.00001  -0.00045  -0.00013   0.00004   0.00006
  25        3S         -0.01492  -0.02146  -0.03454  -0.01472  -0.08943
  26        3PX        -0.00622   0.01410   0.03453   0.02582  -0.00048
  27        3PY         0.02662   0.00959   0.01242   0.00770  -0.00103
  28        3PZ         0.00003  -0.00066  -0.00014   0.00008   0.00014
  29        4S         -0.00672  -0.01843  -0.02517  -0.00623  -0.08022
  30        4PX        -0.00654   0.01395   0.02745   0.01700  -0.00014
  31        4PY         0.01607   0.00666   0.00707   0.00236  -0.00012
  32        4PZ         0.00019  -0.00039   0.00020   0.00022  -0.00002
  33 5   H  1S          0.01585  -0.00904  -0.01775  -0.00902  -0.02002
  34        2S          0.02681  -0.01871  -0.03338  -0.01634  -0.02194
  35        3S          0.01436  -0.01014  -0.01728  -0.00869   0.00064
  36 6   H  1S         -0.00912   0.01114   0.02283   0.01560  -0.01979
  37        2S         -0.01661   0.02374   0.04360   0.02646  -0.02190
  38        3S         -0.00885   0.01666   0.02746   0.01418   0.00055
                          21        22        23        24        25
  21        2S          0.49212
  22        2PX         0.00174   0.08270
  23        2PY         0.00272   0.00354   0.08741
  24        2PZ         0.00009   0.00010   0.00013   0.06403
  25        3S         -0.15450  -0.00557  -0.00879  -0.00012   0.45455
  26        3PX        -0.00072   0.12850   0.00199   0.00005  -0.00027
  27        3PY        -0.00155   0.00203   0.13138   0.00002   0.00048
  28        3PZ         0.00023   0.00015   0.00021   0.10239  -0.00046
  29        4S         -0.11603   0.01245   0.02098   0.00054   0.27968
  30        4PX        -0.00133   0.07431  -0.00531   0.00031   0.00571
  31        4PY        -0.00206  -0.00525   0.06812   0.00059   0.00921
  32        4PZ        -0.00008   0.00060   0.00109   0.09602   0.00052
  33 5   H  1S         -0.03189  -0.03329   0.06381  -0.00100   0.08530
  34        2S         -0.03505  -0.05020   0.08854  -0.00080   0.09377
  35        3S         -0.00052  -0.02335   0.03354  -0.00009   0.00536
  36 6   H  1S         -0.03155   0.07133   0.00290  -0.00087   0.08438
  37        2S         -0.03501   0.10156   0.00049  -0.00062   0.09365
  38        3S         -0.00064   0.04092  -0.00365  -0.00002   0.00561
                          26        27        28        29        30
  26        3PX         0.19997
  27        3PY        -0.00189   0.19801
  28        3PZ         0.00007   0.00002   0.16373
  29        4S          0.02353   0.03948   0.00068   0.18629
  30        4PX         0.11608  -0.01069   0.00049   0.01454   0.06846
  31        4PY        -0.01065   0.10321   0.00094   0.02344  -0.01079
  32        4PZ         0.00075   0.00138   0.15354   0.00153   0.00081
  33 5   H  1S         -0.05290   0.10009  -0.00165   0.06599  -0.03492
  34        2S         -0.08019   0.13839  -0.00133   0.07540  -0.05322
  35        3S         -0.03775   0.05175  -0.00014   0.00851  -0.02509
  36 6   H  1S          0.11256   0.00411  -0.00146   0.06631   0.06672
  37        2S          0.16007  -0.00051  -0.00106   0.07678   0.09541
  38        3S          0.06416  -0.00702  -0.00004   0.00936   0.03864
                          31        32        33        34        35
  31        4PY         0.05531
  32        4PZ         0.00160   0.14399
  33 5   H  1S          0.05669  -0.00086   0.08091
  34        2S          0.07860  -0.00038   0.11015   0.15249
  35        3S          0.02961   0.00011   0.03837   0.05577   0.02327
  36 6   H  1S         -0.00190  -0.00076  -0.01225  -0.02639  -0.02049
  37        2S         -0.00679  -0.00024  -0.02648  -0.04966  -0.03269
  38        3S         -0.00692   0.00016  -0.02067  -0.03280  -0.01630
                          36        37        38
  36 6   H  1S          0.08015
  37        2S          0.10985   0.15305
  38        3S          0.03857   0.05634   0.02359
    Full Mulliken population analysis:
                           1         2         3         4         5
   1 1   C  1S          0.65938
   2        2S          0.49323   0.49197
   3        2PX         0.00000   0.00000   0.08483
   4        2PY         0.00000   0.00000   0.00000   0.08791
   5        2PZ         0.00000   0.00000   0.00000   0.00000   0.06436
   6        3S         -0.02925  -0.06439   0.00000   0.00000   0.00000
   7        3PX         0.00000   0.00000   0.08255   0.00000   0.00000
   8        3PY         0.00000   0.00000   0.00000   0.08263   0.00000
   9        3PZ         0.00000   0.00000   0.00000   0.00000   0.06521
  10        4S         -0.01215  -0.02127   0.00000   0.00000   0.00000
  11        4PX         0.00000   0.00000   0.01533   0.00000   0.00000
  12        4PY         0.00000   0.00000   0.00000   0.01434   0.00000
  13        4PZ         0.00000   0.00000   0.00000   0.00000   0.02115
  14 2   H  1S         -0.00025  -0.00036   0.00201   0.00577   0.00000
  15        2S         -0.00173  -0.00332   0.00452   0.01310   0.00000
  16        3S          0.00005  -0.00007   0.00069   0.00185   0.00000
  17 3   H  1S         -0.00027  -0.00039   0.00817  -0.00000   0.00000
  18        2S         -0.00179  -0.00343   0.01780  -0.00001   0.00000
  19        3S          0.00005  -0.00007   0.00251   0.00000   0.00000
  20 4   C  1S          0.00000   0.00000  -0.00002  -0.00006   0.00000
  21        2S          0.00000  -0.00000  -0.00002  -0.00005   0.00000
  22        2PX        -0.00002  -0.00002   0.00011   0.00083   0.00000
  23        2PY        -0.00006  -0.00005   0.00083   0.00192   0.00000
  24        2PZ        -0.00000  -0.00000  -0.00000  -0.00000   0.00040
  25        3S         -0.00057  -0.00096   0.00253   0.00762  -0.00000
  26        3PX        -0.00052  -0.00095   0.00020   0.00549   0.00000
  27        3PY        -0.00157  -0.00287   0.00547   0.01070   0.00000
  28        3PZ        -0.00000  -0.00000  -0.00000  -0.00000   0.00600
  29        4S          0.00033   0.00028   0.00101   0.00306  -0.00000
  30        4PX        -0.00018  -0.00044  -0.00071   0.00148   0.00000
  31        4PY        -0.00052  -0.00132   0.00148   0.00101   0.00000
  32        4PZ        -0.00000  -0.00000  -0.00000  -0.00000   0.00901
  33 5   H  1S          0.00000   0.00000  -0.00000  -0.00000   0.00000
  34        2S          0.00001   0.00002   0.00000  -0.00030  -0.00000
  35        3S          0.00007   0.00012   0.00002  -0.00069  -0.00000
  36 6   H  1S          0.00000   0.00000  -0.00000  -0.00000   0.00000
  37        2S          0.00001   0.00002  -0.00023  -0.00006   0.00000
  38        3S          0.00007   0.00012  -0.00056  -0.00011  -0.00000
                           6         7         8         9        10
   6        3S          0.45239
   7        3PX         0.00000   0.20323
   8        3PY         0.00000   0.00000   0.19664
   9        3PZ         0.00000   0.00000   0.00000   0.16695
  10        4S          0.21032   0.00000   0.00000   0.00000   0.17995
  11        4PX         0.00000   0.07063   0.00000   0.00000   0.00000
  12        4PY         0.00000   0.00000   0.06394   0.00000   0.00000
  13        4PZ         0.00000   0.00000   0.00000   0.10108   0.00000
  14 2   H  1S          0.01681   0.01170   0.03233   0.00001   0.01862
  15        2S          0.04255   0.02042   0.05661   0.00001   0.04772
  16        3S          0.00288   0.00394   0.00990   0.00000   0.00857
  17 3   H  1S          0.01756   0.04495  -0.00000   0.00002   0.01881
  18        2S          0.04363   0.07706  -0.00001   0.00002   0.04748
  19        3S          0.00291   0.01356   0.00001   0.00000   0.00801
  20 4   C  1S         -0.00058  -0.00057  -0.00172   0.00000   0.00031
  21        2S         -0.00097  -0.00105  -0.00317   0.00000   0.00027
  22        2PX         0.00234   0.00019   0.00545   0.00000   0.00074
  23        2PY         0.00705   0.00545   0.01056   0.00000   0.00223
  24        2PZ         0.00000  -0.00000  -0.00000   0.00605   0.00000
  25        3S          0.02120   0.01352   0.04075  -0.00000   0.00040
  26        3PX         0.01216  -0.00125   0.01848   0.00000   0.00372
  27        3PY         0.03661   0.01842   0.02872   0.00000   0.01112
  28        3PZ         0.00000  -0.00000  -0.00000   0.03490   0.00000
  29        4S          0.00097   0.00520   0.01588  -0.00000  -0.01964
  30        4PX         0.00623  -0.00403   0.00598   0.00000   0.00173
  31        4PY         0.01859   0.00598   0.00139   0.00000   0.00487
  32        4PZ         0.00000  -0.00000  -0.00000   0.04931   0.00000
  33 5   H  1S         -0.00005  -0.00000  -0.00018   0.00000  -0.00071
  34        2S         -0.00111   0.00007  -0.00310  -0.00000  -0.00285
  35        3S         -0.00180   0.00012  -0.00417  -0.00000  -0.00098
  36 6   H  1S         -0.00005  -0.00012  -0.00005   0.00000  -0.00071
  37        2S         -0.00108  -0.00246  -0.00049  -0.00000  -0.00293
  38        3S         -0.00178  -0.00346  -0.00053  -0.00000  -0.00112
                          11        12        13        14        15
  11        4PX         0.05854
  12        4PY         0.00000   0.05017
  13        4PZ         0.00000   0.00000   0.14334
  14 2   H  1S          0.00656   0.01706   0.00001   0.08207
  15        2S          0.01547   0.03944   0.00000   0.07728   0.14782
  16        3S          0.00509   0.01129  -0.00000   0.01340   0.03992
  17 3   H  1S          0.02344   0.00001   0.00001  -0.00001  -0.00060
  18        2S          0.05391   0.00004   0.00001  -0.00060  -0.00487
  19        3S          0.01587   0.00004  -0.00000  -0.00188  -0.00728
  20 4   C  1S         -0.00019  -0.00060   0.00000   0.00000   0.00002
  21        2S         -0.00048  -0.00149   0.00000   0.00000   0.00003
  22        2PX        -0.00073   0.00135   0.00000  -0.00000   0.00000
  23        2PY         0.00135   0.00097   0.00000  -0.00000  -0.00038
  24        2PZ        -0.00000  -0.00000   0.00896   0.00000   0.00000
  25        3S          0.00669   0.02064  -0.00000  -0.00008  -0.00162
  26        3PX        -0.00429   0.00551   0.00000  -0.00000   0.00003
  27        3PY         0.00550   0.00137   0.00000  -0.00024  -0.00374
  28        3PZ        -0.00000  -0.00000   0.04873   0.00000   0.00000
  29        4S          0.00284   0.00916  -0.00000  -0.00114  -0.00482
  30        4PX        -0.00730   0.00315   0.00000   0.00001   0.00014
  31        4PY         0.00317  -0.00558   0.00000  -0.00250  -0.01050
  32        4PZ        -0.00000  -0.00000   0.08994   0.00000  -0.00000
  33 5   H  1S          0.00003  -0.00230   0.00000   0.00000   0.00000
  34        2S          0.00031  -0.00969  -0.00000   0.00000   0.00016
  35        3S          0.00032  -0.00721  -0.00000   0.00024   0.00148
  36 6   H  1S         -0.00174  -0.00045   0.00000  -0.00000  -0.00004
  37        2S         -0.00817  -0.00095  -0.00000  -0.00005  -0.00092
  38        3S         -0.00647  -0.00025  -0.00000  -0.00047  -0.00246
                          16        17        18        19        20
  16        3S          0.01990
  17 3   H  1S         -0.00189   0.08301
  18        2S         -0.00729   0.07742   0.14667
  19        3S         -0.00599   0.01322   0.03906   0.01927
  20 4   C  1S          0.00010   0.00000   0.00002   0.00010   0.65950
  21        2S          0.00017   0.00000   0.00003   0.00017   0.49334
  22        2PX         0.00001  -0.00000  -0.00029  -0.00059   0.00000
  23        2PY        -0.00076  -0.00000  -0.00009  -0.00014   0.00000
  24        2PZ        -0.00000   0.00000   0.00000  -0.00000   0.00000
  25        3S         -0.00264  -0.00008  -0.00162  -0.00261  -0.02944
  26        3PX         0.00005  -0.00017  -0.00299  -0.00368   0.00000
  27        3PY        -0.00453  -0.00008  -0.00070  -0.00072   0.00000
  28        3PZ        -0.00000   0.00000   0.00000  -0.00000   0.00000
  29        4S         -0.00257  -0.00112  -0.00466  -0.00238  -0.01234
  30        4PX         0.00015  -0.00192  -0.00887  -0.00679   0.00000
  31        4PY        -0.00765  -0.00060  -0.00149  -0.00062   0.00000
  32        4PZ        -0.00000   0.00000  -0.00000  -0.00000   0.00000
  33 5   H  1S          0.00023  -0.00000  -0.00004  -0.00041  -0.00021
  34        2S          0.00143  -0.00004  -0.00091  -0.00229  -0.00157
  35        3S          0.00244  -0.00046  -0.00242  -0.00279   0.00005
  36 6   H  1S         -0.00042   0.00000   0.00000   0.00022  -0.00020
  37        2S         -0.00233   0.00000   0.00016   0.00140  -0.00154
  38        3S         -0.00284   0.00023   0.00146   0.00240   0.00004
                          21        22        23        24        25
  21        2S          0.49212
  22        2PX         0.00000   0.08270
  23        2PY         0.00000   0.00000   0.08741
  24        2PZ         0.00000   0.00000   0.00000   0.06403
  25        3S         -0.06470   0.00000   0.00000   0.00000   0.45455
  26        3PX         0.00000   0.08084   0.00000   0.00000   0.00000
  27        3PY         0.00000   0.00000   0.08265   0.00000   0.00000
  28        3PZ         0.00000   0.00000   0.00000   0.06442   0.00000
  29        4S         -0.02171   0.00000   0.00000   0.00000   0.21667
  30        4PX         0.00000   0.01637   0.00000   0.00000   0.00000
  31        4PY         0.00000   0.00000   0.01500   0.00000   0.00000
  32        4PZ         0.00000   0.00000   0.00000   0.02115   0.00000
  33 5   H  1S         -0.00030   0.00143   0.00575   0.00000   0.01533
  34        2S         -0.00300   0.00372   0.01379   0.00000   0.03899
  35        3S         -0.00005   0.00067   0.00202   0.00000   0.00246
  36 6   H  1S         -0.00028   0.00686   0.00002   0.00000   0.01485
  37        2S         -0.00295   0.01730   0.00001   0.00000   0.03849
  38        3S         -0.00006   0.00273  -0.00002   0.00000   0.00256
                          26        27        28        29        30
  26        3PX         0.19997
  27        3PY         0.00000   0.19801
  28        3PZ         0.00000   0.00000   0.16373
  29        4S          0.00000   0.00000   0.00000   0.18629
  30        4PX         0.07585   0.00000   0.00000   0.00000   0.06846
  31        4PY         0.00000   0.06745   0.00000   0.00000   0.00000
  32        4PZ         0.00000   0.00000   0.10033   0.00000   0.00000
  33 5   H  1S          0.00854   0.03394   0.00001   0.01731   0.00561
  34        2S          0.01675   0.06072   0.00001   0.04319   0.01442
  35        3S          0.00378   0.01089   0.00000   0.00640   0.00534
  36 6   H  1S          0.04154   0.00012   0.00001   0.01726   0.02485
  37        2S          0.07717  -0.00002   0.00001   0.04372   0.06002
  38        3S          0.01494  -0.00013   0.00000   0.00701   0.01914
                          31        32        33        34        35
  31        4PY         0.05531
  32        4PZ         0.00000   0.14399
  33 5   H  1S          0.01914   0.00001   0.08091
  34        2S          0.04476   0.00001   0.07780   0.15249
  35        3S          0.01325  -0.00000   0.01434   0.04400   0.02327
  36 6   H  1S         -0.00006   0.00001  -0.00001  -0.00087  -0.00248
  37        2S         -0.00034   0.00000  -0.00087  -0.00715  -0.01018
  38        3S         -0.00028  -0.00000  -0.00250  -0.01022  -0.00885
                          36        37        38
  36 6   H  1S          0.08015
  37        2S          0.07760   0.15305
  38        3S          0.01441   0.04445   0.02359
     Gross orbital populations:
                           1
   1 1   C  1S          1.10433
   2        2S          0.88586
   3        2PX         0.22853
   4        2PY         0.23643
   5        2PZ         0.16616
   6        3S          0.79316
   7        3PX         0.56406
   8        3PY         0.55582
   9        3PZ         0.42356
  10        4S          0.50253
  11        4PX         0.25567
  12        4PY         0.20994
  13        4PZ         0.41322
  14 2   H  1S          0.27630
  15        2S          0.46443
  16        3S          0.08307
  17 3   H  1S          0.27921
  18        2S          0.46267
  19        3S          0.08057
  20 4   C  1S          1.10442
  21        2S          0.88584
  22        2PX         0.22198
  23        2PY         0.23554
  24        2PZ         0.16502
  25        3S          0.79294
  26        3PX         0.55117
  27        3PY         0.55709
  28        3PZ         0.41816
  29        4S          0.50618
  30        4PX         0.27870
  31        4PY         0.21997
  32        4PZ         0.41374
  33 5   H  1S          0.27280
  34        2S          0.46956
  35        3S          0.08920
  36 6   H  1S          0.27043
  37        2S          0.47070
  38        3S          0.09104
          Condensed to atoms (all electrons):
               1          2          3          4          5          6
     1  C    5.026419   0.389253   0.389895   0.601335  -0.034047  -0.033573
     2  H    0.389253   0.510981  -0.030413  -0.042468   0.005979  -0.009532
     3  H    0.389895  -0.030413   0.508337  -0.041881  -0.009371   0.005873
     4  C    0.601335  -0.042468  -0.041881   5.067792   0.383169   0.382800
     5  H   -0.034047   0.005979  -0.009371   0.383169   0.528955  -0.043123
     6  H   -0.033573  -0.009532   0.005873   0.382800  -0.043123   0.529722
 Mulliken charges:
               1
     1  C   -0.339283
     2  H    0.176199
     3  H    0.177560
     4  C   -0.350747
     5  H    0.168437
     6  H    0.167833
 Sum of Mulliken charges =  -0.00000
 Mulliken charges with hydrogens summed into heavy atoms:
               1
     1  C    0.014477
     4  C   -0.014477
 Electronic spatial extent (au):  <R**2>=             83.6782
 Charge=             -0.0000 electrons
 Dipole moment (field-independent basis, Debye):
    X=              0.0126    Y=              0.0349    Z=             -0.0806  Tot=              0.0887
 Quadrupole moment (field-independent basis, Debye-Ang):
   XX=            -12.1963   YY=            -12.2204   ZZ=            -15.6704
   XY=              0.0054   XZ=              0.0008   YZ=             -0.0039
 Traceless Quadrupole moment (field-independent basis, Debye-Ang):
   XX=              1.1661   YY=              1.1420   ZZ=             -2.3080
   XY=              0.0054   XZ=              0.0008   YZ=             -0.0039
 Octapole moment (field-independent basis, Debye-Ang**2):
  XXX=             -0.4927  YYY=             -0.0293  ZZZ=             -0.0609  XYY=              0.3549
  XXY=             -0.0334  XXZ=             -0.1101  XZZ=             -0.1081  YZZ=             -0.1223
  YYZ=             -0.1446  XYZ=             -0.0299
 Hexadecapole moment (field-independent basis, Debye-Ang**3):
 XXXX=            -34.2477 YYYY=            -55.2173 ZZZZ=            -17.8207 XXXY=             -7.3174
 XXXZ=              0.0247 YYYX=            -10.7057 YYYZ=              0.0312 ZZZX=              0.0267
 ZZZY=              0.0541 XXYY=            -16.1610 XXZZ=             -9.9113 YYZZ=            -13.6323
 XXYZ=              0.0129 YYXZ=              0.0005 ZZXY=             -3.2154
 N-N= 3.307706778086D+01 E-N=-2.478696868691D+02  KE= 7.816314453903D+01
 Orbital energies and kinetic energies (alpha):
                                 1                 2
   1         O               -10.290311         15.978994
   2         O               -10.287373         15.979262
   3         O                -0.863569          1.533273
   4         O                -0.673477          1.273907
   5         O                -0.561269          0.945706
   6         O                -0.508152          1.287136
   7         O                -0.437245          1.046373
   8         O                -0.356125          1.036920
   9         V                 0.079043          1.182887
  10         V                 0.141130          0.587891
  11         V                 0.165735          0.589510
  12         V                 0.170702          0.677242
  13         V                 0.240582          0.581814
  14         V                 0.367042          0.846006
  15         V                 0.395256          0.936271
  16         V                 0.403715          0.799645
  17         V                 0.464738          1.200668
  18         V                 0.490725          1.405574
  19         V                 0.494333          1.304322
  20         V                 0.590747          1.649609
  21         V                 0.666784          1.577247
  22         V                 0.694059          2.144910
  23         V                 0.772186          2.310587
  24         V                 0.776344          2.442109
  25         V                 0.843699          1.087669
  26         V                 0.948429          3.404573
  27         V                 2.229632          3.934848
  28         V                 2.292585          4.020895
  29         V                 2.333663          4.312457
  30         V                 2.409002          4.525604
  31         V                 2.670573          6.299845
  32         V                 2.818409          6.308013
  33         V                 2.877172          6.144824
  34         V                 2.951586          6.224225
  35         V                 3.140143          6.817777
  36         V                 3.324325          6.401556
  37         V                23.354757         60.076260
  38         V                23.703567         60.201443
 Total kinetic energy from orbitals= 7.816314453903D+01
 Calling FoFJK, ICntrl=      2127 FMM=F ISym2X=0 I1Cent= 0 IOpClX= 0 NMat=1 NMatS=1 NMatT=0.
 -------------------------------------------------------------------
 Center     Atomic                   Forces (Hartrees/Bohr)
 Number     Number              X              Y              Z
 -------------------------------------------------------------------
      1        6           0.020132354    0.022286444   -0.003099086
      2        1          -0.009921673   -0.000971224    0.001502241
      3        1          -0.001788474   -0.008269381    0.001382481
      4        6           0.009196070    0.010297992   -0.003406282
      5        1          -0.001214772   -0.014484972    0.001779273
      6        1          -0.016403505   -0.008858860    0.001841374
 -------------------------------------------------------------------
 Cartesian Forces:  Max     0.022286444 RMS     0.010149860

 GradGradGradGradGradGradGradGradGradGradGradGradGradGradGradGradGradGrad
 Berny optimization.
 Search for a local minimum.
 Step number   1 out of a maximum of    2
 All quantities printed in internal units (Hartrees-Bohrs-Radians)
 Second derivative matrix not updated -- first step.
 The second derivative matrix:
                          X1        Y1        Z1        X2        Y2
           X1           0.77445
           Y1           0.08097   0.85563
           Z1           0.00484   0.00708   0.16763
           X2          -0.17520   0.10366   0.00178   0.15201
           Y2           0.10860  -0.28560  -0.00628  -0.12301   0.27362
           Z2           0.00284  -0.00791  -0.05408  -0.00261   0.00641
           X3          -0.36091   0.00508  -0.00701   0.00063   0.00040
           Y3           0.00020  -0.11254  -0.00163   0.03237   0.02007
           Z3          -0.00896  -0.00154  -0.05516   0.00132   0.00055
           X4          -0.26407  -0.17486  -0.00042   0.02257   0.01401
           Y4          -0.17510  -0.46595  -0.00062  -0.01303  -0.00809
           Z4           0.00125   0.00231  -0.09324  -0.00048  -0.00068
           X5           0.02363  -0.01364   0.00052  -0.00000   0.00000
           Y5           0.01124  -0.00649   0.00069   0.00000  -0.00000
           Z5          -0.00042   0.00028   0.01770   0.00021  -0.00010
           X6           0.00210  -0.00121   0.00030  -0.00000   0.00000
           Y6          -0.02590   0.01496   0.00075   0.00000  -0.00000
           Z6           0.00045  -0.00022   0.01713  -0.00020   0.00010
                          Z2        X3        Y3        Z3        X4
           Z2           0.02813
           X3          -0.00021   0.36083
           Y3           0.00146  -0.00579   0.07702
           Z3           0.01072   0.00759   0.00098   0.02887
           X4           0.00039  -0.00054  -0.02678  -0.00036   0.70525
           Y4          -0.00019   0.00031   0.01546   0.00024   0.12444
           Z4           0.01517  -0.00037  -0.00081   0.01562  -0.00426
           X5          -0.00020  -0.00000   0.00000   0.00020  -0.14201
           Y5           0.00014   0.00000  -0.00000  -0.00014   0.09016
           Z5           0.00914   0.00021  -0.00014  -0.00928  -0.00253
           X6          -0.00020  -0.00000   0.00000   0.00020  -0.32121
           Y6           0.00010   0.00000  -0.00000  -0.00010  -0.02697
           Z6          -0.00909  -0.00021   0.00014   0.00922   0.00719
                          Y4        Z4        X5        Y5        Z5
           Y4           0.85595
           Z4          -0.00854   0.17687
           X5           0.08099  -0.00168   0.12105
           Y5          -0.29283   0.00613  -0.10015   0.28374
           Z5           0.00753  -0.05756   0.00223  -0.00657   0.02976
           X6          -0.01762   0.00555  -0.00267  -0.00126   0.00030
           Y6          -0.10454   0.00159   0.03279   0.01558  -0.00100
           Z6           0.00158  -0.05687  -0.00107  -0.00025   0.01024
                          X6        Y6        Z6
           X6           0.32178
           Y6           0.02008   0.07400
           Z6          -0.00615  -0.00134   0.02937
 ITU=  0
     Eigenvalues ---    0.03678   0.04403   0.09303   0.09980   0.13525
     Eigenvalues ---    0.17589   0.26189   0.29458   0.53310   0.70601
     Eigenvalues ---    0.99063   1.54814
 Angle between quadratic step and forces=  37.01 degrees.
 Linear search not attempted -- first point.
 B after Tr=     0.009475    0.012868   -0.008334
         Rot=    1.000000   -0.000069    0.000039   -0.000114 Ang=  -0.02 deg.
 Variable       Old X    -DE/DX   Delta X   Delta X   Delta X     New X
                                 (Linear)    (Quad)   (Total)
    X1       -0.64019   0.02013   0.00000   0.02840   0.03812  -0.60207
    Y1       -1.10811   0.02229   0.00000   0.03736   0.05009  -1.05802
    Z1        0.01156  -0.00310   0.00000  -0.01818  -0.02671  -0.01514
    X2        0.44452  -0.00992   0.00000  -0.04776  -0.03764   0.40688
    Y2       -2.85469  -0.00097   0.00000   0.00398   0.01694  -2.83775
    Z2       -0.03201   0.00150   0.00000   0.02210   0.01340  -0.01861
    X3       -2.67830  -0.00179   0.00000   0.02166   0.03139  -2.64691
    Y3       -1.06671  -0.00827   0.00000  -0.03289  -0.02062  -1.08733
    Z3       -0.03490   0.00138   0.00000   0.02163   0.01293  -0.02197
    X4        0.62810   0.00920   0.00000   0.01079   0.02002   0.64811
    Y4        1.08854   0.01030   0.00000   0.01594   0.02895   1.11750
    Z4        0.00700  -0.00341   0.00000  -0.01629  -0.02442  -0.01742
    X5       -0.26893  -0.00121   0.00000  -0.03415  -0.02534  -0.29427
    Y5        2.97317  -0.01448   0.00000  -0.04660  -0.03380   2.93937
    Z5       -0.04064   0.00178   0.00000   0.02062   0.01267  -0.02797
    X6        2.72285  -0.01640   0.00000  -0.03574  -0.02654   2.69631
    Y6        1.25736  -0.00886   0.00000  -0.05504  -0.04156   1.21580
    Z6       -0.03757   0.00184   0.00000   0.02009   0.01213  -0.02544
         Item               Value     Threshold  Converged?
 Maximum Force            0.022286     0.000450     NO 
 RMS     Force            0.010150     0.000300     NO 
 Maximum Displacement     0.050085     0.001800     NO 
 RMS     Displacement     0.028377     0.001200     NO 
 Predicted change in Energy=-2.204867D-03
 GradGradGradGradGradGradGradGradGradGradGradGradGradGradGradGradGradGrad

 Unable to Open any file for archive entry.
 1\1\GINC-BHD0015\Force\RwB97XD\6-311G\C2H4\BWEIGHT\11-Jan-2023\0\\# WB
 97XD/6-311G SCF=XQC FORCE nosym pop=full guess=read\\MD Step 1000\\0,1
 \C,-0.3387721,-0.58638413,0.00611988\H,0.23523102,-1.51063686,-0.01693
 846\H,-1.4172968,-0.56447801,-0.01846631\C,0.3323739,0.57603307,0.0037
 0321\H,-0.14231186,1.5733326,-0.02150477\H,1.44087218,0.66536867,-0.01
 988318\\Version=ES64L-G16RevC.01\HF=-78.5546604\RMSD=5.011e-09\RMSF=1.
 015e-02\Dipole=0.0049477,0.0137127,-0.0316963\Quadrupole=0.8669311,0.8
 490226,-1.7159537,0.0039886,0.0005752,-0.0029144\PG=C01 [X(C2H4)]\\@
 The archive entry for this job was punched.


 I am not a vegetarian because I love animals;
 I am a vegetarian because I hate plants.
                               -- A. Whitney Brown
 Job cpu time:       0 days  0 hours  0 minutes 13.4 seconds.
 Elapsed time:       0 days  0 hours  0 minutes  4.0 seconds.
 File lengths (MBytes):  RWF=    272 Int=      0 D2E=      0 Chk=     32 Scr=     32
 Normal termination of Gaussian 16 at Wed Jan 11 19:41:40 2023.
