 Entering Gaussian System, Link 0=g16
 Initial command:
 /software/gaussian/g16-c01/avx/g16/l1.exe "/gpfs/fs2/scratch/bweight/software/many_molecule_many_mode_NAMD/src/ELECTRONIC_STRUCTURE_CONTROL/EXAMPLE/G16/TD_NEW_S1/Gau-4147.inp" -scrdir="/gpfs/fs2/scratch/bweight/software/many_molecule_many_mode_NAMD/src/ELECTRONIC_STRUCTURE_CONTROL/EXAMPLE/G16/TD_NEW_S1/"
 Entering Link 1 = /software/gaussian/g16-c01/avx/g16/l1.exe PID=      4148.
  
 Copyright (c) 1988-2019, Gaussian, Inc.  All Rights Reserved.
  
 This is part of the Gaussian(R) 16 program.  It is based on
 the Gaussian(R) 09 system (copyright 2009, Gaussian, Inc.),
 the Gaussian(R) 03 system (copyright 2003, Gaussian, Inc.),
 the Gaussian(R) 98 system (copyright 1998, Gaussian, Inc.),
 the Gaussian(R) 94 system (copyright 1995, Gaussian, Inc.),
 the Gaussian 92(TM) system (copyright 1992, Gaussian, Inc.),
 the Gaussian 90(TM) system (copyright 1990, Gaussian, Inc.),
 the Gaussian 88(TM) system (copyright 1988, Gaussian, Inc.),
 the Gaussian 86(TM) system (copyright 1986, Carnegie Mellon
 University), and the Gaussian 82(TM) system (copyright 1983,
 Carnegie Mellon University). Gaussian is a federally registered
 trademark of Gaussian, Inc.
  
 This software contains proprietary and confidential information,
 including trade secrets, belonging to Gaussian, Inc.
  
 This software is provided under written license and may be
 used, copied, transmitted, or stored only in accord with that
 written license.
  
 The following legend is applicable only to US Government
 contracts under FAR:
  
                    RESTRICTED RIGHTS LEGEND
  
 Use, reproduction and disclosure by the US Government is
 subject to restrictions as set forth in subparagraphs (a)
 and (c) of the Commercial Computer Software - Restricted
 Rights clause in FAR 52.227-19.
  
 Gaussian, Inc.
 340 Quinnipiac St., Bldg. 40, Wallingford CT 06492
  
  
 ---------------------------------------------------------------
 Warning -- This program may not be used in any manner that
 competes with the business of Gaussian, Inc. or will provide
 assistance to any competitor of Gaussian, Inc.  The licensee
 of this program is prohibited from giving any competitor of
 Gaussian, Inc. access to this program.  By using this program,
 the user acknowledges that Gaussian, Inc. is engaged in the
 business of creating and licensing software in the field of
 computational chemistry and represents and warrants to the
 licensee that it is not a competitor of Gaussian, Inc. and that
 it will not use this program in any manner prohibited above.
 ---------------------------------------------------------------
  

 Cite this work as:
 Gaussian 16, Revision C.01,
 M. J. Frisch, G. W. Trucks, H. B. Schlegel, G. E. Scuseria, 
 M. A. Robb, J. R. Cheeseman, G. Scalmani, V. Barone, 
 G. A. Petersson, H. Nakatsuji, X. Li, M. Caricato, A. V. Marenich, 
 J. Bloino, B. G. Janesko, R. Gomperts, B. Mennucci, H. P. Hratchian, 
 J. V. Ortiz, A. F. Izmaylov, J. L. Sonnenberg, D. Williams-Young, 
 F. Ding, F. Lipparini, F. Egidi, J. Goings, B. Peng, A. Petrone, 
 T. Henderson, D. Ranasinghe, V. G. Zakrzewski, J. Gao, N. Rega, 
 G. Zheng, W. Liang, M. Hada, M. Ehara, K. Toyota, R. Fukuda, 
 J. Hasegawa, M. Ishida, T. Nakajima, Y. Honda, O. Kitao, H. Nakai, 
 T. Vreven, K. Throssell, J. A. Montgomery, Jr., J. E. Peralta, 
 F. Ogliaro, M. J. Bearpark, J. J. Heyd, E. N. Brothers, K. N. Kudin, 
 V. N. Staroverov, T. A. Keith, R. Kobayashi, J. Normand, 
 K. Raghavachari, A. P. Rendell, J. C. Burant, S. S. Iyengar, 
 J. Tomasi, M. Cossi, J. M. Millam, M. Klene, C. Adamo, R. Cammi, 
 J. W. Ochterski, R. L. Martin, K. Morokuma, O. Farkas, 
 J. B. Foresman, and D. J. Fox, Gaussian, Inc., Wallingford CT, 2019.
 
 ******************************************
 Gaussian 16:  ES64L-G16RevC.01  3-Jul-2019
                28-Dec-2022 
 ******************************************
 %oldchk=../GS_NEW/geometry.chk
 %chk=geometry.chk
 %nprocshared=1
 Will use up to    1 processors via shared memory.
 %mem=5GB
 Copying data from "../GS_NEW/geometry.chk" to current chk file "geometry.chk"
 IOpt=  2 FromEx=T IUOpen= 4 IOptOp= 5 NList=   0 IFRang= 0 IUIn= 4 IUOut= 2.
 ----------------------------------------------------------------------
 # BLYP/sto-3g TD=(singlets,nstates=4,root=1) FORCE nosym pop=full gues
 s=read
 ----------------------------------------------------------------------
 1/10=7,30=1,38=1/1,3;
 2/12=2,15=1,17=6,18=5,40=1/2;
 3/6=3,11=9,25=1,30=1,71=1,74=402,116=-2/1,2,3,8;
 4/5=1/1;
 5/5=2,38=6/2;
 8/6=1,10=1,107=1,108=4/1;
 9/8=1,15=2,41=4,42=1,48=1,70=2/14;
 10/5=4,28=1,31=1/2;
 6/7=3,18=1/1;
 7/12=6,13=5,14=1,29=1,30=1/1,2,3,16;
 1/10=7,30=1/3;
 99//99;
 ---------
 MD Step 1
 ---------
 Symbolic Z-matrix:
 Charge =  0 Multiplicity = 1
 Li                    0.        0.        0. 
 H                     0.        0.        1. 
 

 GradGradGradGradGradGradGradGradGradGradGradGradGradGradGradGradGradGrad
 Berny optimization.
 Initialization pass.
 Trust Radius=3.00D-01 FncErr=1.00D-07 GrdErr=1.00D-07 EigMax=2.50D+02 EigMin=1.00D-04
 Number of steps in this run=      2 maximum allowed number of steps=      2.
 GradGradGradGradGradGradGradGradGradGradGradGradGradGradGradGradGradGrad

                          Input orientation:                          
 ---------------------------------------------------------------------
 Center     Atomic      Atomic             Coordinates (Angstroms)
 Number     Number       Type             X           Y           Z
 ---------------------------------------------------------------------
      1          3           0        0.000000    0.000000    0.000000
      2          1           0        0.000000    0.000000    1.000000
 ---------------------------------------------------------------------
 Symmetry turned off by external request.
 Stoichiometry    HLi
 Framework group  C*V[C*(HLi)]
 Deg. of freedom     1
 Full point group                 C*V     NOp   4
 Rotational constants (GHZ):           0.0000000         573.4874142         573.4874142
 Standard basis: STO-3G (5D, 7F)
     6 basis functions,    18 primitive gaussians,     6 cartesian basis functions
     2 alpha electrons        2 beta electrons
       nuclear repulsion energy         1.5875316328 Hartrees.
 NAtoms=    2 NActive=    2 NUniq=    2 SFac= 1.00D+00 NAtFMM=   60 NAOKFM=F Big=F
 Integral buffers will be    131072 words long.
 Regular integral format.
 Two-electron integral symmetry is turned off.
 One-electron integrals computed using PRISM.
 NBasis=     6 RedAO= T EigKep=  2.31D-01  NBF=     6
 NBsUse=     6 1.00D-06 EigRej= -1.00D+00 NBFU=     6
 Initial guess from the checkpoint file:  "geometry.chk"
 B after Tr=     0.000000    0.000000    0.000000
         Rot=    1.000000    0.000000    0.000000    0.000000 Ang=   0.00 deg.
 Keep J ints in memory in canonical form, NReq=846976.
 Requested convergence on RMS density matrix=1.00D-08 within 128 cycles.
 Requested convergence on MAX density matrix=1.00D-06.
 Requested convergence on             energy=1.00D-06.
 No special actions if energy rises.
 Skip diagonalization as Alpha Fock matrix is already diagonal.
 SCF Done:  E(RB-LYP) =  -7.85074979042     A.U. after    1 cycles
            NFock=  1  Conv=0.00D+00     -V/T= 1.9553
 DoSCS=F DFT=T ScalE2(SS,OS)=  1.000000  1.000000
 ExpMin= 4.81D-02 ExpMax= 1.61D+01 ExpMxC= 1.61D+01 IAcc=3 IRadAn=         5 AccDes= 0.00D+00
 HarFok:  IExCor=  205 AccDes= 0.00D+00 IRadAn=         5 IDoV=-2 UseB2=F ITyADJ=14
 ICtDFT= 12500011 ScaDFX=  1.000000  1.000000  1.000000  1.000000
 Range of M.O.s used for correlation:     2     6
 NBasis=     6 NAE=     2 NBE=     2 NFC=     1 NFV=     0
 NROrb=      5 NOA=     1 NOB=     1 NVA=     4 NVB=     4
 Keep J ints in memory in canonical form, NReq=868411.
     4 initial guesses have been made.
 Convergence on wavefunction:    0.000001000000000
 *** WARNING: Number of orthogonal guesses is            4
 Iteration     1 Dimension     4 NMult     0 NNew      4
 CISAX will form     4 AO SS matrices at one time.
 ***********************************************************************
 Excited states from <AA,BB:AA,BB> singles matrix:
 ***********************************************************************
 
 Ground to excited state transition densities written to RWF  633
 Ground to excited state transition electric dipole moments (Au):
       state          X           Y           Z        Dip. S.      Osc.
         1        -0.0000      0.0000      0.2056      0.0423      0.0034
         2         0.8429     -0.9508     -0.0000      1.6145      0.2162
         3        -0.9508     -0.8429     -0.0000      1.6145      0.2162
         4         0.0000     -0.0000     -0.0827      0.0068      0.0032
 Ground to excited state transition velocity dipole moments (Au):
       state          X           Y           Z        Dip. S.      Osc.
         1        -0.0000      0.0000     -0.1092      0.0119      0.0668
         2        -0.1500      0.1693      0.0000      0.0512      0.1697
         3         0.1693      0.1500      0.0000      0.0512      0.1697
         4        -0.0000      0.0000      0.1200      0.0144      0.0139
 Ground to excited state transition magnetic dipole moments (Au):
       state          X           Y           Z
         1         0.0000      0.0000      0.0000
         2        -0.7474     -0.6625     -0.0000
         3        -0.6625      0.7474      0.0000
         4         0.0000      0.0000      0.0000
 Ground to excited state transition velocity quadrupole moments (Au):
       state          XX          YY          ZZ          XY          XZ          YZ
         1         0.1191      0.1191     -0.0201     -0.0000      0.0000      0.0000
         2        -0.0000     -0.0000     -0.0000      0.0000     -0.1182      0.1333
         3         0.0000      0.0000      0.0000     -0.0000      0.1333      0.1182
         4        -0.8972     -0.8972     -0.1843     -0.0000     -0.0000      0.0000
 <0|del|b> * <b|rxdel|0> + <0|del|b> * <b|delr+rdel|0>
 Rotatory Strengths (R) in cgs (10**-40 erg-esu-cm/Gauss)
       state          XX          YY          ZZ    R(velocity)    E-M Angle
         1         0.0000     -0.0000      0.0000      0.0000       90.00
         2      -162.1355    162.1355      0.0000      0.0000       90.00
         3       162.1355   -162.1355     -0.0000     -0.0000       90.00
         4         0.0000     -0.0000      0.0000      0.0000       90.00
 1/2[<0|r|b>*<b|rxdel|0> + (<0|rxdel|b>*<b|r|0>)*]
 Rotatory Strengths (R) in cgs (10**-40 erg-esu-cm/Gauss)
       state          XX          YY          ZZ     R(length)
         1         0.0000     -0.0000     -0.0000     -0.0000
         2       445.4467   -445.4467     -0.0000      0.0000
         3      -445.4467    445.4467      0.0000     -0.0000
         4        -0.0000      0.0000      0.0000      0.0000
  1/2[<0|del|b>*<b|r|0> + (<0|r|b>*<b|del|0>)*] (Au)
       state          X           Y           Z        Dip. S.   Osc.(frdel)
         1         0.0000      0.0000     -0.0225      0.0225      0.0150
         2        -0.1265     -0.1609     -0.0000      0.2874      0.1916
         3        -0.1609     -0.1265     -0.0000      0.2874      0.1916
         4        -0.0000     -0.0000     -0.0099      0.0099      0.0066

 Excitation energies and oscillator strengths:
 
 Excited state symmetry could not be determined.
 Excited State   1:      Singlet-?Sym    3.2434 eV  382.26 nm  f=0.0034  <S**2>=0.000
       2 ->  3         0.70618
 This state for optimization and/or second-order correction.
 Total Energy, E(TD-HF/TD-DFT) =  -7.73155605468    
 Copying the excited state density for this state as the 1-particle RhoCI density.
 
 Excited state symmetry could not be determined.
 Excited State   2:      Singlet-?Sym    5.4668 eV  226.79 nm  f=0.2162  <S**2>=0.000
       2 ->  4         0.58506
       2 ->  5        -0.39878
 
 Excited state symmetry could not be determined.
 Excited State   3:      Singlet-?Sym    5.4668 eV  226.79 nm  f=0.2162  <S**2>=0.000
       2 ->  4         0.39878
       2 ->  5         0.58506
 
 Excited state symmetry could not be determined.
 Excited State   4:      Singlet-?Sym   18.8436 eV   65.80 nm  f=0.0032  <S**2>=0.000
       2 ->  6         0.71051
 SavETr:  write IOETrn=   770 NScale= 10 NData=  16 NLR=1 NState=    4 LETran=      82.
          IDoAtm=11
          Differentiating once with respect to electric field.
                with respect to dipole field.
          Differentiating once with respect to nuclear coordinates.
 Keep J ints in memory in canonical form, NReq=848429.
          There are     1 degrees of freedom in the 1st order CPHF.  IDoFFX=0 NUNeed=     1.
 LinEq1:  Iter=  0 NonCon=     1 RMS=1.04D+00 Max=2.84D+00 NDo=     1
 AX will form     1 AO Fock derivatives at one time.
 LinEq1:  Iter=  1 NonCon=     1 RMS=2.27D-01 Max=6.21D-01 NDo=     1
 LinEq1:  Iter=  2 NonCon=     1 RMS=2.44D-03 Max=6.45D-03 NDo=     1
 LinEq1:  Iter=  3 NonCon=     1 RMS=8.79D-06 Max=2.32D-05 NDo=     1
 LinEq1:  Iter=  4 NonCon=     0 RMS=5.61D-21 Max=1.57D-20 NDo=     1
 Linear equations converged to 1.000D-10 1.000D-09 after     4 iterations.
 End of Minotr F.D. properties file   721 does not exist.
 End of Minotr F.D. properties file   722 does not exist.
 End of Minotr F.D. properties file   788 does not exist.

 **********************************************************************

            Population analysis using the SCF Density.

 **********************************************************************

 Alpha  occ. eigenvalues --   -1.78719  -0.15069
 Alpha virt. eigenvalues --   -0.03226   0.03062   0.03062   0.40426
     Molecular Orbital Coefficients:
                           1         2         3         4         5
                           O         O         V         V         V
     Eigenvalues --    -1.78719  -0.15069  -0.03226   0.03062   0.03062
   1 1   Li 1S          0.97854  -0.27350  -0.19672  -0.00000   0.00000
   2        2S          0.02958   0.39132   0.85289  -0.00000   0.00000
   3        2PX         0.00000   0.00000   0.00000  -0.12665   0.99195
   4        2PY        -0.00000  -0.00000   0.00000   0.99195   0.12665
   5        2PZ        -0.02148   0.36969  -0.56535   0.00000   0.00000
   6 2   H  1S          0.05325   0.55003  -0.17805   0.00000  -0.00000
                           6
                           V
     Eigenvalues --     0.40426
   1 1   Li 1S         -0.13710
   2        2S         -0.91026
   3        2PX         0.00000
   4        2PY        -0.00000
   5        2PZ        -1.13537
   6 2   H  1S          1.46635
     Density Matrix:
                           1         2         3         4         5
   1 1   Li 1S          2.06467
   2        2S         -0.15617   0.30801
   3        2PX         0.00000   0.00000   0.00000
   4        2PY         0.00000  -0.00000  -0.00000   0.00000
   5        2PZ        -0.24425   0.28806   0.00000  -0.00000   0.27426
   6 2   H  1S         -0.19667   0.43363   0.00000  -0.00000   0.40439
                           6
   6 2   H  1S          0.61074
    Full Mulliken population analysis:
                           1         2         3         4         5
   1 1   Li 1S          2.06467
   2        2S         -0.03766   0.30801
   3        2PX         0.00000   0.00000   0.00000
   4        2PY         0.00000   0.00000   0.00000   0.00000
   5        2PZ         0.00000   0.00000   0.00000   0.00000   0.27426
   6 2   H  1S         -0.04511   0.23249   0.00000   0.00000   0.22144
                           6
   6 2   H  1S          0.61074
     Gross orbital populations:
                           1
   1 1   Li 1S          1.98190
   2        2S          0.50285
   3        2PX         0.00000
   4        2PY         0.00000
   5        2PZ         0.49570
   6 2   H  1S          1.01956
          Condensed to atoms (all electrons):
               1          2
     1  Li   2.571624   0.408818
     2  H    0.408818   0.610740
 Mulliken charges:
               1
     1  Li   0.019558
     2  H   -0.019558
 Sum of Mulliken charges =  -0.00000
 Mulliken charges with hydrogens summed into heavy atoms:
               1
     1  Li  -0.000000
 Electronic spatial extent (au):  <R**2>=             17.2720
 Charge=             -0.0000 electrons
 Dipole moment (field-independent basis, Debye):
    X=             -0.0000    Y=              0.0000    Z=             -4.7897  Tot=              4.7897
 Quadrupole moment (field-independent basis, Debye-Ang):
   XX=             -4.9200   YY=             -4.9200   ZZ=             -8.5882
   XY=              0.0000   XZ=             -0.0000   YZ=              0.0000
 Traceless Quadrupole moment (field-independent basis, Debye-Ang):
   XX=              1.2227   YY=              1.2227   ZZ=             -2.4455
   XY=              0.0000   XZ=             -0.0000   YZ=              0.0000
 Octapole moment (field-independent basis, Debye-Ang**2):
  XXX=             -0.0000  YYY=              0.0000  ZZZ=            -14.9739  XYY=             -0.0000
  XXY=              0.0000  XXZ=             -4.5029  XZZ=             -0.0000  YZZ=              0.0000
  YYZ=             -4.5029  XYZ=              0.0000
 Hexadecapole moment (field-independent basis, Debye-Ang**3):
 XXXX=            -10.8360 YYYY=            -10.8360 ZZZZ=            -32.6753 XXXY=              0.0000
 XXXZ=             -0.0000 YYYX=              0.0000 YYYZ=              0.0000 ZZZX=             -0.0000
 ZZZY=              0.0000 XXYY=             -3.6120 XXZZ=             -7.0785 YYZZ=             -7.0785
 XXYZ=              0.0000 YYXZ=             -0.0000 ZZXY=              0.0000
 N-N= 1.587531632760D+00 E-N=-2.154662089339D+01  KE= 8.217690033977D+00
 Orbital energies and kinetic energies (alpha):
                                 1                 2
   1         O                -1.787190          3.428593
   2         O                -0.150691          0.680252
   3         V                -0.032259          0.368753
   4         V                 0.030624          0.319682
   5         V                 0.030624          0.319682
   6         V                 0.404261          1.211540
 Total kinetic energy from orbitals= 8.217690033977D+00
 Calling FoFJK, ICntrl=  10005527 FMM=F ISym2X=0 I1Cent= 0 IOpClX= 0 NMat=1 NMatS=1 NMatT=0.
 -------------------------------------------------------------------
 Center     Atomic                   Forces (Hartrees/Bohr)
 Number     Number              X              Y              Z
 -------------------------------------------------------------------
      1        3           0.000000000   -0.000000000   -0.207289252
      2        1          -0.000000000    0.000000000    0.207289252
 -------------------------------------------------------------------
 Cartesian Forces:  Max     0.207289252 RMS     0.119678506

 GradGradGradGradGradGradGradGradGradGradGradGradGradGradGradGradGradGrad
 Berny optimization.
 Search for a local minimum.
 Step number   1 out of a maximum of    2
 All quantities printed in internal units (Hartrees-Bohrs-Radians)
 Second derivative matrix not updated -- first step.
 The second derivative matrix:
                          X1        Y1        Z1        X2        Y2
           X1           1.00000
           Y1           0.00000   1.00000
           Z1           0.00000   0.00000   0.47688
           X2           0.00000   0.00000   0.00000   1.00000
           Y2           0.00000   0.00000   0.00000   0.00000   1.00000
           Z2           0.00000   0.00000  -0.47688   0.00000   0.00000
                          Z2
           Z2           0.47688
 ITU=  0
     Eigenvalues ---    0.88988
 Quadratic step=3.182D-01 exceeds max=3.000D-01 adjusted using Lamda=-5.378D-02.
 Angle between NR and scaled steps=   0.00 degrees.
 Angle between quadratic step and forces=  15.00 degrees.
 Linear search not attempted -- first point.
 B after Tr=     0.000000    0.000000   -0.054916
         Rot=    1.000000    0.000000    0.000000    0.000000 Ang=   0.00 deg.
 Variable       Old X    -DE/DX   Delta X   Delta X   Delta X     New X
                                 (Linear)    (Quad)   (Total)
    X1        0.00000   0.00000   0.00000   0.00000   0.00000   0.00000
    Y1        0.00000  -0.00000   0.00000   0.00000   0.00000   0.00000
    Z1        0.00000  -0.20729   0.00000  -0.15003  -0.20495  -0.20495
    X2        0.00000  -0.00000   0.00000   0.00000   0.00000   0.00000
    Y2        0.00000   0.00000   0.00000   0.00000   0.00000   0.00000
    Z2        1.88973   0.20729   0.00000   0.25987   0.20495   2.09468
         Item               Value     Threshold  Converged?
 Maximum Force            0.207289     0.000450     NO 
 RMS     Force            0.119679     0.000300     NO 
 Maximum Displacement     0.204951     0.001800     NO 
 RMS     Displacement     0.118328     0.001200     NO 
 Predicted change in Energy=-4.490539D-02
 GradGradGradGradGradGradGradGradGradGradGradGradGradGradGradGradGradGrad

 Unable to Open any file for archive entry.
 1\1\GINC-BHP0004\Force\RBLYP TD-FC\STO-3G\H1Li1\BWEIGHT\28-Dec-2022\0\
 \# BLYP/sto-3g TD=(singlets,nstates=4,root=1) FORCE nosym pop=full gue
 ss=read\\MD Step 1\\0,1\Li,0.,0.,0.\H,0.,0.,1.\\Version=ES64L-G16RevC.
 01\HF=-7.8507498\RMSD=0.000e+00\RMSF=1.197e-01\Dipole=0.,0.,1.3605078\
 PG=C*V [C*(H1Li1)]\\@
 The archive entry for this job was punched.


 BRING ME INTO THE COMPANY OF THOSE WHO SEEK TRUTH,
 AND DELIVER ME FROM THOSE WHO HAVE FOUND IT.
 Job cpu time:       0 days  0 hours  0 minutes  3.3 seconds.
 Elapsed time:       0 days  0 hours  0 minutes  3.7 seconds.
 File lengths (MBytes):  RWF=    272 Int=      0 D2E=      0 Chk=     32 Scr=     32
 Normal termination of Gaussian 16 at Wed Dec 28 17:08:40 2022.
