 Entering Gaussian System, Link 0=g16
 Initial command:
 /software/gaussian/g16-c01/avx2/g16/l1.exe "/gpfs/fs2/scratch/bweight/software/many_molecule_many_mode_NAMD/src/NAMD/TEST_NVT/TRAJ/traj-71/G16/GS_NEW/Gau-9560.inp" -scrdir="/gpfs/fs2/scratch/bweight/software/many_molecule_many_mode_NAMD/src/NAMD/TEST_NVT/TRAJ/traj-71/G16/GS_NEW/"
 Entering Link 1 = /software/gaussian/g16-c01/avx2/g16/l1.exe PID=      9561.
  
 Copyright (c) 1988-2019, Gaussian, Inc.  All Rights Reserved.
  
 This is part of the Gaussian(R) 16 program.  It is based on
 the Gaussian(R) 09 system (copyright 2009, Gaussian, Inc.),
 the Gaussian(R) 03 system (copyright 2003, Gaussian, Inc.),
 the Gaussian(R) 98 system (copyright 1998, Gaussian, Inc.),
 the Gaussian(R) 94 system (copyright 1995, Gaussian, Inc.),
 the Gaussian 92(TM) system (copyright 1992, Gaussian, Inc.),
 the Gaussian 90(TM) system (copyright 1990, Gaussian, Inc.),
 the Gaussian 88(TM) system (copyright 1988, Gaussian, Inc.),
 the Gaussian 86(TM) system (copyright 1986, Carnegie Mellon
 University), and the Gaussian 82(TM) system (copyright 1983,
 Carnegie Mellon University). Gaussian is a federally registered
 trademark of Gaussian, Inc.
  
 This software contains proprietary and confidential information,
 including trade secrets, belonging to Gaussian, Inc.
  
 This software is provided under written license and may be
 used, copied, transmitted, or stored only in accord with that
 written license.
  
 The following legend is applicable only to US Government
 contracts under FAR:
  
                    RESTRICTED RIGHTS LEGEND
  
 Use, reproduction and disclosure by the US Government is
 subject to restrictions as set forth in subparagraphs (a)
 and (c) of the Commercial Computer Software - Restricted
 Rights clause in FAR 52.227-19.
  
 Gaussian, Inc.
 340 Quinnipiac St., Bldg. 40, Wallingford CT 06492
  
  
 ---------------------------------------------------------------
 Warning -- This program may not be used in any manner that
 competes with the business of Gaussian, Inc. or will provide
 assistance to any competitor of Gaussian, Inc.  The licensee
 of this program is prohibited from giving any competitor of
 Gaussian, Inc. access to this program.  By using this program,
 the user acknowledges that Gaussian, Inc. is engaged in the
 business of creating and licensing software in the field of
 computational chemistry and represents and warrants to the
 licensee that it is not a competitor of Gaussian, Inc. and that
 it will not use this program in any manner prohibited above.
 ---------------------------------------------------------------
  

 Cite this work as:
 Gaussian 16, Revision C.01,
 M. J. Frisch, G. W. Trucks, H. B. Schlegel, G. E. Scuseria, 
 M. A. Robb, J. R. Cheeseman, G. Scalmani, V. Barone, 
 G. A. Petersson, H. Nakatsuji, X. Li, M. Caricato, A. V. Marenich, 
 J. Bloino, B. G. Janesko, R. Gomperts, B. Mennucci, H. P. Hratchian, 
 J. V. Ortiz, A. F. Izmaylov, J. L. Sonnenberg, D. Williams-Young, 
 F. Ding, F. Lipparini, F. Egidi, J. Goings, B. Peng, A. Petrone, 
 T. Henderson, D. Ranasinghe, V. G. Zakrzewski, J. Gao, N. Rega, 
 G. Zheng, W. Liang, M. Hada, M. Ehara, K. Toyota, R. Fukuda, 
 J. Hasegawa, M. Ishida, T. Nakajima, Y. Honda, O. Kitao, H. Nakai, 
 T. Vreven, K. Throssell, J. A. Montgomery, Jr., J. E. Peralta, 
 F. Ogliaro, M. J. Bearpark, J. J. Heyd, E. N. Brothers, K. N. Kudin, 
 V. N. Staroverov, T. A. Keith, R. Kobayashi, J. Normand, 
 K. Raghavachari, A. P. Rendell, J. C. Burant, S. S. Iyengar, 
 J. Tomasi, M. Cossi, J. M. Millam, M. Klene, C. Adamo, R. Cammi, 
 J. W. Ochterski, R. L. Martin, K. Morokuma, O. Farkas, 
 J. B. Foresman, and D. J. Fox, Gaussian, Inc., Wallingford CT, 2019.
 
 ******************************************
 Gaussian 16:  ES64L-G16RevC.01  3-Jul-2019
                11-Jan-2023 
 ******************************************
 %oldchk=../GS_OLD/geometry.chk
 %chk=geometry.chk
 %nprocshared=4
 Will use up to    4 processors via shared memory.
 %mem=5GB
 Copying data from "../GS_OLD/geometry.chk" to current chk file "geometry.chk"
 IOpt=  2 FromEx=T IUOpen= 4 IOptOp= 5 NList=   0 IFRang= 0 IUIn= 4 IUOut= 2.
 -------------------------------------------------------
 # WB97XD/6-311G SCF=XQC FORCE nosym pop=full guess=read
 -------------------------------------------------------
 1/10=7,30=1,38=1/1,3;
 2/12=2,15=1,17=6,18=5,40=1/2;
 3/5=4,6=6,11=2,25=1,30=1,71=1,74=-58,116=-2/1,2,3;
 4/5=1/1;
 5/5=2,8=3,13=1,38=6/2,8;
 6/7=3,28=1/1;
 7/29=1,30=1/1,2,3,16;
 1/10=7,30=1/3;
 99//99;
 ------------
 MD Step 1000
 ------------
 Symbolic Z-matrix:
 Charge =  0 Multiplicity = 1
 C                    -0.33534  -0.58026   0.00729 
 H                     0.21415  -1.53516  -0.02582 
 H                    -1.42645  -0.5985   -0.02815 
 C                     0.33393   0.57916   0.00615 
 H                    -0.16665   1.56072  -0.03077 
 H                     1.4427    0.63298  -0.02838 
 

 GradGradGradGradGradGradGradGradGradGradGradGradGradGradGradGradGradGrad
 Berny optimization.
 Initialization pass.
 Trust Radius=3.00D-01 FncErr=1.00D-07 GrdErr=1.00D-07 EigMax=2.50D+02 EigMin=1.00D-04
 Number of steps in this run=      2 maximum allowed number of steps=      2.
 GradGradGradGradGradGradGradGradGradGradGradGradGradGradGradGradGradGrad

                          Input orientation:                          
 ---------------------------------------------------------------------
 Center     Atomic      Atomic             Coordinates (Angstroms)
 Number     Number       Type             X           Y           Z
 ---------------------------------------------------------------------
      1          6           0       -0.335339   -0.580255    0.007290
      2          1           0        0.214149   -1.535158   -0.025822
      3          1           0       -1.426454   -0.598504   -0.028151
      4          6           0        0.333931    0.579160    0.006146
      5          1           0       -0.166651    1.560719   -0.030772
      6          1           0        1.442703    0.632980   -0.028384
 ---------------------------------------------------------------------
                    Distance matrix (angstroms):
                    1          2          3          4          5
     1  C    0.000000
     2  H    1.102213   0.000000
     3  H    1.091843   1.889155   0.000000
     4  C    1.338718   2.117949   2.118259   0.000000
     5  H    2.147947   3.119213   2.499871   1.102454   0.000000
     6  H    2.152823   2.492022   3.122277   1.110615   1.857613
                    6
     6  H    0.000000
 Symmetry turned off by external request.
 Stoichiometry    C2H4
 Framework group  C1[X(C2H4)]
 Deg. of freedom    12
 Full point group                 C1      NOp   1
 Rotational constants (GHZ):         142.6966344          29.6633675          24.5683536
 Standard basis: 6-311G (5D, 7F)
    38 basis functions,    72 primitive gaussians,    38 cartesian basis functions
     8 alpha electrons        8 beta electrons
       nuclear repulsion energy        33.0369467889 Hartrees.
 NAtoms=    6 NActive=    6 NUniq=    6 SFac= 1.00D+00 NAtFMM=   60 NAOKFM=F Big=F
 Integral buffers will be    131072 words long.
 Raffenetti 2 integral format.
 Two-electron integral symmetry is turned off.
 Nuclear repulsion after empirical dispersion term =       33.0361034016 Hartrees.
 One-electron integrals computed using PRISM.
 NBasis=    38 RedAO= T EigKep=  6.45D-03  NBF=    38
 NBsUse=    38 1.00D-06 EigRej= -1.00D+00 NBFU=    38
 Initial guess from the checkpoint file:  "geometry.chk"
 B after Tr=    -0.000364   -0.000508   -0.000619
         Rot=    1.000000   -0.000001    0.000003    0.000007 Ang=  -0.00 deg.
 Keep R1 ints in memory in canonical form, NReq=4036876.
 Requested convergence on RMS density matrix=1.00D-08 within  32 cycles.
 Requested convergence on MAX density matrix=1.00D-06.
 Requested convergence on             energy=1.00D-06.
 No special actions if energy rises.
 SCF Done:  E(RwB97XD) =  -78.5559374100     A.U. after    8 cycles
            NFock=  8  Conv=0.80D-08     -V/T= 2.0053
 QCSCF skips out because SCF is already converged.

 **********************************************************************

            Population analysis using the SCF Density.

 **********************************************************************

 Alpha  occ. eigenvalues --  -10.29031 -10.28895  -0.86347  -0.67167  -0.55875
 Alpha  occ. eigenvalues --   -0.50905  -0.43664  -0.35677
 Alpha virt. eigenvalues --    0.07959   0.14069   0.16433   0.16992   0.24075
 Alpha virt. eigenvalues --    0.37540   0.39300   0.39639   0.46429   0.48708
 Alpha virt. eigenvalues --    0.49380   0.59092   0.66524   0.68964   0.77286
 Alpha virt. eigenvalues --    0.77470   0.84175   0.95168   2.23227   2.29008
 Alpha virt. eigenvalues --    2.33160   2.40532   2.67098   2.81731   2.87865
 Alpha virt. eigenvalues --    2.95227   3.13896   3.31709  23.35150  23.70500
     Molecular Orbital Coefficients:
                           1         2         3         4         5
                           O         O         O         O         O
     Eigenvalues --   -10.29031 -10.28895  -0.86347  -0.67167  -0.55875
   1 1   C  1S          0.19130   0.52993  -0.08805   0.06714  -0.00022
   2        2S          0.15764   0.43608  -0.13916   0.10756  -0.00036
   3        2PX         0.00016  -0.00004   0.02634   0.03659   0.13521
   4        2PY         0.00027  -0.00007   0.04658   0.06067  -0.07208
   5        2PZ        -0.00000  -0.00001  -0.00135   0.00209   0.00034
   6        3S          0.00412   0.01399   0.37326  -0.29363   0.00098
   7        3PX        -0.00053   0.00053   0.03457   0.05873   0.21186
   8        3PY        -0.00090   0.00093   0.06071   0.09830  -0.11379
   9        3PZ        -0.00002  -0.00003  -0.00227   0.00375   0.00051
  10        4S          0.00087  -0.01496   0.19154  -0.22959   0.00019
  11        4PX         0.00122  -0.00178   0.00501   0.02386   0.11103
  12        4PY         0.00209  -0.00303   0.00874   0.04074  -0.06030
  13        4PZ         0.00002   0.00008  -0.00083   0.00190   0.00026
  14 2   H  1S         -0.00005  -0.00005   0.05177  -0.08788   0.09938
  15        2S         -0.00028   0.00016   0.05314  -0.10616   0.12625
  16        3S          0.00107   0.00151  -0.00162  -0.01538   0.04090
  17 3   H  1S         -0.00006  -0.00005   0.05276  -0.09110  -0.10269
  18        2S         -0.00028   0.00013   0.05381  -0.10921  -0.12952
  19        3S          0.00110   0.00152  -0.00169  -0.01612  -0.04185
  20 4   C  1S          0.52988  -0.19148  -0.08716  -0.06805  -0.00008
  21        2S          0.43617  -0.15740  -0.13765  -0.10912  -0.00012
  22        2PX        -0.00005  -0.00016  -0.02740   0.03714   0.12046
  23        2PY        -0.00008  -0.00027  -0.04662   0.06614  -0.07543
  24        2PZ        -0.00000   0.00000  -0.00121  -0.00227   0.00033
  25        3S          0.01331  -0.00575   0.36893   0.29816   0.00028
  26        3PX        -0.00008   0.00075  -0.03459   0.06017   0.18889
  27        3PY        -0.00012   0.00129  -0.05895   0.10658  -0.11722
  28        3PZ        -0.00004   0.00000  -0.00208  -0.00407   0.00051
  29        4S         -0.01076   0.01027   0.18965   0.23664  -0.00082
  30        4PX         0.00055  -0.00202  -0.00524   0.02582   0.10291
  31        4PY         0.00094  -0.00354  -0.00903   0.04491  -0.06340
  32        4PZ         0.00007  -0.00003  -0.00083  -0.00208   0.00027
  33 5   H  1S         -0.00007  -0.00003   0.05039   0.09315  -0.09266
  34        2S         -0.00007  -0.00030   0.05158   0.11130  -0.11700
  35        3S          0.00182  -0.00014  -0.00121   0.01669  -0.03764
  36 6   H  1S         -0.00006  -0.00003   0.04950   0.09114   0.08844
  37        2S         -0.00007  -0.00032   0.05102   0.10953   0.11223
  38        3S          0.00178  -0.00016  -0.00124   0.01619   0.03645
                           6         7         8         9        10
                           O         O         O         V         V
     Eigenvalues --    -0.50905  -0.43664  -0.35677   0.07959   0.14069
   1 1   C  1S         -0.00430   0.00022  -0.00103   0.00296  -0.03403
   2        2S         -0.00652   0.00038  -0.00168   0.00490  -0.05460
   3        2PX         0.09368  -0.11332  -0.00381   0.00176  -0.03148
   4        2PY         0.16792   0.06694  -0.00626   0.00266  -0.06525
   5        2PZ         0.00558  -0.00010   0.17934  -0.18912  -0.00280
   6        3S          0.02382  -0.00095   0.00490  -0.01483   0.11923
   7        3PX         0.13633  -0.18117  -0.00539   0.00265  -0.03687
   8        3PY         0.24587   0.10726  -0.00880   0.00399  -0.08037
   9        3PZ         0.00885  -0.00013   0.28804  -0.27782  -0.00443
  10        4S         -0.04971  -0.00306   0.00756  -0.01673   1.22613
  11        4PX         0.06889  -0.11293  -0.00436   0.01438  -0.19659
  12        4PY         0.12541   0.06785  -0.00710   0.02294  -0.39347
  13        4PZ         0.00504  -0.00003   0.26719  -0.69453  -0.01614
  14 2   H  1S         -0.08042  -0.11689   0.00018   0.00456  -0.01723
  15        2S         -0.11148  -0.18124   0.00219   0.00721  -0.04803
  16        3S         -0.04181  -0.08402   0.00131   0.01931  -0.84398
  17 3   H  1S         -0.07860   0.11450   0.00013   0.00457  -0.01338
  18        2S         -0.10837   0.17697   0.00212   0.00741  -0.03863
  19        3S         -0.04030   0.08195   0.00127   0.01926  -0.77879
  20 4   C  1S         -0.00767  -0.00045  -0.00095  -0.00292  -0.03571
  21        2S         -0.01197  -0.00076  -0.00154  -0.00484  -0.05733
  22        2PX        -0.09864   0.12249   0.00354   0.00170   0.04091
  23        2PY        -0.16227  -0.07221   0.00667   0.00337   0.06093
  24        2PZ         0.00583   0.00030   0.17915   0.18935  -0.00320
  25        3S          0.03922   0.00220   0.00455   0.01453   0.12632
  26        3PX        -0.14586   0.19608   0.00493   0.00259   0.05050
  27        3PY        -0.23831  -0.11511   0.00939   0.00514   0.07257
  28        3PZ         0.00922   0.00045   0.28696   0.27773  -0.00488
  29        4S         -0.03260   0.00277   0.00722   0.01693   1.23623
  30        4PX        -0.07590   0.12493   0.00385   0.01351   0.26043
  31        4PY        -0.12271  -0.07229   0.00751   0.02537   0.40250
  32        4PZ         0.00533   0.00026   0.26739   0.69520  -0.01903
  33 5   H  1S         -0.07484  -0.12283   0.00022  -0.00447  -0.01238
  34        2S         -0.10247  -0.19129   0.00232  -0.00746  -0.03775
  35        3S         -0.03829  -0.08963   0.00129  -0.01927  -0.80974
  36 6   H  1S         -0.08022   0.12277   0.00015  -0.00448  -0.01601
  37        2S         -0.11029   0.19194   0.00222  -0.00740  -0.04712
  38        3S         -0.04142   0.08986   0.00123  -0.01942  -0.87548
                          11        12        13        14        15
                           V         V         V         V         V
     Eigenvalues --     0.16433   0.16992   0.24075   0.37540   0.39300
   1 1   C  1S          0.00135  -0.04499  -0.00004   0.01160   0.00237
   2        2S          0.00217  -0.07330  -0.00006   0.01663   0.00412
   3        2PX         0.09888  -0.02003   0.10005  -0.03806  -0.02725
   4        2PY        -0.05389  -0.03744  -0.05742  -0.06971   0.00664
   5        2PZ         0.00026  -0.00723   0.00011  -0.00511  -0.00018
   6        3S         -0.00466   0.16549   0.00020   0.02529  -0.01009
   7        3PX         0.14153  -0.01188   0.10730  -0.05321  -0.11587
   8        3PY        -0.07833  -0.02537  -0.06236  -0.10153   0.03262
   9        3PZ         0.00036  -0.01000   0.00006  -0.00992   0.00009
  10        4S         -0.05850   1.41464  -0.00551  -2.85678  -0.34126
  11        4PX         0.57942  -0.11693   1.16070  -1.59119  -0.52150
  12        4PY        -0.30753  -0.20374  -0.65801  -2.78104   0.15967
  13        4PZ         0.00165  -0.04712   0.00174  -0.04714  -0.00233
  14 2   H  1S         -0.02968  -0.02582   0.01183  -0.05298   0.07944
  15        2S         -0.07866  -0.01868  -0.02506  -0.60758   0.83171
  16        3S         -1.01723  -0.99151  -1.53635  -0.34649  -0.37666
  17 3   H  1S          0.02953  -0.02526  -0.01370  -0.04619  -0.07414
  18        2S          0.07853  -0.02178   0.02030  -0.55637  -0.71924
  19        3S          1.09391  -0.99544   1.55359  -0.41266   0.26949
  20 4   C  1S          0.00117   0.04310  -0.00000  -0.01946   0.00041
  21        2S          0.00186   0.07017  -0.00002  -0.03155   0.00117
  22        2PX         0.09991  -0.02259  -0.10050  -0.04262  -0.02969
  23        2PY        -0.06091  -0.03771   0.05757  -0.07476   0.01322
  24        2PZ         0.00026   0.00720  -0.00011   0.00411   0.00059
  25        3S         -0.00367  -0.15647   0.00027   0.03242  -0.01277
  26        3PX         0.14381  -0.01728  -0.11294  -0.09225  -0.10119
  27        3PY        -0.08663  -0.02700   0.06373  -0.16464   0.06734
  28        3PZ         0.00037   0.00995  -0.00008   0.00567   0.00143
  29        4S         -0.05689  -1.35944   0.00062   3.40430   0.16536
  30        4PX         0.53974  -0.11426  -1.12730  -1.28947  -0.63553
  31        4PY        -0.33440  -0.20290   0.65869  -2.25556  -0.03950
  32        4PZ         0.00157   0.04672  -0.00176   0.04004   0.00478
  33 5   H  1S          0.03105   0.02497   0.00768   0.01497  -0.07504
  34        2S          0.07088   0.02244  -0.03063   0.12917  -0.71081
  35        3S          1.07816   0.95918  -1.52770   0.46699   0.45003
  36 6   H  1S         -0.03117   0.02550  -0.00632   0.01134   0.08922
  37        2S         -0.07118   0.01963   0.03181   0.09343   0.93636
  38        3S         -1.00319   0.95288   1.51870   0.47284  -0.41621
                          16        17        18        19        20
                           V         V         V         V         V
     Eigenvalues --     0.39639   0.46429   0.48708   0.49380   0.59092
   1 1   C  1S         -0.01661   0.00995   0.04789   0.00059  -0.00064
   2        2S         -0.02961   0.02475   0.08066   0.00128  -0.00116
   3        2PX         0.01972  -0.06013  -0.01535   0.00119   0.00237
   4        2PY         0.04189  -0.10577  -0.02277   0.00157   0.00348
   5        2PZ        -0.00023  -0.00065  -0.00235  -0.15211  -0.19245
   6        3S          0.07740  -0.33141  -0.11893  -0.01198   0.00011
   7        3PX         0.08397  -0.24133   0.01731   0.00179   0.00804
   8        3PY         0.18155  -0.42233   0.03706   0.00120   0.01175
   9        3PZ        -0.00521  -0.00479  -0.01213  -0.62917  -0.68421
  10        4S          2.23791   0.20985  -3.14465   0.03492   0.07233
  11        4PX         0.00471   0.26378  -0.80335   0.01431   0.02147
  12        4PY         0.13895   0.47648  -1.37845   0.02732   0.04114
  13        4PZ        -0.00411  -0.00197   0.08004   0.68764   1.23962
  14 2   H  1S         -0.02372  -0.03959   0.07464  -0.00125  -0.00178
  15        2S         -0.51147  -0.37984   0.89591  -0.00826  -0.01174
  16        3S          0.22666   0.11160  -0.64196   0.01929   0.02512
  17 3   H  1S         -0.04414  -0.04048   0.07328  -0.00122  -0.00175
  18        2S         -0.71208  -0.38800   0.87021  -0.00816  -0.01136
  19        3S          0.29424   0.10897  -0.62026   0.01905   0.02471
  20 4   C  1S         -0.00352   0.00003  -0.05070   0.00225   0.00071
  21        2S         -0.00925   0.00786  -0.08759   0.00414   0.00132
  22        2PX         0.00266   0.05695  -0.02520  -0.00039   0.00209
  23        2PY         0.01189   0.09715  -0.04497  -0.00107   0.00420
  24        2PZ        -0.00364  -0.00160  -0.00257  -0.15259   0.19232
  25        3S          0.08038  -0.29839   0.20824  -0.01817  -0.00193
  26        3PX        -0.05964   0.24092  -0.04146  -0.00068   0.00721
  27        3PY        -0.07182   0.41506  -0.07160  -0.00291   0.01453
  28        3PZ        -0.01093  -0.00693  -0.00812  -0.63099   0.68281
  29        4S         -0.40265   0.64548   3.14465  -0.05770  -0.06699
  30        4PX         1.02568  -0.33962  -0.66373   0.00403   0.02468
  31        4PY         1.94985  -0.57946  -1.14427   0.00775   0.03847
  32        4PZ        -0.03250  -0.01530  -0.05403   0.69261  -1.23797
  33 5   H  1S         -0.05670  -0.05864  -0.06709   0.00125   0.00174
  34        2S         -0.91355  -0.58688  -0.82867   0.02171   0.00803
  35        3S         -0.08139   0.23787   0.57667   0.00047  -0.02477
  36 6   H  1S         -0.03565  -0.05861  -0.06659   0.00125   0.00174
  37        2S         -0.68836  -0.58716  -0.82547   0.02131   0.00774
  38        3S         -0.17147   0.25420   0.58845  -0.00011  -0.02500
                          21        22        23        24        25
                           V         V         V         V         V
     Eigenvalues --     0.66524   0.68964   0.77286   0.77470   0.84175
   1 1   C  1S          0.00077  -0.00050   0.06385   0.06224   0.00078
   2        2S          0.00162  -0.00108   0.13504   0.13290   0.00187
   3        2PX        -0.13705   0.19464  -0.00551   0.11685  -0.00889
   4        2PY         0.07957  -0.11643  -0.01033   0.19158   0.01455
   5        2PZ        -0.00019   0.00028   0.00157   0.00506   0.00011
   6        3S         -0.01354   0.01288  -0.96596  -1.18713  -0.02335
   7        3PX        -0.63181   0.67396  -0.09643   0.46972  -0.22808
   8        3PY         0.36329  -0.40426  -0.16969   0.76041   0.16919
   9        3PZ        -0.00094   0.00100   0.00566   0.01773   0.00016
  10        4S          0.02054  -0.04239   1.17926   2.29527   0.04165
  11        4PX         1.12678  -0.73146   0.05467  -0.78235   4.46181
  12        4PY        -0.64758   0.46160   0.03172  -1.03160  -2.52033
  13        4PZ         0.00133   0.00075  -0.00058  -0.06045   0.00767
  14 2   H  1S          0.02428  -0.05850   0.01643   0.03015  -0.02521
  15        2S          0.13642  -0.62702   0.07933   0.07653  -1.53148
  16        3S         -1.05682   1.07734  -0.29121  -1.05958  -1.20532
  17 3   H  1S         -0.02347   0.05794   0.01665   0.03068   0.02874
  18        2S         -0.14939   0.65016   0.10640   0.03281   1.56695
  19        3S          1.04887  -1.03552  -0.28980  -1.20248   1.20060
  20 4   C  1S          0.00097  -0.00012   0.08828   0.01543   0.00045
  21        2S          0.00199  -0.00022   0.18778   0.03201   0.00081
  22        2PX        -0.14725  -0.18899  -0.08525   0.06905   0.01358
  23        2PY         0.08469   0.10524  -0.15364   0.12629   0.00080
  24        2PZ        -0.00020  -0.00030   0.00524  -0.00206  -0.00013
  25        3S         -0.01503  -0.00296  -1.53588  -0.09587   0.00093
  26        3PX        -0.66802  -0.64231  -0.29344   0.33493   0.24965
  27        3PY         0.38695   0.35531  -0.53572   0.61396  -0.10322
  28        3PZ        -0.00099  -0.00100   0.01843  -0.00754  -0.00014
  29        4S          0.01233   0.02397   2.63004  -0.37435  -0.05564
  30        4PX         1.24498   0.74099   0.45213  -0.31252  -4.21613
  31        4PY        -0.71915  -0.39106   0.89013  -0.83307   2.44084
  32        4PZ         0.00180  -0.00055  -0.05096   0.03726  -0.00706
  33 5   H  1S         -0.02449  -0.05607   0.03458  -0.00354  -0.02420
  34        2S         -0.14031  -0.58758   0.08627   0.06776  -1.44186
  35        3S          1.09620   0.99152  -1.09978   0.49971  -1.11766
  36 6   H  1S          0.02521   0.05625   0.03422  -0.00315   0.02318
  37        2S          0.13407   0.56470   0.08717   0.00441   1.42587
  38        3S         -1.09899  -1.02048  -1.03367   0.40788   1.13121
                          26        27        28        29        30
                           V         V         V         V         V
     Eigenvalues --     0.95168   2.23227   2.29008   2.33160   2.40532
   1 1   C  1S          0.09547  -0.00998  -0.01390   0.00029  -0.00040
   2        2S          0.19834   0.00165  -0.01369   0.00064  -0.00053
   3        2PX        -0.09133  -0.08764  -0.13168   0.34046  -0.40974
   4        2PY        -0.15810  -0.16245  -0.22895  -0.19380   0.22935
   5        2PZ         0.00008  -0.01461  -0.01957   0.00032  -0.00103
   6        3S         -1.53771  -0.18371  -0.03440  -0.00061  -0.00353
   7        3PX        -0.23186   0.09095   0.21027  -0.41202   0.57319
   8        3PY        -0.39442   0.17950   0.37752   0.23687  -0.32138
   9        3PZ        -0.00292   0.01483   0.02461  -0.00027   0.00124
  10        4S          5.71689  -0.11109  -0.88452  -0.00303  -0.00220
  11        4PX         1.20221   0.04523  -0.18593  -0.02152   0.95316
  12        4PY         1.98082   0.06123  -0.35898   0.00245  -0.52002
  13        4PZ        -0.01898   0.00333   0.00834  -0.00020   0.00233
  14 2   H  1S          0.01602  -0.72300  -0.77540  -0.70885   0.65589
  15        2S         -0.29621   1.03080   1.16189   1.08171  -1.44959
  16        3S         -0.09433  -0.31383  -0.46824  -0.48022   0.38218
  17 3   H  1S          0.01647  -0.71402  -0.77755   0.69892  -0.67301
  18        2S         -0.26590   1.01862   1.17247  -1.06941   1.48672
  19        3S         -0.07058  -0.29533  -0.45389   0.46924  -0.37317
  20 4   C  1S         -0.09428  -0.01034   0.01250   0.00044   0.00025
  21        2S         -0.19562   0.00045   0.01251   0.00057   0.00054
  22        2PX        -0.09193   0.12632  -0.12781   0.31017   0.41391
  23        2PY        -0.15894   0.21855  -0.21140  -0.18100  -0.24131
  24        2PZ         0.00022  -0.01611   0.01930   0.00071   0.00066
  25        3S          1.51407  -0.17209   0.02098   0.00094  -0.00031
  26        3PX        -0.22571  -0.15802   0.21733  -0.38441  -0.57924
  27        3PY        -0.39564  -0.26888   0.35493   0.22248   0.33912
  28        3PZ         0.00368   0.01715  -0.02460  -0.00080  -0.00091
  29        4S         -5.70300  -0.15979   0.88761   0.01594  -0.00959
  30        4PX         1.10420  -0.01835  -0.20777   0.08673  -0.86427
  31        4PY         1.99878  -0.03806  -0.32411  -0.04967   0.51593
  32        4PZ         0.01522   0.00489  -0.00724  -0.00005  -0.00212
  33 5   H  1S         -0.01768  -0.77699   0.69264   0.70493   0.68468
  34        2S          0.28458   1.12427  -1.05633  -1.03225  -1.46423
  35        3S          0.06128  -0.34617   0.41002   0.50230   0.41823
  36 6   H  1S         -0.01755  -0.77327   0.71400  -0.68811  -0.68378
  37        2S          0.31049   1.11743  -1.08015   1.00506   1.45527
  38        3S          0.07754  -0.34812   0.43888  -0.49666  -0.42713
                          31        32        33        34        35
                           V         V         V         V         V
     Eigenvalues --     2.67098   2.81731   2.87865   2.95227   3.13896
   1 1   C  1S          0.00053   0.00274  -0.01342  -0.00003  -0.00921
   2        2S          0.00041   0.00802  -0.04479  -0.00038  -0.02835
   3        2PX         0.00656   0.07754  -0.45492  -0.74021   0.46305
   4        2PY         0.00900   0.13627  -0.82982   0.41968   0.80105
   5        2PZ        -0.92452  -0.92766  -0.15125  -0.00186   0.00818
   6        3S         -0.00165  -0.06679   0.39420   0.00525   0.23934
   7        3PX        -0.00528  -0.13547   0.81621   0.88962  -0.45706
   8        3PY        -0.00693  -0.23640   1.45915  -0.49057  -0.78671
   9        3PZ         0.93991   1.13376   0.18999   0.00243  -0.01038
  10        4S          0.01405   0.15279  -0.87440  -0.01277  -0.46447
  11        4PX        -0.00156   0.10944  -0.70599  -0.67289   0.24170
  12        4PY        -0.00254   0.19221  -1.26019   0.35921   0.40978
  13        4PZ        -0.33842  -0.61323  -0.12059  -0.00189   0.00669
  14 2   H  1S          0.01308  -0.02315   0.26884  -0.38573  -0.21845
  15        2S         -0.01515   0.01570  -0.22885   0.39847   0.16591
  16        3S         -0.00280   0.04389  -0.29484   0.26459   0.06637
  17 3   H  1S          0.01331  -0.02282   0.26049   0.38604  -0.22320
  18        2S         -0.01566   0.01452  -0.21501  -0.39554   0.16985
  19        3S         -0.00316   0.04367  -0.29233  -0.27961   0.07792
  20 4   C  1S          0.00056  -0.00271   0.01355   0.00044  -0.00774
  21        2S          0.00054  -0.00827   0.04713   0.00102  -0.02404
  22        2PX        -0.00710   0.07195  -0.42288  -0.79541  -0.49111
  23        2PY        -0.01441   0.12810  -0.74332   0.43653  -0.87679
  24        2PZ        -0.92477   0.92675   0.15439  -0.00013   0.01336
  25        3S         -0.00297   0.07047  -0.42163  -0.00744   0.20568
  26        3PX         0.00725  -0.12968   0.78449   0.94892   0.51632
  27        3PY         0.01449  -0.22912   1.37415  -0.51453   0.93164
  28        3PZ         0.94035  -1.13271  -0.19427   0.00015  -0.01690
  29        4S          0.01688  -0.15459   0.89071   0.02318  -0.39189
  30        4PX        -0.00031   0.10948  -0.71121  -0.69257  -0.30339
  31        4PY        -0.00169   0.19123  -1.23774   0.37334  -0.55621
  32        4PZ        -0.33866   0.61249   0.12389  -0.00018   0.01288
  33 5   H  1S          0.01279   0.02818  -0.28897   0.40988  -0.25750
  34        2S         -0.01558  -0.02199   0.25937  -0.42046   0.20127
  35        3S         -0.00180  -0.04185   0.28418  -0.24975   0.11750
  36 6   H  1S          0.01290   0.02803  -0.28417  -0.42258  -0.24212
  37        2S         -0.01606  -0.02255   0.25835   0.43225   0.18772
  38        3S         -0.00144  -0.04063   0.27364   0.25187   0.10610
                          36        37        38
                           V         V         V
     Eigenvalues --     3.31709  23.35150  23.70500
   1 1   C  1S         -0.00021  -1.42134  -1.44505
   2        2S         -0.00020   1.51585   1.56265
   3        2PX         0.77540  -0.00647   0.01224
   4        2PY        -0.43068  -0.01069   0.02135
   5        2PZ         0.00166  -0.00059  -0.00024
   6        3S         -0.00260  -0.29755  -0.39755
   7        3PX        -1.10695   0.02367  -0.05581
   8        3PY         0.60962   0.03960  -0.09684
   9        3PZ        -0.00248   0.00167   0.00070
  10        4S          0.00955   0.27555   0.76669
  11        4PX         1.94072  -0.02521   0.13386
  12        4PY        -1.06422  -0.04315   0.22865
  13        4PZ         0.00422  -0.00277  -0.00312
  14 2   H  1S          0.54553   0.01271   0.00636
  15        2S         -0.84905   0.00786  -0.01466
  16        3S         -0.44846  -0.08349  -0.03942
  17 3   H  1S         -0.55605   0.01420   0.00712
  18        2S          0.86425   0.00777  -0.01406
  19        3S          0.47348  -0.08544  -0.03878
  20 4   C  1S         -0.00001  -1.44027   1.42609
  21        2S         -0.00032   1.53607  -1.54219
  22        2PX        -0.72094   0.00609   0.01256
  23        2PY         0.41689   0.01093   0.02151
  24        2PZ        -0.00145  -0.00060   0.00017
  25        3S          0.00571  -0.30132   0.39232
  26        3PX         1.02432  -0.02245  -0.05625
  27        3PY        -0.60186  -0.03991  -0.09701
  28        3PZ         0.00217   0.00173  -0.00046
  29        4S         -0.02836   0.27751  -0.76184
  30        4PX        -1.79536   0.02391   0.13041
  31        4PY         1.06762   0.04335   0.22799
  32        4PZ        -0.00381  -0.00284   0.00261
  33 5   H  1S          0.49994   0.01335  -0.00506
  34        2S         -0.77866   0.00813   0.01352
  35        3S         -0.43676  -0.08363   0.03748
  36 6   H  1S         -0.49509   0.01215  -0.00426
  37        2S          0.77250   0.00889   0.01373
  38        3S          0.42327  -0.08180   0.03776
     Density Matrix:
                           1         2         3         4         5
   1 1   C  1S          0.65941
   2        2S          0.56150   0.49198
   3        2PX        -0.00062  -0.00084   0.08389
   4        2PY        -0.00140  -0.00195   0.00374   0.08753
   5        2PZ         0.00009   0.00015  -0.00013  -0.00030   0.06440
   6        3S         -0.08897  -0.15387   0.00309   0.00681  -0.00021
   7        3PX         0.00082   0.00125   0.13005   0.00140  -0.00008
   8        3PY         0.00115   0.00177   0.00144   0.13103  -0.00026
   9        3PZ         0.00019   0.00032  -0.00022  -0.00048   0.10344
  10        4S         -0.07967  -0.11485  -0.01533  -0.02724   0.00068
  11        4PX         0.00022   0.00152   0.07057  -0.00458  -0.00061
  12        4PY         0.00051   0.00283  -0.00469   0.06574  -0.00105
  13        4PZ        -0.00010  -0.00024  -0.00092  -0.00154   0.09590
  14 2   H  1S         -0.02039  -0.03248   0.03460  -0.06283  -0.00125
  15        2S         -0.02273  -0.03636   0.04935  -0.08786  -0.00093
  16        3S          0.00053  -0.00076   0.02105  -0.03322  -0.00001
  17 3   H  1S         -0.02083  -0.03316  -0.07234  -0.00240  -0.00145
  18        2S         -0.02305  -0.03681  -0.10061  -0.00229  -0.00117
  19        3S          0.00057  -0.00071  -0.03872   0.00134  -0.00010
  20 4   C  1S          0.00607   0.00977  -0.01074  -0.01868  -0.00047
  21        2S          0.00975   0.01523  -0.01718  -0.02989  -0.00077
  22        2PX         0.01047   0.01674  -0.01242  -0.03218   0.00045
  23        2PY         0.01816   0.02903  -0.03210  -0.04969   0.00095
  24        2PZ        -0.00051  -0.00083  -0.00048  -0.00068   0.06432
  25        3S         -0.02628  -0.03988   0.04815   0.08393   0.00232
  26        3PX         0.01617   0.02509  -0.01815  -0.04595   0.00057
  27        3PY         0.02805   0.04349  -0.04564  -0.07122   0.00126
  28        3PZ        -0.00087  -0.00139  -0.00083  -0.00120   0.10302
  29        4S          0.00542   0.00409   0.02029   0.03582   0.00270
  30        4PX         0.00312   0.00642  -0.01312  -0.02101   0.00070
  31        4PY         0.00526   0.01094  -0.02099  -0.03723   0.00151
  32        4PZ        -0.00074  -0.00119  -0.00122  -0.00189   0.09596
  33 5   H  1S          0.00421   0.00692  -0.00177  -0.01223  -0.00054
  34        2S          0.00636   0.01057   0.00336  -0.02488  -0.00003
  35        3S          0.00330   0.00483   0.00411  -0.01754   0.00010
  36 6   H  1S          0.00417   0.00686  -0.00967  -0.00759  -0.00056
  37        2S          0.00633   0.01055  -0.02313  -0.00951  -0.00008
  38        3S          0.00329   0.00483  -0.01716  -0.00530   0.00005
                           6         7         8         9        10
   6        3S          0.45269
   7        3PX        -0.00147   0.20193
   8        3PY        -0.00119  -0.00420   0.19667
   9        3PZ        -0.00065  -0.00015  -0.00040   0.16613
  10        4S          0.27511  -0.02619  -0.04719   0.00088   0.18432
  11        4PX        -0.00664   0.10994  -0.01025  -0.00100  -0.01516
  12        4PY        -0.01181  -0.01048   0.09914  -0.00168  -0.02828
  13        4PZ         0.00113  -0.00122  -0.00202   0.15403   0.00235
  14 2   H  1S          0.08684   0.05579  -0.09824  -0.00208   0.06893
  15        2S          0.09732   0.07995  -0.13689  -0.00158   0.08137
  16        3S          0.00613   0.03444  -0.05114  -0.00003   0.01110
  17 3   H  1S          0.08872  -0.11349  -0.00223  -0.00238   0.06912
  18        2S          0.09857  -0.15768  -0.00082  -0.00194   0.08043
  19        3S          0.00612  -0.06044   0.00389  -0.00016   0.01022
  20 4   C  1S         -0.02647  -0.01673  -0.02910  -0.00080   0.00526
  21        2S         -0.04008  -0.02598  -0.04524  -0.00130   0.00401
  22        2PX        -0.04693  -0.01781  -0.04573   0.00078  -0.01839
  23        2PY        -0.08133  -0.04556  -0.07090   0.00162  -0.03158
  24        2PZ         0.00247  -0.00066  -0.00089   0.10330   0.00271
  25        3S          0.10218   0.07047   0.12300   0.00387   0.00077
  26        3PX        -0.06804  -0.02616  -0.06511   0.00101  -0.02745
  27        3PY        -0.11783  -0.06459  -0.10157   0.00217  -0.04706
  28        3PZ         0.00409  -0.00115  -0.00159   0.16545   0.00449
  29        4S          0.00132   0.03061   0.05421   0.00449  -0.03300
  30        4PX        -0.02274  -0.01973  -0.02958   0.00116  -0.00692
  31        4PY        -0.03896  -0.02956  -0.05383   0.00249  -0.01124
  32        4PZ         0.00348  -0.00171  -0.00260   0.15412   0.00415
  33 5   H  1S         -0.02060  -0.00074  -0.01764  -0.00079  -0.01531
  34        2S         -0.03159   0.00841  -0.03670   0.00005  -0.01999
  35        3S         -0.01241   0.00795  -0.02639   0.00018  -0.00376
  36 6   H  1S         -0.02044  -0.01476  -0.00931  -0.00081  -0.01562
  37        2S         -0.03161  -0.03570  -0.01091  -0.00002  -0.02087
  38        3S         -0.01249  -0.02661  -0.00638   0.00011  -0.00430
                          11        12        13        14        15
  11        4PX         0.06089
  12        4PY        -0.00933   0.05154
  13        4PZ        -0.00149  -0.00242   0.14284
  14 2   H  1S          0.03372  -0.05428  -0.00107   0.08082
  15        2S          0.04906  -0.07554  -0.00037   0.10956   0.15063
  16        3S          0.02153  -0.02813   0.00025   0.03703   0.05321
  17 3   H  1S         -0.06332   0.00170  -0.00122  -0.01306  -0.02496
  18        2S         -0.08835   0.00446  -0.00054  -0.02492  -0.04377
  19        3S         -0.03416   0.00469   0.00019  -0.01834  -0.02804
  20 4   C  1S         -0.00311  -0.00566  -0.00071   0.00422   0.00668
  21        2S         -0.00645  -0.01160  -0.00114   0.00697   0.01115
  22        2PX        -0.01304  -0.02015   0.00113   0.00181  -0.00277
  23        2PY        -0.02016  -0.03692   0.00222   0.01154   0.02434
  24        2PZ        -0.00087  -0.00129   0.09579  -0.00060  -0.00019
  25        3S          0.02290   0.04088   0.00335  -0.02097  -0.03356
  26        3PX        -0.01996  -0.02853   0.00154   0.00101  -0.00729
  27        3PY        -0.02846  -0.05375   0.00307   0.01711   0.03641
  28        3PZ        -0.00144  -0.00213   0.15342  -0.00088  -0.00019
  29        4S          0.00777   0.01469   0.00412  -0.01752  -0.02399
  30        4PX        -0.01467  -0.01252   0.00144  -0.00162  -0.00840
  31        4PY        -0.01265  -0.02952   0.00293   0.01521   0.02709
  32        4PZ        -0.00170  -0.00264   0.14294  -0.00049   0.00031
  33 5   H  1S          0.00180  -0.01580  -0.00040   0.01118   0.02339
  34        2S          0.00892  -0.02761   0.00050   0.02373   0.04451
  35        3S          0.00739  -0.01590   0.00035   0.01657   0.02786
  36 6   H  1S         -0.01430  -0.00584  -0.00042  -0.00911  -0.01837
  37        2S         -0.02791  -0.00536   0.00045  -0.01879  -0.03447
  38        3S         -0.01716  -0.00130   0.00031  -0.01008  -0.01770
                          16        17        18        19        20
  16        3S          0.02145
  17 3   H  1S         -0.01844   0.08184
  18        2S         -0.02808   0.10974   0.14933
  19        3S         -0.01331   0.03646   0.05193   0.02072
  20 4   C  1S          0.00364   0.00428   0.00666   0.00362   0.65946
  21        2S          0.00538   0.00705   0.01109   0.00531   0.56155
  22        2PX        -0.00353   0.00916   0.02248   0.01685   0.00111
  23        2PY         0.01767   0.00749   0.00971   0.00560   0.00170
  24        2PZ         0.00003  -0.00059  -0.00012   0.00008   0.00009
  25        3S         -0.01397  -0.02112  -0.03320  -0.01366  -0.08920
  26        3PX        -0.00702   0.01443   0.03524   0.02628  -0.00052
  27        3PY         0.02662   0.00954   0.01169   0.00694  -0.00109
  28        3PZ         0.00008  -0.00086  -0.00009   0.00015   0.00019
  29        4S         -0.00567  -0.01718  -0.02298  -0.00509  -0.08012
  30        4PX        -0.00700   0.01415   0.02782   0.01717  -0.00022
  31        4PY         0.01588   0.00662   0.00668   0.00194  -0.00024
  32        4PZ         0.00030  -0.00048   0.00037   0.00034  -0.00007
  33 5   H  1S          0.01629  -0.00899  -0.01817  -0.00952  -0.02025
  34        2S          0.02756  -0.01851  -0.03394  -0.01706  -0.02234
  35        3S          0.01468  -0.00994  -0.01744  -0.00898   0.00059
  36 6   H  1S         -0.00965   0.01118   0.02335   0.01608  -0.01998
  37        2S         -0.01738   0.02367   0.04434   0.02726  -0.02226
  38        3S         -0.00914   0.01652   0.02767   0.01450   0.00051
                          21        22        23        24        25
  21        2S          0.49204
  22        2PX         0.00158   0.08277
  23        2PY         0.00241   0.00366   0.08766
  24        2PZ         0.00013   0.00017   0.00022   0.06427
  25        3S         -0.15418  -0.00517  -0.00799  -0.00015   0.45356
  26        3PX        -0.00078   0.12872   0.00177   0.00012  -0.00008
  27        3PY        -0.00166   0.00178   0.13137   0.00010   0.00086
  28        3PZ         0.00032   0.00025   0.00035   0.10295  -0.00062
  29        4S         -0.11572   0.01415   0.02402   0.00068   0.27816
  30        4PX        -0.00148   0.07261  -0.00498   0.00053   0.00625
  31        4PY        -0.00234  -0.00489   0.06671   0.00099   0.01027
  32        4PZ        -0.00020   0.00086   0.00156   0.09588   0.00101
  33 5   H  1S         -0.03226  -0.03349   0.06363  -0.00147   0.08627
  34        2S         -0.03570  -0.04938   0.08848  -0.00118   0.09551
  35        3S         -0.00062  -0.02216   0.03339  -0.00014   0.00570
  36 6   H  1S         -0.03185   0.07127   0.00240  -0.00128   0.08517
  37        2S         -0.03560   0.10117   0.00090  -0.00092   0.09524
  38        3S         -0.00075   0.04025  -0.00276  -0.00004   0.00597
                          26        27        28        29        30
  26        3PX         0.20049
  27        3PY        -0.00291   0.19741
  28        3PZ         0.00017   0.00015   0.16490
  29        4S          0.02573   0.04334   0.00083   0.18662
  30        4PX         0.11352  -0.01052   0.00084   0.01571   0.06535
  31        4PY        -0.01040   0.10076   0.00159   0.02555  -0.01000
  32        4PZ         0.00109   0.00201   0.15358   0.00222   0.00127
  33 5   H  1S         -0.05362   0.09959  -0.00242   0.06756  -0.03412
  34        2S         -0.07947   0.13799  -0.00197   0.07808  -0.05110
  35        3S         -0.03609   0.05143  -0.00022   0.00948  -0.02344
  36 6   H  1S          0.11250   0.00283  -0.00214   0.06768   0.06525
  37        2S          0.15952  -0.00057  -0.00158   0.07929   0.09294
  38        3S          0.06314  -0.00587  -0.00007   0.01031   0.03711
                          31        32        33        34        35
  31        4PY         0.05294
  32        4PZ         0.00246   0.14307
  33 5   H  1S          0.05533  -0.00126   0.08098
  34        2S          0.07674  -0.00056   0.10995   0.15167
  35        3S          0.02867   0.00015   0.03771   0.05454   0.02240
  36 6   H  1S         -0.00198  -0.00112  -0.01257  -0.02583  -0.01960
  37        2S         -0.00596  -0.00037  -0.02590  -0.04744  -0.03087
  38        3S         -0.00595   0.00022  -0.01974  -0.03094  -0.01513
                          36        37        38
  36 6   H  1S          0.08017
  37        2S          0.10969   0.15241
  38        3S          0.03799   0.05524   0.02278
    Full Mulliken population analysis:
                           1         2         3         4         5
   1 1   C  1S          0.65941
   2        2S          0.49325   0.49198
   3        2PX         0.00000   0.00000   0.08389
   4        2PY         0.00000   0.00000   0.00000   0.08753
   5        2PZ         0.00000   0.00000   0.00000   0.00000   0.06440
   6        3S         -0.02929  -0.06444   0.00000   0.00000   0.00000
   7        3PX         0.00000   0.00000   0.08182   0.00000   0.00000
   8        3PY         0.00000   0.00000   0.00000   0.08243   0.00000
   9        3PZ         0.00000   0.00000   0.00000   0.00000   0.06507
  10        4S         -0.01225  -0.02149   0.00000   0.00000   0.00000
  11        4PX         0.00000   0.00000   0.01554   0.00000   0.00000
  12        4PY         0.00000   0.00000   0.00000   0.01448   0.00000
  13        4PZ         0.00000   0.00000   0.00000   0.00000   0.02112
  14 2   H  1S         -0.00022  -0.00032   0.00174   0.00549   0.00000
  15        2S         -0.00164  -0.00314   0.00426   0.01317   0.00000
  16        3S          0.00004  -0.00007   0.00070   0.00192   0.00000
  17 3   H  1S         -0.00024  -0.00035   0.00764   0.00000   0.00000
  18        2S         -0.00170  -0.00325   0.01762   0.00001   0.00001
  19        3S          0.00004  -0.00007   0.00258  -0.00000   0.00000
  20 4   C  1S          0.00000   0.00000  -0.00002  -0.00006   0.00000
  21        2S          0.00000  -0.00000  -0.00002  -0.00005   0.00000
  22        2PX        -0.00002  -0.00002   0.00011   0.00085   0.00000
  23        2PY        -0.00006  -0.00005   0.00085   0.00196   0.00000
  24        2PZ        -0.00000  -0.00000  -0.00000  -0.00000   0.00041
  25        3S         -0.00059  -0.00099   0.00251   0.00757  -0.00000
  26        3PX        -0.00055  -0.00100   0.00019   0.00555   0.00000
  27        3PY        -0.00164  -0.00301   0.00551   0.01068   0.00000
  28        3PZ        -0.00000  -0.00000  -0.00000  -0.00000   0.00610
  29        4S          0.00034   0.00031   0.00092   0.00282  -0.00000
  30        4PX        -0.00018  -0.00046  -0.00071   0.00146   0.00000
  31        4PY        -0.00053  -0.00135   0.00145   0.00097   0.00000
  32        4PZ        -0.00000  -0.00000  -0.00000  -0.00000   0.00902
  33 5   H  1S          0.00000   0.00000  -0.00000  -0.00000   0.00000
  34        2S          0.00001   0.00002   0.00000  -0.00032   0.00000
  35        3S          0.00008   0.00013   0.00001  -0.00071  -0.00000
  36 6   H  1S          0.00000   0.00000  -0.00000  -0.00000   0.00000
  37        2S          0.00001   0.00002  -0.00024  -0.00007   0.00000
  38        3S          0.00008   0.00013  -0.00057  -0.00012  -0.00000
                           6         7         8         9        10
   6        3S          0.45269
   7        3PX         0.00000   0.20193
   8        3PY         0.00000   0.00000   0.19667
   9        3PZ         0.00000   0.00000   0.00000   0.16613
  10        4S          0.21313   0.00000   0.00000   0.00000   0.18432
  11        4PX         0.00000   0.07184   0.00000   0.00000   0.00000
  12        4PY         0.00000   0.00000   0.06478   0.00000   0.00000
  13        4PZ         0.00000   0.00000   0.00000   0.10065   0.00000
  14 2   H  1S          0.01572   0.01050   0.03212   0.00002   0.01813
  15        2S          0.04063   0.01941   0.05774   0.00002   0.04671
  16        3S          0.00282   0.00400   0.01033   0.00000   0.00836
  17 3   H  1S          0.01652   0.04362   0.00001   0.00003   0.01838
  18        2S          0.04181   0.07721   0.00001   0.00003   0.04655
  19        3S          0.00283   0.01404  -0.00002   0.00000   0.00773
  20 4   C  1S         -0.00059  -0.00056  -0.00170   0.00000   0.00033
  21        2S         -0.00100  -0.00104  -0.00313   0.00000   0.00030
  22        2PX         0.00244   0.00019   0.00552   0.00000   0.00083
  23        2PY         0.00734   0.00550   0.01063   0.00000   0.00248
  24        2PZ         0.00000  -0.00000  -0.00000   0.00612   0.00000
  25        3S          0.02175   0.01319   0.03989  -0.00000   0.00029
  26        3PX         0.01274  -0.00126   0.01857   0.00000   0.00423
  27        3PY         0.03821   0.01842   0.02856   0.00000   0.01256
  28        3PZ         0.00000  -0.00000  -0.00000   0.03522   0.00000
  29        4S          0.00050   0.00472   0.01447  -0.00000  -0.02071
  30        4PX         0.00638  -0.00405   0.00586   0.00000   0.00210
  31        4PY         0.01895   0.00585   0.00128   0.00000   0.00590
  32        4PZ         0.00000  -0.00000  -0.00000   0.04921   0.00000
  33 5   H  1S         -0.00006  -0.00000  -0.00019   0.00000  -0.00083
  34        2S         -0.00124   0.00006  -0.00327  -0.00000  -0.00338
  35        3S         -0.00204   0.00010  -0.00427  -0.00000  -0.00136
  36 6   H  1S         -0.00005  -0.00013  -0.00006   0.00000  -0.00084
  37        2S         -0.00123  -0.00260  -0.00054   0.00000  -0.00351
  38        3S         -0.00204  -0.00355  -0.00058  -0.00000  -0.00155
                          11        12        13        14        15
  11        4PX         0.06089
  12        4PY         0.00000   0.05154
  13        4PZ         0.00000   0.00000   0.14284
  14 2   H  1S          0.00629   0.01759   0.00001   0.08082
  15        2S          0.01542   0.04127   0.00001   0.07739   0.15063
  16        3S          0.00531   0.01206  -0.00000   0.01384   0.04198
  17 3   H  1S          0.02370  -0.00001   0.00001  -0.00001  -0.00066
  18        2S          0.05561  -0.00005   0.00001  -0.00066  -0.00549
  19        3S          0.01682  -0.00004  -0.00000  -0.00205  -0.00817
  20 4   C  1S         -0.00018  -0.00057   0.00000   0.00000   0.00002
  21        2S         -0.00046  -0.00143   0.00000   0.00000   0.00003
  22        2PX        -0.00070   0.00140   0.00000  -0.00000   0.00000
  23        2PY         0.00140   0.00096   0.00000  -0.00000  -0.00035
  24        2PZ        -0.00000  -0.00000   0.00900   0.00000   0.00000
  25        3S          0.00643   0.01989  -0.00000  -0.00007  -0.00144
  26        3PX        -0.00409   0.00565   0.00000  -0.00000   0.00004
  27        3PY         0.00563   0.00127   0.00000  -0.00022  -0.00350
  28        3PZ        -0.00000  -0.00000   0.04899   0.00000   0.00000
  29        4S          0.00235   0.00771  -0.00000  -0.00101  -0.00425
  30        4PX        -0.00706   0.00317   0.00000   0.00001   0.00018
  31        4PY         0.00320  -0.00558   0.00000  -0.00238  -0.01012
  32        4PZ        -0.00000  -0.00000   0.08970   0.00000  -0.00000
  33 5   H  1S          0.00002  -0.00236   0.00000   0.00000   0.00000
  34        2S          0.00025  -0.00997  -0.00000   0.00000   0.00015
  35        3S          0.00027  -0.00736  -0.00000   0.00023   0.00146
  36 6   H  1S         -0.00176  -0.00049   0.00000  -0.00000  -0.00004
  37        2S         -0.00831  -0.00109  -0.00000  -0.00004  -0.00093
  38        3S         -0.00657  -0.00034  -0.00000  -0.00046  -0.00247
                          16        17        18        19        20
  16        3S          0.02145
  17 3   H  1S         -0.00206   0.08184
  18        2S         -0.00819   0.07752   0.14933
  19        3S         -0.00692   0.01362   0.04097   0.02072
  20 4   C  1S          0.00009   0.00000   0.00002   0.00009   0.65946
  21        2S          0.00016   0.00000   0.00003   0.00015   0.49329
  22        2PX         0.00001  -0.00000  -0.00027  -0.00058   0.00000
  23        2PY        -0.00073  -0.00000  -0.00008  -0.00013   0.00000
  24        2PZ        -0.00000   0.00000   0.00000  -0.00000   0.00000
  25        3S         -0.00238  -0.00007  -0.00143  -0.00233  -0.02936
  26        3PX         0.00007  -0.00015  -0.00282  -0.00363   0.00000
  27        3PY        -0.00442  -0.00007  -0.00063  -0.00064   0.00000
  28        3PZ        -0.00000   0.00000   0.00000  -0.00000   0.00000
  29        4S         -0.00211  -0.00099  -0.00407  -0.00190  -0.01232
  30        4PX         0.00019  -0.00185  -0.00865  -0.00672   0.00000
  31        4PY        -0.00746  -0.00058  -0.00139  -0.00051   0.00000
  32        4PZ        -0.00000   0.00000  -0.00000  -0.00000   0.00000
  33 5   H  1S          0.00023  -0.00000  -0.00004  -0.00043  -0.00022
  34        2S          0.00144  -0.00004  -0.00089  -0.00235  -0.00161
  35        3S          0.00246  -0.00045  -0.00241  -0.00285   0.00005
  36 6   H  1S         -0.00044   0.00000   0.00000   0.00022  -0.00021
  37        2S         -0.00243   0.00000   0.00015   0.00142  -0.00157
  38        3S         -0.00293   0.00023   0.00144   0.00243   0.00004
                          21        22        23        24        25
  21        2S          0.49204
  22        2PX         0.00000   0.08277
  23        2PY         0.00000   0.00000   0.08766
  24        2PZ         0.00000   0.00000   0.00000   0.06427
  25        3S         -0.06457   0.00000   0.00000   0.00000   0.45356
  26        3PX         0.00000   0.08098   0.00000   0.00000   0.00000
  27        3PY         0.00000   0.00000   0.08265   0.00000   0.00000
  28        3PZ         0.00000   0.00000   0.00000   0.06477   0.00000
  29        4S         -0.02166   0.00000   0.00000   0.00000   0.21549
  30        4PX         0.00000   0.01599   0.00000   0.00000   0.00000
  31        4PY         0.00000   0.00000   0.01469   0.00000   0.00000
  32        4PZ         0.00000   0.00000   0.00000   0.02112   0.00000
  33 5   H  1S         -0.00031   0.00153   0.00571   0.00000   0.01561
  34        2S         -0.00308   0.00388   0.01363   0.00001   0.03986
  35        3S         -0.00006   0.00067   0.00199   0.00000   0.00262
  36 6   H  1S         -0.00029   0.00692   0.00001   0.00000   0.01507
  37        2S         -0.00301   0.01730   0.00001   0.00000   0.03925
  38        3S         -0.00007   0.00269  -0.00001   0.00000   0.00273
                          26        27        28        29        30
  26        3PX         0.20049
  27        3PY         0.00000   0.19741
  28        3PZ         0.00000   0.00000   0.16490
  29        4S          0.00000   0.00000   0.00000   0.18662
  30        4PX         0.07418   0.00000   0.00000   0.00000   0.06535
  31        4PY         0.00000   0.06584   0.00000   0.00000   0.00000
  32        4PZ         0.00000   0.00000   0.10036   0.00000   0.00000
  33 5   H  1S          0.00918   0.03345   0.00003   0.01777   0.00580
  34        2S          0.01757   0.05981   0.00003   0.04481   0.01463
  35        3S          0.00382   0.01067   0.00000   0.00713   0.00527
  36 6   H  1S          0.04173   0.00005   0.00002   0.01765   0.02435
  37        2S          0.07713  -0.00001   0.00002   0.04521   0.05857
  38        3S          0.01472  -0.00007   0.00000   0.00773   0.01840
                          31        32        33        34        35
  31        4PY         0.05294
  32        4PZ         0.00000   0.14307
  33 5   H  1S          0.01843   0.00002   0.08098
  34        2S          0.04309   0.00001   0.07767   0.15167
  35        3S          0.01264  -0.00000   0.01409   0.04303   0.02240
  36 6   H  1S         -0.00004   0.00001  -0.00001  -0.00076  -0.00228
  37        2S         -0.00018   0.00001  -0.00076  -0.00637  -0.00930
  38        3S         -0.00014  -0.00000  -0.00229  -0.00932  -0.00803
                          36        37        38
  36 6   H  1S          0.08017
  37        2S          0.07749   0.15241
  38        3S          0.01419   0.04358   0.02278
     Gross orbital populations:
                           1
   1 1   C  1S          1.10437
   2        2S          0.88585
   3        2PX         0.22579
   4        2PY         0.23556
   5        2PZ         0.16615
   6        3S          0.79249
   7        3PX         0.55920
   8        3PY         0.55511
   9        3PZ         0.42252
  10        4S          0.50641
  11        4PX         0.26186
  12        4PY         0.21248
  13        4PZ         0.41234
  14 2   H  1S          0.27250
  15        2S          0.46832
  16        3S          0.08730
  17 3   H  1S          0.27563
  18        2S          0.46630
  19        3S          0.08432
  20 4   C  1S          1.10440
  21        2S          0.88584
  22        2PX         0.22249
  23        2PY         0.23604
  24        2PZ         0.16572
  25        3S          0.79246
  26        3PX         0.55332
  27        3PY         0.55653
  28        3PZ         0.42045
  29        4S          0.50752
  30        4PX         0.27221
  31        4PY         0.21499
  32        4PZ         0.41252
  33 5   H  1S          0.27302
  34        2S          0.46903
  35        3S          0.08800
  36 6   H  1S          0.27051
  37        2S          0.47039
  38        3S          0.09005
          Condensed to atoms (all electrons):
               1          2          3          4          5          6
     1  C    5.037525   0.386435   0.387102   0.601471  -0.036404  -0.035992
     2  H    0.386435   0.519307  -0.034190  -0.039677   0.005976  -0.009738
     3  H    0.387102  -0.034190   0.516099  -0.039178  -0.009470   0.005888
     4  C    0.601471  -0.039677  -0.039178   5.053419   0.384441   0.384021
     5  H   -0.036404   0.005976  -0.009470   0.384441   0.524637  -0.039124
     6  H   -0.035992  -0.009738   0.005888   0.384021  -0.039124   0.525889
 Mulliken charges:
               1
     1  C   -0.340138
     2  H    0.171887
     3  H    0.173749
     4  C   -0.344497
     5  H    0.169943
     6  H    0.169056
 Sum of Mulliken charges =  -0.00000
 Mulliken charges with hydrogens summed into heavy atoms:
               1
     1  C    0.005498
     4  C   -0.005498
 Electronic spatial extent (au):  <R**2>=             83.8191
 Charge=             -0.0000 electrons
 Dipole moment (field-independent basis, Debye):
    X=              0.0011    Y=              0.0152    Z=             -0.1160  Tot=              0.1170
 Quadrupole moment (field-independent basis, Debye-Ang):
   XX=            -12.2034   YY=            -12.2254   ZZ=            -15.6792
   XY=              0.0058   XZ=              0.0012   YZ=             -0.0055
 Traceless Quadrupole moment (field-independent basis, Debye-Ang):
   XX=              1.1659   YY=              1.1440   ZZ=             -2.3099
   XY=              0.0058   XZ=              0.0012   YZ=             -0.0055
 Octapole moment (field-independent basis, Debye-Ang**2):
  XXX=             -0.2709  YYY=             -0.0104  ZZZ=             -0.0669  XYY=              0.1141
  XXY=             -0.0430  XXZ=             -0.1550  XZZ=             -0.0759  YZZ=             -0.0555
  YYZ=             -0.2040  XYZ=             -0.0426
 Hexadecapole moment (field-independent basis, Debye-Ang**3):
 XXXX=            -34.3368 YYYY=            -55.2797 ZZZZ=            -17.8318 XXXY=             -7.2401
 XXXZ=              0.0115 YYYX=            -10.7409 YYYZ=              0.0119 ZZZX=              0.0131
 ZZZY=              0.0338 XXYY=            -16.2360 XXZZ=             -9.9475 YYZZ=            -13.6638
 XXYZ=              0.0085 YYXZ=              0.0003 ZZXY=             -3.2050
 N-N= 3.303610340156D+01 E-N=-2.477749329733D+02  KE= 7.814083265837D+01
 Orbital energies and kinetic energies (alpha):
                                 1                 2
   1         O               -10.290314         15.977385
   2         O               -10.288946         15.981340
   3         O                -0.863468          1.537974
   4         O                -0.671674          1.270730
   5         O                -0.558748          0.939831
   6         O                -0.509047          1.282215
   7         O                -0.436637          1.042398
   8         O                -0.356774          1.038545
   9         V                 0.079591          1.182255
  10         V                 0.140689          0.590473
  11         V                 0.164331          0.596054
  12         V                 0.169916          0.681741
  13         V                 0.240749          0.583839
  14         V                 0.375396          0.859085
  15         V                 0.393003          0.930946
  16         V                 0.396389          0.775684
  17         V                 0.464294          1.188600
  18         V                 0.487078          1.428353
  19         V                 0.493799          1.301961
  20         V                 0.590916          1.652572
  21         V                 0.665235          1.570967
  22         V                 0.689644          2.147645
  23         V                 0.772857          2.497145
  24         V                 0.774701          2.244252
  25         V                 0.841748          1.084372
  26         V                 0.951680          3.420257
  27         V                 2.232269          3.922008
  28         V                 2.290082          4.029250
  29         V                 2.331602          4.301462
  30         V                 2.405315          4.513561
  31         V                 2.670976          6.300546
  32         V                 2.817306          6.304597
  33         V                 2.878651          6.137640
  34         V                 2.952265          6.226241
  35         V                 3.138964          6.821856
  36         V                 3.317087          6.403727
  37         V                23.351499         60.074449
  38         V                23.704996         60.203375
 Total kinetic energy from orbitals= 7.814083265837D+01
 Calling FoFJK, ICntrl=      2127 FMM=F ISym2X=0 I1Cent= 0 IOpClX= 0 NMat=1 NMatS=1 NMatT=0.
 -------------------------------------------------------------------
 Center     Atomic                   Forces (Hartrees/Bohr)
 Number     Number              X              Y              Z
 -------------------------------------------------------------------
      1        6           0.010009007    0.004384749   -0.004725933
      2        1          -0.009616949    0.008952425    0.002408474
      3        1           0.006354199   -0.002973056    0.002255291
      4        6           0.006913473    0.004986852   -0.005140347
      5        1           0.002972941   -0.011845922    0.002551338
      6        1          -0.016632671   -0.003505048    0.002651178
 -------------------------------------------------------------------
 Cartesian Forces:  Max     0.016632671 RMS     0.007169363

 GradGradGradGradGradGradGradGradGradGradGradGradGradGradGradGradGradGrad
 Berny optimization.
 Search for a local minimum.
 Step number   1 out of a maximum of    2
 All quantities printed in internal units (Hartrees-Bohrs-Radians)
 Second derivative matrix not updated -- first step.
 The second derivative matrix:
                          X1        Y1        Z1        X2        Y2
           X1           0.74797
           Y1           0.10258   0.85304
           Z1           0.00694   0.01022   0.17083
           X2          -0.16067   0.09357   0.00231   0.13848
           Y2           0.09984  -0.28018  -0.00837  -0.11262   0.26928
           Z2           0.00368  -0.01055  -0.05470  -0.00332   0.00870
           X3          -0.34545  -0.00389  -0.00938  -0.00059  -0.00033
           Y3          -0.01015  -0.10891  -0.00228   0.03220   0.01847
           Z3          -0.01196  -0.00222  -0.05616   0.00170   0.00061
           X4          -0.26657  -0.17799  -0.00108   0.02280   0.01310
           Y4          -0.17813  -0.47211  -0.00171  -0.01316  -0.00756
           Z4           0.00134   0.00252  -0.09366  -0.00069  -0.00094
           X5           0.02343  -0.01352   0.00075  -0.00001   0.00001
           Y5           0.01193  -0.00688   0.00103   0.00001  -0.00000
           Z5          -0.00059   0.00036   0.01725   0.00028  -0.00016
           X6           0.00128  -0.00074   0.00046  -0.00001   0.00000
           Y6          -0.02607   0.01505   0.00111   0.00000  -0.00000
           Z6           0.00060  -0.00033   0.01644  -0.00028   0.00015
                          Z2        X3        Y3        Z3        X4
           Z2           0.02848
           X3          -0.00037   0.34560
           Y3           0.00184   0.00448   0.07513
           Z3           0.01044   0.01026   0.00159   0.02940
           X4           0.00061   0.00046  -0.02654  -0.00060   0.71655
           Y4          -0.00034  -0.00027   0.01532   0.00036   0.11588
           Z4           0.01569  -0.00051  -0.00115   0.01641  -0.00583
           X5          -0.00031  -0.00001   0.00001   0.00032  -0.14914
           Y5           0.00019   0.00001  -0.00000  -0.00019   0.09419
           Z5           0.00919   0.00031  -0.00019  -0.00936  -0.00390
           X6          -0.00029  -0.00001   0.00001   0.00030  -0.32411
           Y6           0.00016   0.00001  -0.00000  -0.00016  -0.01864
           Z6          -0.00910  -0.00030   0.00018   0.00927   0.01080
                          Y4        Z4        X5        Y5        Z5
           Y4           0.85873
           Z4          -0.01181   0.17453
           X5           0.08632  -0.00259   0.12736
           Y5          -0.28968   0.00910  -0.10531   0.28005
           Z5           0.01126  -0.05700   0.00349  -0.00967   0.02967
           X6          -0.01064   0.00828  -0.00163  -0.00082   0.00040
           Y6          -0.10470   0.00228   0.03250   0.01652  -0.00161
           Z6           0.00223  -0.05596  -0.00167  -0.00046   0.01025
                          X6        Y6        Z6
           X6           0.32447
           Y6           0.01219   0.07314
           Z6          -0.00914  -0.00178   0.02910
 ITU=  0
     Eigenvalues ---    0.03697   0.04364   0.09123   0.10069   0.13462
     Eigenvalues ---    0.17422   0.26219   0.28826   0.52586   0.69897
     Eigenvalues ---    0.96747   1.55758
 Angle between quadratic step and forces=  31.48 degrees.
 Linear search not attempted -- first point.
 B after Tr=     0.005096    0.004250   -0.011923
         Rot=    1.000000   -0.000018    0.000010   -0.000095 Ang=  -0.01 deg.
 Variable       Old X    -DE/DX   Delta X   Delta X   Delta X     New X
                                 (Linear)    (Quad)   (Total)
    X1       -0.63370   0.01001   0.00000   0.01757   0.02287  -0.61083
    Y1       -1.09652   0.00438   0.00000   0.01715   0.02128  -1.07524
    Z1        0.01378  -0.00473   0.00000  -0.02488  -0.03685  -0.02308
    X2        0.40468  -0.00962   0.00000  -0.03589  -0.03025   0.37443
    Y2       -2.90103   0.00895   0.00000   0.02803   0.03235  -2.86868
    Z2       -0.04880   0.00241   0.00000   0.03065   0.01863  -0.03016
    X3       -2.69561   0.00635   0.00000   0.03462   0.03994  -2.65567
    Y3       -1.13101  -0.00297   0.00000  -0.00728  -0.00353  -1.13454
    Z3       -0.05320   0.00226   0.00000   0.03017   0.01815  -0.03504
    X4        0.63104   0.00691   0.00000   0.00351   0.00840   0.63944
    Y4        1.09445   0.00499   0.00000   0.00046   0.00483   1.09929
    Z4        0.01161  -0.00514   0.00000  -0.02447  -0.03634  -0.02473
    X5       -0.31492   0.00297   0.00000  -0.00477  -0.00022  -0.31514
    Y5        2.94933  -0.01185   0.00000  -0.04198  -0.03779   2.91155
    Z5       -0.05815   0.00255   0.00000   0.03035   0.01852  -0.03963
    X6        2.72631  -0.01663   0.00000  -0.04562  -0.04074   2.68557
    Y6        1.19616  -0.00351   0.00000  -0.02190  -0.01715   1.17901
    Z6       -0.05364   0.00265   0.00000   0.02971   0.01789  -0.03575
         Item               Value     Threshold  Converged?
 Maximum Force            0.016633     0.000450     NO 
 RMS     Force            0.007169     0.000300     NO 
 Maximum Displacement     0.040741     0.001800     NO 
 RMS     Displacement     0.025862     0.001200     NO 
 Predicted change in Energy=-1.487671D-03
 GradGradGradGradGradGradGradGradGradGradGradGradGradGradGradGradGradGrad

 Unable to Open any file for archive entry.
 1\1\GINC-BHD0015\Force\RwB97XD\6-311G\C2H4\BWEIGHT\11-Jan-2023\0\\# WB
 97XD/6-311G SCF=XQC FORCE nosym pop=full guess=read\\MD Step 1000\\0,1
 \C,-0.33533907,-0.58025548,0.0072899\H,0.21414942,-1.53515806,-0.02582
 179\H,-1.42645426,-0.59850375,-0.02815072\C,0.3339309,0.57915964,0.006
 14634\H,-0.16665107,1.56071937,-0.03077218\H,1.44270305,0.63298021,-0.
 02838384\\Version=ES64L-G16RevC.01\HF=-78.5559374\RMSD=7.988e-09\RMSF=
 7.169e-03\Dipole=0.0004355,0.0059817,-0.0456227\Quadrupole=0.8668284,0
 .8505178,-1.7173461,0.004288,0.0009069,-0.0040712\PG=C01 [X(C2H4)]\\@
 The archive entry for this job was punched.


 ALMOST ALL THE CHEMICAL PROCESSES WHICH OCCUR IN NATURE,
 WHETHER IN ANIMAL OR VEGETABLE ORGANISMS,
 OR IN THE NON-LIVING SURFACE OF THE EARTH ... 
 TAKE PLACE BETWEEN SUBSTANCES IN SOLUTION

                                    -- W. OSTWALD, 1890
 Job cpu time:       0 days  0 hours  0 minutes 56.2 seconds.
 Elapsed time:       0 days  0 hours  0 minutes 22.1 seconds.
 File lengths (MBytes):  RWF=    272 Int=      0 D2E=      0 Chk=     32 Scr=     32
 Normal termination of Gaussian 16 at Wed Jan 11 16:33:02 2023.
