6
MD Step 0
C  -0.33763715 -0.58748864 0.00000000
H  0.19552659 -1.51519357 0.00000000
H  -1.40763715 -0.58748864 0.00000000
C  0.33763715 0.58748865 0.00000000
H  -0.19552659 1.51519357 0.00000000
H  1.40763715 0.58748865 0.00000000
6
MD Step 1
C  -0.33800594 -0.58783553 -0.00039405
H  0.19788873 -1.51298858 0.00234829
H  -1.40542145 -0.58521253 0.00234888
C  0.33721653 0.58704695 -0.00039468
H  -0.19318375 1.51768767 0.00235037
H  1.41012314 0.58991017 0.00235095
6
MD Step 2
C  -0.33831737 -0.58808462 -0.00078694
H  0.20026712 -1.51109914 0.00468961
H  -1.40353277 -0.58309234 0.00469088
C  0.33674959 0.58651462 -0.00078815
H  -0.19086416 1.52044249 0.00469364
H  1.41281152 0.59245720 0.00469471
6
MD Step 3
C  -0.33856772 -0.58823486 -0.00117837
H  0.20265887 -1.50953713 0.00702220
H  -1.40201703 -0.58113664 0.00702448
C  0.33624168 0.58589593 -0.00118007
H  -0.18856219 1.52342635 0.00702771
H  1.41563750 0.59511820 0.00702890
6
MD Step 4
C  -0.33875371 -0.58828601 -0.00156779
H  0.20505600 -1.50830899 0.00934253
H  -1.40091245 -0.57935481 0.00934662
C  0.33569870 0.58519643 -0.00156972
H  -0.18627186 1.52660037 0.00934848
H  1.41853178 0.59787892 0.00934902
6
MD Step 5
C  -0.33886964 -0.58823563 -0.00195132
H  0.20742762 -1.50743369 0.01162737
H  -1.40026616 -0.57777495 0.01163462
C  0.33513008 0.58442586 -0.00195305
H  -0.18400520 1.52990145 0.01163195
H  1.42140444 0.60070454 0.01163056
6
MD Step 6
C  -0.33891268 -0.58808428 -0.00232695
H  0.20975095 -1.50691181 0.01386464
H  -1.40010193 -0.57641295 0.01387710
C  0.33454335 0.58359283 -0.00232786
H  -0.18176194 1.53327431 0.01386515
H  1.42417790 0.60357073 0.01385995
6
MD Step 7
C  -0.33888478 -0.58783728 -0.00269641
H  0.21202252 -1.50671498 0.01606437
H  -1.40040842 -0.57526140 0.01608485
C  0.33394230 0.58270285 -0.00269566
H  -0.17951895 1.53668362 0.01605713
H  1.42679964 0.60647477 0.01604564
6
MD Step 8
C  -0.33878742 -0.58749940 -0.00305984
H  0.21422719 -1.50681798 0.01822728
H  -1.40117090 -0.57432112 0.01825928
C  0.33333210 0.58176355 -0.00305636
H  -0.17726230 1.54008347 0.01820753
H  1.42921176 0.60940423 0.01818672
6
MD Step 9
C  -0.33862185 -0.58707502 -0.00341610
H  0.21634026 -1.50719777 0.02034646
H  -1.40236991 -0.57359940 0.02039420
C  0.33271903 0.58078419 -0.00340864
H  -0.17498594 1.54342012 0.02030841
H  1.43135382 0.61233875 0.02027467
6
MD Step 10
C  -0.33839905 -0.58657803 -0.00377273
H  0.21838735 -1.50777502 0.02246670
H  -1.40392277 -0.57305074 0.02253475
C  0.33210041 0.57976569 -0.00375979
H  -0.17263296 1.54669233 0.02240341
H  1.43322312 0.61530947 0.02235287
6
MD Step 11
C  -0.33811864 -0.58601076 -0.00412500
H  0.22032033 -1.50853999 0.02455981
H  -1.40581037 -0.57270147 0.02465326
C  0.33148560 0.57872139 -0.00410494
H  -0.17022050 1.54982734 0.02446337
H  1.43475000 0.61827440 0.02439171
6
MD Step 12
C  -0.33778378 -0.58537879 -0.00447083
H  0.22210683 -1.50946436 0.02661357
H  -1.40798909 -0.57256079 0.02673782
C  0.33088095 0.57766202 -0.00444190
H  -0.16775129 1.55277083 0.02647518
H  1.43588789 0.62120750 0.02637779
6
MD Step 13
C  -0.33740123 -0.58469109 -0.00481102
H  0.22373188 -1.51050102 0.02863289
H  -1.41039113 -0.57261963 0.02879331
C  0.33028956 0.57659541 -0.00477138
H  -0.16521289 1.55548895 0.02844286
H  1.43661511 0.62410000 0.02831511
6
MD Step 14
C  -0.33697308 -0.58395164 -0.00514099
H  0.22514952 -1.51163395 0.03059077
H  -1.41297530 -0.57289952 0.03079282
C  0.32971952 0.57553456 -0.00508880
H  -0.16262684 1.55792006 0.03033888
H  1.43688617 0.62691155 0.03017591
6
MD Step 15
C  -0.33650385 -0.58316664 -0.00545806
H  0.22632680 -1.51283558 0.03247191
H  -1.41568497 -0.57340912 0.03272081
C  0.32917655 0.57449024 -0.00539158
H  -0.16000546 1.56001897 0.03214746
H  1.43667593 0.62961390 0.03194444
6
MD Step 16
C  -0.33599943 -0.58234341 -0.00576054
H  0.22723815 -1.51407352 0.03426659
H  -1.41845562 -0.57415021 0.03456713
C  0.32866492 0.57347193 -0.00567811
H  -0.15735811 1.56175155 0.03385863
H  1.43597387 0.63218499 0.03361092
6
MD Step 17
C  -0.33546712 -0.58149043 -0.00604779
H  0.22786686 -1.51531038 0.03597177
H  -1.42121554 -0.57511670 0.03632798
C  0.32818731 0.57248749 -0.00594795
H  -0.15469027 1.56309620 0.03546925
H  1.43478532 0.63461016 0.03517263
6
MD Step 18
C  -0.33491835 -0.58062022 -0.00632335
H  0.22822295 -1.51648690 0.03760872
H  -1.42387003 -0.57627719 0.03802318
C  0.32774183 0.57154023 -0.00620466
H  -0.15198614 1.56406169 0.03700045
H  1.43314882 0.63689978 0.03665180
6
MD Step 19
C  -0.33435556 -0.57973605 -0.00658152
H  0.22826546 -1.51760077 0.03914468
H  -1.42638142 -0.57765291 0.03961948
C  0.32733516 0.57064185 -0.00644300
H  -0.14928638 1.56460927 0.03842004
H  1.43105768 0.63901112 0.03801635
6
MD Step 20
C  -0.33378765 -0.57884757 -0.00682336
H  0.22799588 -1.51861384 0.04058647
H  -1.42867676 -0.57922477 0.04112233
C  0.32696682 0.56979678 -0.00666424
H  -0.14659526 1.56474611 0.03973526
H  1.42855333 0.64094188 0.03927458
6
MD Step 21
C  -0.33322735 -0.57796821 -0.00705413
H  0.22744351 -1.51946749 0.04196561
H  -1.43066407 -0.58094832 0.04256092
C  0.32663170 0.56900465 -0.00687371
H  -0.14389539 1.56451049 0.04097788
H  1.42570988 0.64271533 0.04046020
6
MD Step 22
C  -0.33267673 -0.57710057 -0.00726852
H  0.22657933 -1.52016943 0.04325165
H  -1.43232018 -0.58283986 0.04390431
C  0.32633462 0.56827465 -0.00706669
H  -0.14123341 1.56388529 0.04211865
H  1.42254708 0.64429387 0.04154426
6
MD Step 23
C  -0.33214879 -0.57625820 -0.00747299
H  0.22544595 -1.52066404 0.04448280
H  -1.43356130 -0.58484714 0.04518790
C  0.32606844 0.56760381 -0.00724960
H  -0.13859065 1.56292785 0.04319619
H  1.41915968 0.64570929 0.04256791
6
MD Step 24
C  -0.33164076 -0.57543868 -0.00765823
H  0.22399820 -1.52099220 0.04560549
H  -1.43440371 -0.58700838 0.04635857
C  0.32584101 0.56700362 -0.00741405
H  -0.13604149 1.56161015 0.04415874
H  1.41555700 0.64690289 0.04347894
6
MD Step 25
C  -0.33116061 -0.57465042 -0.00782672
H  0.22226229 -1.52113203 0.04663457
H  -1.43480435 -0.58929369 0.04742920
C  0.32564830 0.56647341 -0.00756272
H  -0.13359480 1.55997794 0.04502213
H  1.41182165 0.64788519 0.04429510
6
MD Step 26
C  -0.33070656 -0.57389186 -0.00797138
H  0.22021290 -1.52112176 0.04752968
H  -1.43478413 -0.59172757 0.04835984
C  0.32549520 0.56602086 -0.00768948
H  -0.13131582 1.55802753 0.04574795
H  1.40798585 0.64861282 0.04497775
6
MD Step 27
C  -0.33028725 -0.57317195 -0.00809674
H  0.21789443 -1.52093833 0.04831742
H  -1.43430645 -0.59426809 0.04917484
C  0.32537500 0.56564171 -0.00779890
H  -0.12920525 1.55582677 0.04636386
H  1.40415178 0.64911022 0.04555687
6
MD Step 28
C  -0.32990272 -0.57249094 -0.00819910
H  0.21530705 -1.52061107 0.04897680
H  -1.43339138 -0.59692042 0.04985312
C  0.32528876 0.56533884 -0.00788800
H  -0.12731187 1.55340058 0.04685071
H  1.40037637 0.64935552 0.04601366
6
MD Step 29
C  -0.32955665 -0.57185270 -0.00827928
H  0.21247976 -1.52014825 0.04951298
H  -1.43204226 -0.59966387 0.05039885
C  0.32523296 0.56511008 -0.00795793
H  -0.12565937 1.55080350 0.04721520
H  1.39674309 0.64935398 0.04635607
6
MD Step 30
C  -0.32925191 -0.57126032 -0.00833812
H  0.20944400 -1.51956301 0.04993094
H  -1.43027186 -0.60247815 0.05081613
C  0.32520405 0.56495259 -0.00800984
H  -0.12427180 1.54809263 0.04746385
H  1.39333404 0.64911164 0.04659176
6
MD Step 31
C  -0.32898937 -0.57071489 -0.00837511
H  0.20622602 -1.51888038 0.05022808
H  -1.42810967 -0.60535078 0.05110211
C  0.32519979 0.56486428 -0.00804362
H  -0.12318037 1.54531922 0.04759568
H  1.39022071 0.64862789 0.04672030
6
MD Step 32
C  -0.32877250 -0.57022018 -0.00839339
H  0.20287436 -1.51810902 0.05042219
H  -1.42557371 -0.60824946 0.05127359
C  0.32521465 0.56483918 -0.00806240
H  -0.12239513 1.54255539 0.04762983
H  1.38748985 0.64792328 0.04676206
6
MD Step 33
C  -0.32859918 -0.56977445 -0.00839100
H  0.19941037 -1.51728993 0.05050207
H  -1.42271959 -0.61117125 0.05131986
C  0.32524826 0.56487579 -0.00806461
H  -0.12195321 1.53984361 0.04755659
H  1.38519218 0.64699011 0.04670710
6
MD Step 34
C  -0.32846253 -0.56937127 -0.00836169
H  0.19583253 -1.51649107 0.05043223
H  -1.41963494 -0.61413787 0.05120752
C  0.32530464 0.56497647 -0.00804490
H  -0.12191357 1.53720031 0.04734203
H  1.38334551 0.64579716 0.04651973
6
MD Step 35
C  -0.32836717 -0.56901596 -0.00831218
H  0.19221303 -1.51570920 0.05025050
H  -1.41634099 -0.61709876 0.05097330
C  0.32537595 0.56513118 -0.00800939
H  -0.12225957 1.53471206 0.04702477
H  1.38203099 0.64438706 0.04623970
6
MD Step 36
C  -0.32831407 -0.56871037 -0.00824604
H  0.18860658 -1.51496017 0.04997680
H  -1.41288294 -0.62002177 0.05063713
C  0.32545782 0.56533287 -0.00796130
H  -0.12298869 1.53244317 0.04662548
H  1.38130018 0.64278517 0.04588774
6
MD Step 37
C  -0.32830234 -0.56845468 -0.00816561
H  0.18506029 -1.51426778 0.04962360
H  -1.40931894 -0.62288299 0.05021195
C  0.32554777 0.56557589 -0.00790259
H  -0.12410158 1.53044465 0.04615718
H  1.38118381 0.64100987 0.04547642
6
MD Step 38
C  -0.32831795 -0.56823618 -0.00805986
H  0.18154575 -1.51373044 0.04912833
H  -1.40578634 -0.62573425 0.04963924
C  0.32565649 0.56586745 -0.00782337
H  -0.12566876 1.52868555 0.04555768
H  1.38162344 0.63900509 0.04493973
6
MD Step 39
C  -0.32835771 -0.56805326 -0.00792967
H  0.17810023 -1.51337776 0.04849564
H  -1.40235712 -0.62856093 0.04892505
C  0.32578394 0.56620377 -0.00772430
H  -0.12768871 1.52719469 0.04483157
H  1.38261471 0.63678261 0.04428090
6
MD Step 40
C  -0.32842634 -0.56791243 -0.00778472
H  0.17480800 -1.51318774 0.04777902
H  -1.39905430 -0.63130002 0.04812253
C  0.32592234 0.56657322 -0.00761366
H  -0.13010542 1.52604190 0.04403229
H  1.38418946 0.63440397 0.04355368
6
MD Step 41
C  -0.32852177 -0.56781362 -0.00762774
H  0.17171195 -1.51317427 0.04699287
H  -1.39593915 -0.63392835 0.04724739
C  0.32607098 0.56697118 -0.00749350
H  -0.13289607 1.52524888 0.04317391
H  1.38632702 0.63189229 0.04277092
6
MD Step 42
C  -0.32863705 -0.56775214 -0.00745646
H  0.16882431 -1.51337525 0.04612373
H  -1.39309854 -0.63645146 0.04628853
C  0.32623423 0.56739826 -0.00736146
H  -0.13605978 1.52480004 0.04224220
H  1.38896611 0.62924346 0.04191628
6
MD Step 43
C  -0.32876349 -0.56772171 -0.00726676
H  0.16614378 -1.51383411 0.04514796
H  -1.39062502 -0.63888585 0.04522495
C  0.32641851 0.56785729 -0.00721356
H  -0.13960018 1.52466048 0.04121240
H  1.39202435 0.62644391 0.04096258
6
MD Step 44
C  -0.32890086 -0.56772455 -0.00706329
H  0.16371432 -1.51453946 0.04409081
H  -1.38855497 -0.64119920 0.04408296
C  0.32662215 0.56834325 -0.00705353
H  -0.14346615 1.52483610 0.04010907
H  1.39546006 0.62353013 0.03993362
6
MD Step 45
C  -0.32904793 -0.56776186 -0.00684939
H  0.16156832 -1.51548163 0.04296990
H  -1.38692406 -0.64336726 0.04288136
C  0.32684483 0.56885280 -0.00688387
H  -0.14760897 1.52531726 0.03894917
H  1.39921686 0.62053190 0.03884550
6
MD Step 46
C  -0.32919434 -0.56782582 -0.00661830
H  0.15967830 -1.51670078 0.04174745
H  -1.38581419 -0.64542235 0.04158475
C  0.32709552 0.56939244 -0.00669838
H  -0.15203136 1.52603117 0.03769314
H  1.40317688 0.61742408 0.03765664
6
MD Step 47
C  -0.32934460 -0.56792307 -0.00637845
H  0.15809651 -1.51814604 0.04046941
H  -1.38521105 -0.64731215 0.04023924
C  0.32736889 0.56995458 -0.00650409
H  -0.15664730 1.52698390 0.03638697
H  1.40730437 0.61426674 0.03641317
6
MD Step 48
C  -0.32948670 -0.56804382 -0.00612022
H  0.15677080 -1.51986103 0.03908228
H  -1.38518890 -0.64908569 0.03879323
C  0.32767613 0.57054887 -0.00629234
H  -0.16146845 1.52807595 0.03497499
H  1.41146128 0.61102050 0.03505785
6
MD Step 49
C  -0.32962356 -0.56819260 -0.00584894
H  0.15572807 -1.52179926 0.03761550
H  -1.38572456 -0.65070789 0.03727618
C  0.32801408 0.57117079 -0.00606765
H  -0.16641993 1.52928861 0.03348661
H  1.41559501 0.60773035 0.03362021
6
MD Step 50
C  -0.32975490 -0.56837046 -0.00556588
H  0.15496831 -1.52393157 0.03607589
H  -1.38680447 -0.65216688 0.03569507
C  0.32838295 0.57181970 -0.00583103
H  -0.17144826 1.53057814 0.03192828
H  1.41963260 0.60441910 0.03210672
6
MD Step 51
C  -0.32987676 -0.56857441 -0.00526770
H  0.15446222 -1.52624941 0.03444524
H  -1.38842772 -0.65347675 0.03403179
C  0.32878672 0.57249914 -0.00557952
H  -0.17652488 1.53187439 0.03028079
H  1.42347935 0.60108460 0.03049800
6
MD Step 52
C  -0.32999536 -0.56881097 -0.00496101
H  0.15423235 -1.52868415 0.03276030
H  -1.39052522 -0.65459582 0.03232239
C  0.32921960 0.57320303 -0.00531898
H  -0.18156526 1.53316348 0.02858173
H  1.42710203 0.59778054 0.02883230
6
MD Step 53
C  -0.33011138 -0.56908079 -0.00464607
H  0.15426271 -1.53119952 0.03102287
H  -1.39305279 -0.65551868 0.03056807
C  0.32968120 0.57393104 -0.00504974
H  -0.18652144 1.53439723 0.02683288
H  1.43043762 0.59452527 0.02711176
6
MD Step 54
C  -0.33022417 -0.56938274 -0.00432121
H  0.15452382 -1.53376782 0.02922417
H  -1.39596793 -0.65625152 0.02875937
C  0.33017239 0.57468436 -0.00477044
H  -0.19135798 1.53551891 0.02502519
H  1.43341903 0.59132622 0.02532774
6
MD Step 55
C  -0.33033384 -0.56971600 -0.00398520
H  0.15498625 -1.53635754 0.02735785
H  -1.39921795 -0.65679891 0.02688910
C  0.33069317 0.57546339 -0.00448015
H  -0.19603928 1.53647744 0.02315219
H  1.43598922 0.58819293 0.02347431
6
MD Step 56
C  -0.33044422 -0.57008291 -0.00364036
H  0.15563862 -1.53891664 0.02543729
H  -1.40272407 -0.65714618 0.02496962
C  0.33123965 0.57626471 -0.00418112
H  -0.20051252 1.53724587 0.02122790
H  1.43811960 0.58515440 0.02156612
6
MD Step 57
C  -0.33055515 -0.57048152 -0.00328464
H  0.15644393 -1.54141792 0.02345195
H  -1.40642779 -0.65730430 0.02298947
C  0.33181153 0.57708859 -0.00387177
H  -0.20475287 1.53777748 0.01924158
H  1.43976566 0.58221474 0.01959303
6
MD Step 58
C  -0.33067366 -0.57091656 -0.00292351
H  0.15740598 -1.54379346 0.02143256
H  -1.41022627 -0.65724320 0.02097833
C  0.33240103 0.57792768 -0.00355716
H  -0.20869715 1.53807282 0.01722528
H  1.44093404 0.57941903 0.01758775
6
MD Step 59
C  -0.33079619 -0.57138200 -0.00255142
H  0.15846653 -1.54603959 0.01934889
H  -1.41407849 -0.65699654 0.01890519
C  0.33301025 0.57878468 -0.00323254
H  -0.21234881 1.53807582 0.01514798
H  1.44157797 0.57674970 0.01551974
6
MD Step 60
C  -0.33092341 -0.57187568 -0.00216738
H  0.15959279 -1.54812965 0.01719598
H  -1.41791864 -0.65657349 0.01676432
C  0.33363657 0.57965740 -0.00289720
H  -0.21569007 1.53776218 0.01300478
H  1.44168584 0.57421372 0.01338462
6
MD Step 61
C  -0.33105412 -0.57239334 -0.00176865
H  0.16074254 -1.55005014 0.01495918
H  -1.42169300 -0.65599455 0.01454044
C  0.33427858 0.58054484 -0.00254889
H  -0.21871799 1.53710398 0.01078059
H  1.44124571 0.57180713 0.01116767
6
MD Step 62
C  -0.33120230 -0.57294536 -0.00136851
H  0.16196445 -1.55170052 0.01271309
H  -1.42526060 -0.65519032 0.01230745
C  0.33491941 0.58143015 -0.00219974
H  -0.22134337 1.53617071 0.00855240
H  1.44034637 0.56961505 0.00894645
6
MD Step 63
C  -0.33136012 -0.57352056 -0.00095805
H  0.16318305 -1.55311086 0.01040826
H  -1.42861201 -0.65421964 0.01001562
C  0.33556279 0.58231735 -0.00184180
H  -0.22360888 1.53491185 0.00626918
H  1.43895865 0.56759583 0.00667005
6
MD Step 64
C  -0.33153026 -0.57411794 -0.00053962
H  0.16438799 -1.55425172 0.00805836
H  -1.43167955 -0.65307829 0.00767839
C  0.33620152 0.58319916 -0.00147733
H  -0.22549792 1.53334759 0.00394480
H  1.43712665 0.56577027 0.00435253
6
MD Step 65
C  -0.33171670 -0.57473765 -0.00011736
H  0.16558054 -1.55508856 0.00568695
H  -1.43439233 -0.65175332 0.00531915
C  0.33682646 0.58406625 -0.00111014
H  -0.22698909 1.53151446 0.00160306
H  1.43491289 0.56416765 0.00201777
6
MD Step 66
C  -0.33192187 -0.57537829 0.00030573
H  0.16675758 -1.55559842 0.00331131
H  -1.43669344 -0.65023952 0.00295523
C  0.33742935 0.58490996 -0.00074301
H  -0.22807252 1.52944876 -0.00073883
H  1.43238104 0.56280947 -0.00031709
6
MD Step 67
C  -0.33214780 -0.57603802 0.00072654
H  0.16791871 -1.55576312 0.00094929
H  -1.43853383 -0.64853232 0.00060465
C  0.33800176 0.58572129 -0.00037878
H  -0.22874278 1.52719315 -0.00306322
H  1.42960196 0.56171623 -0.00263461
6
MD Step 68
C  -0.33239191 -0.57671049 0.00114619
H  0.16904156 -1.55559435 -0.00140532
H  -1.43989771 -0.64665288 -0.00173852
C  0.33853930 0.58649507 -0.00001633
H  -0.22902376 1.52477128 -0.00537732
H  1.42662745 0.56088257 -0.00494234
6
MD Step 69
C  -0.33265125 -0.57738904 0.00156568
H  0.17010697 -1.55510830 -0.00375797
H  -1.44077742 -0.64462256 -0.00407934
C  0.33903751 0.58722585 0.00034538
H  -0.22894312 1.52221268 -0.00768765
H  1.42351471 0.56030244 -0.00724723
6
MD Step 70
C  -0.33292306 -0.57806727 0.00198532
H  0.17110197 -1.55432254 -0.00611041
H  -1.44117043 -0.64245982 -0.00641914
C  0.33949148 0.58790739 0.00070680
H  -0.22852908 1.51955523 -0.00999713
H  1.42032817 0.55997202 -0.00955275
6
MD Step 71
C  -0.33321082 -0.57874508 0.00239864
H  0.17205523 -1.55322015 -0.00842551
H  -1.44104372 -0.64014438 -0.00872027
C  0.33988996 0.58852679 0.00106206
H  -0.22777427 1.51688015 -0.01226915
H  1.41717386 0.55992531 -0.01182290
6
MD Step 72
C  -0.33350810 -0.57941277 0.00280879
H  0.17294247 -1.55184469 -0.01072130
H  -1.44042911 -0.63771249 -0.01100029
C  0.34023142 0.58908057 0.00141435
H  -0.22673055 1.51421596 -0.01452345
H  1.41410198 0.56013941 -0.01407803
6
MD Step 73
C  -0.33381284 -0.58006513 0.00321408
H  0.17376971 -1.55021597 -0.01298811
H  -1.43933920 -0.63517279 -0.01324902
C  0.34051009 0.58956067 0.00176235
H  -0.22542450 1.51162153 -0.01675166
H  1.41118944 0.56061809 -0.01631041
6
MD Step 74
C  -0.33412126 -0.58069557 0.00361419
H  0.17453746 -1.54836555 -0.01522409
H  -1.43780298 -0.63254213 -0.01546418
C  0.34072213 0.58996061 0.00210601
H  -0.22389273 1.50914904 -0.01895348
H  1.40850205 0.56135608 -0.01852030
6
MD Step 75
C  -0.33442909 -0.58129729 0.00400893
H  0.17524763 -1.54632913 -0.01742822
H  -1.43585833 -0.62983827 -0.01764437
C  0.34086453 0.59027435 0.00244546
H  -0.22217396 1.50685006 -0.02112944
H  1.40609983 0.56234634 -0.02070870
6
MD Step 76
C  -0.33473192 -0.58186372 0.00439799
H  0.17590494 -1.54414430 -0.01959866
H  -1.43354996 -0.62707820 -0.01978752
C  0.34093489 0.59049620 0.00278068
H  -0.22030663 1.50477592 -0.02327929
H  1.40403691 0.56358167 -0.02287568
6
MD Step 77
C  -0.33503127 -0.58239457 0.00477486
H  0.17655238 -1.54181413 -0.02169720
H  -1.43089288 -0.62424196 -0.02185479
C  0.34092558 0.59061486 0.00310548
H  -0.21829207 1.50301227 -0.02536580
H  1.40239577 0.56509065 -0.02498462
6
MD Step 78
C  -0.33531318 -0.58287466 0.00514822
H  0.17714461 -1.53943345 -0.02377512
H  -1.42799903 -0.62139981 -0.02389819
C  0.34084497 0.59063492 0.00342878
H  -0.21622068 1.50155071 -0.02744238
H  1.40115811 0.56681111 -0.02708810
6
MD Step 79
C  -0.33557391 -0.58329943 0.00551646
H  0.17769835 -1.53703641 -0.02582289
H  -1.42492414 -0.61856013 -0.02590837
C  0.34069212 0.59055151 0.00374916
H  -0.21411938 1.50043917 -0.02950065
H  1.40035637 0.56874130 -0.02917748
6
MD Step 80
C  -0.33581464 -0.58366964 0.00587309
H  0.17826042 -1.53462752 -0.02780172
H  -1.42169848 -0.61570127 -0.02784620
C  0.34046214 0.59035574 0.00406016
H  -0.21198267 1.49974883 -0.03150238
H  1.40004094 0.57090824 -0.03121462
6
MD Step 81
C  -0.33602945 -0.58397959 0.00621861
H  0.17883631 -1.53225234 -0.02971431
H  -1.41839753 -0.61284288 -0.02971505
C  0.34015807 0.59004682 0.00436231
H  -0.20984318 1.49950143 -0.03345108
H  1.40020761 0.57329652 -0.03320211
6
MD Step 82
C  -0.33621274 -0.58422437 0.00655327
H  0.17943276 -1.52995356 -0.03156198
H  -1.41509736 -0.61000264 -0.03151709
C  0.33978369 0.58962494 0.00465583
H  -0.20772775 1.49971147 -0.03534845
H  1.40084085 0.57589140 -0.03514047
6
MD Step 83
C  -0.33635820 -0.58439888 0.00687817
H  0.18005099 -1.52777658 -0.03335101
H  -1.41187949 -0.60720256 -0.03325986
C  0.33934444 0.58909237 0.00494173
H  -0.20566346 1.50037900 -0.03720083
H  1.40190785 0.57867234 -0.03703453
6
MD Step 84
C  -0.33645693 -0.58449589 0.00719712
H  0.18067402 -1.52578087 -0.03510478
H  -1.40884108 -0.60448117 -0.03496886
C  0.33884943 0.58845562 0.00522397
H  -0.20368950 1.50147698 -0.03903140
H  1.40334740 0.58160082 -0.03890505
6
MD Step 85
C  -0.33651230 -0.58452080 0.00750263
H  0.18135359 -1.52395151 -0.03677659
H  -1.40600522 -0.60180556 -0.03659724
C  0.33829661 0.58771066 0.00549414
H  -0.20176948 1.50303887 -0.04079212
H  1.40515924 0.58470775 -0.04070393
6
MD Step 86
C  -0.33651708 -0.58446876 0.00779782
H  0.18207374 -1.52233547 -0.03838551
H  -1.40345644 -0.59920843 -0.03816645
C  0.33769557 0.58686594 0.00575530
H  -0.19992812 1.50502184 -0.04250089
H  1.40726788 0.58795709 -0.04244659
6
MD Step 87
C  -0.33647580 -0.58434694 0.00807525
H  0.18288258 -1.52090847 -0.03988440
H  -1.40120622 -0.59665517 -0.03962911
C  0.33704522 0.58592009 0.00599874
H  -0.19811896 1.50743988 -0.04410846
H  1.40965731 0.59137809 -0.04408406
6
MD Step 88
C  -0.33638221 -0.58415198 0.00833829
H  0.18375790 -1.51970952 -0.04129406
H  -1.39932683 -0.59417888 -0.04100848
C  0.33635629 0.58488444 0.00622770
H  -0.19635944 1.51022957 -0.04563356
H  1.41223722 0.59493081 -0.04563267
6
MD Step 89
C  -0.33623419 -0.58388473 0.00858719
H  0.18469469 -1.51875261 -0.04261551
H  -1.39786154 -0.59179225 -0.04230726
C  0.33563643 0.58376822 0.00644189
H  -0.19464356 1.51333920 -0.04707468
H  1.41493329 0.59859396 -0.04708950
6
MD Step 90
C  -0.33602871 -0.58354515 0.00882376
H  0.18567468 -1.51805691 -0.04386037
H  -1.39685372 -0.58951800 -0.04353921
C  0.33489523 0.58258347 0.00664296
H  -0.19297307 1.51669961 -0.04844067
H  1.41765878 0.60233461 -0.04846154
6
MD Step 91
C  -0.33577249 -0.58314284 0.00904176
H  0.18672889 -1.51758400 -0.04498819
H  -1.39628294 -0.58732611 -0.04466321
C  0.33413356 0.58133442 0.00682307
H  -0.19129560 1.52028832 -0.04968802
H  1.42037919 0.60617099 -0.04970635
6
MD Step 92
C  -0.33546377 -0.58267884 0.00924358
H  0.18782998 -1.51734638 -0.04601442
H  -1.39617337 -0.58524213 -0.04569656
C  0.33336169 0.58003545 0.00698456
H  -0.18961339 1.52402273 -0.05082913
H  1.42300524 0.61006442 -0.05083485
6
MD Step 93
C  -0.33510585 -0.58215901 0.00942785
H  0.18897235 -1.51732753 -0.04693033
H  -1.39651316 -0.58326693 -0.04663092
C  0.33258573 0.57869753 0.00712538
H  -0.18790406 1.52784189 -0.05185223
H  1.42547480 0.61399965 -0.05183527
6
MD Step 94
C  -0.33470408 -0.58159104 0.00959218
H  0.19015485 -1.51749991 -0.04772059
H  -1.39727241 -0.58139434 -0.04745065
C  0.33181050 0.57733093 0.00724232
H  -0.18613901 1.53169034 -0.05273913
H  1.42773654 0.61796741 -0.05269004
6
MD Step 95
C  -0.33426330 -0.58098185 0.00973549
H  0.19136636 -1.51784040 -0.04837811
H  -1.39841890 -0.57962599 -0.04814820
C  0.33104202 0.57594761 0.00733365
H  -0.18429882 1.53550476 -0.05348008
H  1.42973612 0.62194973 -0.05339007
6
MD Step 96
C  -0.33377629 -0.58032595 0.00986820
H  0.19251733 -1.51839965 -0.04897326
H  -1.39998790 -0.57803990 -0.04879742
C  0.33029899 0.57457251 0.00741204
H  -0.18244235 1.53914653 -0.05414217
H  1.43134853 0.62585123 -0.05399902
6
MD Step 97
C  -0.33325512 -0.57963691 0.00998411
H  0.19362744 -1.51911471 -0.04946553
H  -1.40189441 -0.57660326 -0.04935510
C  0.32958112 0.57321194 0.00746979
H  -0.18052071 1.54259082 -0.05468316
H  1.43256715 0.62968723 -0.05447738
6
MD Step 98
C  -0.33270267 -0.57891877 0.01008576
H  0.19465693 -1.51997916 -0.04987368
H  -1.40410456 -0.57534124 -0.04984015
C  0.32889761 0.57188183 0.00751028
H  -0.17854606 1.54575837 -0.05511960
H  1.43333497 0.63341448 -0.05484140
6
MD Step 99
C  -0.33213444 -0.57818806 0.01016495
H  0.19563836 -1.52091244 -0.05014345
H  -1.40650572 -0.57420608 -0.05019441
C  0.32824493 0.57058552 0.00752340
H  -0.17646140 1.54864773 -0.05539686
H  1.43367630 0.63706290 -0.05504011
6
MD Step 100
C  -0.33155438 -0.57744943 0.01022412
H  0.19653332 -1.52190460 -0.05029256
H  -1.40905296 -0.57322038 -0.05043507
C  0.32763112 0.56933776 0.00751242
H  -0.17428367 1.55119225 -0.05553138
H  1.43355303 0.64059162 -0.05509018
6
MD Step 101
C  -0.33096700 -0.57670786 0.01026539
H  0.19730597 -1.52294376 -0.05033709
H  -1.41169732 -0.57240409 -0.05057746
C  0.32706338 0.56815227 0.00748044
H  -0.17203111 1.55333393 -0.05553823
H  1.43293815 0.64396254 -0.05500702
6
MD Step 102
C  -0.33038569 -0.57597724 0.01028306
H  0.19797496 -1.52396521 -0.05023934
H  -1.41433571 -0.57172340 -0.05058050
C  0.32653928 0.56703308 0.00742061
H  -0.16967254 1.55507542 -0.05538069
H  1.43186731 0.64719211 -0.05475692
6
MD Step 103
C  -0.32981309 -0.57526037 0.01028100
H  0.19849578 -1.52497009 -0.05002718
H  -1.41693097 -0.57120788 -0.05047162
C  0.32606673 0.56599403 0.00733831
H  -0.16724408 1.55636267 -0.05508613
H  1.43032107 0.65023324 -0.05436728
6
MD Step 104
C  -0.32925883 -0.57456710 0.01025674
H  0.19886935 -1.52591768 -0.04968463
H  -1.41940478 -0.57084303 -0.05023241
C  0.32564560 0.56504073 0.00723083
H  -0.16474216 1.55719324 -0.05463986
H  1.42833286 0.65308396 -0.05382552
6
MD Step 105
C  -0.32872293 -0.57389737 0.01021611
H  0.19904224 -1.52682579 -0.04925316
H  -1.42173892 -0.57066939 -0.04990435
C  0.32528467 0.56418700 0.00710617
H  -0.16222219 1.55751696 -0.05408292
H  1.42588938 0.65568735 -0.05317237
6
MD Step 106
C  -0.32821846 -0.57326438 0.01015306
H  0.19904466 -1.52763357 -0.04869210
H  -1.42383832 -0.57064611 -0.04944369
C  0.32497817 0.56343196 0.00695721
H  -0.15966255 1.55737333 -0.05337765
H  1.42306765 0.65806976 -0.05237302
6
MD Step 107
C  -0.32775005 -0.57267266 0.01006864
H  0.19886146 -1.52833093 -0.04800961
H  -1.42566156 -0.57077890 -0.04885746
C  0.32472775 0.56278141 0.00678588
H  -0.15709195 1.55676280 -0.05253372
H  1.41990591 0.66021141 -0.05143815
6
MD Step 108
C  -0.32732484 -0.57212926 0.00996126
H  0.19849875 -1.52889266 -0.04719536
H  -1.42715534 -0.57105433 -0.04813376
C  0.32453122 0.56223680 0.00659073
H  -0.15452369 1.55571285 -0.05154337
H  1.41646911 0.66211300 -0.05036153
6
MD Step 109
C  -0.32694742 -0.57163862 0.00983106
H  0.19795428 -1.52930832 -0.04625069
H  -1.42828494 -0.57146931 -0.04727284
C  0.32438758 0.56180006 0.00637248
H  -0.15198482 1.55424818 -0.05041031
H  1.41281859 0.66376595 -0.04914798
6
MD Step 110
C  -0.32661975 -0.57120242 0.00968003
H  0.19721669 -1.52958321 -0.04518940
H  -1.42903546 -0.57203179 -0.04628798
C  0.32429723 0.56147380 0.00613411
H  -0.14951655 1.55238972 -0.04915041
H  1.40901053 0.66515171 -0.04781401
6
MD Step 111
C  -0.32634260 -0.57082110 0.00951057
H  0.19627482 -1.52972907 -0.04402840
H  -1.42940273 -0.57275162 -0.04519584
C  0.32426039 0.56125970 0.00587925
H  -0.14716478 1.55016351 -0.04778250
H  1.40510435 0.66625105 -0.04637888
6
MD Step 112
C  -0.32612705 -0.57050574 0.00931519
H  0.19518815 -1.52969412 -0.04271605
H  -1.42932320 -0.57357130 -0.04394310
C  0.32426522 0.56114698 0.00559897
H  -0.14491063 1.54767011 -0.04626032
H  1.40123134 0.66711453 -0.04479816
6
MD Step 113
C  -0.32596637 -0.57024906 0.00910190
H  0.19391503 -1.52953398 -0.04130657
H  -1.42884593 -0.57453514 -0.04258484
C  0.32431709 0.56114077 0.00530358
H  -0.14283865 1.54491323 -0.04463868
H  1.39742243 0.66769055 -0.04312603
6
MD Step 114
C  -0.32585943 -0.57004960 0.00887295
H  0.19245561 -1.52926904 -0.03981482
H  -1.42798933 -0.57564832 -0.04113610
C  0.32441435 0.56123860 0.00499620
H  -0.14099573 1.54194110 -0.04293468
H  1.39374902 0.66796844 -0.04137959
6
MD Step 115
C  -0.32581165 -0.56991267 0.00862391
H  0.19085743 -1.52887849 -0.03821032
H  -1.42673513 -0.57687129 -0.03956603
C  0.32454744 0.56142951 0.00467179
H  -0.13938493 1.53885119 -0.04112224
H  1.39032697 0.66798424 -0.03953328
6
MD Step 116
C  -0.32581897 -0.56983389 0.00835844
H  0.18911720 -1.52839778 -0.03651687
H  -1.42512651 -0.57821649 -0.03789909
C  0.32471570 0.56171043 0.00433497
H  -0.13806117 1.53569144 -0.03922697
H  1.38721701 0.66772221 -0.03761213
6
MD Step 117
C  -0.32587851 -0.56981022 0.00807846
H  0.18724580 -1.52785332 -0.03474621
H  -1.42320245 -0.57968406 -0.03614768
C  0.32491641 0.56207556 0.00398817
H  -0.13706641 1.53252370 -0.03726288
H  1.38448748 0.66718013 -0.03562957
6
MD Step 118
C  -0.32598327 -0.56983446 0.00778910
H  0.18523496 -1.52729483 -0.03293159
H  -1.42103005 -0.58129443 -0.03434606
C  0.32515050 0.56252194 0.00363759
H  -0.13646134 1.52938944 -0.03526426
H  1.38217972 0.66633600 -0.03361886
6
MD Step 119
C  -0.32613289 -0.56990641 0.00748875
H  0.18312262 -1.52672942 -0.03106108
H  -1.41863810 -0.58302358 -0.03248293
C  0.32541150 0.56303884 0.00328129
H  -0.13625996 1.52637342 -0.03322196
H  1.38037159 0.66521376 -0.03157016
6
MD Step 120
C  -0.32632021 -0.57001901 0.00718161
H  0.18090982 -1.52620341 -0.02916144
H  -1.41609900 -0.58488465 -0.03058618
C  0.32569971 0.56362159 0.00292419
H  -0.13651013 1.52351967 -0.03116357
H  1.37909324 0.66380027 -0.02950984
6
MD Step 121
C  -0.32654925 -0.57017683 0.00686089
H  0.17866972 -1.52569285 -0.02718741
H  -1.41341859 -0.58682009 -0.02861108
C  0.32600374 0.56425372 0.00255839
H  -0.13718496 1.52093838 -0.02904689
H  1.37843419 0.66215457 -0.02739504
6
MD Step 122
C  -0.32682312 -0.57038370 0.00652013
H  0.17647341 -1.52517679 -0.02509636
H  -1.41060967 -0.58877466 -0.02651567
C  0.32631317 0.56491941 0.00217645
H  -0.13825461 1.51873041 -0.02683182
H  1.37846745 0.66033378 -0.02518489
6
MD Step 123
C  -0.32713453 -0.57063304 0.00616231
H  0.17433192 -1.52469452 -0.02290664
H  -1.40774944 -0.59075282 -0.02431947
C  0.32662849 0.56561330 0.00178155
H  -0.13974251 1.51692771 -0.02453674
H  1.37919009 0.65833507 -0.02289650
6
MD Step 124
C  -0.32747175 -0.57091397 0.00579427
H  0.17223139 -1.52430928 -0.02066136
H  -1.40494235 -0.59278344 -0.02206691
C  0.32695497 0.56633475 0.00138117
H  -0.14168950 1.51552752 -0.02220376
H  1.38055837 0.65613132 -0.02057063
6
MD Step 125
C  -0.32783073 -0.57122361 0.00541530
H  0.17020512 -1.52403516 -0.01835532
H  -1.40224564 -0.59484804 -0.01975371
C  0.32729041 0.56707591 0.00097425
H  -0.14408173 1.51456352 -0.01982774
H  1.38256067 0.65374378 -0.01820128
6