 Entering Gaussian System, Link 0=g16
 Initial command:
 /software/gaussian/g16-c01/avx2/g16/l1.exe "/gpfs/fs2/scratch/bweight/software/many_molecule_many_mode_NAMD/src/NAMD/TEST_NVT/TRAJ/traj-97/G16/GS_NEW/Gau-21626.inp" -scrdir="/gpfs/fs2/scratch/bweight/software/many_molecule_many_mode_NAMD/src/NAMD/TEST_NVT/TRAJ/traj-97/G16/GS_NEW/"
 Entering Link 1 = /software/gaussian/g16-c01/avx2/g16/l1.exe PID=     21627.
  
 Copyright (c) 1988-2019, Gaussian, Inc.  All Rights Reserved.
  
 This is part of the Gaussian(R) 16 program.  It is based on
 the Gaussian(R) 09 system (copyright 2009, Gaussian, Inc.),
 the Gaussian(R) 03 system (copyright 2003, Gaussian, Inc.),
 the Gaussian(R) 98 system (copyright 1998, Gaussian, Inc.),
 the Gaussian(R) 94 system (copyright 1995, Gaussian, Inc.),
 the Gaussian 92(TM) system (copyright 1992, Gaussian, Inc.),
 the Gaussian 90(TM) system (copyright 1990, Gaussian, Inc.),
 the Gaussian 88(TM) system (copyright 1988, Gaussian, Inc.),
 the Gaussian 86(TM) system (copyright 1986, Carnegie Mellon
 University), and the Gaussian 82(TM) system (copyright 1983,
 Carnegie Mellon University). Gaussian is a federally registered
 trademark of Gaussian, Inc.
  
 This software contains proprietary and confidential information,
 including trade secrets, belonging to Gaussian, Inc.
  
 This software is provided under written license and may be
 used, copied, transmitted, or stored only in accord with that
 written license.
  
 The following legend is applicable only to US Government
 contracts under FAR:
  
                    RESTRICTED RIGHTS LEGEND
  
 Use, reproduction and disclosure by the US Government is
 subject to restrictions as set forth in subparagraphs (a)
 and (c) of the Commercial Computer Software - Restricted
 Rights clause in FAR 52.227-19.
  
 Gaussian, Inc.
 340 Quinnipiac St., Bldg. 40, Wallingford CT 06492
  
  
 ---------------------------------------------------------------
 Warning -- This program may not be used in any manner that
 competes with the business of Gaussian, Inc. or will provide
 assistance to any competitor of Gaussian, Inc.  The licensee
 of this program is prohibited from giving any competitor of
 Gaussian, Inc. access to this program.  By using this program,
 the user acknowledges that Gaussian, Inc. is engaged in the
 business of creating and licensing software in the field of
 computational chemistry and represents and warrants to the
 licensee that it is not a competitor of Gaussian, Inc. and that
 it will not use this program in any manner prohibited above.
 ---------------------------------------------------------------
  

 Cite this work as:
 Gaussian 16, Revision C.01,
 M. J. Frisch, G. W. Trucks, H. B. Schlegel, G. E. Scuseria, 
 M. A. Robb, J. R. Cheeseman, G. Scalmani, V. Barone, 
 G. A. Petersson, H. Nakatsuji, X. Li, M. Caricato, A. V. Marenich, 
 J. Bloino, B. G. Janesko, R. Gomperts, B. Mennucci, H. P. Hratchian, 
 J. V. Ortiz, A. F. Izmaylov, J. L. Sonnenberg, D. Williams-Young, 
 F. Ding, F. Lipparini, F. Egidi, J. Goings, B. Peng, A. Petrone, 
 T. Henderson, D. Ranasinghe, V. G. Zakrzewski, J. Gao, N. Rega, 
 G. Zheng, W. Liang, M. Hada, M. Ehara, K. Toyota, R. Fukuda, 
 J. Hasegawa, M. Ishida, T. Nakajima, Y. Honda, O. Kitao, H. Nakai, 
 T. Vreven, K. Throssell, J. A. Montgomery, Jr., J. E. Peralta, 
 F. Ogliaro, M. J. Bearpark, J. J. Heyd, E. N. Brothers, K. N. Kudin, 
 V. N. Staroverov, T. A. Keith, R. Kobayashi, J. Normand, 
 K. Raghavachari, A. P. Rendell, J. C. Burant, S. S. Iyengar, 
 J. Tomasi, M. Cossi, J. M. Millam, M. Klene, C. Adamo, R. Cammi, 
 J. W. Ochterski, R. L. Martin, K. Morokuma, O. Farkas, 
 J. B. Foresman, and D. J. Fox, Gaussian, Inc., Wallingford CT, 2019.
 
 ******************************************
 Gaussian 16:  ES64L-G16RevC.01  3-Jul-2019
                11-Jan-2023 
 ******************************************
 %oldchk=../GS_OLD/geometry.chk
 %chk=geometry.chk
 %nprocshared=4
 Will use up to    4 processors via shared memory.
 %mem=5GB
 Copying data from "../GS_OLD/geometry.chk" to current chk file "geometry.chk"
 IOpt=  2 FromEx=T IUOpen= 4 IOptOp= 5 NList=   0 IFRang= 0 IUIn= 4 IUOut= 2.
 -------------------------------------------------------
 # WB97XD/6-311G SCF=XQC FORCE nosym pop=full guess=read
 -------------------------------------------------------
 1/10=7,30=1,38=1/1,3;
 2/12=2,15=1,17=6,18=5,40=1/2;
 3/5=4,6=6,11=2,25=1,30=1,71=1,74=-58,116=-2/1,2,3;
 4/5=1/1;
 5/5=2,8=3,13=1,38=6/2,8;
 6/7=3,28=1/1;
 7/29=1,30=1/1,2,3,16;
 1/10=7,30=1/3;
 99//99;
 -----------
 MD Step 999
 -----------
 Symbolic Z-matrix:
 Charge =  0 Multiplicity = 1
 C                    -0.3363   -0.58239   0.01017 
 H                     0.22016  -1.52268  -0.03752 
 H                    -1.41944  -0.58097  -0.03888 
 C                     0.33266   0.57591   0.00716 
 H                    -0.15635   1.57268  -0.0424 
 H                     1.44599   0.65511  -0.04064 
 

 GradGradGradGradGradGradGradGradGradGradGradGradGradGradGradGradGradGrad
 Berny optimization.
 Initialization pass.
 Trust Radius=3.00D-01 FncErr=1.00D-07 GrdErr=1.00D-07 EigMax=2.50D+02 EigMin=1.00D-04
 Number of steps in this run=      2 maximum allowed number of steps=      2.
 GradGradGradGradGradGradGradGradGradGradGradGradGradGradGradGradGradGrad

                          Input orientation:                          
 ---------------------------------------------------------------------
 Center     Atomic      Atomic             Coordinates (Angstroms)
 Number     Number       Type             X           Y           Z
 ---------------------------------------------------------------------
      1          6           0       -0.336303   -0.582387    0.010168
      2          1           0        0.220164   -1.522679   -0.037522
      3          1           0       -1.419441   -0.580968   -0.038875
      4          6           0        0.332663    0.575912    0.007156
      5          1           0       -0.156346    1.572676   -0.042400
      6          1           0        1.445987    0.655110   -0.040636
 ---------------------------------------------------------------------
                    Distance matrix (angstroms):
                    1          2          3          4          5
     1  C    0.000000
     2  H    1.093654   0.000000
     3  H    1.084249   1.890801   0.000000
     4  C    1.337602   2.102079   2.100085   0.000000
     5  H    2.163202   3.118173   2.496719   1.111361   0.000000
     6  H    2.170377   2.499083   3.120668   1.117160   1.846456
                    6
     6  H    0.000000
 Symmetry turned off by external request.
 Stoichiometry    C2H4
 Framework group  C1[X(C2H4)]
 Deg. of freedom    12
 Full point group                 C1      NOp   1
 Rotational constants (GHZ):         143.2585202          29.6634322          24.5942733
 Standard basis: 6-311G (5D, 7F)
    38 basis functions,    72 primitive gaussians,    38 cartesian basis functions
     8 alpha electrons        8 beta electrons
       nuclear repulsion energy        33.0551239626 Hartrees.
 NAtoms=    6 NActive=    6 NUniq=    6 SFac= 1.00D+00 NAtFMM=   60 NAOKFM=F Big=F
 Integral buffers will be    131072 words long.
 Raffenetti 2 integral format.
 Two-electron integral symmetry is turned off.
 Nuclear repulsion after empirical dispersion term =       33.0542827865 Hartrees.
 One-electron integrals computed using PRISM.
 NBasis=    38 RedAO= T EigKep=  6.42D-03  NBF=    38
 NBsUse=    38 1.00D-06 EigRej= -1.00D+00 NBFU=    38
 Initial guess from the checkpoint file:  "geometry.chk"
 B after Tr=    -0.000201   -0.000333   -0.000447
         Rot=    1.000000   -0.000001    0.000001    0.000006 Ang=  -0.00 deg.
 Keep R1 ints in memory in canonical form, NReq=4036876.
 Requested convergence on RMS density matrix=1.00D-08 within  32 cycles.
 Requested convergence on MAX density matrix=1.00D-06.
 Requested convergence on             energy=1.00D-06.
 No special actions if energy rises.
 SCF Done:  E(RwB97XD) =  -78.5548452714     A.U. after    8 cycles
            NFock=  8  Conv=0.61D-08     -V/T= 2.0052
 QCSCF skips out because SCF is already converged.

 **********************************************************************

            Population analysis using the SCF Density.

 **********************************************************************

 Alpha  occ. eigenvalues --  -10.29139 -10.28777  -0.86398  -0.67192  -0.55911
 Alpha  occ. eigenvalues --   -0.50968  -0.43549  -0.35706
 Alpha virt. eigenvalues --    0.07944   0.14074   0.16425   0.16982   0.24069
 Alpha virt. eigenvalues --    0.37278   0.39218   0.40087   0.46294   0.48890
 Alpha virt. eigenvalues --    0.49367   0.59099   0.66484   0.69033   0.77153
 Alpha virt. eigenvalues --    0.77608   0.83603   0.95240   2.23147   2.28988
 Alpha virt. eigenvalues --    2.33310   2.40417   2.67128   2.81622   2.87997
 Alpha virt. eigenvalues --    2.95029   3.14108   3.31474  23.35131  23.70598
     Molecular Orbital Coefficients:
                           1         2         3         4         5
                           O         O         O         O         O
     Eigenvalues --   -10.29139 -10.28777  -0.86398  -0.67192  -0.55911
   1 1   C  1S          0.06903   0.55914  -0.08874   0.06634  -0.00034
   2        2S          0.05701   0.46017  -0.14028   0.10623  -0.00055
   3        2PX         0.00016   0.00000   0.02606   0.03624   0.13940
   4        2PY         0.00028   0.00001   0.04620   0.06003  -0.07614
   5        2PZ         0.00000  -0.00001  -0.00204   0.00302   0.00028
   6        3S          0.00092   0.01463   0.37630  -0.28981   0.00153
   7        3PX        -0.00063   0.00039   0.03462   0.05813   0.21857
   8        3PY        -0.00108   0.00070   0.06105   0.09719  -0.12003
   9        3PZ        -0.00002  -0.00005  -0.00342   0.00536   0.00041
  10        4S          0.00411  -0.01450   0.19235  -0.22469   0.00123
  11        4PX         0.00158  -0.00146   0.00476   0.02326   0.11241
  12        4PY         0.00272  -0.00252   0.00842   0.03989  -0.06238
  13        4PZ        -0.00000   0.00013  -0.00118   0.00268   0.00020
  14 2   H  1S         -0.00004  -0.00007   0.05328  -0.08746   0.10508
  15        2S         -0.00030   0.00009   0.05438  -0.10523   0.13303
  16        3S          0.00074   0.00174  -0.00182  -0.01517   0.04311
  17 3   H  1S         -0.00005  -0.00008   0.05436  -0.09034  -0.10729
  18        2S         -0.00031   0.00007   0.05507  -0.10801  -0.13499
  19        3S          0.00075   0.00177  -0.00184  -0.01590  -0.04376
  20 4   C  1S          0.55916  -0.06922  -0.08651  -0.06872  -0.00009
  21        2S          0.46022  -0.05676  -0.13659  -0.11021  -0.00013
  22        2PX        -0.00001  -0.00017  -0.02779   0.03781   0.11594
  23        2PY        -0.00001  -0.00029  -0.04732   0.06661  -0.07136
  24        2PZ        -0.00000   0.00000  -0.00152  -0.00302   0.00029
  25        3S          0.01419  -0.00265   0.36593   0.30122   0.00035
  26        3PX        -0.00025   0.00072  -0.03466   0.06139   0.18151
  27        3PY        -0.00042   0.00124  -0.05889   0.10783  -0.11096
  28        3PZ        -0.00005  -0.00001  -0.00262  -0.00547   0.00044
  29        4S         -0.01268   0.00767   0.18838   0.24024  -0.00064
  30        4PX         0.00099  -0.00185  -0.00548   0.02688   0.10070
  31        4PY         0.00168  -0.00323  -0.00923   0.04627  -0.06097
  32        4PZ         0.00010  -0.00002  -0.00112  -0.00286   0.00023
  33 5   H  1S         -0.00005  -0.00005   0.04875   0.09330  -0.08670
  34        2S         -0.00000  -0.00032   0.05009   0.11172  -0.10968
  35        3S          0.00176   0.00025  -0.00109   0.01680  -0.03528
  36 6   H  1S         -0.00004  -0.00005   0.04797   0.09222   0.08319
  37        2S         -0.00001  -0.00032   0.04965   0.11076   0.10550
  38        3S          0.00173   0.00024  -0.00113   0.01644   0.03420
                           6         7         8         9        10
                           O         O         O         V         V
     Eigenvalues --    -0.50968  -0.43549  -0.35706   0.07944   0.14074
   1 1   C  1S         -0.00320   0.00010  -0.00159   0.00415  -0.03214
   2        2S         -0.00474   0.00018  -0.00259   0.00689  -0.05152
   3        2PX         0.09499  -0.10854  -0.00512   0.00221  -0.03223
   4        2PY         0.16786   0.06457  -0.00873   0.00368  -0.06322
   5        2PZ         0.00773   0.00004   0.17931  -0.18866  -0.00350
   6        3S          0.01870  -0.00034   0.00757  -0.02087   0.11136
   7        3PX         0.13795  -0.17311  -0.00724   0.00333  -0.03862
   8        3PY         0.24495   0.10332  -0.01234   0.00548  -0.07846
   9        3PZ         0.01226   0.00010   0.28857  -0.27762  -0.00563
  10        4S         -0.05477  -0.00251   0.01049  -0.02369   1.19860
  11        4PX         0.06943  -0.10837  -0.00601   0.01894  -0.19324
  12        4PY         0.12409   0.06504  -0.01030   0.03191  -0.37083
  13        4PZ         0.00697   0.00012   0.26685  -0.69327  -0.02074
  14 2   H  1S         -0.08051  -0.11308   0.00021   0.00652  -0.01593
  15        2S         -0.11136  -0.17435   0.00309   0.01031  -0.04542
  16        3S         -0.04159  -0.08061   0.00183   0.02670  -0.80360
  17 3   H  1S         -0.07964   0.11094   0.00008   0.00653  -0.01315
  18        2S         -0.10959   0.17042   0.00291   0.01036  -0.03893
  19        3S         -0.04064   0.07855   0.00173   0.02626  -0.75852
  20 4   C  1S         -0.00884  -0.00039  -0.00115  -0.00397  -0.03740
  21        2S         -0.01385  -0.00064  -0.00187  -0.00657  -0.06008
  22        2PX        -0.09749   0.12647   0.00499   0.00252   0.04029
  23        2PY        -0.16202  -0.07465   0.00919   0.00469   0.06317
  24        2PZ         0.00809   0.00034   0.17903   0.18933  -0.00479
  25        3S          0.04458   0.00185   0.00553   0.01968   0.13317
  26        3PX        -0.14432   0.20274   0.00694   0.00387   0.04893
  27        3PY        -0.23858  -0.11911   0.01288   0.00720   0.07490
  28        3PZ         0.01279   0.00051   0.28628   0.27737  -0.00725
  29        4S         -0.02783   0.00213   0.00991   0.02237   1.26238
  30        4PX        -0.07541   0.13104   0.00524   0.01958   0.26471
  31        4PY        -0.12362  -0.07649   0.00993   0.03516   0.42692
  32        4PZ         0.00741   0.00032   0.26707   0.69483  -0.02798
  33 5   H  1S         -0.07464  -0.12619   0.00041  -0.00596  -0.01340
  34        2S         -0.10206  -0.19772   0.00327  -0.01004  -0.04011
  35        3S         -0.03813  -0.09339   0.00183  -0.02671  -0.84899
  36 6   H  1S         -0.07959   0.12546   0.00027  -0.00596  -0.01597
  37        2S         -0.10911   0.19727   0.00304  -0.01005  -0.04672
  38        3S         -0.04087   0.09319   0.00169  -0.02693  -0.89521
                          11        12        13        14        15
                           V         V         V         V         V
     Eigenvalues --     0.16425   0.16982   0.24069   0.37278   0.39218
   1 1   C  1S          0.00051  -0.04626   0.00005   0.00911   0.00027
   2        2S          0.00082  -0.07538   0.00008   0.01222   0.00031
   3        2PX         0.09535  -0.02084   0.10047  -0.03541  -0.02146
   4        2PY        -0.05371  -0.03718  -0.05754  -0.06399   0.01075
   5        2PZ         0.00007  -0.01023   0.00005  -0.00712  -0.00026
   6        3S         -0.00174   0.17049   0.00022   0.03575   0.00224
   7        3PX         0.13705  -0.01248   0.10598  -0.04258  -0.10016
   8        3PY        -0.07776  -0.02364  -0.06137  -0.08153   0.05519
   9        3PZ         0.00010  -0.01422  -0.00001  -0.01484  -0.00056
  10        4S         -0.02803   1.46827  -0.01619  -2.50808  -0.08901
  11        4PX         0.57782  -0.12300   1.16896  -1.54211  -0.53054
  12        4PY        -0.31835  -0.21029  -0.66983  -2.69146   0.16901
  13        4PZ         0.00062  -0.06684   0.00120  -0.06438  -0.00344
  14 2   H  1S         -0.02960  -0.02507   0.01465  -0.05940   0.07340
  15        2S         -0.08374  -0.01770  -0.01949  -0.67572   0.73926
  16        3S         -1.04182  -1.01970  -1.55610  -0.30108  -0.28926
  17 3   H  1S          0.02872  -0.02511  -0.01631  -0.05314  -0.07641
  18        2S          0.08272  -0.02059   0.01451  -0.62464  -0.77509
  19        3S          1.07680  -1.03610   1.57961  -0.36166   0.24657
  20 4   C  1S          0.00117   0.04148  -0.00008  -0.02037  -0.00019
  21        2S          0.00187   0.06753  -0.00014  -0.03365  -0.00029
  22        2PX         0.10313  -0.02328  -0.10034  -0.04039  -0.03192
  23        2PY        -0.06198  -0.03678   0.05752  -0.07221   0.01479
  24        2PZ         0.00033   0.00966  -0.00007   0.00484   0.00026
  25        3S         -0.00380  -0.14972   0.00030   0.04935  -0.00019
  26        3PX         0.14839  -0.01872  -0.11500  -0.09318  -0.11038
  27        3PY        -0.08822  -0.02702   0.06506  -0.16894   0.05532
  28        3PZ         0.00046   0.01330  -0.00005   0.00545   0.00039
  29        4S         -0.05085  -1.30465   0.00851   3.26207   0.11882
  30        4PX         0.53944  -0.11585  -1.11145  -1.12867  -0.49775
  31        4PY        -0.32791  -0.18745   0.64253  -1.97865   0.17626
  32        4PZ         0.00201   0.06275  -0.00129   0.05239   0.00200
  33 5   H  1S          0.03230   0.02484   0.00431   0.00698  -0.08356
  34        2S          0.06855   0.02241  -0.03570   0.02940  -0.83039
  35        3S          1.07295   0.90711  -1.50334   0.44408   0.50455
  36 6   H  1S         -0.03200   0.02572  -0.00345   0.00195   0.08694
  37        2S         -0.06857   0.02218   0.03617  -0.01323   0.86752
  38        3S         -1.00417   0.92696   1.49166   0.46384  -0.49204
                          16        17        18        19        20
                           V         V         V         V         V
     Eigenvalues --     0.40087   0.46294   0.48890   0.49367   0.59099
   1 1   C  1S         -0.01897   0.01451  -0.04531  -0.00174  -0.00078
   2        2S         -0.03315   0.03226  -0.07530  -0.00247  -0.00138
   3        2PX         0.02934  -0.06185   0.00821   0.00198   0.00303
   4        2PY         0.05187  -0.10724   0.00992   0.00282   0.00465
   5        2PZ         0.00077  -0.00085   0.01181  -0.15107  -0.19267
   6        3S          0.07310  -0.33844   0.07127  -0.01282  -0.00170
   7        3PX         0.10941  -0.23787  -0.04894  -0.00104   0.01012
   8        3PY         0.19639  -0.41112  -0.09350  -0.00366   0.01560
   9        3PZ        -0.00509  -0.00735   0.05167  -0.62535  -0.68575
  10        4S          2.85858   0.00065   3.09175   0.22195   0.10627
  11        4PX         0.33929   0.19724   0.81821   0.06724   0.03253
  12        4PY         0.58301   0.36744   1.42053   0.11917   0.05702
  13        4PZ        -0.00246   0.00621  -0.15317   0.67670   1.24131
  14 2   H  1S         -0.02716  -0.02994  -0.07684  -0.00616  -0.00254
  15        2S         -0.54396  -0.28125  -0.92250  -0.06415  -0.01933
  16        3S          0.33627   0.03185   0.63374   0.06395   0.03510
  17 3   H  1S         -0.02913  -0.03186  -0.07523  -0.00604  -0.00245
  18        2S         -0.55450  -0.30349  -0.90242  -0.06312  -0.01764
  19        3S          0.33266   0.03464   0.60859   0.06203   0.03460
  20 4   C  1S          0.00024  -0.00548   0.05082   0.00605   0.00109
  21        2S         -0.00323  -0.00175   0.08895   0.01088   0.00205
  22        2PX         0.01089   0.05308   0.02975   0.00103   0.00308
  23        2PY         0.01901   0.09199   0.05309   0.00161   0.00591
  24        2PZ        -0.00582  -0.00304   0.01206  -0.15251   0.19216
  25        3S          0.07964  -0.27154  -0.25143  -0.04004  -0.00452
  26        3PX        -0.03808   0.23011   0.06855   0.00254   0.01084
  27        3PY        -0.06402   0.40122   0.12046   0.00331   0.02065
  28        3PZ        -0.01613  -0.01193   0.04598  -0.63055   0.68154
  29        4S         -1.07894   0.88924  -3.01747  -0.25045  -0.09094
  30        4PX         1.34044  -0.36211   0.58141   0.03812   0.03310
  31        4PY         2.36814  -0.60864   0.99058   0.06482   0.05574
  32        4PZ        -0.04982  -0.02661   0.03197   0.69927  -1.23697
  33 5   H  1S         -0.04347  -0.06813   0.06089   0.00528   0.00234
  34        2S         -0.81322  -0.69974   0.77322   0.07510   0.00810
  35        3S         -0.23001   0.30914  -0.53404  -0.03064  -0.03416
  36 6   H  1S         -0.04145  -0.06710   0.06091   0.00532   0.00238
  37        2S         -0.78489  -0.68518   0.76847   0.07449   0.00871
  38        3S         -0.22978   0.31979  -0.54593  -0.03225  -0.03453
                          21        22        23        24        25
                           V         V         V         V         V
     Eigenvalues --     0.66484   0.69033   0.77153   0.77608   0.83603
   1 1   C  1S          0.00053  -0.00059   0.05013   0.07382   0.00112
   2        2S          0.00110  -0.00128   0.10570   0.15737   0.00251
   3        2PX        -0.12271   0.20468  -0.02717   0.11232  -0.01160
   4        2PY         0.07141  -0.12164  -0.04730   0.18505   0.01311
   5        2PZ        -0.00008   0.00023   0.00096   0.00740   0.00019
   6        3S         -0.00891   0.01450  -0.70513  -1.35818  -0.02428
   7        3PX        -0.58133   0.72519  -0.17999   0.43694  -0.23184
   8        3PY         0.33565  -0.43044  -0.31268   0.71163   0.15877
   9        3PZ        -0.00051   0.00090   0.00369   0.02580   0.00067
  10        4S          0.01616  -0.05731   0.65563   2.46849  -0.01267
  11        4PX         1.05740  -0.78730   0.14707  -0.72877   4.50449
  12        4PY        -0.61047   0.47454   0.21664  -1.01223  -2.58242
  13        4PZ         0.00050   0.00115   0.01498  -0.08330   0.00493
  14 2   H  1S          0.02084  -0.06031   0.00981   0.03280  -0.02619
  15        2S          0.10213  -0.66979   0.08349   0.09350  -1.57124
  16        3S         -0.99493   1.14241  -0.08154  -1.11720  -1.23899
  17 3   H  1S         -0.02034   0.05980   0.00982   0.03333   0.02911
  18        2S         -0.11210   0.69453   0.09707   0.06509   1.60334
  19        3S          0.98878  -1.11214  -0.07546  -1.23521   1.23508
  20 4   C  1S          0.00074  -0.00052   0.08353   0.03239   0.00071
  21        2S          0.00151  -0.00103   0.17782   0.06823   0.00148
  22        2PX        -0.15998  -0.17665  -0.09864   0.05153   0.01217
  23        2PY         0.09188   0.09922  -0.17498   0.09380  -0.00202
  24        2PZ        -0.00016  -0.00028   0.00751  -0.00151  -0.00016
  25        3S         -0.01080   0.00315  -1.48866  -0.39926  -0.00862
  26        3PX        -0.71062  -0.58477  -0.36158   0.27583   0.24409
  27        3PY         0.40988   0.32599  -0.64429   0.50014  -0.11420
  28        3PZ        -0.00078  -0.00094   0.02662  -0.00581  -0.00037
  29        4S          0.00760   0.02514   2.70525   0.16522   0.00148
  30        4PX         1.30522   0.65043   0.54140  -0.25847  -4.11043
  31        4PY        -0.74859  -0.36105   1.00727  -0.65526   2.33967
  32        4PZ         0.00148  -0.00052  -0.07809   0.03716  -0.00443
  33 5   H  1S         -0.02782  -0.05396   0.03468   0.00356  -0.02121
  34        2S         -0.16848  -0.54896   0.06376   0.07275  -1.37321
  35        3S          1.14957   0.91751  -1.14257   0.27675  -1.07600
  36 6   H  1S          0.02825   0.05369   0.03447   0.00408   0.02144
  37        2S          0.16472   0.52799   0.06513   0.02491   1.36767
  38        3S         -1.15151  -0.92702  -1.10145   0.21624   1.08577
                          26        27        28        29        30
                           V         V         V         V         V
     Eigenvalues --     0.95240   2.23147   2.28988   2.33310   2.40417
   1 1   C  1S          0.09597  -0.01027  -0.01480   0.00026  -0.00037
   2        2S          0.19947   0.00144  -0.01500   0.00063  -0.00041
   3        2PX        -0.09143  -0.07426  -0.13310   0.34766  -0.40489
   4        2PY        -0.15834  -0.13851  -0.23141  -0.19817   0.23029
   5        2PZ         0.00034  -0.02068  -0.02769   0.00005  -0.00092
   6        3S         -1.54577  -0.18706  -0.03601  -0.00123  -0.00382
   7        3PX        -0.23381   0.06771   0.21055  -0.41431   0.56554
   8        3PY        -0.39969   0.13827   0.37660   0.23790  -0.32364
   9        3PZ        -0.00368   0.02061   0.03444   0.00009   0.00105
  10        4S          5.71714  -0.11116  -0.88944  -0.00083  -0.01804
  11        4PX         1.19024   0.05546  -0.19231  -0.05976   0.96179
  12        4PY         2.00131   0.07622  -0.35566   0.02693  -0.53779
  13        4PZ        -0.02916   0.00484   0.01279  -0.00034   0.00193
  14 2   H  1S          0.01507  -0.70418  -0.79864  -0.70242   0.65813
  15        2S         -0.28293   1.00042   1.19712   1.08836  -1.46300
  16        3S         -0.09366  -0.29494  -0.47404  -0.46185   0.36926
  17 3   H  1S          0.01524  -0.69521  -0.79911   0.69411  -0.67625
  18        2S         -0.26367   0.98860   1.20098  -1.07890   1.50002
  19        3S         -0.08182  -0.27538  -0.46251   0.45217  -0.36343
  20 4   C  1S         -0.09376  -0.00996   0.01180   0.00031   0.00017
  21        2S         -0.19446   0.00070   0.01158   0.00038   0.00034
  22        2PX        -0.09270   0.13828  -0.12205   0.30229   0.41507
  23        2PY        -0.16004   0.24192  -0.20564  -0.17476  -0.23785
  24        2PZ         0.00055  -0.02177   0.02629   0.00057   0.00044
  25        3S          1.50302  -0.16760   0.01777   0.00062  -0.00067
  26        3PX        -0.22822  -0.17867   0.21057  -0.38171  -0.58304
  27        3PY        -0.39739  -0.31035   0.35104   0.21901   0.33443
  28        3PZ         0.00548   0.02365  -0.03372  -0.00065  -0.00065
  29        4S         -5.68559  -0.16593   0.88385   0.01213   0.00246
  30        4PX         1.11595  -0.01362  -0.19474   0.12160  -0.81852
  31        4PY         1.97391  -0.02649  -0.31850  -0.07007   0.47487
  32        4PZ         0.01813   0.00663  -0.00931  -0.00003  -0.00154
  33 5   H  1S         -0.01826  -0.79237   0.67003   0.70938   0.68321
  34        2S          0.29791   1.15223  -1.02402  -1.02491  -1.43470
  35        3S          0.05830  -0.36393   0.40158   0.51951   0.44113
  36 6   H  1S         -0.01829  -0.78640   0.68795  -0.69680  -0.68435
  37        2S          0.31163   1.14212  -1.04681   1.00428   1.43200
  38        3S          0.06216  -0.36175   0.42213  -0.51504  -0.44590
                          31        32        33        34        35
                           V         V         V         V         V
     Eigenvalues --     2.67128   2.81622   2.87997   2.95029   3.14108
   1 1   C  1S          0.00078   0.00371  -0.01294  -0.00004  -0.00986
   2        2S          0.00063   0.01060  -0.04291  -0.00032  -0.03014
   3        2PX         0.00766   0.10678  -0.46996  -0.72164   0.44200
   4        2PY         0.01185   0.18800  -0.84720   0.40252   0.77514
   5        2PZ        -0.92268  -0.91947  -0.20273  -0.00166   0.00976
   6        3S         -0.00263  -0.08719   0.37683   0.00426   0.25279
   7        3PX        -0.00561  -0.18415   0.82830   0.86997  -0.42043
   8        3PY        -0.00856  -0.32165   1.46882  -0.47274  -0.73765
   9        3PZ         0.93746   1.12312   0.25455   0.00225  -0.01268
  10        4S          0.02018   0.20445  -0.85631  -0.01366  -0.49549
  11        4PX        -0.00306   0.14709  -0.70609  -0.65916   0.20706
  12        4PY        -0.00447   0.25771  -1.25292   0.34926   0.36284
  13        4PZ        -0.33751  -0.60567  -0.16195  -0.00177   0.00734
  14 2   H  1S          0.01833  -0.02658   0.25904  -0.36685  -0.21290
  15        2S         -0.02080   0.01520  -0.21383   0.37580   0.16129
  16        3S         -0.00490   0.06022  -0.29884   0.27727   0.05500
  17 3   H  1S          0.01854  -0.02569   0.24948   0.36955  -0.21066
  18        2S         -0.02132   0.01324  -0.19797  -0.37439   0.15853
  19        3S         -0.00542   0.06035  -0.29810  -0.29277   0.06038
  20 4   C  1S          0.00074  -0.00362   0.01353   0.00045  -0.00692
  21        2S          0.00070  -0.01128   0.04779   0.00110  -0.02197
  22        2PX        -0.01103   0.09265  -0.39426  -0.81306  -0.50864
  23        2PY        -0.02049   0.16582  -0.70418   0.45213  -0.89983
  24        2PZ        -0.92637   0.91451   0.20656   0.00036   0.02018
  25        3S         -0.00393   0.09717  -0.43069  -0.00880   0.19102
  26        3PX         0.01146  -0.17000   0.75059   0.96658   0.54973
  27        3PY         0.02105  -0.30119   1.32746  -0.52868   0.97906
  28        3PZ         0.94236  -1.11780  -0.26058  -0.00048  -0.02534
  29        4S          0.02290  -0.20988   0.89643   0.02519  -0.36451
  30        4PX        -0.00127   0.14545  -0.69717  -0.70190  -0.33920
  31        4PY        -0.00318   0.25531  -1.22132   0.37717  -0.60832
  32        4PZ        -0.34003   0.60283   0.16720   0.00030   0.02013
  33 5   H  1S          0.01729   0.04076  -0.29675   0.42404  -0.26731
  34        2S         -0.02155  -0.03396   0.27473  -0.43741   0.21231
  35        3S         -0.00162  -0.05414   0.27320  -0.23544   0.12879
  36 6   H  1S          0.01747   0.04090  -0.29305  -0.43352  -0.25750
  37        2S         -0.02219  -0.03486   0.27487   0.44596   0.20389
  38        3S         -0.00118  -0.05192   0.26141   0.23918   0.12372
                          36        37        38
                           V         V         V
     Eigenvalues --     3.31474  23.35131  23.70598
   1 1   C  1S         -0.00034  -1.40825  -1.45788
   2        2S         -0.00052   1.50182   1.57652
   3        2PX         0.79475  -0.00655   0.01207
   4        2PY        -0.44525  -0.01082   0.02113
   5        2PZ         0.00126  -0.00085  -0.00039
   6        3S          0.00067  -0.29453  -0.40111
   7        3PX        -1.13473   0.02426  -0.05569
   8        3PY         0.63351   0.04058  -0.09688
   9        3PZ        -0.00194   0.00238   0.00118
  10        4S         -0.01123   0.27171   0.77116
  11        4PX         1.96175  -0.02655   0.13327
  12        4PY        -1.09817  -0.04531   0.23009
  13        4PZ         0.00325  -0.00401  -0.00476
  14 2   H  1S          0.56830   0.01358   0.00777
  15        2S         -0.87514   0.00733  -0.01513
  16        3S         -0.46755  -0.08484  -0.03985
  17 3   H  1S         -0.57775   0.01495   0.00869
  18        2S          0.88851   0.00714  -0.01527
  19        3S          0.48793  -0.08650  -0.04007
  20 4   C  1S          0.00003  -1.45307   1.41301
  21        2S         -0.00020   1.54977  -1.52816
  22        2PX        -0.70221   0.00596   0.01271
  23        2PY         0.40037   0.01058   0.02170
  24        2PZ        -0.00105  -0.00081   0.00018
  25        3S          0.00355  -0.30418   0.38925
  26        3PX         0.99879  -0.02198  -0.05678
  27        3PY        -0.57644  -0.03876  -0.09769
  28        3PZ         0.00157   0.00232  -0.00044
  29        4S         -0.01301   0.28150  -0.75901
  30        4PX        -1.73663   0.02276   0.13145
  31        4PY         1.00864   0.04125   0.22715
  32        4PZ        -0.00267  -0.00376   0.00318
  33 5   H  1S          0.46995   0.01238  -0.00374
  34        2S         -0.72772   0.00855   0.01329
  35        3S         -0.41348  -0.08213   0.03664
  36 6   H  1S         -0.46749   0.01151  -0.00300
  37        2S          0.72544   0.00941   0.01290
  38        3S          0.40804  -0.08097   0.03612
     Density Matrix:
                           1         2         3         4         5
   1 1   C  1S          0.65939
   2        2S          0.56151   0.49200
   3        2PX        -0.00050  -0.00066   0.08451
   4        2PY        -0.00117  -0.00160   0.00349   0.08792
   5        2PZ         0.00013   0.00020  -0.00018  -0.00040   0.06445
   6        3S         -0.08889  -0.15380   0.00258   0.00584  -0.00028
   7        3PX         0.00088   0.00135   0.13081   0.00098  -0.00014
   8        3PY         0.00127   0.00196   0.00100   0.13138  -0.00036
   9        3PZ         0.00026   0.00044  -0.00032  -0.00065   0.10372
  10        4S         -0.07928  -0.11412  -0.01589  -0.02828   0.00077
  11        4PX         0.00030   0.00165   0.07005  -0.00446  -0.00091
  12        4PY         0.00065   0.00308  -0.00450   0.06530  -0.00160
  13        4PZ        -0.00019  -0.00043  -0.00124  -0.00212   0.09582
  14 2   H  1S         -0.02072  -0.03299   0.03498  -0.06322  -0.00187
  15        2S         -0.02298  -0.03674   0.04895  -0.08782  -0.00141
  16        3S          0.00057  -0.00072   0.02040  -0.03296  -0.00005
  17 3   H  1S         -0.02112  -0.03361  -0.07284  -0.00190  -0.00202
  18        2S         -0.02325  -0.03713  -0.10044  -0.00216  -0.00159
  19        3S          0.00060  -0.00069  -0.03824   0.00105  -0.00011
  20 4   C  1S          0.00609   0.00981  -0.01091  -0.01892  -0.00061
  21        2S          0.00977   0.01528  -0.01747  -0.03028  -0.00099
  22        2PX         0.01032   0.01649  -0.01241  -0.03217   0.00070
  23        2PY         0.01795   0.02870  -0.03220  -0.04970   0.00134
  24        2PZ        -0.00075  -0.00122  -0.00059  -0.00092   0.06432
  25        3S         -0.02629  -0.03994   0.04901   0.08504   0.00300
  26        3PX         0.01588   0.02460  -0.01825  -0.04587   0.00089
  27        3PY         0.02762   0.04280  -0.04579  -0.07130   0.00175
  28        3PZ        -0.00127  -0.00205  -0.00102  -0.00161   0.10284
  29        4S          0.00542   0.00402   0.02119   0.03710   0.00381
  30        4PX         0.00303   0.00628  -0.01309  -0.02110   0.00096
  31        4PY         0.00518   0.01080  -0.02111  -0.03756   0.00193
  32        4PZ        -0.00109  -0.00175  -0.00160  -0.00262   0.09588
  33 5   H  1S          0.00418   0.00685  -0.00166  -0.01245  -0.00070
  34        2S          0.00626   0.01039   0.00362  -0.02511  -0.00001
  35        3S          0.00318   0.00466   0.00433  -0.01760   0.00015
  36 6   H  1S          0.00414   0.00680  -0.00998  -0.00769  -0.00072
  37        2S          0.00618   0.01028  -0.02356  -0.00939  -0.00005
  38        3S          0.00314   0.00461  -0.01734  -0.00505   0.00011
                           6         7         8         9        10
   6        3S          0.45244
   7        3PX        -0.00179   0.20279
   8        3PY        -0.00183  -0.00495   0.19682
   9        3PZ        -0.00085  -0.00026  -0.00057   0.16692
  10        4S          0.27270  -0.02668  -0.04813   0.00099   0.18166
  11        4PX        -0.00702   0.10893  -0.01012  -0.00148  -0.01548
  12        4PY        -0.01260  -0.01018   0.09823  -0.00257  -0.02888
  13        4PZ         0.00187  -0.00167  -0.00282   0.15421   0.00318
  14 2   H  1S          0.08818   0.05639  -0.09854  -0.00309   0.06945
  15        2S          0.09833   0.07928  -0.13641  -0.00237   0.08167
  16        3S          0.00613   0.03336  -0.05060  -0.00009   0.01117
  17 3   H  1S          0.08989  -0.11402  -0.00126  -0.00331   0.06942
  18        2S          0.09947  -0.15703  -0.00041  -0.00262   0.08060
  19        3S          0.00620  -0.05954   0.00347  -0.00017   0.01038
  20 4   C  1S         -0.02662  -0.01706  -0.02959  -0.00104   0.00515
  21        2S         -0.04027  -0.02652  -0.04602  -0.00168   0.00389
  22        2PX        -0.04613  -0.01760  -0.04563   0.00120  -0.01724
  23        2PY        -0.08032  -0.04572  -0.07072   0.00230  -0.02999
  24        2PZ         0.00362  -0.00081  -0.00123   0.10350   0.00364
  25        3S          0.10251   0.07206   0.12520   0.00502   0.00083
  26        3PX        -0.06652  -0.02603  -0.06485   0.00155  -0.02556
  27        3PY        -0.11577  -0.06482  -0.10140   0.00303  -0.04442
  28        3PZ         0.00601  -0.00142  -0.00218   0.16550   0.00605
  29        4S          0.00183   0.03215   0.05645   0.00633  -0.03258
  30        4PX        -0.02228  -0.01949  -0.02962   0.00161  -0.00617
  31        4PY        -0.03846  -0.02968  -0.05412   0.00319  -0.01025
  32        4PZ         0.00514  -0.00225  -0.00365   0.15429   0.00565
  33 5   H  1S         -0.02036  -0.00059  -0.01775  -0.00102  -0.01457
  34        2S         -0.03104   0.00876  -0.03677   0.00011  -0.01895
  35        3S         -0.01199   0.00824  -0.02642   0.00026  -0.00337
  36 6   H  1S         -0.02015  -0.01499  -0.00926  -0.00104  -0.01469
  37        2S         -0.03068  -0.03601  -0.01050   0.00006  -0.01938
  38        3S         -0.01183  -0.02678  -0.00596   0.00021  -0.00369
                          11        12        13        14        15
  11        4PX         0.05961
  12        4PY        -0.00881   0.05060
  13        4PZ        -0.00211  -0.00358   0.14253
  14 2   H  1S          0.03339  -0.05388  -0.00159   0.08160
  15        2S          0.04781  -0.07445  -0.00058   0.10952   0.14907
  16        3S          0.02064  -0.02747   0.00032   0.03645   0.05184
  17 3   H  1S         -0.06291   0.00176  -0.00170  -0.01322  -0.02457
  18        2S         -0.08704   0.00406  -0.00069  -0.02450  -0.04219
  19        3S         -0.03329   0.00425   0.00028  -0.01783  -0.02682
  20 4   C  1S         -0.00320  -0.00576  -0.00092   0.00426   0.00677
  21        2S         -0.00660  -0.01177  -0.00148   0.00704   0.01131
  22        2PX        -0.01345  -0.01976   0.00165   0.00189  -0.00249
  23        2PY        -0.01982  -0.03669   0.00307   0.01128   0.02402
  24        2PZ        -0.00119  -0.00194   0.09565  -0.00088  -0.00027
  25        3S          0.02336   0.04143   0.00433  -0.02121  -0.03405
  26        3PX        -0.02074  -0.02792   0.00223   0.00111  -0.00691
  27        3PY        -0.02797  -0.05352   0.00419   0.01690   0.03613
  28        3PZ        -0.00196  -0.00319   0.15294  -0.00129  -0.00028
  29        4S          0.00832   0.01547   0.00575  -0.01808  -0.02472
  30        4PX        -0.01509  -0.01227   0.00197  -0.00161  -0.00833
  31        4PY        -0.01233  -0.02967   0.00380   0.01532   0.02730
  32        4PZ        -0.00235  -0.00390   0.14262  -0.00073   0.00043
  33 5   H  1S          0.00229  -0.01587  -0.00050   0.01121   0.02323
  34        2S          0.00966  -0.02767   0.00071   0.02390   0.04445
  35        3S          0.00777  -0.01591   0.00050   0.01679   0.02802
  36 6   H  1S         -0.01479  -0.00565  -0.00052  -0.00909  -0.01808
  37        2S         -0.02860  -0.00497   0.00067  -0.01895  -0.03431
  38        3S         -0.01744  -0.00102   0.00046  -0.01030  -0.01787
                          16        17        18        19        20
  16        3S          0.02065
  17 3   H  1S         -0.01797   0.08256
  18        2S         -0.02691   0.10974   0.14797
  19        3S         -0.01255   0.03596   0.05074   0.02000
  20 4   C  1S          0.00377   0.00431   0.00678   0.00376   0.65948
  21        2S          0.00556   0.00712   0.01132   0.00553   0.56156
  22        2PX        -0.00331   0.00886   0.02197   0.01656   0.00122
  23        2PY         0.01754   0.00738   0.00979   0.00577   0.00198
  24        2PZ         0.00005  -0.00087  -0.00021   0.00009   0.00012
  25        3S         -0.01442  -0.02141  -0.03397  -0.01426  -0.08928
  26        3PX        -0.00674   0.01417   0.03469   0.02590  -0.00047
  27        3PY         0.02647   0.00950   0.01195   0.00723  -0.00097
  28        3PZ         0.00011  -0.00127  -0.00019   0.00018   0.00027
  29        4S         -0.00601  -0.01788  -0.02408  -0.00564  -0.08038
  30        4PX        -0.00695   0.01403   0.02762   0.01708  -0.00018
  31        4PY         0.01601   0.00644   0.00653   0.00195  -0.00020
  32        4PZ         0.00042  -0.00072   0.00047   0.00045  -0.00004
  33 5   H  1S          0.01607  -0.00907  -0.01803  -0.00932  -0.01988
  34        2S          0.02735  -0.01882  -0.03401  -0.01690  -0.02201
  35        3S          0.01469  -0.01023  -0.01769  -0.00901   0.00056
  36 6   H  1S         -0.00940   0.01121   0.02311   0.01579  -0.01972
  37        2S         -0.01716   0.02390   0.04423   0.02693  -0.02203
  38        3S         -0.00916   0.01675   0.02782   0.01446   0.00048
                          21        22        23        24        25
  21        2S          0.49204
  22        2PX         0.00176   0.08233
  23        2PY         0.00284   0.00392   0.08735
  24        2PZ         0.00018   0.00022   0.00032   0.06426
  25        3S         -0.15425  -0.00565  -0.00917  -0.00022   0.45373
  26        3PX        -0.00071   0.12815   0.00217   0.00013  -0.00031
  27        3PY        -0.00146   0.00222   0.13110   0.00014   0.00019
  28        3PZ         0.00045   0.00033   0.00049   0.10275  -0.00091
  29        4S         -0.11622   0.01361   0.02315   0.00108   0.27983
  30        4PX        -0.00143   0.07359  -0.00531   0.00066   0.00611
  31        4PY        -0.00226  -0.00527   0.06740   0.00122   0.00995
  32        4PZ        -0.00017   0.00120   0.00215   0.09577   0.00108
  33 5   H  1S         -0.03168  -0.03312   0.06323  -0.00191   0.08471
  34        2S         -0.03518  -0.04985   0.08845  -0.00150   0.09409
  35        3S         -0.00064  -0.02302   0.03371  -0.00014   0.00563
  36 6   H  1S         -0.03144   0.07085   0.00293  -0.00176   0.08410
  37        2S         -0.03522   0.10128   0.00096  -0.00130   0.09417
  38        3S         -0.00075   0.04079  -0.00322  -0.00007   0.00587
                          26        27        28        29        30
  26        3PX         0.19979
  27        3PY        -0.00221   0.19736
  28        3PZ         0.00016   0.00018   0.16432
  29        4S          0.02526   0.04282   0.00135   0.18860
  30        4PX         0.11521  -0.01101   0.00103   0.01553   0.06757
  31        4PY        -0.01102   0.10205   0.00193   0.02549  -0.01098
  32        4PZ         0.00151   0.00273   0.15314   0.00308   0.00167
  33 5   H  1S         -0.05302   0.09930  -0.00316   0.06694  -0.03479
  34        2S         -0.08024   0.13841  -0.00253   0.07759  -0.05302
  35        3S         -0.03751   0.05207  -0.00023   0.00943  -0.02489
  36 6   H  1S          0.11204   0.00387  -0.00294   0.06725   0.06608
  37        2S          0.15998  -0.00023  -0.00223   0.07876   0.09485
  38        3S          0.06412  -0.00657  -0.00012   0.01010   0.03839
                          31        32        33        34        35
  31        4PY         0.05437
  32        4PZ         0.00315   0.14278
  33 5   H  1S          0.05607  -0.00165   0.08019
  34        2S          0.07833  -0.00070   0.10989   0.15308
  35        3S          0.02963   0.00025   0.03841   0.05611   0.02342
  36 6   H  1S         -0.00201  -0.00155  -0.01232  -0.02620  -0.02024
  37        2S         -0.00667  -0.00056  -0.02628  -0.04914  -0.03235
  38        3S         -0.00674   0.00028  -0.02039  -0.03244  -0.01614
                          36        37        38
  36 6   H  1S          0.07960
  37        2S          0.10961   0.15339
  38        3S          0.03850   0.05644   0.02360
    Full Mulliken population analysis:
                           1         2         3         4         5
   1 1   C  1S          0.65939
   2        2S          0.49325   0.49200
   3        2PX         0.00000   0.00000   0.08451
   4        2PY         0.00000   0.00000   0.00000   0.08792
   5        2PZ         0.00000   0.00000   0.00000   0.00000   0.06445
   6        3S         -0.02926  -0.06441   0.00000   0.00000   0.00000
   7        3PX         0.00000   0.00000   0.08230   0.00000   0.00000
   8        3PY         0.00000   0.00000   0.00000   0.08265   0.00000
   9        3PZ         0.00000   0.00000   0.00000   0.00000   0.06525
  10        4S         -0.01219  -0.02136   0.00000   0.00000   0.00000
  11        4PX         0.00000   0.00000   0.01543   0.00000   0.00000
  12        4PY         0.00000   0.00000   0.00000   0.01438   0.00000
  13        4PZ         0.00000   0.00000   0.00000   0.00000   0.02110
  14 2   H  1S         -0.00024  -0.00034   0.00187   0.00570   0.00001
  15        2S         -0.00169  -0.00323   0.00436   0.01320   0.00001
  16        3S          0.00005  -0.00007   0.00069   0.00189   0.00000
  17 3   H  1S         -0.00026  -0.00037   0.00794  -0.00000   0.00001
  18        2S         -0.00175  -0.00334   0.01774  -0.00000   0.00001
  19        3S          0.00005  -0.00007   0.00254   0.00000   0.00000
  20 4   C  1S          0.00000   0.00000  -0.00002  -0.00006   0.00000
  21        2S          0.00000  -0.00000  -0.00002  -0.00006   0.00000
  22        2PX        -0.00002  -0.00002   0.00011   0.00086   0.00000
  23        2PY        -0.00006  -0.00005   0.00086   0.00197   0.00000
  24        2PZ        -0.00000  -0.00000  -0.00000  -0.00000   0.00042
  25        3S         -0.00059  -0.00100   0.00256   0.00769  -0.00000
  26        3PX        -0.00054  -0.00099   0.00019   0.00555   0.00000
  27        3PY        -0.00162  -0.00297   0.00554   0.01071   0.00000
  28        3PZ        -0.00000  -0.00000  -0.00000  -0.00000   0.00611
  29        4S          0.00034   0.00030   0.00096   0.00292  -0.00000
  30        4PX        -0.00018  -0.00045  -0.00071   0.00146   0.00000
  31        4PY        -0.00052  -0.00133   0.00146   0.00097   0.00000
  32        4PZ        -0.00000  -0.00000  -0.00000  -0.00000   0.00903
  33 5   H  1S          0.00000   0.00000  -0.00000  -0.00000   0.00000
  34        2S          0.00001   0.00002   0.00000  -0.00031   0.00000
  35        3S          0.00007   0.00013   0.00001  -0.00070  -0.00000
  36 6   H  1S          0.00000   0.00000  -0.00000  -0.00000   0.00000
  37        2S          0.00001   0.00002  -0.00023  -0.00006   0.00000
  38        3S          0.00007   0.00012  -0.00056  -0.00011  -0.00000
                           6         7         8         9        10
   6        3S          0.45244
   7        3PX         0.00000   0.20279
   8        3PY         0.00000   0.00000   0.19682
   9        3PZ         0.00000   0.00000   0.00000   0.16692
  10        4S          0.21126   0.00000   0.00000   0.00000   0.18166
  11        4PX         0.00000   0.07118   0.00000   0.00000   0.00000
  12        4PY         0.00000   0.00000   0.06419   0.00000   0.00000
  13        4PZ         0.00000   0.00000   0.00000   0.10077   0.00000
  14 2   H  1S          0.01634   0.01100   0.03248   0.00005   0.01843
  15        2S          0.04159   0.01974   0.05740   0.00005   0.04720
  16        3S          0.00283   0.00395   0.01012   0.00000   0.00845
  17 3   H  1S          0.01709   0.04441  -0.00000   0.00006   0.01860
  18        2S          0.04268   0.07721  -0.00000   0.00006   0.04692
  19        3S          0.00288   0.01380   0.00000   0.00000   0.00788
  20 4   C  1S         -0.00060  -0.00058  -0.00174   0.00000   0.00033
  21        2S         -0.00101  -0.00106  -0.00320   0.00000   0.00030
  22        2PX         0.00241   0.00018   0.00552   0.00000   0.00078
  23        2PY         0.00727   0.00553   0.01062   0.00000   0.00236
  24        2PZ         0.00000  -0.00000  -0.00000   0.00615   0.00000
  25        3S          0.02188   0.01352   0.04067  -0.00000   0.00031
  26        3PX         0.01248  -0.00126   0.01852   0.00000   0.00394
  27        3PY         0.03761   0.01851   0.02849   0.00000   0.01186
  28        3PZ         0.00001  -0.00000  -0.00000   0.03532   0.00000
  29        4S          0.00069   0.00496   0.01507  -0.00000  -0.02046
  30        4PX         0.00626  -0.00400   0.00586   0.00000   0.00187
  31        4PY         0.01871   0.00588   0.00125   0.00000   0.00538
  32        4PZ         0.00001  -0.00000  -0.00000   0.04933   0.00001
  33 5   H  1S         -0.00005  -0.00000  -0.00018   0.00000  -0.00077
  34        2S         -0.00117   0.00006  -0.00315  -0.00000  -0.00313
  35        3S         -0.00193   0.00011  -0.00422  -0.00000  -0.00120
  36 6   H  1S         -0.00005  -0.00012  -0.00005   0.00000  -0.00076
  37        2S         -0.00113  -0.00250  -0.00051  -0.00000  -0.00317
  38        3S         -0.00189  -0.00350  -0.00054  -0.00000  -0.00131
                          11        12        13        14        15
  11        4PX         0.05961
  12        4PY         0.00000   0.05060
  13        4PZ         0.00000   0.00000   0.14253
  14 2   H  1S          0.00636   0.01735   0.00003   0.08160
  15        2S          0.01533   0.04033   0.00002   0.07736   0.14907
  16        3S          0.00518   0.01165  -0.00001   0.01362   0.04090
  17 3   H  1S          0.02356   0.00000   0.00003  -0.00001  -0.00064
  18        2S          0.05471   0.00000   0.00002  -0.00064  -0.00527
  19        3S          0.01633   0.00000  -0.00001  -0.00199  -0.00781
  20 4   C  1S         -0.00019  -0.00058   0.00000   0.00000   0.00002
  21        2S         -0.00047  -0.00145   0.00000   0.00000   0.00003
  22        2PX        -0.00073   0.00137   0.00000  -0.00000   0.00000
  23        2PY         0.00137   0.00095   0.00000  -0.00000  -0.00037
  24        2PZ        -0.00000  -0.00000   0.00900   0.00000   0.00000
  25        3S          0.00656   0.02016  -0.00001  -0.00007  -0.00153
  26        3PX        -0.00426   0.00553   0.00000  -0.00000   0.00004
  27        3PY         0.00554   0.00123   0.00000  -0.00023  -0.00361
  28        3PZ        -0.00000  -0.00000   0.04889   0.00000   0.00000
  29        4S          0.00252   0.00812  -0.00001  -0.00107  -0.00449
  30        4PX        -0.00727   0.00311   0.00000   0.00001   0.00017
  31        4PY         0.00312  -0.00564   0.00000  -0.00246  -0.01037
  32        4PZ        -0.00000  -0.00000   0.08958   0.00000  -0.00000
  33 5   H  1S          0.00003  -0.00232   0.00000   0.00000   0.00000
  34        2S          0.00029  -0.00983  -0.00001   0.00000   0.00016
  35        3S          0.00030  -0.00731  -0.00001   0.00023   0.00147
  36 6   H  1S         -0.00176  -0.00047   0.00000  -0.00000  -0.00004
  37        2S         -0.00830  -0.00100  -0.00001  -0.00004  -0.00091
  38        3S         -0.00658  -0.00027  -0.00000  -0.00046  -0.00247
                          16        17        18        19        20
  16        3S          0.02065
  17 3   H  1S         -0.00200   0.08256
  18        2S         -0.00783   0.07752   0.14797
  19        3S         -0.00652   0.01344   0.04003   0.02000
  20 4   C  1S          0.00009   0.00000   0.00002   0.00010   0.65948
  21        2S          0.00017   0.00000   0.00003   0.00017   0.49330
  22        2PX         0.00001  -0.00000  -0.00028  -0.00059   0.00000
  23        2PY        -0.00074  -0.00000  -0.00008  -0.00013   0.00000
  24        2PZ        -0.00000   0.00000   0.00000  -0.00000   0.00000
  25        3S         -0.00251  -0.00008  -0.00154  -0.00249  -0.02939
  26        3PX         0.00006  -0.00016  -0.00291  -0.00365   0.00000
  27        3PY        -0.00446  -0.00007  -0.00066  -0.00067   0.00000
  28        3PZ        -0.00000   0.00000   0.00000  -0.00000   0.00000
  29        4S         -0.00227  -0.00106  -0.00438  -0.00213  -0.01236
  30        4PX         0.00018  -0.00189  -0.00878  -0.00676   0.00000
  31        4PY        -0.00758  -0.00057  -0.00137  -0.00051   0.00000
  32        4PZ        -0.00000   0.00000  -0.00000  -0.00000   0.00000
  33 5   H  1S          0.00022  -0.00000  -0.00004  -0.00042  -0.00020
  34        2S          0.00143  -0.00004  -0.00090  -0.00234  -0.00155
  35        3S          0.00247  -0.00046  -0.00245  -0.00287   0.00004
  36 6   H  1S         -0.00042   0.00000   0.00000   0.00022  -0.00020
  37        2S         -0.00237   0.00000   0.00015   0.00140  -0.00153
  38        3S         -0.00291   0.00023   0.00145   0.00242   0.00004
                          21        22        23        24        25
  21        2S          0.49204
  22        2PX         0.00000   0.08233
  23        2PY         0.00000   0.00000   0.08735
  24        2PZ         0.00000   0.00000   0.00000   0.06426
  25        3S         -0.06460   0.00000   0.00000   0.00000   0.45373
  26        3PX         0.00000   0.08062   0.00000   0.00000   0.00000
  27        3PY         0.00000   0.00000   0.08248   0.00000   0.00000
  28        3PZ         0.00000   0.00000   0.00000   0.06464   0.00000
  29        4S         -0.02175   0.00000   0.00000   0.00000   0.21678
  30        4PX         0.00000   0.01621   0.00000   0.00000   0.00000
  31        4PY         0.00000   0.00000   0.01484   0.00000   0.00000
  32        4PZ         0.00000   0.00000   0.00000   0.02109   0.00000
  33 5   H  1S         -0.00029   0.00141   0.00550   0.00001   0.01495
  34        2S         -0.00297   0.00375   0.01358   0.00001   0.03874
  35        3S         -0.00006   0.00068   0.00202   0.00000   0.00257
  36 6   H  1S         -0.00027   0.00667   0.00002   0.00001   0.01461
  37        2S         -0.00293   0.01715   0.00001   0.00001   0.03842
  38        3S         -0.00007   0.00272  -0.00002   0.00000   0.00267
                          26        27        28        29        30
  26        3PX         0.19979
  27        3PY         0.00000   0.19736
  28        3PZ         0.00000   0.00000   0.16432
  29        4S          0.00000   0.00000   0.00000   0.18860
  30        4PX         0.07528   0.00000   0.00000   0.00000   0.06757
  31        4PY         0.00000   0.06668   0.00000   0.00000   0.00000
  32        4PZ         0.00000   0.00000   0.10007   0.00000   0.00000
  33 5   H  1S          0.00866   0.03305   0.00005   0.01744   0.00572
  34        2S          0.01709   0.06009   0.00005   0.04422   0.01473
  35        3S          0.00385   0.01091   0.00000   0.00707   0.00544
  36 6   H  1S          0.04098   0.00010   0.00005   0.01742   0.02459
  37        2S          0.07688  -0.00001   0.00005   0.04467   0.05970
  38        3S          0.01494  -0.00011   0.00000   0.00755   0.01906
                          31        32        33        34        35
  31        4PY         0.05437
  32        4PZ         0.00000   0.14278
  33 5   H  1S          0.01879   0.00003   0.08019
  34        2S          0.04435   0.00002   0.07762   0.15308
  35        3S          0.01321  -0.00001   0.01435   0.04427   0.02342
  36 6   H  1S         -0.00005   0.00002  -0.00001  -0.00080  -0.00238
  37        2S         -0.00030   0.00002  -0.00080  -0.00676  -0.00986
  38        3S         -0.00024  -0.00001  -0.00240  -0.00989  -0.00863
                          36        37        38
  36 6   H  1S          0.07960
  37        2S          0.07743   0.15339
  38        3S          0.01439   0.04453   0.02360
     Gross orbital populations:
                           1
   1 1   C  1S          1.10434
   2        2S          0.88586
   3        2PX         0.22754
   4        2PY         0.23657
   5        2PZ         0.16641
   6        3S          0.79294
   7        3PX         0.56211
   8        3PY         0.55608
   9        3PZ         0.42397
  10        4S          0.50319
  11        4PX         0.25785
  12        4PY         0.21010
  13        4PZ         0.41194
  14 2   H  1S          0.27489
  15        2S          0.46601
  16        3S          0.08491
  17 3   H  1S          0.27782
  18        2S          0.46427
  19        3S          0.08230
  20 4   C  1S          1.10442
  21        2S          0.88584
  22        2PX         0.22116
  23        2PY         0.23528
  24        2PZ         0.16560
  25        3S          0.79201
  26        3PX         0.55064
  27        3PY         0.55574
  28        3PZ         0.41956
  29        4S          0.50964
  30        4PX         0.27719
  31        4PY         0.21810
  32        4PZ         0.41194
  33 5   H  1S          0.27055
  34        2S          0.47072
  35        3S          0.09053
  36 6   H  1S          0.26872
  37        2S          0.47144
  38        3S          0.09182
          Condensed to atoms (all electrons):
               1          2          3          4          5          6
     1  C    5.030761   0.388054   0.388750   0.601218  -0.035231  -0.034663
     2  H    0.388054   0.515089  -0.032706  -0.040988   0.005984  -0.009633
     3  H    0.388750  -0.032706   0.512491  -0.040486  -0.009539   0.005885
     4  C    0.601218  -0.040988  -0.040486   5.061807   0.382957   0.382626
     5  H   -0.035231   0.005984  -0.009539   0.382957   0.529172  -0.041535
     6  H   -0.034663  -0.009633   0.005885   0.382626  -0.041535   0.529291
 Mulliken charges:
               1
     1  C   -0.338889
     2  H    0.174198
     3  H    0.175605
     4  C   -0.347135
     5  H    0.168193
     6  H    0.168028
 Sum of Mulliken charges =  -0.00000
 Mulliken charges with hydrogens summed into heavy atoms:
               1
     1  C    0.010914
     4  C   -0.010914
 Electronic spatial extent (au):  <R**2>=             83.7884
 Charge=             -0.0000 electrons
 Dipole moment (field-independent basis, Debye):
    X=              0.0045    Y=              0.0204    Z=             -0.1607  Tot=              0.1620
 Quadrupole moment (field-independent basis, Debye-Ang):
   XX=            -12.2174   YY=            -12.2246   ZZ=            -15.6695
   XY=              0.0209   XZ=              0.0006   YZ=             -0.0037
 Traceless Quadrupole moment (field-independent basis, Debye-Ang):
   XX=              1.1531   YY=              1.1459   ZZ=             -2.2990
   XY=              0.0209   XZ=              0.0006   YZ=             -0.0037
 Octapole moment (field-independent basis, Debye-Ang**2):
  XXX=             -0.3919  YYY=             -0.0901  ZZZ=             -0.0617  XYY=              0.2236
  XXY=             -0.0420  XXZ=             -0.2057  XZZ=             -0.1031  YZZ=             -0.1161
  YYZ=             -0.2754  XYZ=             -0.0596
 Hexadecapole moment (field-independent basis, Debye-Ang**3):
 XXXX=            -34.3573 YYYY=            -55.2957 ZZZZ=            -17.8324 XXXY=             -7.2539
 XXXZ=              0.0319 YYYX=            -10.7005 YYYZ=              0.0397 ZZZX=              0.0370
 ZZZY=              0.0697 XXYY=            -16.2144 XXZZ=             -9.9348 YYZZ=            -13.6596
 XXYZ=              0.0153 YYXZ=             -0.0009 ZZXY=             -3.2084
 N-N= 3.305428278647D+01 E-N=-2.478122782178D+02  KE= 7.814606748296D+01
 Orbital energies and kinetic energies (alpha):
                                 1                 2
   1         O               -10.291386         15.979284
   2         O               -10.287766         15.979238
   3         O                -0.863977          1.539404
   4         O                -0.671916          1.269668
   5         O                -0.559114          0.942105
   6         O                -0.509679          1.283022
   7         O                -0.435494          1.041002
   8         O                -0.357060          1.039311
   9         V                 0.079444          1.182314
  10         V                 0.140742          0.590363
  11         V                 0.164251          0.597769
  12         V                 0.169817          0.680440
  13         V                 0.240694          0.585240
  14         V                 0.372783          0.849849
  15         V                 0.392175          0.931345
  16         V                 0.400867          0.786421
  17         V                 0.462944          1.198694
  18         V                 0.488895          1.412438
  19         V                 0.493669          1.302369
  20         V                 0.590993          1.653724
  21         V                 0.664844          1.572108
  22         V                 0.690335          2.144134
  23         V                 0.771530          2.418432
  24         V                 0.776080          2.320589
  25         V                 0.836033          1.077853
  26         V                 0.952404          3.427017
  27         V                 2.231471          3.926934
  28         V                 2.289876          4.028443
  29         V                 2.333102          4.302815
  30         V                 2.404174          4.507938
  31         V                 2.671279          6.300739
  32         V                 2.816221          6.301073
  33         V                 2.879970          6.143080
  34         V                 2.950288          6.226696
  35         V                 3.141083          6.820756
  36         V                 3.314737          6.402740
  37         V                23.351308         60.074167
  38         V                23.705979         60.204110
 Total kinetic energy from orbitals= 7.814606748296D+01
 Calling FoFJK, ICntrl=      2127 FMM=F ISym2X=0 I1Cent= 0 IOpClX= 0 NMat=1 NMatS=1 NMatT=0.
 -------------------------------------------------------------------
 Center     Atomic                   Forces (Hartrees/Bohr)
 Number     Number              X              Y              Z
 -------------------------------------------------------------------
      1        6           0.013590655    0.011204904   -0.006483422
      2        1          -0.008855771    0.003399481    0.003208791
      3        1           0.001448936   -0.005386357    0.002960447
      4        6           0.010889877    0.015137207   -0.007140402
      5        1           0.002458857   -0.017240692    0.003685577
      6        1          -0.019532554   -0.007114543    0.003769010
 -------------------------------------------------------------------
 Cartesian Forces:  Max     0.019532554 RMS     0.009586936

 GradGradGradGradGradGradGradGradGradGradGradGradGradGradGradGradGradGrad
 Berny optimization.
 Search for a local minimum.
 Step number   1 out of a maximum of    2
 All quantities printed in internal units (Hartrees-Bohrs-Radians)
 Second derivative matrix not updated -- first step.
 The second derivative matrix:
                          X1        Y1        Z1        X2        Y2
           X1           0.76343
           Y1           0.09451   0.86090
           Z1           0.00944   0.01474   0.17131
           X2          -0.16718   0.09858   0.00357   0.14445
           Y2           0.10432  -0.28480  -0.01253  -0.11780   0.27357
           Z2           0.00561  -0.01571  -0.05528  -0.00513   0.01293
           X3          -0.35408   0.00046  -0.01352  -0.00007  -0.00002
           Y3          -0.00520  -0.11044  -0.00326   0.03238   0.01903
           Z3          -0.01731  -0.00313  -0.05631   0.00255   0.00097
           X4          -0.26750  -0.17893  -0.00111   0.02284   0.01347
           Y4          -0.17920  -0.47400  -0.00182  -0.01319  -0.00779
           Z4           0.00223   0.00403  -0.09408  -0.00099  -0.00138
           X5           0.02345  -0.01354   0.00101  -0.00002   0.00001
           Y5           0.01146  -0.00662   0.00136   0.00001  -0.00001
           Z5          -0.00087   0.00055   0.01739   0.00042  -0.00022
           X6           0.00188  -0.00108   0.00062  -0.00002   0.00001
           Y6          -0.02589   0.01496   0.00151   0.00001  -0.00001
           Z6           0.00090  -0.00048   0.01697  -0.00042   0.00022
                          Z2        X3        Y3        Z3        X4
           Z2           0.02907
           X3          -0.00047   0.35419
           Y3           0.00273  -0.00046   0.07599
           Z3           0.01057   0.01472   0.00214   0.02983
           X4           0.00081   0.00000  -0.02675  -0.00078   0.70318
           Y4          -0.00043  -0.00000   0.01544   0.00049   0.12674
           Z4           0.01562  -0.00072  -0.00161   0.01594  -0.00832
           X5          -0.00041  -0.00002   0.00001   0.00041  -0.14228
           Y5           0.00026   0.00001  -0.00001  -0.00026   0.08918
           Z5           0.00925   0.00042  -0.00027  -0.00938  -0.00488
           X6          -0.00041  -0.00002   0.00001   0.00042  -0.31624
           Y6           0.00021   0.00001  -0.00001  -0.00022  -0.02371
           Z6          -0.00922  -0.00042   0.00027   0.00935   0.01428
                          Y4        Z4        X5        Y5        Z5
           Y4           0.85405
           Z4          -0.01584   0.17657
           X5           0.08082  -0.00322   0.12126
           Y5          -0.28419   0.01171  -0.09953   0.27511
           Z5           0.01452  -0.05723   0.00432  -0.01253   0.02989
           X6          -0.01516   0.01102  -0.00238  -0.00114   0.00058
           Y6          -0.10352   0.00309   0.03222   0.01571  -0.00205
           Z6           0.00308  -0.05681  -0.00212  -0.00054   0.01008
                          X6        Y6        Z6
           X6           0.31678
           Y6           0.01737   0.07287
           Z6          -0.01222  -0.00255   0.02964
 ITU=  0
     Eigenvalues ---    0.03731   0.04371   0.08951   0.10253   0.13503
     Eigenvalues ---    0.17336   0.26303   0.28979   0.52751   0.69316
     Eigenvalues ---    0.97377   1.56276
 Angle between quadratic step and forces=  38.33 degrees.
 Linear search not attempted -- first point.
 B after Tr=     0.007373    0.009819   -0.016588
         Rot=    1.000000   -0.000093    0.000052   -0.000113 Ang=  -0.02 deg.
 Variable       Old X    -DE/DX   Delta X   Delta X   Delta X     New X
                                 (Linear)    (Quad)   (Total)
    X1       -0.63552   0.01359   0.00000   0.02203   0.02964  -0.60588
    Y1       -1.10055   0.01120   0.00000   0.02750   0.03719  -1.06336
    Z1        0.01921  -0.00648   0.00000  -0.03559  -0.05244  -0.03323
    X2        0.41605  -0.00886   0.00000  -0.03663  -0.02860   0.38745
    Y2       -2.87745   0.00340   0.00000   0.01436   0.02427  -2.85317
    Z2       -0.07091   0.00321   0.00000   0.04367   0.02659  -0.04432
    X3       -2.68236   0.00145   0.00000   0.02291   0.03054  -2.65182
    Y3       -1.09787  -0.00539   0.00000  -0.02193  -0.01270  -1.11057
    Z3       -0.07346   0.00296   0.00000   0.04239   0.02532  -0.04815
    X4        0.62864   0.01089   0.00000   0.00848   0.01561   0.64425
    Y4        1.08832   0.01514   0.00000   0.01318   0.02315   1.11147
    Z4        0.01352  -0.00714   0.00000  -0.03304  -0.04936  -0.03584
    X5       -0.29545   0.00246   0.00000  -0.01307  -0.00636  -0.30181
    Y5        2.97193  -0.01724   0.00000  -0.05108  -0.04132   2.93061
    Z5       -0.08012   0.00369   0.00000   0.04170   0.02563  -0.05450
    X6        2.73252  -0.01953   0.00000  -0.04793  -0.04083   2.69169
    Y6        1.23798  -0.00711   0.00000  -0.04102  -0.03059   1.20739
    Z6       -0.07679   0.00377   0.00000   0.04036   0.02427  -0.05252
         Item               Value     Threshold  Converged?
 Maximum Force            0.019533     0.000450     NO 
 RMS     Force            0.009587     0.000300     NO 
 Maximum Displacement     0.052443     0.001800     NO 
 RMS     Displacement     0.031334     0.001200     NO 
 Predicted change in Energy=-2.269226D-03
 GradGradGradGradGradGradGradGradGradGradGradGradGradGradGradGradGradGrad

 Unable to Open any file for archive entry.
 1\1\GINC-BHD0016\Force\RwB97XD\6-311G\C2H4\BWEIGHT\11-Jan-2023\0\\# WB
 97XD/6-311G SCF=XQC FORCE nosym pop=full guess=read\\MD Step 999\\0,1\
 C,-0.3363034,-0.58238677,0.01016771\H,0.22016433,-1.52267889,-0.037522
 05\H,-1.4194414,-0.58096801,-0.038875\C,0.33266282,0.57591169,0.007156
 08\H,-0.15634551,1.57267587,-0.0423996\H,1.44598679,0.65510999,-0.0406
 3565\\Version=ES64L-G16RevC.01\HF=-78.5548453\RMSD=6.140e-09\RMSF=9.58
 7e-03\Dipole=0.0017722,0.0080423,-0.0632202\Quadrupole=0.8573049,0.851
 9343,-1.7092392,0.0155445,0.0004764,-0.002769\PG=C01 [X(C2H4)]\\@
 The archive entry for this job was punched.


 TIME IS IN FACT THE HERO OF THE PLOT. THE TIME
 WITH WHICH WE HAVE TO DEAL IS OF THE ORDER OF TWO
 BILLION YEARS...GIVEN SO MUCH TIME, THE "IMPOSSIBLE"
 BECOMES POSSIBLE, THE POSSIBLE PROBABLE, THE PROBABLE
 VIRTUALLY CERTAIN.  ONE HAS ONLY TO WAIT, TIME
 ITSELF PERFORMS THE MIRACLES.
 "ORIGIN OF LIFE" LECTURES, GEORGE WALD, 1954
 Job cpu time:       0 days  0 hours  0 minutes 10.5 seconds.
 Elapsed time:       0 days  0 hours  0 minutes  3.0 seconds.
 File lengths (MBytes):  RWF=    272 Int=      0 D2E=      0 Chk=     32 Scr=     32
 Normal termination of Gaussian 16 at Wed Jan 11 19:59:38 2023.
