 Entering Gaussian System, Link 0=g16
 Initial command:
 /software/gaussian/g16-c01/avx2/g16/l1.exe "/gpfs/fs2/scratch/bweight/software/many_molecule_many_mode_NAMD/src/NAMD/TEST_NVT/TRAJ/traj-55/G16/GS_NEW/Gau-27874.inp" -scrdir="/gpfs/fs2/scratch/bweight/software/many_molecule_many_mode_NAMD/src/NAMD/TEST_NVT/TRAJ/traj-55/G16/GS_NEW/"
 Entering Link 1 = /software/gaussian/g16-c01/avx2/g16/l1.exe PID=     27875.
  
 Copyright (c) 1988-2019, Gaussian, Inc.  All Rights Reserved.
  
 This is part of the Gaussian(R) 16 program.  It is based on
 the Gaussian(R) 09 system (copyright 2009, Gaussian, Inc.),
 the Gaussian(R) 03 system (copyright 2003, Gaussian, Inc.),
 the Gaussian(R) 98 system (copyright 1998, Gaussian, Inc.),
 the Gaussian(R) 94 system (copyright 1995, Gaussian, Inc.),
 the Gaussian 92(TM) system (copyright 1992, Gaussian, Inc.),
 the Gaussian 90(TM) system (copyright 1990, Gaussian, Inc.),
 the Gaussian 88(TM) system (copyright 1988, Gaussian, Inc.),
 the Gaussian 86(TM) system (copyright 1986, Carnegie Mellon
 University), and the Gaussian 82(TM) system (copyright 1983,
 Carnegie Mellon University). Gaussian is a federally registered
 trademark of Gaussian, Inc.
  
 This software contains proprietary and confidential information,
 including trade secrets, belonging to Gaussian, Inc.
  
 This software is provided under written license and may be
 used, copied, transmitted, or stored only in accord with that
 written license.
  
 The following legend is applicable only to US Government
 contracts under FAR:
  
                    RESTRICTED RIGHTS LEGEND
  
 Use, reproduction and disclosure by the US Government is
 subject to restrictions as set forth in subparagraphs (a)
 and (c) of the Commercial Computer Software - Restricted
 Rights clause in FAR 52.227-19.
  
 Gaussian, Inc.
 340 Quinnipiac St., Bldg. 40, Wallingford CT 06492
  
  
 ---------------------------------------------------------------
 Warning -- This program may not be used in any manner that
 competes with the business of Gaussian, Inc. or will provide
 assistance to any competitor of Gaussian, Inc.  The licensee
 of this program is prohibited from giving any competitor of
 Gaussian, Inc. access to this program.  By using this program,
 the user acknowledges that Gaussian, Inc. is engaged in the
 business of creating and licensing software in the field of
 computational chemistry and represents and warrants to the
 licensee that it is not a competitor of Gaussian, Inc. and that
 it will not use this program in any manner prohibited above.
 ---------------------------------------------------------------
  

 Cite this work as:
 Gaussian 16, Revision C.01,
 M. J. Frisch, G. W. Trucks, H. B. Schlegel, G. E. Scuseria, 
 M. A. Robb, J. R. Cheeseman, G. Scalmani, V. Barone, 
 G. A. Petersson, H. Nakatsuji, X. Li, M. Caricato, A. V. Marenich, 
 J. Bloino, B. G. Janesko, R. Gomperts, B. Mennucci, H. P. Hratchian, 
 J. V. Ortiz, A. F. Izmaylov, J. L. Sonnenberg, D. Williams-Young, 
 F. Ding, F. Lipparini, F. Egidi, J. Goings, B. Peng, A. Petrone, 
 T. Henderson, D. Ranasinghe, V. G. Zakrzewski, J. Gao, N. Rega, 
 G. Zheng, W. Liang, M. Hada, M. Ehara, K. Toyota, R. Fukuda, 
 J. Hasegawa, M. Ishida, T. Nakajima, Y. Honda, O. Kitao, H. Nakai, 
 T. Vreven, K. Throssell, J. A. Montgomery, Jr., J. E. Peralta, 
 F. Ogliaro, M. J. Bearpark, J. J. Heyd, E. N. Brothers, K. N. Kudin, 
 V. N. Staroverov, T. A. Keith, R. Kobayashi, J. Normand, 
 K. Raghavachari, A. P. Rendell, J. C. Burant, S. S. Iyengar, 
 J. Tomasi, M. Cossi, J. M. Millam, M. Klene, C. Adamo, R. Cammi, 
 J. W. Ochterski, R. L. Martin, K. Morokuma, O. Farkas, 
 J. B. Foresman, and D. J. Fox, Gaussian, Inc., Wallingford CT, 2019.
 
 ******************************************
 Gaussian 16:  ES64L-G16RevC.01  3-Jul-2019
                11-Jan-2023 
 ******************************************
 %oldchk=../GS_OLD/geometry.chk
 %chk=geometry.chk
 %nprocshared=4
 Will use up to    4 processors via shared memory.
 %mem=5GB
 Copying data from "../GS_OLD/geometry.chk" to current chk file "geometry.chk"
 IOpt=  2 FromEx=T IUOpen= 4 IOptOp= 5 NList=   0 IFRang= 0 IUIn= 4 IUOut= 2.
 -------------------------------------------------------
 # WB97XD/6-311G SCF=XQC FORCE nosym pop=full guess=read
 -------------------------------------------------------
 1/10=7,30=1,38=1/1,3;
 2/12=2,15=1,17=6,18=5,40=1/2;
 3/5=4,6=6,11=2,25=1,30=1,71=1,74=-58,116=-2/1,2,3;
 4/5=1/1;
 5/5=2,8=3,13=1,38=6/2,8;
 6/7=3,28=1/1;
 7/29=1,30=1/1,2,3,16;
 1/10=7,30=1/3;
 99//99;
 -----------
 MD Step 999
 -----------
 Symbolic Z-matrix:
 Charge =  0 Multiplicity = 1
 C                    -0.33514  -0.58029   0.00438 
 H                     0.211    -1.53647  -0.01326 
 H                    -1.42609  -0.5927   -0.01389 
 C                     0.33313   0.57724   0.00353 
 H                    -0.165     1.55851  -0.01552 
 H                     1.44066   0.64364  -0.01494 
 

 GradGradGradGradGradGradGradGradGradGradGradGradGradGradGradGradGradGrad
 Berny optimization.
 Initialization pass.
 Trust Radius=3.00D-01 FncErr=1.00D-07 GrdErr=1.00D-07 EigMax=2.50D+02 EigMin=1.00D-04
 Number of steps in this run=      2 maximum allowed number of steps=      2.
 GradGradGradGradGradGradGradGradGradGradGradGradGradGradGradGradGradGrad

                          Input orientation:                          
 ---------------------------------------------------------------------
 Center     Atomic      Atomic             Coordinates (Angstroms)
 Number     Number       Type             X           Y           Z
 ---------------------------------------------------------------------
      1          6           0       -0.335140   -0.580287    0.004380
      2          1           0        0.210999   -1.536473   -0.013265
      3          1           0       -1.426095   -0.592703   -0.013890
      4          6           0        0.333131    0.577235    0.003530
      5          1           0       -0.164997    1.558510   -0.015520
      6          1           0        1.440659    0.643645   -0.014945
 ---------------------------------------------------------------------
                    Distance matrix (angstroms):
                    1          2          3          4          5
     1  C    0.000000
     2  H    1.101305   0.000000
     3  H    1.091178   1.889651   0.000000
     4  C    1.336579   2.117301   2.112803   0.000000
     5  H    2.145646   3.117740   2.493610   1.100634   0.000000
     6  H    2.156814   2.502994   3.121992   1.109671   1.848002
                    6
     6  H    0.000000
 Symmetry turned off by external request.
 Stoichiometry    C2H4
 Framework group  C1[X(C2H4)]
 Deg. of freedom    12
 Full point group                 C1      NOp   1
 Rotational constants (GHZ):         143.5141404          29.7072482          24.6152773
 Standard basis: 6-311G (5D, 7F)
    38 basis functions,    72 primitive gaussians,    38 cartesian basis functions
     8 alpha electrons        8 beta electrons
       nuclear repulsion energy        33.0753522849 Hartrees.
 NAtoms=    6 NActive=    6 NUniq=    6 SFac= 1.00D+00 NAtFMM=   60 NAOKFM=F Big=F
 Integral buffers will be    131072 words long.
 Raffenetti 2 integral format.
 Two-electron integral symmetry is turned off.
 Nuclear repulsion after empirical dispersion term =       33.0745122347 Hartrees.
 One-electron integrals computed using PRISM.
 NBasis=    38 RedAO= T EigKep=  6.41D-03  NBF=    38
 NBsUse=    38 1.00D-06 EigRej= -1.00D+00 NBFU=    38
 Initial guess from the checkpoint file:  "geometry.chk"
 B after Tr=    -0.000257   -0.000309   -0.000465
         Rot=    1.000000    0.000001    0.000001    0.000004 Ang=   0.00 deg.
 Keep R1 ints in memory in canonical form, NReq=4036876.
 Requested convergence on RMS density matrix=1.00D-08 within  32 cycles.
 Requested convergence on MAX density matrix=1.00D-06.
 Requested convergence on             energy=1.00D-06.
 No special actions if energy rises.
 SCF Done:  E(RwB97XD) =  -78.5561792179     A.U. after    8 cycles
            NFock=  8  Conv=0.49D-08     -V/T= 2.0052
 QCSCF skips out because SCF is already converged.

 **********************************************************************

            Population analysis using the SCF Density.

 **********************************************************************

 Alpha  occ. eigenvalues --  -10.28971 -10.28852  -0.86391  -0.67213  -0.55877
 Alpha  occ. eigenvalues --   -0.50994  -0.43623  -0.35712
 Alpha virt. eigenvalues --    0.08028   0.14104   0.16450   0.16994   0.24091
 Alpha virt. eigenvalues --    0.37559   0.39264   0.39810   0.46391   0.48765
 Alpha virt. eigenvalues --    0.49361   0.59118   0.66543   0.69048   0.77329
 Alpha virt. eigenvalues --    0.77527   0.84423   0.95343   2.23198   2.28939
 Alpha virt. eigenvalues --    2.33269   2.40728   2.67137   2.81809   2.87839
 Alpha virt. eigenvalues --    2.95188   3.14169   3.31892  23.35174  23.70692
     Molecular Orbital Coefficients:
                           1         2         3         4         5
                           O         O         O         O         O
     Eigenvalues --   -10.28971 -10.28852  -0.86391  -0.67213  -0.55877
   1 1   C  1S          0.23161   0.51359  -0.08812   0.06710  -0.00035
   2        2S          0.19081   0.42262  -0.13926   0.10749  -0.00057
   3        2PX         0.00015  -0.00005   0.02629   0.03615   0.13540
   4        2PY         0.00027  -0.00008   0.04686   0.06004  -0.07335
   5        2PZ        -0.00000  -0.00000  -0.00072   0.00108   0.00012
   6        3S          0.00519   0.01365   0.37349  -0.29334   0.00162
   7        3PX        -0.00048   0.00057   0.03442   0.05822   0.21227
   8        3PY        -0.00082   0.00100   0.06115   0.09759  -0.11563
   9        3PZ        -0.00001  -0.00002  -0.00121   0.00195   0.00018
  10        4S         -0.00030  -0.01503   0.19128  -0.22825   0.00121
  11        4PX         0.00107  -0.00186   0.00483   0.02339   0.11086
  12        4PY         0.00185  -0.00321   0.00881   0.04061  -0.06126
  13        4PZ         0.00001   0.00004  -0.00043   0.00099   0.00009
  14 2   H  1S         -0.00006  -0.00004   0.05165  -0.08780   0.10027
  15        2S         -0.00027   0.00017   0.05308  -0.10593   0.12722
  16        3S          0.00119   0.00141  -0.00168  -0.01527   0.04117
  17 3   H  1S         -0.00007  -0.00005   0.05291  -0.09056  -0.10304
  18        2S         -0.00027   0.00016   0.05385  -0.10865  -0.13001
  19        3S          0.00122   0.00144  -0.00172  -0.01605  -0.04204
  20 4   C  1S          0.51353  -0.23179  -0.08724  -0.06798  -0.00031
  21        2S          0.42273  -0.19058  -0.13777  -0.10900  -0.00050
  22        2PX        -0.00006  -0.00015  -0.02765   0.03746   0.12057
  23        2PY        -0.00010  -0.00027  -0.04657   0.06718  -0.07424
  24        2PZ        -0.00000   0.00000  -0.00062  -0.00121   0.00012
  25        3S          0.01284  -0.00677   0.36911   0.29775   0.00138
  26        3PX        -0.00003   0.00076  -0.03484   0.06075   0.18883
  27        3PY        -0.00002   0.00130  -0.05849   0.10827  -0.11534
  28        3PZ        -0.00002   0.00000  -0.00107  -0.00216   0.00018
  29        4S         -0.00994   0.01112   0.18917   0.23585   0.00054
  30        4PX         0.00040  -0.00208  -0.00534   0.02640   0.10311
  31        4PY         0.00064  -0.00360  -0.00885   0.04561  -0.06217
  32        4PZ         0.00004  -0.00002  -0.00043  -0.00110   0.00009
  33 5   H  1S         -0.00008  -0.00002   0.05056   0.09362  -0.09161
  34        2S         -0.00009  -0.00030   0.05155   0.11155  -0.11554
  35        3S          0.00181  -0.00029  -0.00113   0.01681  -0.03724
  36 6   H  1S         -0.00006  -0.00003   0.04927   0.09169   0.08816
  37        2S         -0.00010  -0.00031   0.05081   0.10979   0.11167
  38        3S          0.00176  -0.00028  -0.00123   0.01622   0.03624
                           6         7         8         9        10
                           O         O         O         V         V
     Eigenvalues --    -0.50994  -0.43623  -0.35712   0.08028   0.14104
   1 1   C  1S         -0.00391   0.00013  -0.00055   0.00156  -0.03410
   2        2S         -0.00587   0.00023  -0.00089   0.00259  -0.05471
   3        2PX         0.09478  -0.11256  -0.00195   0.00086  -0.03267
   4        2PY         0.16791   0.06666  -0.00328   0.00141  -0.06478
   5        2PZ         0.00290  -0.00002   0.17951  -0.18916  -0.00150
   6        3S          0.02190  -0.00044   0.00261  -0.00784   0.11936
   7        3PX         0.13779  -0.17991  -0.00275   0.00131  -0.03856
   8        3PY         0.24538   0.10710  -0.00461   0.00211  -0.07954
   9        3PZ         0.00461  -0.00001   0.28839  -0.27798  -0.00237
  10        4S         -0.05253  -0.00267   0.00397  -0.00897   1.23432
  11        4PX         0.06957  -0.11255  -0.00222   0.00727  -0.20203
  12        4PY         0.12475   0.06728  -0.00373   0.01223  -0.38971
  13        4PZ         0.00262   0.00001   0.26681  -0.69714  -0.00863
  14 2   H  1S         -0.08068  -0.11622   0.00009   0.00241  -0.01696
  15        2S         -0.11167  -0.18019   0.00115   0.00385  -0.04701
  16        3S         -0.04165  -0.08370   0.00068   0.01034  -0.84049
  17 3   H  1S         -0.07924   0.11428   0.00007   0.00242  -0.01377
  18        2S         -0.10912   0.17644   0.00112   0.00389  -0.03947
  19        3S         -0.04042   0.08169   0.00067   0.01022  -0.78901
  20 4   C  1S         -0.00808  -0.00040  -0.00048  -0.00152  -0.03551
  21        2S         -0.01263  -0.00066  -0.00079  -0.00253  -0.05701
  22        2PX        -0.09763   0.12330   0.00191   0.00096   0.03978
  23        2PY        -0.16271  -0.07240   0.00349   0.00175   0.06138
  24        2PZ         0.00308   0.00011   0.17928   0.18939  -0.00164
  25        3S          0.04094   0.00185   0.00234   0.00758   0.12542
  26        3PX        -0.14423   0.19740   0.00267   0.00147   0.04882
  27        3PY        -0.23887  -0.11508   0.00491   0.00268   0.07320
  28        3PZ         0.00487   0.00016   0.28721   0.27792  -0.00250
  29        4S         -0.03069   0.00276   0.00375   0.00868   1.23399
  30        4PX        -0.07507   0.12578   0.00208   0.00749   0.25702
  31        4PY        -0.12313  -0.07292   0.00389   0.01324   0.40994
  32        4PZ         0.00281   0.00009   0.26712   0.69788  -0.00985
  33 5   H  1S         -0.07494  -0.12361   0.00012  -0.00232  -0.01197
  34        2S         -0.10218  -0.19225   0.00122  -0.00383  -0.03783
  35        3S         -0.03805  -0.09019   0.00068  -0.00995  -0.81732
  36 6   H  1S         -0.07979   0.12315   0.00009  -0.00233  -0.01498
  37        2S         -0.10917   0.19260   0.00118  -0.00391  -0.04520
  38        3S         -0.04079   0.09050   0.00065  -0.01024  -0.86954
                          11        12        13        14        15
                           V         V         V         V         V
     Eigenvalues --     0.16450   0.16994   0.24091   0.37559   0.39264
   1 1   C  1S          0.00170  -0.04494   0.00011   0.01077   0.00098
   2        2S          0.00275  -0.07325   0.00017   0.01517   0.00153
   3        2PX         0.09856  -0.01823   0.09987  -0.03736  -0.02459
   4        2PY        -0.05440  -0.03824  -0.05712  -0.06738   0.01094
   5        2PZ         0.00015  -0.00380   0.00002  -0.00268  -0.00011
   6        3S         -0.00612   0.16566   0.00025   0.02874   0.00058
   7        3PX         0.14105  -0.00952   0.10655  -0.04953  -0.10613
   8        3PY        -0.07932  -0.02622  -0.06177  -0.09420   0.05160
   9        3PZ         0.00020  -0.00526   0.00001  -0.00533  -0.00010
  10        4S         -0.06499   1.40883  -0.02434  -2.77465  -0.19699
  11        4PX         0.58020  -0.10406   1.15968  -1.59386  -0.52906
  12        4PY        -0.31215  -0.21263  -0.66774  -2.77585   0.14411
  13        4PZ         0.00097  -0.02479   0.00051  -0.02434  -0.00139
  14 2   H  1S         -0.02949  -0.02606   0.01250  -0.05481   0.07723
  15        2S         -0.07933  -0.02043  -0.02497  -0.63736   0.78360
  16        3S         -1.01611  -1.00995  -1.53048  -0.33300  -0.35424
  17 3   H  1S          0.02976  -0.02497  -0.01412  -0.04826  -0.07705
  18        2S          0.07925  -0.02000   0.02010  -0.58297  -0.76858
  19        3S          1.10324  -0.97311   1.55991  -0.39879   0.28483
  20 4   C  1S          0.00027   0.04306  -0.00016  -0.01972  -0.00006
  21        2S          0.00041   0.07011  -0.00027  -0.03216   0.00003
  22        2PX         0.10078  -0.02194  -0.10053  -0.04102  -0.03057
  23        2PY        -0.05936  -0.03872   0.05762  -0.07360   0.01210
  24        2PZ         0.00002   0.00378  -0.00002   0.00206   0.00021
  25        3S         -0.00045  -0.15611   0.00035   0.03669  -0.00236
  26        3PX         0.14485  -0.01604  -0.11326  -0.09124  -0.10944
  27        3PY        -0.08499  -0.02845   0.06371  -0.16648   0.05517
  28        3PZ         0.00003   0.00522  -0.00000   0.00269   0.00046
  29        4S         -0.02704  -1.36082   0.02046   3.39996   0.15118
  30        4PX         0.54153  -0.11554  -1.13348  -1.23820  -0.56194
  31        4PY        -0.32364  -0.20936   0.65216  -2.18186   0.09820
  32        4PZ         0.00015   0.02461  -0.00050   0.02076   0.00157
  33 5   H  1S          0.03072   0.02510   0.00745   0.01267  -0.07913
  34        2S          0.06968   0.02210  -0.03086   0.09620  -0.77616
  35        3S          1.05746   0.97067  -1.53993   0.46226   0.45197
  36 6   H  1S         -0.03196   0.02481  -0.00612   0.00722   0.08738
  37        2S         -0.07150   0.01957   0.03262   0.04923   0.88819
  38        3S         -1.02331   0.94658   1.51735   0.47531  -0.43273
                          16        17        18        19        20
                           V         V         V         V         V
     Eigenvalues --     0.39810   0.46391   0.48765   0.49361   0.59118
   1 1   C  1S         -0.01772   0.00986   0.04765   0.00012  -0.00033
   2        2S         -0.03138   0.02460   0.08025   0.00035  -0.00060
   3        2PX         0.02448  -0.06082  -0.01558   0.00065   0.00121
   4        2PY         0.04552  -0.10485  -0.02158   0.00094   0.00178
   5        2PZ        -0.00000  -0.00035  -0.00182  -0.15203  -0.19255
   6        3S          0.07905  -0.33208  -0.11774  -0.00572  -0.00003
   7        3PX         0.09866  -0.24316   0.01740   0.00070   0.00406
   8        3PY         0.18692  -0.41758   0.04128   0.00057   0.00607
   9        3PZ        -0.00255  -0.00261  -0.00884  -0.62897  -0.68457
  10        4S          2.47175   0.26027  -3.12181   0.02971   0.03867
  11        4PX         0.14168   0.26600  -0.79402   0.01061   0.01255
  12        4PY         0.28436   0.49681  -1.38254   0.01962   0.02144
  13        4PZ        -0.00119  -0.00093   0.04519   0.68821   1.24077
  14 2   H  1S         -0.02774  -0.03859   0.07501  -0.00094  -0.00096
  15        2S         -0.55399  -0.37063   0.89075  -0.00751  -0.00672
  16        3S          0.27826   0.11024  -0.64476   0.01266   0.01328
  17 3   H  1S         -0.03582  -0.04141   0.07249  -0.00092  -0.00090
  18        2S         -0.62779  -0.40476   0.86510  -0.00751  -0.00562
  19        3S          0.29967   0.11439  -0.61150   0.01234   0.01297
  20 4   C  1S         -0.00215   0.00021  -0.05069   0.00138   0.00037
  21        2S         -0.00710   0.00814  -0.08766   0.00252   0.00070
  22        2PX         0.00623   0.05616  -0.02395  -0.00020   0.00112
  23        2PY         0.01348   0.09770  -0.04478  -0.00040   0.00221
  24        2PZ        -0.00204  -0.00094  -0.00196  -0.15247   0.19246
  25        3S          0.08130  -0.29931   0.20948  -0.01028  -0.00106
  26        3PX        -0.04882   0.23672  -0.03927  -0.00055   0.00395
  27        3PY        -0.07256   0.41515  -0.07285  -0.00130   0.00765
  28        3PZ        -0.00596  -0.00401  -0.00678  -0.63073   0.68335
  29        4S         -0.63311   0.62815   3.15599  -0.04290  -0.03553
  30        4PX         1.16038  -0.32505  -0.65600   0.00479   0.01206
  31        4PY         2.11251  -0.53265  -1.10556   0.00773   0.02092
  32        4PZ        -0.01831  -0.00798  -0.02581   0.69153  -1.23907
  33 5   H  1S         -0.04905  -0.06008  -0.06694   0.00093   0.00089
  34        2S         -0.85213  -0.61092  -0.83955   0.01511   0.00372
  35        3S         -0.16152   0.23287   0.56076  -0.00181  -0.01298
  36 6   H  1S         -0.04049  -0.05832  -0.06745   0.00096   0.00093
  37        2S         -0.75620  -0.58547  -0.83483   0.01496   0.00429
  38        3S         -0.18562   0.24627   0.58594  -0.00242  -0.01316
                          21        22        23        24        25
                           V         V         V         V         V
     Eigenvalues --     0.66543   0.69048   0.77329   0.77527   0.84423
   1 1   C  1S          0.00070  -0.00014   0.06975   0.05562   0.00058
   2        2S          0.00143  -0.00039   0.14770   0.11880   0.00132
   3        2PX        -0.13873   0.19367   0.00729   0.11541  -0.01022
   4        2PY         0.08093  -0.11546   0.01077   0.19104   0.01154
   5        2PZ        -0.00005   0.00012   0.00111   0.00252   0.00007
   6        3S         -0.01095   0.00949  -1.08160  -1.08559  -0.01354
   7        3PX        -0.63668   0.67046  -0.04424   0.47163  -0.23456
   8        3PY         0.36853  -0.40019  -0.08589   0.77659   0.15760
   9        3PZ        -0.00026   0.00047   0.00399   0.00877   0.00027
  10        4S          0.01866  -0.06663   1.40150   2.18891  -0.06099
  11        4PX         1.11734  -0.74635  -0.04582  -0.72656   4.46642
  12        4PY        -0.65024   0.44040  -0.08075  -1.04143  -2.58138
  13        4PZ         0.00033   0.00031  -0.00373  -0.03133   0.00204
  14 2   H  1S          0.02491  -0.05795   0.01960   0.02826  -0.02683
  15        2S          0.14979  -0.61973   0.09363   0.05460  -1.54671
  16        3S         -1.06815   1.05853  -0.40347  -1.04086  -1.20884
  17 3   H  1S         -0.02432   0.05785   0.01954   0.02898   0.02918
  18        2S         -0.16023   0.64980   0.10605   0.03302   1.57894
  19        3S          1.05880  -1.03828  -0.41901  -1.14671   1.21408
  20 4   C  1S          0.00089  -0.00025   0.08971   0.00551   0.00043
  21        2S          0.00180  -0.00043   0.19069   0.01099   0.00089
  22        2PX        -0.14545  -0.19037  -0.07735   0.07784   0.01094
  23        2PY         0.08312   0.10626  -0.13935   0.14078  -0.00100
  24        2PZ        -0.00004  -0.00012   0.00263  -0.00139  -0.00009
  25        3S         -0.01277  -0.00317  -1.54135   0.07431  -0.00529
  26        3PX        -0.66344  -0.64949  -0.25788   0.36894   0.23822
  27        3PY         0.38139   0.36124  -0.46891   0.66562  -0.10993
  28        3PZ        -0.00022  -0.00045   0.00925  -0.00506  -0.00030
  29        4S          0.01171   0.05524   2.59349  -0.68901   0.04247
  30        4PX         1.25292   0.75902   0.42531  -0.40021  -4.23501
  31        4PY        -0.71562  -0.42838   0.78999  -0.89004   2.38955
  32        4PZ         0.00040  -0.00025  -0.02451   0.02240  -0.00159
  33 5   H  1S         -0.02385  -0.05631   0.03391  -0.00717  -0.02425
  34        2S         -0.13106  -0.58630   0.09843   0.04616  -1.43561
  35        3S          1.09141   1.01679  -1.03808   0.60246  -1.11987
  36 6   H  1S          0.02427   0.05620   0.03364  -0.00643   0.02431
  37        2S          0.12555   0.55441   0.08741   0.00859   1.42244
  38        3S         -1.09369  -1.02807  -0.99119   0.53247   1.12650
                          26        27        28        29        30
                           V         V         V         V         V
     Eigenvalues --     0.95343   2.23198   2.28939   2.33269   2.40728
   1 1   C  1S          0.09556  -0.00995  -0.01403   0.00022  -0.00038
   2        2S          0.19855   0.00175  -0.01386   0.00064  -0.00035
   3        2PX        -0.09196  -0.08551  -0.13573   0.34261  -0.40700
   4        2PY        -0.15938  -0.15698  -0.23098  -0.19700   0.23343
   5        2PZ         0.00007  -0.00758  -0.01032  -0.00004  -0.00039
   6        3S         -1.53706  -0.18475  -0.03487  -0.00207  -0.00417
   7        3PX        -0.23570   0.08730   0.21568  -0.41448   0.56812
   8        3PY        -0.40203   0.17065   0.37984   0.24064  -0.32861
   9        3PZ        -0.00146   0.00766   0.01293   0.00009   0.00046
  10        4S          5.71143  -0.10714  -0.88408  -0.00431  -0.02568
  11        4PX         1.19315   0.04917  -0.19400  -0.03262   0.96119
  12        4PY         1.99521   0.06389  -0.35428   0.01039  -0.54170
  13        4PZ        -0.01029   0.00166   0.00452  -0.00010   0.00076
  14 2   H  1S          0.01599  -0.71372  -0.78090  -0.71624   0.65035
  15        2S         -0.29069   1.01572   1.17194   1.09748  -1.44915
  16        3S         -0.08413  -0.30834  -0.46714  -0.48168   0.37256
  17 3   H  1S          0.01623  -0.70873  -0.78636   0.69873  -0.66849
  18        2S         -0.26727   1.01068   1.18240  -1.07485   1.48668
  19        3S         -0.07163  -0.29088  -0.46059   0.46740  -0.36692
  20 4   C  1S         -0.09416  -0.01062   0.01251   0.00047   0.00027
  21        2S         -0.19537  -0.00007   0.01282   0.00067   0.00045
  22        2PX        -0.09287   0.12875  -0.12708   0.30627   0.41869
  23        2PY        -0.16020   0.22558  -0.21184  -0.17755  -0.23824
  24        2PZ         0.00016  -0.00851   0.01007   0.00021   0.00015
  25        3S          1.50906  -0.17035   0.01757  -0.00018   0.00019
  26        3PX        -0.23057  -0.16186   0.21630  -0.37877  -0.58627
  27        3PY        -0.40287  -0.27834   0.35562   0.21755   0.33289
  28        3PZ         0.00205   0.00906  -0.01285  -0.00023  -0.00023
  29        4S         -5.69651  -0.17116   0.89119   0.01758   0.01477
  30        4PX         1.11926  -0.01725  -0.19800   0.09576  -0.87767
  31        4PY         1.99303  -0.04046  -0.32372  -0.05581   0.50665
  32        4PZ         0.00741   0.00273  -0.00380  -0.00009  -0.00067
  33 5   H  1S         -0.01759  -0.78480   0.68182   0.70180   0.68936
  34        2S          0.28868   1.13874  -1.04014  -1.02337  -1.47255
  35        3S          0.06152  -0.34828   0.40477   0.50225   0.42127
  36 6   H  1S         -0.01770  -0.77721   0.70650  -0.68563  -0.68752
  37        2S          0.30775   1.12525  -1.07337   0.99593   1.46286
  38        3S          0.06505  -0.34971   0.43119  -0.49689  -0.42741
                          31        32        33        34        35
                           V         V         V         V         V
     Eigenvalues --     2.67137   2.81809   2.87839   2.95188   3.14169
   1 1   C  1S          0.00028  -0.00145  -0.01353   0.00001  -0.00922
   2        2S          0.00022  -0.00426  -0.04518  -0.00023  -0.02869
   3        2PX         0.00307  -0.04160  -0.46837  -0.73954   0.45454
   4        2PY         0.00471  -0.07278  -0.84165   0.41192   0.79687
   5        2PZ        -0.92511   0.93614  -0.08036  -0.00075   0.00398
   6        3S         -0.00087   0.03565   0.39893   0.00358   0.24373
   7        3PX        -0.00237   0.07261   0.83597   0.88769  -0.44352
   8        3PY        -0.00360   0.12617   1.47766  -0.48214  -0.77754
   9        3PZ         0.94015  -1.14526   0.10090   0.00101  -0.00508
  10        4S          0.00744  -0.08188  -0.89098  -0.01188  -0.47576
  11        4PX        -0.00102  -0.05879  -0.71903  -0.67206   0.22999
  12        4PY        -0.00135  -0.10249  -1.27477   0.35736   0.40030
  13        4PZ        -0.33832   0.62142  -0.06398  -0.00080   0.00321
  14 2   H  1S          0.00689   0.01248   0.27135  -0.38123  -0.21970
  15        2S         -0.00796  -0.00845  -0.23118   0.39505   0.16687
  16        3S         -0.00149  -0.02322  -0.29619   0.26608   0.06663
  17 3   H  1S          0.00698   0.01200   0.25952   0.38492  -0.21814
  18        2S         -0.00819  -0.00750  -0.21117  -0.39471   0.16575
  19        3S         -0.00174  -0.02360  -0.29797  -0.28173   0.07114
  20 4   C  1S          0.00030   0.00142   0.01355   0.00055  -0.00756
  21        2S          0.00029   0.00441   0.04777   0.00131  -0.02365
  22        2PX        -0.00412  -0.03783  -0.41596  -0.79716  -0.49935
  23        2PY        -0.00756  -0.06783  -0.74616   0.44354  -0.88113
  24        2PZ        -0.92455  -0.93645   0.08232   0.00025   0.00735
  25        3S         -0.00157  -0.03790  -0.43051  -0.01018   0.20343
  26        3PX         0.00423   0.06861   0.78015   0.95227   0.53034
  27        3PY         0.00761   0.12192   1.38680  -0.52161   0.94332
  28        3PZ         0.93958   1.14553  -0.10373  -0.00030  -0.00930
  29        4S          0.00887   0.08278   0.90736   0.02751  -0.38724
  30        4PX        -0.00029  -0.05812  -0.71424  -0.69394  -0.31927
  31        4PY        -0.00087  -0.10244  -1.25510   0.37340  -0.56950
  32        4PZ        -0.33802  -0.62131   0.06623   0.00018   0.00715
  33 5   H  1S          0.00661  -0.01534  -0.29206   0.41260  -0.25841
  34        2S         -0.00807   0.01214   0.26217  -0.42135   0.20119
  35        3S         -0.00097   0.02256   0.28960  -0.25104   0.11938
  36 6   H  1S          0.00673  -0.01561  -0.29048  -0.42208  -0.25015
  37        2S         -0.00844   0.01284   0.26717   0.43072   0.19567
  38        3S         -0.00072   0.02125   0.27213   0.25202   0.11477
                          36        37        38
                           V         V         V
     Eigenvalues --     3.31892  23.35174  23.70692
   1 1   C  1S         -0.00038  -1.42106  -1.44536
   2        2S         -0.00056   1.51555   1.56308
   3        2PX         0.77600  -0.00637   0.01212
   4        2PY        -0.43662  -0.01050   0.02131
   5        2PZ         0.00053  -0.00031  -0.00013
   6        3S          0.00081  -0.29753  -0.39825
   7        3PX        -1.10749   0.02358  -0.05594
   8        3PY         0.62079   0.03942  -0.09750
   9        3PZ        -0.00079   0.00087   0.00039
  10        4S         -0.01762   0.27639   0.76880
  11        4PX         1.94954  -0.02515   0.13299
  12        4PY        -1.09805  -0.04277   0.23048
  13        4PZ         0.00130  -0.00145  -0.00169
  14 2   H  1S          0.55103   0.01278   0.00631
  15        2S         -0.86169   0.00795  -0.01420
  16        3S         -0.45586  -0.08377  -0.03860
  17 3   H  1S         -0.56114   0.01423   0.00739
  18        2S          0.87595   0.00756  -0.01456
  19        3S          0.47537  -0.08539  -0.03917
  20 4   C  1S          0.00022  -1.44053   1.42585
  21        2S          0.00011   1.53633  -1.54200
  22        2PX        -0.71908   0.00602   0.01260
  23        2PY         0.41009   0.01091   0.02135
  24        2PZ        -0.00040  -0.00032   0.00008
  25        3S          0.00199  -0.30119   0.39271
  26        3PX         1.02480  -0.02249  -0.05678
  27        3PY        -0.59114  -0.04027  -0.09735
  28        3PZ         0.00062   0.00092  -0.00022
  29        4S         -0.00048   0.27692  -0.76393
  30        4PX        -1.81323   0.02395   0.13224
  31        4PY         1.04871   0.04427   0.22759
  32        4PZ        -0.00106  -0.00150   0.00131
  33 5   H  1S          0.49769   0.01367  -0.00530
  34        2S         -0.77795   0.00784   0.01412
  35        3S         -0.43653  -0.08362   0.03793
  36 6   H  1S         -0.49280   0.01231  -0.00405
  37        2S          0.77263   0.00906   0.01328
  38        3S          0.42807  -0.08186   0.03683
     Density Matrix:
                           1         2         3         4         5
   1 1   C  1S          0.65941
   2        2S          0.56151   0.49199
   3        2PX        -0.00063  -0.00086   0.08397
   4        2PY        -0.00140  -0.00197   0.00378   0.08766
   5        2PZ         0.00005   0.00008  -0.00007  -0.00016   0.06447
   6        3S         -0.08894  -0.15383   0.00311   0.00682  -0.00011
   7        3PX         0.00084   0.00129   0.13013   0.00138  -0.00005
   8        3PY         0.00117   0.00179   0.00138   0.13113  -0.00014
   9        3PZ         0.00010   0.00017  -0.00012  -0.00025   0.10357
  10        4S         -0.07951  -0.11455  -0.01549  -0.02768   0.00035
  11        4PX         0.00023   0.00153   0.07050  -0.00463  -0.00032
  12        4PY         0.00055   0.00291  -0.00467   0.06558  -0.00056
  13        4PZ        -0.00005  -0.00013  -0.00048  -0.00080   0.09581
  14 2   H  1S         -0.02043  -0.03254   0.03439  -0.06300  -0.00067
  15        2S         -0.02279  -0.03643   0.04897  -0.08794  -0.00051
  16        3S          0.00053  -0.00076   0.02090  -0.03318  -0.00001
  17 3   H  1S         -0.02084  -0.03317  -0.07241  -0.00217  -0.00074
  18        2S         -0.02305  -0.03682  -0.10064  -0.00206  -0.00058
  19        3S          0.00056  -0.00073  -0.03869   0.00139  -0.00004
  20 4   C  1S          0.00610   0.00983  -0.01084  -0.01874  -0.00024
  21        2S          0.00981   0.01532  -0.01735  -0.03000  -0.00039
  22        2PX         0.01043   0.01666  -0.01237  -0.03214   0.00026
  23        2PY         0.01820   0.02910  -0.03226  -0.04973   0.00051
  24        2PZ        -0.00027  -0.00044  -0.00023  -0.00035   0.06438
  25        3S         -0.02642  -0.04010   0.04865   0.08414   0.00119
  26        3PX         0.01610   0.02496  -0.01809  -0.04581   0.00034
  27        3PY         0.02808   0.04354  -0.04588  -0.07116   0.00067
  28        3PZ        -0.00046  -0.00074  -0.00040  -0.00061   0.10314
  29        4S          0.00536   0.00397   0.02068   0.03600   0.00140
  30        4PX         0.00308   0.00638  -0.01300  -0.02091   0.00040
  31        4PY         0.00526   0.01095  -0.02094  -0.03733   0.00078
  32        4PZ        -0.00039  -0.00063  -0.00061  -0.00098   0.09591
  33 5   H  1S          0.00421   0.00693  -0.00176  -0.01223  -0.00028
  34        2S          0.00636   0.01058   0.00339  -0.02478  -0.00001
  35        3S          0.00329   0.00482   0.00416  -0.01743   0.00006
  36 6   H  1S          0.00416   0.00683  -0.00976  -0.00768  -0.00029
  37        2S          0.00624   0.01039  -0.02321  -0.00943  -0.00002
  38        3S          0.00324   0.00474  -0.01718  -0.00512   0.00004
                           6         7         8         9        10
   6        3S          0.45248
   7        3PX        -0.00156   0.20199
   8        3PY        -0.00130  -0.00441   0.19668
   9        3PZ        -0.00034  -0.00009  -0.00021   0.16639
  10        4S          0.27411  -0.02645  -0.04785   0.00046   0.18339
  11        4PX        -0.00666   0.10980  -0.01043  -0.00052  -0.01523
  12        4PY        -0.01213  -0.01049   0.09883  -0.00089  -0.02871
  13        4PZ         0.00060  -0.00063  -0.00105   0.15392   0.00123
  14 2   H  1S          0.08699   0.05548  -0.09850  -0.00112   0.06918
  15        2S          0.09748   0.07938  -0.13701  -0.00086   0.08167
  16        3S          0.00614   0.03422  -0.05108  -0.00003   0.01121
  17 3   H  1S          0.08874  -0.11360  -0.00178  -0.00121   0.06905
  18        2S          0.09861  -0.15770  -0.00032  -0.00097   0.08041
  19        3S          0.00621  -0.06037   0.00404  -0.00006   0.01034
  20 4   C  1S         -0.02664  -0.01689  -0.02922  -0.00041   0.00516
  21        2S         -0.04034  -0.02625  -0.04542  -0.00067   0.00385
  22        2PX        -0.04662  -0.01764  -0.04547   0.00045  -0.01777
  23        2PY        -0.08149  -0.04571  -0.07081   0.00086  -0.03115
  24        2PZ         0.00131  -0.00031  -0.00046   0.10343   0.00141
  25        3S          0.10279   0.07125   0.12337   0.00199   0.00119
  26        3PX        -0.06751  -0.02595  -0.06459   0.00059  -0.02651
  27        3PY        -0.11789  -0.06483  -0.10127   0.00116  -0.04638
  28        3PZ         0.00218  -0.00054  -0.00082   0.16570   0.00235
  29        4S          0.00182   0.03126   0.05458   0.00234  -0.03238
  30        4PX        -0.02258  -0.01948  -0.02927   0.00066  -0.00655
  31        4PY        -0.03898  -0.02941  -0.05389   0.00129  -0.01090
  32        4PZ         0.00184  -0.00085  -0.00135   0.15409   0.00217
  33 5   H  1S         -0.02063  -0.00069  -0.01762  -0.00041  -0.01508
  34        2S         -0.03162   0.00850  -0.03654   0.00004  -0.01970
  35        3S         -0.01240   0.00803  -0.02625   0.00010  -0.00371
  36 6   H  1S         -0.02031  -0.01481  -0.00924  -0.00042  -0.01507
  37        2S         -0.03104  -0.03571  -0.01052   0.00002  -0.01995
  38        3S         -0.01217  -0.02662  -0.00601   0.00008  -0.00397
                          11        12        13        14        15
  11        4PX         0.06076
  12        4PY        -0.00935   0.05119
  13        4PZ        -0.00076  -0.00127   0.14239
  14 2   H  1S          0.03356  -0.05427  -0.00058   0.08089
  15        2S          0.04878  -0.07537  -0.00021   0.10950   0.15032
  16        3S          0.02144  -0.02798   0.00012   0.03694   0.05300
  17 3   H  1S         -0.06332   0.00181  -0.00062  -0.01307  -0.02490
  18        2S         -0.08830   0.00456  -0.00026  -0.02483  -0.04355
  19        3S         -0.03411   0.00471   0.00011  -0.01826  -0.02789
  20 4   C  1S         -0.00316  -0.00569  -0.00037   0.00422   0.00666
  21        2S         -0.00653  -0.01166  -0.00059   0.00697   0.01111
  22        2PX        -0.01313  -0.02000   0.00063   0.00184  -0.00282
  23        2PY        -0.02013  -0.03663   0.00117   0.01159   0.02437
  24        2PZ        -0.00043  -0.00068   0.09568  -0.00032  -0.00010
  25        3S          0.02313   0.04105   0.00173  -0.02092  -0.03336
  26        3PX        -0.02015  -0.02826   0.00086   0.00099  -0.00745
  27        3PY        -0.02843  -0.05323   0.00161   0.01711   0.03634
  28        3PZ        -0.00070  -0.00112   0.15328  -0.00046  -0.00010
  29        4S          0.00801   0.01500   0.00214  -0.01746  -0.02387
  30        4PX        -0.01471  -0.01239   0.00079  -0.00163  -0.00848
  31        4PY        -0.01245  -0.02937   0.00152   0.01543   0.02736
  32        4PZ        -0.00085  -0.00139   0.14255  -0.00026   0.00016
  33 5   H  1S          0.00195  -0.01561  -0.00021   0.01124   0.02351
  34        2S          0.00915  -0.02725   0.00027   0.02374   0.04455
  35        3S          0.00753  -0.01572   0.00019   0.01657   0.02784
  36 6   H  1S         -0.01451  -0.00582  -0.00021  -0.00908  -0.01833
  37        2S         -0.02816  -0.00520   0.00026  -0.01879  -0.03448
  38        3S         -0.01726  -0.00114   0.00017  -0.01016  -0.01785
                          16        17        18        19        20
  16        3S          0.02135
  17 3   H  1S         -0.01843   0.08191
  18        2S         -0.02801   0.10979   0.14930
  19        3S         -0.01327   0.03647   0.05189   0.02068
  20 4   C  1S          0.00365   0.00429   0.00673   0.00367   0.65946
  21        2S          0.00538   0.00708   0.01121   0.00540   0.56157
  22        2PX        -0.00363   0.00910   0.02236   0.01679   0.00114
  23        2PY         0.01767   0.00744   0.00966   0.00558   0.00174
  24        2PZ         0.00002  -0.00031  -0.00007   0.00004   0.00005
  25        3S         -0.01393  -0.02122  -0.03360  -0.01394  -0.08922
  26        3PX        -0.00722   0.01437   0.03509   0.02621  -0.00051
  27        3PY         0.02657   0.00952   0.01170   0.00694  -0.00112
  28        3PZ         0.00005  -0.00046  -0.00006   0.00007   0.00010
  29        4S         -0.00569  -0.01731  -0.02333  -0.00532  -0.07995
  30        4PX        -0.00710   0.01405   0.02765   0.01712  -0.00023
  31        4PY         0.01598   0.00646   0.00644   0.00183  -0.00024
  32        4PZ         0.00016  -0.00025   0.00018   0.00017  -0.00003
  33 5   H  1S          0.01636  -0.00910  -0.01834  -0.00961  -0.02025
  34        2S          0.02760  -0.01869  -0.03419  -0.01719  -0.02224
  35        3S          0.01470  -0.01007  -0.01761  -0.00906   0.00061
  36 6   H  1S         -0.00968   0.01123   0.02333   0.01605  -0.01998
  37        2S         -0.01748   0.02380   0.04438   0.02720  -0.02222
  38        3S         -0.00926   0.01661   0.02776   0.01452   0.00051
                          21        22        23        24        25
  21        2S          0.49208
  22        2PX         0.00164   0.08289
  23        2PY         0.00248   0.00364   0.08785
  24        2PZ         0.00007   0.00008   0.00011   0.06430
  25        3S         -0.15422  -0.00530  -0.00815  -0.00009   0.45359
  26        3PX        -0.00076   0.12886   0.00174   0.00005  -0.00010
  27        3PY        -0.00170   0.00181   0.13155   0.00005   0.00100
  28        3PZ         0.00017   0.00012   0.00018   0.10302  -0.00034
  29        4S         -0.11542   0.01402   0.02360   0.00035   0.27721
  30        4PX        -0.00153   0.07282  -0.00503   0.00028   0.00643
  31        4PY        -0.00232  -0.00501   0.06684   0.00051   0.01019
  32        4PZ        -0.00010   0.00045   0.00082   0.09580   0.00051
  33 5   H  1S         -0.03225  -0.03372   0.06376  -0.00075   0.08623
  34        2S         -0.03554  -0.04981   0.08844  -0.00059   0.09510
  35        3S         -0.00060  -0.02247   0.03334  -0.00006   0.00568
  36 6   H  1S         -0.03184   0.07135   0.00277  -0.00069   0.08514
  37        2S         -0.03551   0.10116   0.00108  -0.00051   0.09498
  38        3S         -0.00073   0.04030  -0.00291  -0.00003   0.00590
                          26        27        28        29        30
  26        3PX         0.20068
  27        3PY        -0.00283   0.19756
  28        3PZ         0.00007   0.00008   0.16504
  29        4S          0.02566   0.04291   0.00043   0.18519
  30        4PX         0.11384  -0.01052   0.00044   0.01581   0.06564
  31        4PY        -0.01058   0.10089   0.00081   0.02519  -0.01014
  32        4PZ         0.00058   0.00105   0.15347   0.00115   0.00068
  33 5   H  1S         -0.05393   0.09974  -0.00124   0.06711  -0.03433
  34        2S         -0.08010   0.13786  -0.00099   0.07721  -0.05150
  35        3S         -0.03657   0.05131  -0.00009   0.00926  -0.02375
  36 6   H  1S          0.11264   0.00353  -0.00116   0.06757   0.06546
  37        2S          0.15951  -0.00010  -0.00087   0.07890   0.09313
  38        3S          0.06324  -0.00604  -0.00005   0.01019   0.03724
                          31        32        33        34        35
  31        4PY         0.05306
  32        4PZ         0.00127   0.14272
  33 5   H  1S          0.05552  -0.00065   0.08121
  34        2S          0.07684  -0.00027   0.11011   0.15171
  35        3S          0.02872   0.00009   0.03786   0.05470   0.02252
  36 6   H  1S         -0.00178  -0.00061  -0.01249  -0.02588  -0.01974
  37        2S         -0.00597  -0.00021  -0.02602  -0.04782  -0.03117
  38        3S         -0.00615   0.00011  -0.01999  -0.03134  -0.01536
                          36        37        38
  36 6   H  1S          0.08028
  37        2S          0.10969   0.15224
  38        3S          0.03804   0.05530   0.02287
    Full Mulliken population analysis:
                           1         2         3         4         5
   1 1   C  1S          0.65941
   2        2S          0.49325   0.49199
   3        2PX         0.00000   0.00000   0.08397
   4        2PY         0.00000   0.00000   0.00000   0.08766
   5        2PZ         0.00000   0.00000   0.00000   0.00000   0.06447
   6        3S         -0.02928  -0.06442   0.00000   0.00000   0.00000
   7        3PX         0.00000   0.00000   0.08187   0.00000   0.00000
   8        3PY         0.00000   0.00000   0.00000   0.08249   0.00000
   9        3PZ         0.00000   0.00000   0.00000   0.00000   0.06516
  10        4S         -0.01223  -0.02144   0.00000   0.00000   0.00000
  11        4PX         0.00000   0.00000   0.01553   0.00000   0.00000
  12        4PY         0.00000   0.00000   0.00000   0.01444   0.00000
  13        4PZ         0.00000   0.00000   0.00000   0.00000   0.02110
  14 2   H  1S         -0.00022  -0.00032   0.00173   0.00554   0.00000
  15        2S         -0.00165  -0.00315   0.00421   0.01323   0.00000
  16        3S          0.00004  -0.00007   0.00069   0.00192   0.00000
  17 3   H  1S         -0.00024  -0.00035   0.00767   0.00000   0.00000
  18        2S         -0.00170  -0.00326   0.01765   0.00000   0.00000
  19        3S          0.00004  -0.00007   0.00258  -0.00000   0.00000
  20 4   C  1S          0.00000   0.00000  -0.00002  -0.00006   0.00000
  21        2S          0.00000  -0.00000  -0.00002  -0.00006   0.00000
  22        2PX        -0.00002  -0.00002   0.00011   0.00086   0.00000
  23        2PY        -0.00006  -0.00005   0.00086   0.00198   0.00000
  24        2PZ        -0.00000  -0.00000  -0.00000  -0.00000   0.00042
  25        3S         -0.00060  -0.00101   0.00255   0.00763  -0.00000
  26        3PX        -0.00055  -0.00100   0.00019   0.00556   0.00000
  27        3PY        -0.00165  -0.00303   0.00556   0.01070   0.00000
  28        3PZ        -0.00000  -0.00000  -0.00000  -0.00000   0.00615
  29        4S          0.00034   0.00030   0.00094   0.00283  -0.00000
  30        4PX        -0.00018  -0.00045  -0.00071   0.00145   0.00000
  31        4PY        -0.00053  -0.00135   0.00145   0.00096   0.00000
  32        4PZ        -0.00000  -0.00000  -0.00000  -0.00000   0.00904
  33 5   H  1S          0.00000   0.00000  -0.00000  -0.00000   0.00000
  34        2S          0.00001   0.00002   0.00000  -0.00032   0.00000
  35        3S          0.00008   0.00013   0.00001  -0.00070  -0.00000
  36 6   H  1S          0.00000   0.00000  -0.00000  -0.00000   0.00000
  37        2S          0.00001   0.00002  -0.00024  -0.00007   0.00000
  38        3S          0.00008   0.00013  -0.00057  -0.00012  -0.00000
                           6         7         8         9        10
   6        3S          0.45248
   7        3PX         0.00000   0.20199
   8        3PY         0.00000   0.00000   0.19668
   9        3PZ         0.00000   0.00000   0.00000   0.16639
  10        4S          0.21235   0.00000   0.00000   0.00000   0.18339
  11        4PX         0.00000   0.07175   0.00000   0.00000   0.00000
  12        4PY         0.00000   0.00000   0.06458   0.00000   0.00000
  13        4PZ         0.00000   0.00000   0.00000   0.10058   0.00000
  14 2   H  1S          0.01579   0.01040   0.03233   0.00001   0.01822
  15        2S          0.04076   0.01918   0.05795   0.00001   0.04691
  16        3S          0.00282   0.00395   0.01033   0.00000   0.00844
  17 3   H  1S          0.01656   0.04374   0.00001   0.00001   0.01837
  18        2S          0.04187   0.07729   0.00000   0.00001   0.04656
  19        3S          0.00287   0.01403  -0.00001   0.00000   0.00782
  20 4   C  1S         -0.00060  -0.00057  -0.00172   0.00000   0.00033
  21        2S         -0.00101  -0.00106  -0.00317   0.00000   0.00029
  22        2PX         0.00244   0.00018   0.00552   0.00000   0.00081
  23        2PY         0.00739   0.00554   0.01065   0.00000   0.00245
  24        2PZ         0.00000  -0.00000  -0.00000   0.00617   0.00000
  25        3S          0.02199   0.01338   0.04014  -0.00000   0.00045
  26        3PX         0.01268  -0.00127   0.01845   0.00000   0.00409
  27        3PY         0.03836   0.01852   0.02845   0.00000   0.01239
  28        3PZ         0.00000  -0.00000  -0.00000   0.03545   0.00000
  29        4S          0.00069   0.00482   0.01458  -0.00000  -0.02035
  30        4PX         0.00635  -0.00401   0.00579   0.00000   0.00198
  31        4PY         0.01897   0.00582   0.00122   0.00000   0.00572
  32        4PZ         0.00000  -0.00000  -0.00000   0.04932   0.00000
  33 5   H  1S         -0.00006  -0.00000  -0.00020   0.00000  -0.00082
  34        2S         -0.00125   0.00006  -0.00327  -0.00000  -0.00335
  35        3S         -0.00204   0.00010  -0.00426  -0.00000  -0.00135
  36 6   H  1S         -0.00005  -0.00013  -0.00006   0.00000  -0.00080
  37        2S         -0.00119  -0.00257  -0.00052  -0.00000  -0.00333
  38        3S         -0.00197  -0.00353  -0.00055  -0.00000  -0.00143
                          11        12        13        14        15
  11        4PX         0.06076
  12        4PY         0.00000   0.05119
  13        4PZ         0.00000   0.00000   0.14239
  14 2   H  1S          0.00623   0.01763   0.00000   0.08089
  15        2S          0.01525   0.04126   0.00000   0.07735   0.15032
  16        3S          0.00526   0.01202  -0.00000   0.01380   0.04181
  17 3   H  1S          0.02372  -0.00001   0.00000  -0.00001  -0.00066
  18        2S          0.05559  -0.00003   0.00000  -0.00065  -0.00546
  19        3S          0.01680  -0.00003  -0.00000  -0.00204  -0.00813
  20 4   C  1S         -0.00018  -0.00057   0.00000   0.00000   0.00002
  21        2S         -0.00046  -0.00144   0.00000   0.00000   0.00003
  22        2PX        -0.00071   0.00139   0.00000  -0.00000   0.00000
  23        2PY         0.00139   0.00094   0.00000  -0.00000  -0.00035
  24        2PZ        -0.00000  -0.00000   0.00902   0.00000   0.00000
  25        3S          0.00650   0.01998  -0.00000  -0.00007  -0.00144
  26        3PX        -0.00415   0.00559   0.00000  -0.00000   0.00004
  27        3PY         0.00562   0.00121   0.00000  -0.00022  -0.00350
  28        3PZ        -0.00000  -0.00000   0.04906   0.00000   0.00000
  29        4S          0.00243   0.00787  -0.00000  -0.00100  -0.00423
  30        4PX        -0.00710   0.00313   0.00000   0.00001   0.00018
  31        4PY         0.00315  -0.00560   0.00000  -0.00242  -0.01023
  32        4PZ        -0.00000  -0.00000   0.08960   0.00000  -0.00000
  33 5   H  1S          0.00002  -0.00234   0.00000   0.00000   0.00000
  34        2S          0.00026  -0.00987  -0.00000   0.00000   0.00016
  35        3S          0.00028  -0.00728  -0.00000   0.00023   0.00146
  36 6   H  1S         -0.00177  -0.00049   0.00000  -0.00000  -0.00004
  37        2S         -0.00832  -0.00106  -0.00000  -0.00004  -0.00090
  38        3S         -0.00657  -0.00030  -0.00000  -0.00045  -0.00245
                          16        17        18        19        20
  16        3S          0.02135
  17 3   H  1S         -0.00205   0.08191
  18        2S         -0.00816   0.07755   0.14930
  19        3S         -0.00689   0.01363   0.04094   0.02068
  20 4   C  1S          0.00009   0.00000   0.00002   0.00009   0.65946
  21        2S          0.00016   0.00000   0.00003   0.00016   0.49331
  22        2PX         0.00001  -0.00000  -0.00027  -0.00059   0.00000
  23        2PY        -0.00074  -0.00000  -0.00008  -0.00013   0.00000
  24        2PZ        -0.00000   0.00000   0.00000  -0.00000   0.00000
  25        3S         -0.00238  -0.00007  -0.00147  -0.00239  -0.02937
  26        3PX         0.00007  -0.00016  -0.00285  -0.00365   0.00000
  27        3PY        -0.00442  -0.00007  -0.00063  -0.00064   0.00000
  28        3PZ        -0.00000   0.00000   0.00000  -0.00000   0.00000
  29        4S         -0.00212  -0.00101  -0.00417  -0.00199  -0.01229
  30        4PX         0.00019  -0.00185  -0.00866  -0.00672   0.00000
  31        4PY        -0.00751  -0.00057  -0.00134  -0.00048   0.00000
  32        4PZ        -0.00000   0.00000  -0.00000  -0.00000   0.00000
  33 5   H  1S          0.00023  -0.00000  -0.00004  -0.00044  -0.00022
  34        2S          0.00145  -0.00004  -0.00092  -0.00239  -0.00161
  35        3S          0.00247  -0.00046  -0.00245  -0.00290   0.00005
  36 6   H  1S         -0.00043   0.00000   0.00000   0.00022  -0.00021
  37        2S         -0.00240   0.00000   0.00015   0.00142  -0.00157
  38        3S         -0.00293   0.00023   0.00144   0.00243   0.00004
                          21        22        23        24        25
  21        2S          0.49208
  22        2PX         0.00000   0.08289
  23        2PY         0.00000   0.00000   0.08785
  24        2PZ         0.00000   0.00000   0.00000   0.06430
  25        3S         -0.06459   0.00000   0.00000   0.00000   0.45359
  26        3PX         0.00000   0.08107   0.00000   0.00000   0.00000
  27        3PY         0.00000   0.00000   0.08276   0.00000   0.00000
  28        3PZ         0.00000   0.00000   0.00000   0.06481   0.00000
  29        4S         -0.02160   0.00000   0.00000   0.00000   0.21475
  30        4PX         0.00000   0.01604   0.00000   0.00000   0.00000
  31        4PY         0.00000   0.00000   0.01472   0.00000   0.00000
  32        4PZ         0.00000   0.00000   0.00000   0.02110   0.00000
  33 5   H  1S         -0.00032   0.00155   0.00578   0.00000   0.01568
  34        2S         -0.00308   0.00391   0.01367   0.00000   0.03980
  35        3S         -0.00006   0.00068   0.00198   0.00000   0.00261
  36 6   H  1S         -0.00029   0.00696   0.00002   0.00000   0.01510
  37        2S         -0.00301   0.01732   0.00001   0.00000   0.03920
  38        3S         -0.00007   0.00269  -0.00001   0.00000   0.00269
                          26        27        28        29        30
  26        3PX         0.20068
  27        3PY         0.00000   0.19756
  28        3PZ         0.00000   0.00000   0.16504
  29        4S          0.00000   0.00000   0.00000   0.18519
  30        4PX         0.07439   0.00000   0.00000   0.00000   0.06564
  31        4PY         0.00000   0.06593   0.00000   0.00000   0.00000
  32        4PZ         0.00000   0.00000   0.10029   0.00000   0.00000
  33 5   H  1S          0.00924   0.03366   0.00001   0.01768   0.00581
  34        2S          0.01767   0.05990   0.00001   0.04438   0.01470
  35        3S          0.00386   0.01066   0.00000   0.00698   0.00532
  36 6   H  1S          0.04184   0.00008   0.00001   0.01764   0.02442
  37        2S          0.07715  -0.00000   0.00001   0.04502   0.05866
  38        3S          0.01474  -0.00008   0.00000   0.00764   0.01846
                          31        32        33        34        35
  31        4PY         0.05306
  32        4PZ         0.00000   0.14272
  33 5   H  1S          0.01852   0.00000   0.08121
  34        2S          0.04320   0.00000   0.07778   0.15171
  35        3S          0.01267  -0.00000   0.01415   0.04315   0.02252
  36 6   H  1S         -0.00004   0.00000  -0.00001  -0.00079  -0.00232
  37        2S         -0.00023   0.00000  -0.00079  -0.00656  -0.00949
  38        3S         -0.00018  -0.00000  -0.00235  -0.00954  -0.00821
                          36        37        38
  36 6   H  1S          0.08028
  37        2S          0.07748   0.15224
  38        3S          0.01421   0.04363   0.02287
     Gross orbital populations:
                           1
   1 1   C  1S          1.10436
   2        2S          0.88585
   3        2PX         0.22602
   4        2PY         0.23595
   5        2PZ         0.16634
   6        3S          0.79249
   7        3PX         0.55949
   8        3PY         0.55543
   9        3PZ         0.42309
  10        4S          0.50549
  11        4PX         0.26127
  12        4PY         0.21222
  13        4PZ         0.41176
  14 2   H  1S          0.27272
  15        2S          0.46796
  16        3S          0.08701
  17 3   H  1S          0.27586
  18        2S          0.46626
  19        3S          0.08423
  20 4   C  1S          1.10440
  21        2S          0.88584
  22        2PX         0.22280
  23        2PY         0.23659
  24        2PZ         0.16583
  25        3S          0.79268
  26        3PX         0.55368
  27        3PY         0.55711
  28        3PZ         0.42082
  29        4S          0.50531
  30        4PX         0.27285
  31        4PY         0.21491
  32        4PZ         0.41207
  33 5   H  1S          0.27375
  34        2S          0.46887
  35        3S          0.08786
  36 6   H  1S          0.27084
  37        2S          0.47005
  38        3S          0.08995
          Condensed to atoms (all electrons):
               1          2          3          4          5          6
     1  C    5.034241   0.386722   0.387496   0.602810  -0.036119  -0.035395
     2  H    0.386722   0.518493  -0.034041  -0.039820   0.005995  -0.009660
     3  H    0.387496  -0.034041   0.516113  -0.039482  -0.009641   0.005897
     4  C    0.602810  -0.039820  -0.039482   5.052703   0.384685   0.384003
     5  H   -0.036119   0.005995  -0.009641   0.384685   0.525603  -0.040047
     6  H   -0.035395  -0.009660   0.005897   0.384003  -0.040047   0.526041
 Mulliken charges:
               1
     1  C   -0.339754
     2  H    0.172311
     3  H    0.173659
     4  C   -0.344898
     5  H    0.169523
     6  H    0.169160
 Sum of Mulliken charges =  -0.00000
 Mulliken charges with hydrogens summed into heavy atoms:
               1
     1  C    0.006215
     4  C   -0.006215
 Electronic spatial extent (au):  <R**2>=             83.7126
 Charge=             -0.0000 electrons
 Dipole moment (field-independent basis, Debye):
    X=              0.0009    Y=              0.0203    Z=             -0.0608  Tot=              0.0641
 Quadrupole moment (field-independent basis, Debye-Ang):
   XX=            -12.2061   YY=            -12.2082   ZZ=            -15.6696
   XY=              0.0225   XZ=             -0.0004   YZ=             -0.0026
 Traceless Quadrupole moment (field-independent basis, Debye-Ang):
   XX=              1.1552   YY=              1.1531   ZZ=             -2.3083
   XY=              0.0225   XZ=             -0.0004   YZ=             -0.0026
 Octapole moment (field-independent basis, Debye-Ang**2):
  XXX=             -0.2694  YYY=             -0.0241  ZZZ=             -0.0552  XYY=              0.1612
  XXY=             -0.0078  XXZ=             -0.0864  XZZ=             -0.0693  YZZ=             -0.0527
  YYZ=             -0.1123  XYZ=             -0.0226
 Hexadecapole moment (field-independent basis, Debye-Ang**3):
 XXXX=            -34.2949 YYYY=            -55.1561 ZZZZ=            -17.7939 XXXY=             -7.2277
 XXXZ=              0.0081 YYYX=            -10.6982 YYYZ=              0.0112 ZZZX=              0.0111
 ZZZY=              0.0210 XXYY=            -16.1924 XXZZ=             -9.9310 YYZZ=            -13.6406
 XXYZ=              0.0042 YYXZ=              0.0004 ZZXY=             -3.2044
 N-N= 3.307451223466D+01 E-N=-2.478605639221D+02  KE= 7.815208973957D+01
 Orbital energies and kinetic energies (alpha):
                                 1                 2
   1         O               -10.289709         15.976670
   2         O               -10.288525         15.981626
   3         O                -0.863910          1.540473
   4         O                -0.672131          1.270413
   5         O                -0.558770          0.940993
   6         O                -0.509942          1.283877
   7         O                -0.436233          1.043058
   8         O                -0.357120          1.038936
   9         V                 0.080275          1.181455
  10         V                 0.141044          0.588661
  11         V                 0.164499          0.596139
  12         V                 0.169941          0.680237
  13         V                 0.240908          0.583188
  14         V                 0.375588          0.853804
  15         V                 0.392641          0.933044
  16         V                 0.398101          0.776914
  17         V                 0.463914          1.188602
  18         V                 0.487646          1.426384
  19         V                 0.493606          1.300662
  20         V                 0.591183          1.653410
  21         V                 0.665431          1.569785
  22         V                 0.690478          2.149157
  23         V                 0.773287          2.531761
  24         V                 0.775274          2.208362
  25         V                 0.844226          1.086819
  26         V                 0.953427          3.433003
  27         V                 2.231976          3.924641
  28         V                 2.289389          4.032053
  29         V                 2.332688          4.301914
  30         V                 2.407283          4.518406
  31         V                 2.671370          6.301520
  32         V                 2.818088          6.307393
  33         V                 2.878395          6.133588
  34         V                 2.951876          6.226769
  35         V                 3.141689          6.822119
  36         V                 3.318922          6.401593
  37         V                23.351742         60.073924
  38         V                23.706924         60.204732
 Total kinetic energy from orbitals= 7.815208973957D+01
 Calling FoFJK, ICntrl=      2127 FMM=F ISym2X=0 I1Cent= 0 IOpClX= 0 NMat=1 NMatS=1 NMatT=0.
 -------------------------------------------------------------------
 Center     Atomic                   Forces (Hartrees/Bohr)
 Number     Number              X              Y              Z
 -------------------------------------------------------------------
      1        6           0.009184838    0.003358316   -0.002488535
      2        1          -0.009372978    0.008623274    0.001264641
      3        1           0.005947995   -0.003464953    0.001178514
      4        6           0.008460139    0.007486768   -0.002675119
      5        1           0.001715002   -0.011069304    0.001322925
      6        1          -0.015934995   -0.004934101    0.001397575
 -------------------------------------------------------------------
 Cartesian Forces:  Max     0.015934995 RMS     0.006898648

 GradGradGradGradGradGradGradGradGradGradGradGradGradGradGradGradGradGrad
 Berny optimization.
 Search for a local minimum.
 Step number   1 out of a maximum of    2
 All quantities printed in internal units (Hartrees-Bohrs-Radians)
 Second derivative matrix not updated -- first step.
 The second derivative matrix:
                          X1        Y1        Z1        X2        Y2
           X1           0.75059
           Y1           0.10332   0.85871
           Z1           0.00348   0.00535   0.17198
           X2          -0.16068   0.09346   0.00123   0.13817
           Y2           0.09975  -0.28190  -0.00447  -0.11261   0.27098
           Z2           0.00196  -0.00562  -0.05518  -0.00178   0.00465
           X3          -0.34656  -0.00269  -0.00486  -0.00038  -0.00022
           Y3          -0.00883  -0.10908  -0.00118   0.03236   0.01846
           Z3          -0.00622  -0.00115  -0.05605   0.00091   0.00032
           X4          -0.26844  -0.17961  -0.00050   0.02289   0.01307
           Y4          -0.18005  -0.47591  -0.00083  -0.01322  -0.00755
           Z4           0.00077   0.00140  -0.09517  -0.00037  -0.00051
           X5           0.02352  -0.01358   0.00039  -0.00000   0.00000
           Y5           0.01193  -0.00689   0.00054   0.00000  -0.00000
           Z5          -0.00032   0.00020   0.01739   0.00016  -0.00008
           X6           0.00157  -0.00091   0.00025  -0.00000   0.00000
           Y6          -0.02611   0.01508   0.00059   0.00000  -0.00000
           Z6           0.00033  -0.00018   0.01703  -0.00016   0.00008
                          Z2        X3        Y3        Z3        X4
           Z2           0.02859
           X3          -0.00019   0.34664
           Y3           0.00096   0.00308   0.07526
           Z3           0.01048   0.00531   0.00082   0.02927
           X4           0.00033   0.00031  -0.02660  -0.00032   0.71940
           Y4          -0.00018  -0.00018   0.01536   0.00020   0.11995
           Z4           0.01607  -0.00027  -0.00060   0.01634  -0.00323
           X5          -0.00016  -0.00000   0.00000   0.00016  -0.14920
           Y5           0.00010   0.00000  -0.00000  -0.00010   0.09485
           Z5           0.00934   0.00016  -0.00010  -0.00947  -0.00202
           X6          -0.00016  -0.00000   0.00000   0.00016  -0.32495
           Y6           0.00009   0.00000  -0.00000  -0.00009  -0.02166
           Z6          -0.00930  -0.00016   0.00010   0.00943   0.00574
                          Y4        Z4        X5        Y5        Z5
           Y4           0.86536
           Z4          -0.00626   0.17698
           X5           0.08673  -0.00133   0.12765
           Y5          -0.29198   0.00473  -0.10579   0.28232
           Z5           0.00586  -0.05734   0.00180  -0.00504   0.02977
           X6          -0.01324   0.00442  -0.00197  -0.00100   0.00022
           Y6          -0.10528   0.00123   0.03264   0.01655  -0.00084
           Z6           0.00121  -0.05689  -0.00086  -0.00024   0.01031
                          X6        Y6        Z6
           X6           0.32536
           Y6           0.01514   0.07365
           Z6          -0.00489  -0.00098   0.02943
 ITU=  0
     Eigenvalues ---    0.03756   0.04381   0.09394   0.09937   0.13538
     Eigenvalues ---    0.17431   0.26617   0.28885   0.52842   0.70050
     Eigenvalues ---    0.97036   1.56999
 Angle between quadratic step and forces=  30.50 degrees.
 Linear search not attempted -- first point.
 B after Tr=     0.004921    0.005403   -0.006198
         Rot=    1.000000   -0.000015    0.000008   -0.000104 Ang=  -0.01 deg.
 Variable       Old X    -DE/DX   Delta X   Delta X   Delta X     New X
                                 (Linear)    (Quad)   (Total)
    X1       -0.63332   0.00918   0.00000   0.01642   0.02157  -0.61176
    Y1       -1.09658   0.00336   0.00000   0.01780   0.02307  -1.07351
    Z1        0.00828  -0.00249   0.00000  -0.01302  -0.01926  -0.01098
    X2        0.39873  -0.00937   0.00000  -0.03182  -0.02630   0.37243
    Y2       -2.90351   0.00862   0.00000   0.03145   0.03693  -2.86658
    Z2       -0.02507   0.00126   0.00000   0.01598   0.00970  -0.01536
    X3       -2.69493   0.00595   0.00000   0.03340   0.03855  -2.65637
    Y3       -1.12005  -0.00346   0.00000  -0.01394  -0.00909  -1.12914
    Z3       -0.02625   0.00118   0.00000   0.01574   0.00947  -0.01678
    X4        0.62953   0.00846   0.00000   0.00393   0.00863   0.63815
    Y4        1.09082   0.00749   0.00000   0.00458   0.01012   1.10093
    Z4        0.00667  -0.00268   0.00000  -0.01264  -0.01879  -0.01212
    X5       -0.31180   0.00172   0.00000  -0.00845  -0.00413  -0.31593
    Y5        2.94516  -0.01107   0.00000  -0.03675  -0.03142   2.91374
    Z5       -0.02933   0.00132   0.00000   0.01568   0.00956  -0.01977
    X6        2.72245  -0.01593   0.00000  -0.04300  -0.03832   2.68413
    Y6        1.21631  -0.00493   0.00000  -0.03557  -0.02961   1.18670
    Z6       -0.02824   0.00140   0.00000   0.01543   0.00931  -0.01893
         Item               Value     Threshold  Converged?
 Maximum Force            0.015935     0.000450     NO 
 RMS     Force            0.006899     0.000300     NO 
 Maximum Displacement     0.038554     0.001800     NO 
 RMS     Displacement     0.022650     0.001200     NO 
 Predicted change in Energy=-1.247422D-03
 GradGradGradGradGradGradGradGradGradGradGradGradGradGradGradGradGradGrad

 Unable to Open any file for archive entry.
 1\1\GINC-BHD0011\Force\RwB97XD\6-311G\C2H4\BWEIGHT\11-Jan-2023\0\\# WB
 97XD/6-311G SCF=XQC FORCE nosym pop=full guess=read\\MD Step 999\\0,1\
 C,-0.3351403,-0.58028667,0.00438003\H,0.21099917,-1.53647343,-0.013264
 58\H,-1.42609472,-0.59270318,-0.0138898\C,0.33313097,0.57723541,0.0035
 2955\H,-0.16499665,1.55851032,-0.01551965\H,1.44065901,0.64364469,-0.0
 1494497\\Version=ES64L-G16RevC.01\HF=-78.5561792\RMSD=4.928e-09\RMSF=6
 .899e-03\Dipole=0.00035,0.0080057,-0.0239068\Quadrupole=0.8588588,0.85
 73283,-1.716187,0.016751,-0.0002676,-0.0019557\PG=C01 [X(C2H4)]\\@
 The archive entry for this job was punched.


 YOU CAN LEAD A BOY TO COLLEGE....
 BUT YOU CANNOT MAKE HIM THINK....
           ELBERT HUBBARD
 Job cpu time:       0 days  0 hours  0 minutes 56.9 seconds.
 Elapsed time:       0 days  0 hours  0 minutes 19.6 seconds.
 File lengths (MBytes):  RWF=    272 Int=      0 D2E=      0 Chk=     32 Scr=     32
 Normal termination of Gaussian 16 at Wed Jan 11 18:43:36 2023.
