6
MD Step 0
C  -0.33763715 -0.58748864 0.00000000
H  0.19552659 -1.51519357 0.00000000
H  -1.40763715 -0.58748864 0.00000000
C  0.33763715 0.58748865 0.00000000
H  -0.19552659 1.51519357 0.00000000
H  1.40763715 0.58748865 0.00000000
6
MD Step 1
C  -0.33800590 -0.58783591 -0.00039437
H  0.19788748 -1.51298676 0.00234992
H  -1.40541784 -0.58521125 0.00235032
C  0.33721647 0.58704636 -0.00039472
H  -0.19318466 1.51769543 0.00235110
H  1.41012199 0.58991080 0.00235150
6
MD Step 2
C  -0.33831785 -0.58808592 -0.00078812
H  0.20026793 -1.51109227 0.00469614
H  -1.40352235 -0.58308650 0.00469703
C  0.33674891 0.58651290 -0.00078880
H  -0.19086263 1.52046113 0.00469838
H  1.41281253 0.59246172 0.00469907
6
MD Step 3
C  -0.33857012 -0.58823849 -0.00118185
H  0.20267028 -1.50951685 0.00704212
H  -1.40199155 -0.58111777 0.00704383
C  0.33623895 0.58589169 -0.00118274
H  -0.18854959 1.52346403 0.00704494
H  1.41564914 0.59513510 0.00704557
6
MD Step 4
C  -0.33875957 -0.58829352 -0.00157513
H  0.20508753 -1.50826616 0.00938525
H  -1.40086311 -0.57931357 0.00938857
C  0.33569235 0.58518814 -0.00157598
H  -0.18623855 1.52666591 0.00938759
H  1.41856319 0.59791753 0.00938739
6
MD Step 5
C  -0.33888554 -0.58825363 -0.00196918
H  0.20751908 -1.50732913 0.01173251
H  -1.40015449 -0.57767184 0.01173881
C  0.33511348 0.58440696 -0.00196956
H  -0.18391124 1.53003360 0.01173257
H  1.42149457 0.60080435 0.01173026
6
MD Step 6
C  -0.33894085 -0.58811508 -0.00235777
H  0.20991708 -1.50673203 0.01404670
H  -1.39991615 -0.57623379 0.01405807
C  0.33451422 0.58356105 -0.00235705
H  -0.18159239 1.53348602 0.01404172
H  1.42433928 0.60374583 0.01403542
6
MD Step 7
C  -0.33892847 -0.58788431 -0.00274378
H  0.21228506 -1.50644020 0.01634477
H  -1.40013166 -0.57498537 0.01636405
C  0.33389728 0.58265486 -0.00274109
H  -0.17925190 1.53699396 0.01633093
H  1.42705024 0.60674585 0.01631815
6
MD Step 8
C  -0.33884723 -0.58756352 -0.00312491
H  0.21459327 -1.50644381 0.01861274
H  -1.40080313 -0.57394237 0.01864357
C  0.33327048 0.58169859 -0.00311914
H  -0.17689039 1.54049591 0.01858512
H  1.42955308 0.60977686 0.01856274
6
MD Step 9
C  -0.33869225 -0.58715102 -0.00349400
H  0.21678139 -1.50675625 0.02080799
H  -1.40194896 -0.57314809 0.02085487
C  0.33264621 0.58070763 -0.00348385
H  -0.17453744 1.54390154 0.02076057
H  1.43174989 0.61278235 0.02072478
6
MD Step 10
C  -0.33846889 -0.58665513 -0.00385306
H  0.21884213 -1.50733145 0.02294243
H  -1.40352046 -0.57259008 0.02301045
C  0.33202741 0.57968847 -0.00383704
H  -0.17216897 1.54717619 0.02286805
H  1.43360417 0.61576028 0.02281457
6
MD Step 11
C  -0.33818772 -0.58608911 -0.00420831
H  0.22079230 -1.50809454 0.02505291
H  -1.40543289 -0.57222974 0.02514740
C  0.33141249 0.57864355 -0.00418470
H  -0.16973728 1.55031215 0.02494330
H  1.43511166 0.61873362 0.02486769
6
MD Step 12
C  -0.33784458 -0.58545117 -0.00455025
H  0.22255539 -1.50906098 0.02708319
H  -1.40768583 -0.57212022 0.02721009
C  0.33081516 0.57759097 -0.00451729
H  -0.16728914 1.55321130 0.02692930
H  1.43618236 0.62163234 0.02682650
6
MD Step 13
C  -0.33744616 -0.58475010 -0.00487943
H  0.22411490 -1.51018451 0.02903677
H  -1.41021088 -0.57225370 0.02920206
C  0.33023865 0.57653870 -0.00483532
H  -0.16481366 1.55583902 0.02882878
H  1.43679461 0.62444645 0.02869364
6
MD Step 14
C  -0.33700471 -0.58399994 -0.00520129
H  0.22548407 -1.51138890 0.03094617
H  -1.41290455 -0.57259218 0.03115527
C  0.32968090 0.57548969 -0.00514411
H  -0.16227335 1.55819404 0.03067345
H  1.43696454 0.62719539 0.03050121
6
MD Step 15
C  -0.33652528 -0.58320728 -0.00551349
H  0.22663163 -1.51264392 0.03279796
H  -1.41570569 -0.57314220 0.03305595
C  0.32914716 0.57445428 -0.00544141
H  -0.15967887 1.56023400 0.03244949
H  1.43667086 0.62985312 0.03223551
6
MD Step 16
C  -0.33601642 -0.58238202 -0.00581687
H  0.22754681 -1.51390165 0.03459743
H  -1.41853274 -0.57389048 0.03490859
C  0.32863907 0.57343935 -0.00572808
H  -0.15702491 1.56194047 0.03416187
H  1.43591961 0.63241279 0.03390199
6
MD Step 17
C  -0.33548261 -0.58152978 -0.00610786
H  0.22819544 -1.51514162 0.03632422
H  -1.42133000 -0.57484814 0.03669224
C  0.32816214 0.57245563 -0.00600080
H  -0.15433438 1.56327505 0.03579022
H  1.43469979 0.63484255 0.03548055
6
MD Step 18
C  -0.33493194 -0.58065964 -0.00638651
H  0.22856698 -1.51632475 0.03797907
H  -1.42402231 -0.57600414 0.03840657
C  0.32771789 0.57150978 -0.00625980
H  -0.15161202 1.56422645 0.03733538
H  1.43303018 0.63713235 0.03697273
6
MD Step 19
C  -0.33437143 -0.57977944 -0.00665175
H  0.22864741 -1.51742146 0.03955640
H  -1.42654417 -0.57735274 0.04004484
C  0.32730840 0.57060897 -0.00650425
H  -0.14887172 1.56478328 0.03879207
H  1.43093176 0.63926658 0.03837401
6
MD Step 20
C  -0.33380512 -0.57889396 -0.00689967
H  0.22840904 -1.51842255 0.04103382
H  -1.42885143 -0.57890389 0.04158387
C  0.32693808 0.56976247 -0.00673066
H  -0.14614686 1.56492382 0.04013859
H  1.42841711 0.64121379 0.03966315
6
MD Step 21
C  -0.33323833 -0.57800913 -0.00712786
H  0.22783645 -1.51931389 0.04239803
H  -1.43089638 -0.58065761 0.04300930
C  0.32660931 0.56897735 -0.00693707
H  -0.14346458 1.56464200 0.04136244
H  1.42551613 0.64295257 0.04082838
6
MD Step 22
C  -0.33267438 -0.57712874 -0.00733216
H  0.22690732 -1.52009593 0.04362539
H  -1.43264792 -0.58262327 0.04429693
C  0.32632570 0.56826158 -0.00711990
H  -0.14086490 1.56392817 0.04244122
H  1.42225657 0.64445237 0.04184767
6
MD Step 23
C  -0.33213008 -0.57627015 -0.00752285
H  0.22568650 -1.52069009 0.04477651
H  -1.43399819 -0.58472607 0.04550381
C  0.32607617 0.56760833 -0.00728923
H  -0.13830714 1.56286298 0.04343576
H  1.41875743 0.64576770 0.04278509
6
MD Step 24
C  -0.33160245 -0.57543064 -0.00769017
H  0.22412629 -1.52113885 0.04579536
H  -1.43496389 -0.58700626 0.04657449
C  0.32586881 0.56702934 -0.00743634
H  -0.13586828 1.56141724 0.04429204
H  1.41502807 0.64683797 0.04358605
6
MD Step 25
C  -0.33110349 -0.57462263 -0.00784063
H  0.22227615 -1.52139612 0.04672019
H  -1.43547647 -0.58941024 0.04754446
C  0.32569543 0.56651987 -0.00756770
H  -0.13353424 1.55966139 0.04504917
H  1.41117719 0.64769766 0.04429233
6
MD Step 26
C  -0.33063966 -0.57385284 -0.00797562
H  0.22015921 -1.52145081 0.04755947
H  -1.43550646 -0.59191377 0.04842045
C  0.32555252 0.56607931 -0.00768500
H  -0.13132225 1.55764154 0.04571695
H  1.40728807 0.64835259 0.04491552
6
MD Step 27
C  -0.33020913 -0.57311963 -0.00808860
H  0.21775658 -1.52134258 0.04827606
H  -1.43507956 -0.59453760 0.04916579
C  0.32544392 0.56571387 -0.00778268
H  -0.12929601 1.55536322 0.04626035
H  1.40340139 0.64876421 0.04542040
6
MD Step 28
C  -0.32982265 -0.57243406 -0.00818705
H  0.21513233 -1.52103644 0.04891325
H  -1.43415120 -0.59722294 0.04982078
C  0.32535979 0.56541565 -0.00786797
H  -0.12744089 1.55291597 0.04672368
H  1.39963925 0.64897504 0.04585433
6
MD Step 29
C  -0.32947487 -0.57179093 -0.00826234
H  0.21226147 -1.52059454 0.04942177
H  -1.43277895 -0.60000281 0.05033756
C  0.32530574 0.56519145 -0.00793339
H  -0.12583430 1.55030062 0.04705998
H  1.39603137 0.64893635 0.04616937
6
MD Step 30
C  -0.32917160 -0.57119630 -0.00831839
H  0.20919318 -1.52001239 0.04982431
H  -1.43095841 -0.60283922 0.05073713
C  0.32527523 0.56503550 -0.00798286
H  -0.12448269 1.54759199 0.04729328
H  1.39267719 0.64867196 0.04639145
6
MD Step 31
C  -0.32890885 -0.57064645 -0.00834968
H  0.20592520 -1.51934374 0.05008942
H  -1.42874855 -0.60574815 0.05098913
C  0.32527091 0.56495048 -0.00801174
H  -0.12344556 1.54481257 0.04739411
H  1.38961870 0.64815263 0.04649045
6
MD Step 32
C  -0.32868659 -0.57014165 -0.00835562
H  0.20248546 -1.51861818 0.05021393
H  -1.42618909 -0.60871797 0.05109048
C  0.32529084 0.56493392 -0.00801982
H  -0.12275346 1.54201350 0.04736087
H  1.38692091 0.64737811 0.04646492
6
MD Step 33
C  -0.32851118 -0.56968876 -0.00834327
H  0.19894653 -1.51782566 0.05023789
H  -1.42328509 -0.61169459 0.05107942
C  0.32532607 0.56497578 -0.00801367
H  -0.12239251 1.53928830 0.04723461
H  1.38468490 0.64639202 0.04635784
6
MD Step 34
C  -0.32837800 -0.56928370 -0.00830885
H  0.19532100 -1.51702036 0.05013974
H  -1.42011124 -0.61468575 0.05093582
C  0.32537840 0.56507609 -0.00799009
H  -0.12240751 1.53666702 0.04699517
H  1.38294106 0.64517714 0.04614792
6
MD Step 35
C  -0.32828652 -0.56892671 -0.00825376
H  0.19165131 -1.51622953 0.04992708
H  -1.41672050 -0.61767083 0.05066758
C  0.32544517 0.56522993 -0.00795041
H  -0.12281130 1.53420542 0.04665116
H  1.38173813 0.64374594 0.04584355
6
MD Step 36
C  -0.32823387 -0.56861584 -0.00817761
H  0.18797014 -1.51549193 0.04959732
H  -1.41318242 -0.62064010 0.05027311
C  0.32552600 0.56543410 -0.00789429
H  -0.12362322 1.53194447 0.04620077
H  1.38110257 0.64210128 0.04544204
6
MD Step 37
C  -0.32821293 -0.56834512 -0.00807616
H  0.18428849 -1.51486824 0.04912635
H  -1.40959323 -0.62360602 0.04973060
C  0.32562467 0.56568914 -0.00781798
H  -0.12487977 1.52989794 0.04562043
H  1.38102633 0.64022507 0.04491765
6
MD Step 38
C  -0.32822732 -0.56811960 -0.00795720
H  0.18068367 -1.51435138 0.04855723
H  -1.40598549 -0.62651466 0.04908264
C  0.32573422 0.56598457 -0.00772817
H  -0.12654575 1.52814012 0.04495341
H  1.38155539 0.63816703 0.04431404
6
MD Step 39
C  -0.32826988 -0.56793376 -0.00781752
H  0.17717038 -1.51399437 0.04787152
H  -1.40245580 -0.62937431 0.04831324
C  0.32585861 0.56632053 -0.00762189
H  -0.12864197 1.52667600 0.04418121
H  1.38266017 0.63591604 0.04361039
6
MD Step 40
C  -0.32834395 -0.56779283 -0.00766546
H  0.17382581 -1.51378337 0.04711514
H  -1.39903696 -0.63212948 0.04746832
C  0.32599152 0.56668677 -0.00750618
H  -0.13111928 1.52556666 0.04334964
H  1.38436206 0.63352603 0.04285250
6
MD Step 41
C  -0.32844264 -0.56769204 -0.00749882
H  0.17066586 -1.51376060 0.04627502
H  -1.39582045 -0.63478465 0.04653717
C  0.32613705 0.56708343 -0.00737876
H  -0.13398162 1.52480485 0.04244502
H  1.38660962 0.63099252 0.04202449
6
MD Step 42
C  -0.32855909 -0.56762690 -0.00731562
H  0.16770484 -1.51396313 0.04533931
H  -1.39289399 -0.63734386 0.04551031
C  0.32629950 0.56751099 -0.00723753
H  -0.13722583 1.52437530 0.04145463
H  1.38934039 0.62831295 0.04111149
6
MD Step 43
C  -0.32869098 -0.56759757 -0.00711866
H  0.16498034 -1.51439644 0.04432274
H  -1.39031380 -0.63978498 0.04440388
C  0.32647896 0.56796586 -0.00708451
H  -0.14081626 1.52428052 0.04039243
H  1.39250830 0.62551227 0.04012631
6
MD Step 44
C  -0.32882831 -0.56759664 -0.00690242
H  0.16248016 -1.51510687 0.04319406
H  -1.38817572 -0.64213286 0.04318935
C  0.32668342 0.56845275 -0.00691450
H  -0.14475805 1.52446817 0.03922564
H  1.39601216 0.62257013 0.03903377
6
MD Step 45
C  -0.32897412 -0.56762966 -0.00667487
H  0.16026313 -1.51605922 0.04199687
H  -1.38649116 -0.64433709 0.04191085
C  0.32690830 0.56896401 -0.00673414
H  -0.14897576 1.52495381 0.03799746
H  1.39982016 0.61954242 0.03787691
6
MD Step 46
C  -0.32912373 -0.56769446 -0.00643539
H  0.15833608 -1.51726006 0.04072718
H  -1.38530951 -0.64639578 0.04056597
C  0.32715692 0.56950041 -0.00654254
H  -0.15343742 1.52569796 0.03670277
H  1.40384748 0.61643803 0.03664941
6
MD Step 47
C  -0.32927598 -0.56779214 -0.00618651
H  0.15671901 -1.51869198 0.03939850
H  -1.38465106 -0.64828965 0.03916910
C  0.32742950 0.57006004 -0.00634161
H  -0.15808943 1.52667295 0.03535441
H  1.40802414 0.61328431 0.03536355
6
MD Step 48
C  -0.32942210 -0.56791612 -0.00592219
H  0.15537965 -1.52037949 0.03797685
H  -1.38457193 -0.65004806 0.03768772
C  0.32773401 0.57064924 -0.00612576
H  -0.16292331 1.52779823 0.03391668
H  1.41223084 0.61006143 0.03398250
6
MD Step 49
C  -0.32955630 -0.56806246 -0.00563871
H  0.15429482 -1.52232736 0.03644174
H  -1.38510097 -0.65168698 0.03610212
C  0.32807574 0.57127216 -0.00589157
H  -0.16791478 1.52900364 0.03236764
H  1.41636333 0.60676382 0.03248374
6
MD Step 50
C  -0.32968659 -0.56824029 -0.00534605
H  0.15351321 -1.52445788 0.03484824
H  -1.38617609 -0.65314548 0.03446684
C  0.32844676 0.57191991 -0.00564774
H  -0.17296114 1.53029409 0.03076334
H  1.42039778 0.60346288 0.03092397
6
MD Step 51
C  -0.32980598 -0.56844366 -0.00503772
H  0.15298793 -1.52678051 0.03316066
H  -1.38781424 -0.65445556 0.03274642
C  0.32885400 0.57259907 -0.00538851
H  -0.17805169 1.53158140 0.02906654
H  1.42422189 0.60013870 0.02926570
6
MD Step 52
C  -0.32991939 -0.56867776 -0.00471894
H  0.15273371 -1.52923458 0.03140805
H  -1.38995376 -0.65558343 0.03096923
C  0.32929290 0.57330490 -0.00511853
H  -0.18310985 1.53284385 0.02730696
H  1.42779517 0.59683704 0.02753923
6
MD Step 53
C  -0.33002216 -0.56893793 -0.00438427
H  0.15270263 -1.53181574 0.02956080
H  -1.39258131 -0.65655586 0.02910520
C  0.32976831 0.57404246 -0.00483306
H  -0.18812010 1.53400142 0.02545390
H  1.43102360 0.59354436 0.02571410
6
MD Step 54
C  -0.33011830 -0.56922752 -0.00403678
H  0.15289139 -1.53446918 0.02763637
H  -1.39562538 -0.65735206 0.02717083
C  0.33027655 0.57480840 -0.00453499
H  -0.19302062 1.53502472 0.02352533
H  1.43386886 0.59029458 0.02380893
6
MD Step 55
C  -0.33021599 -0.56955347 -0.00368337
H  0.15331590 -1.53711669 0.02567367
H  -1.39898437 -0.65793008 0.02520391
C  0.33080980 0.57559525 -0.00423067
H  -0.19773004 1.53590960 0.02156157
H  1.43632260 0.58714306 0.02186481
6
MD Step 56
C  -0.33031541 -0.56991444 -0.00332239
H  0.15394207 -1.53972812 0.02366403
H  -1.40259938 -0.65829769 0.02319481
C  0.33136779 0.57640335 -0.00391880
H  -0.20221865 1.53660738 0.01955384
H  1.43833585 0.58409637 0.01987357
6
MD Step 57
C  -0.33041737 -0.57030932 -0.00295265
H  0.15473718 -1.54227103 0.02160157
H  -1.40640480 -0.65846100 0.02113669
C  0.33194927 0.57723210 -0.00359856
H  -0.20645740 1.53707679 0.01749627
H  1.43987090 0.58116318 0.01782990
6
MD Step 58
C  -0.33052567 -0.57073956 -0.00257607
H  0.15568481 -1.54469690 0.01949755
H  -1.41031548 -0.65840992 0.01903984
C  0.33254967 0.57807750 -0.00327187
H  -0.21040375 1.53729917 0.01540063
H  1.44091639 0.57836862 0.01574620
6
MD Step 59
C  -0.33064515 -0.57120730 -0.00219573
H  0.15677460 -1.54695289 0.01736964
H  -1.41423960 -0.65812917 0.01692105
C  0.33316289 0.57893394 -0.00294169
H  -0.21401283 1.53726793 0.01328540
H  1.44147643 0.57574330 0.01364152
6
MD Step 60
C  -0.33077065 -0.57170459 -0.00180449
H  0.15793878 -1.54904685 0.01517877
H  -1.41814469 -0.65766305 0.01474059
C  0.33379199 0.57980512 -0.00260181
H  -0.21730248 1.53692447 0.01111029
H  1.44150600 0.57325927 0.01147600
6
MD Step 61
C  -0.33091058 -0.57223653 -0.00140958
H  0.15919052 -1.55090890 0.01296562
H  -1.42191987 -0.65697577 0.01253846
C  0.33442621 0.58068053 -0.00225889
H  -0.22021385 1.53629764 0.00891736
H  1.44105082 0.57096809 0.00929213
6
MD Step 62
C  -0.33106013 -0.57279506 -0.00100484
H  0.16046855 -1.55254892 0.01069642
H  -1.42553426 -0.65610919 0.01028050
C  0.33506696 0.58156196 -0.00190753
H  -0.22276922 1.53534672 0.00667167
H  1.44008948 0.56884471 0.00705525
6
MD Step 63
C  -0.33122640 -0.57338360 -0.00059683
H  0.16178414 -1.55390921 0.00840815
H  -1.42889023 -0.65503432 0.00800331
C  0.33570340 0.58243861 -0.00155373
H  -0.22492372 1.53410944 0.00441120
H  1.43868181 0.56693432 0.00480357
6
MD Step 64
C  -0.33140359 -0.57399282 -0.00017921
H  0.16307718 -1.55501013 0.00606564
H  -1.43196972 -0.65379729 0.00567163
C  0.33633656 0.58331162 -0.00119183
H  -0.22671132 1.53255652 0.00209944
H  1.43682254 0.56520777 0.00250066
6
MD Step 65
C  -0.33159911 -0.57462622 0.00024030
H  0.16436881 -1.55579680 0.00371266
H  -1.43468137 -0.65236511 0.00332914
C  0.33695393 0.58416820 -0.00082890
H  -0.22809077 1.53074526 -0.00021910
H  1.43459521 0.56371422 0.00019102
6
MD Step 66
C  -0.33181429 -0.57528131 0.00065979
H  0.16564940 -1.55625257 0.00136052
H  -1.43697457 -0.65073923 0.00098727
C  0.33754829 0.58500076 -0.00046675
H  -0.22905906 1.52870606 -0.00253348
H  1.43205767 0.56246853 -0.00211455
6
MD Step 67
C  -0.33205749 -0.57596250 0.00106952
H  0.16695565 -1.55632176 -0.00093564
H  -1.43876285 -0.64887773 -0.00129863
C  0.33810498 0.58579393 -0.00011427
H  -0.22957353 1.52651959 -0.00478793
H  1.42931870 0.56152827 -0.00436054
6
MD Step 68
C  -0.33231711 -0.57665453 0.00147977
H  0.16821251 -1.55606905 -0.00323391
H  -1.44008390 -0.64685521 -0.00358631
C  0.33862844 0.58655146 0.00023814
H  -0.22971146 1.52415689 -0.00704277
H  1.42637679 0.56083517 -0.00660766
6
MD Step 69
C  -0.33258987 -0.57735045 0.00189172
H  0.16939918 -1.55551233 -0.00554096
H  -1.44093213 -0.64469493 -0.00588206
C  0.33911453 0.58726815 0.00059175
H  -0.22950241 1.52164629 -0.00930583
H  1.42328729 0.56038136 -0.00886420
6
MD Step 70
C  -0.33287536 -0.57804618 0.00230318
H  0.17051659 -1.55465509 -0.00784433
H  -1.44129126 -0.64240153 -0.00817296
C  0.33955602 0.58793534 0.00094471
H  -0.22896079 1.51904015 -0.01156555
H  1.42012859 0.56017687 -0.01111914
6
MD Step 71
C  -0.33317198 -0.57873660 0.00271278
H  0.17156370 -1.55351015 -0.01013601
H  -1.44115824 -0.63998484 -0.01045052
C  0.33994666 0.58854513 0.00129592
H  -0.22810938 1.51639037 -0.01381507
H  1.41697670 0.56022589 -0.01336624
6
MD Step 72
C  -0.33348112 -0.57941973 0.00311567
H  0.17256200 -1.55207475 -0.01238809
H  -1.44051872 -0.63743504 -0.01268624
C  0.34027722 0.58908622 0.00164103
H  -0.22695410 1.51377214 -0.01602738
H  1.41392822 0.56055140 -0.01557920
6
MD Step 73
C  -0.33380146 -0.58009114 0.00350932
H  0.17352212 -1.55036388 -0.01458593
H  -1.43938067 -0.63475626 -0.01486493
C  0.34054120 0.58954973 0.00197786
H  -0.22551705 1.51124943 -0.01818911
H  1.41106462 0.56116179 -0.01774535
6
MD Step 74
C  -0.33412809 -0.58074310 0.00389446
H  0.17443815 -1.54841556 -0.01673374
H  -1.43778003 -0.63197203 -0.01699039
C  0.34073589 0.58993022 0.00230738
H  -0.22384137 1.50886827 -0.02030611
H  1.40844451 0.56204531 -0.01987106
6
MD Step 75
C  -0.33445620 -0.58136832 0.00427136
H  0.17530910 -1.54626855 -0.01883308
H  -1.43575845 -0.62910335 -0.01906385
C  0.34085886 0.59022216 0.00263013
H  -0.22196874 1.50667735 -0.02238151
H  1.40612379 0.56319192 -0.02195989
6
MD Step 76
C  -0.33477747 -0.58195640 0.00464343
H  0.17611743 -1.54398312 -0.02090407
H  -1.43338409 -0.62618995 -0.02110542
C  0.34091156 0.59042362 0.00294975
H  -0.21995997 1.50470552 -0.02443725
H  1.40413263 0.56457199 -0.02403381
6
MD Step 77
C  -0.33509210 -0.58250577 0.00500540
H  0.17689874 -1.54156996 -0.02291559
H  -1.43068038 -0.62321966 -0.02308357
C  0.34088772 0.59052456 0.00326124
H  -0.21782379 1.50303082 -0.02644328
H  1.40254463 0.56620658 -0.02606317
6
MD Step 78
C  -0.33539834 -0.58301338 0.00535372
H  0.17768019 -1.53905128 -0.02484645
H  -1.42768732 -0.62019002 -0.02497685
C  0.34078364 0.59051738 0.00356123
H  -0.21557753 1.50171747 -0.02837945
H  1.40141327 0.56810601 -0.02802801
6
MD Step 79
C  -0.33568812 -0.58347043 0.00569090
H  0.17845393 -1.53648657 -0.02671151
H  -1.42448715 -0.61713466 -0.02680063
C  0.34060267 0.59040140 0.00385237
H  -0.21327265 1.50078799 -0.03026195
H  1.40074392 0.57024364 -0.02994383
6
MD Step 80
C  -0.33595837 -0.58387357 0.00601447
H  0.17924290 -1.53390521 -0.02849571
H  -1.42113667 -0.61405655 -0.02853999
C  0.34034415 0.59017190 0.00413219
H  -0.21092738 1.50028854 -0.03207637
H  1.40056003 0.57262216 -0.03179582
6
MD Step 81
C  -0.33620028 -0.58421427 0.00632753
H  0.18003681 -1.53136965 -0.03021745
H  -1.41772992 -0.61099185 -0.03021447
C  0.34001399 0.58983089 0.00440386
H  -0.20858985 1.50022378 -0.03384183
H  1.40083858 0.57520987 -0.03360175
6
MD Step 82
C  -0.33640614 -0.58448563 0.00663214
H  0.18083134 -1.52893460 -0.03188908
H  -1.41435657 -0.60796995 -0.03183774
C  0.33961799 0.58938058 0.00466948
H  -0.20629773 1.50059584 -0.03557096
H  1.40155046 0.57798043 -0.03537259
6
MD Step 83
C  -0.33657443 -0.58468737 0.00692461
H  0.18165678 -1.52661692 -0.03348777
H  -1.41107076 -0.60498402 -0.03338750
C  0.33915683 0.58881845 0.00492497
H  -0.20404846 1.50143290 -0.03724044
H  1.40269058 0.58094201 -0.03708423
6
MD Step 84
C  -0.33670180 -0.58481783 0.00720334
H  0.18252988 -1.52444295 -0.03500319
H  -1.40793770 -0.60203912 -0.03485443
C  0.33863403 0.58814545 0.00516832
H  -0.20184704 1.50274060 -0.03883915
H  1.40423027 0.58408936 -0.03872432
6
MD Step 85
C  -0.33678374 -0.58487463 0.00746819
H  0.18345694 -1.52244434 -0.03643395
H  -1.40502847 -0.59914854 -0.03623860
C  0.33805530 0.58736541 0.00539900
H  -0.19970234 1.50450536 -0.04036455
H  1.40612187 0.58740725 -0.04028873
6
MD Step 86
C  -0.33681705 -0.58485702 0.00771831
H  0.18444693 -1.52064390 -0.03777417
H  -1.40240467 -0.59632038 -0.03753544
C  0.33742611 0.58648275 0.00561560
H  -0.19761369 1.50670801 -0.04180911
H  1.40831377 0.59088394 -0.04176854
6
MD Step 87
C  -0.33679412 -0.58476012 0.00795757
H  0.18547687 -1.51908954 -0.03904769
H  -1.40015104 -0.59359189 -0.03877145
C  0.33675738 0.58550825 0.00582195
H  -0.19560563 1.50928985 -0.04319481
H  1.41071762 0.59447680 -0.04318320
6
MD Step 88
C  -0.33671390 -0.58458571 0.00818442
H  0.18655537 -1.51778958 -0.04024428
H  -1.39830919 -0.59096535 -0.03993760
C  0.33605458 0.58444816 0.00601577
H  -0.19366442 1.51221763 -0.04450898
H  1.41327471 0.59817632 -0.04451899
6
MD Step 89
C  -0.33657275 -0.58433308 0.00840048
H  0.18766790 -1.51676731 -0.04137419
H  -1.39693092 -0.58846292 -0.04104625
C  0.33532682 0.58331337 0.00619846
H  -0.19179336 1.51542974 -0.04575923
H  1.41590290 0.60195144 -0.04578171
6
MD Step 90
C  -0.33637586 -0.58401029 0.00860013
H  0.18884372 -1.51599353 -0.04240101
H  -1.39600957 -0.58605938 -0.04206072
C  0.33457546 0.58210792 0.00636296
H  -0.18994642 1.51890479 -0.04690624
H  1.41856580 0.60581682 -0.04693270
6
MD Step 91
C  -0.33612112 -0.58361799 0.00878541
H  0.19006002 -1.51548301 -0.04333771
H  -1.39557600 -0.58377840 -0.04299575
C  0.33381021 0.58084509 0.00651113
H  -0.18812495 1.52256658 -0.04795999
H  1.42117773 0.60973679 -0.04798057
6
MD Step 92
C  -0.33580926 -0.58315948 0.00895662
H  0.19130210 -1.51523433 -0.04418653
H  -1.39563769 -0.58163238 -0.04385460
C  0.33303889 0.57953707 0.00664293
H  -0.18631839 1.52634590 -0.04891971
H  1.42366576 0.61368561 -0.04892389
6
MD Step 93
C  -0.33544424 -0.58264108 0.00911211
H  0.19256570 -1.51522796 -0.04493672
H  -1.39617636 -0.57962020 -0.04462659
C  0.33226703 0.57819447 0.00675596
H  -0.18450294 1.53018426 -0.04977175
H  1.42597338 0.61764988 -0.04974932
6
MD Step 94
C  -0.33502848 -0.58206725 0.00925249
H  0.19382912 -1.51545501 -0.04559289
H  -1.39717681 -0.57775552 -0.04531678
C  0.33150253 0.57683086 0.00685069
H  -0.18267039 1.53400711 -0.05051788
H  1.42803341 0.62160041 -0.05045843
6
MD Step 95
C  -0.33456603 -0.58144384 0.00937771
H  0.19507299 -1.51589812 -0.04615545
H  -1.39860806 -0.57604719 -0.04592551
C  0.33075232 0.57545933 0.00692689
H  -0.18080938 1.53774483 -0.05115592
H  1.42978873 0.62551201 -0.05104927
6
MD Step 96
C  -0.33406404 -0.58077945 0.00948570
H  0.19628967 -1.51652315 -0.04661161
H  -1.40041550 -0.57449036 -0.04643897
C  0.33002082 0.57409081 0.00698199
H  -0.17889706 1.54134308 -0.05167094
H  1.43120210 0.62937257 -0.05150797
6
MD Step 97
C  -0.33353340 -0.58008625 0.00957172
H  0.19748859 -1.51727500 -0.04693042
H  -1.40251776 -0.57306158 -0.04682382
C  0.32930903 0.57273309 0.00701008
H  -0.17689472 1.54476878 -0.05203057
H  1.43226159 0.63318829 -0.05180448
6
MD Step 98
C  -0.33297401 -0.57936504 0.00964142
H  0.19860937 -1.51816591 -0.04715080
H  -1.40489624 -0.57180586 -0.04711981
C  0.32862929 0.57140532 0.00701821
H  -0.17483504 1.54792387 -0.05227156
H  1.43289369 0.63689616 -0.05197451
6
MD Step 99
C  -0.33239096 -0.57862161 0.00969618
H  0.19961957 -1.51917849 -0.04728361
H  -1.40749871 -0.57073951 -0.04733700
C  0.32798876 0.57012150 0.00700836
H  -0.17272562 1.55074368 -0.05240330
H  1.43306146 0.64046188 -0.05202795
6
MD Step 100
C  -0.33179446 -0.57786678 0.00973312
H  0.20051596 -1.52026557 -0.04731071
H  -1.41024009 -0.56984927 -0.04745499
C  0.32738919 0.56889024 0.00697725
H  -0.17054844 1.55319866 -0.05240730
H  1.43276588 0.64388095 -0.05194823
6
MD Step 101
C  -0.33119466 -0.57711113 0.00974964
H  0.20129451 -1.52138147 -0.04721569
H  -1.41303500 -0.56912273 -0.04745503
C  0.32683208 0.56771970 0.00692195
H  -0.16829029 1.55526457 -0.05226734
H  1.43201545 0.64714825 -0.05172108
6
MD Step 102
C  -0.33059682 -0.57636016 0.00974756
H  0.20192278 -1.52251072 -0.04701233
H  -1.41582788 -0.56857599 -0.04734987
C  0.32632336 0.56662215 0.00684519
H  -0.16597056 1.55689497 -0.05199688
H  1.43079824 0.65023013 -0.05136061
6
MD Step 103
C  -0.33001161 -0.57562483 0.00972378
H  0.20240354 -1.52360558 -0.04668062
H  -1.41853116 -0.56819100 -0.04711702
C  0.32586269 0.56560335 0.00674353
H  -0.16357872 1.55808477 -0.05157711
H  1.42914499 0.65312797 -0.05085011
6
MD Step 104
C  -0.32944475 -0.57491097 0.00967950
H  0.20271288 -1.52464871 -0.04622981
H  -1.42108920 -0.56797719 -0.04676447
C  0.32545392 0.56467279 0.00661893
H  -0.16113581 1.55880847 -0.05101792
H  1.42706694 0.65581590 -0.05020042
6
MD Step 105
C  -0.32890062 -0.57422301 0.00961688
H  0.20282312 -1.52563110 -0.04567549
H  -1.42345677 -0.56794899 -0.04630678
C  0.32510130 0.56383980 0.00647460
H  -0.15867192 1.55904300 -0.05033562
H  1.42457838 0.65826370 -0.04942862
6
MD Step 106
C  -0.32838428 -0.57356603 0.00953708
H  0.20271583 -1.52653962 -0.04502674
H  -1.42558709 -0.56811317 -0.04575187
C  0.32480722 0.56311140 0.00631258
H  -0.15621359 1.55878068 -0.04954047
H  1.42170930 0.66044976 -0.04854597
6
MD Step 107
C  -0.32790426 -0.57294865 0.00943776
H  0.20239948 -1.52733995 -0.04426833
H  -1.42741522 -0.56845156 -0.04508280
C  0.32456922 0.56248930 0.00613053
H  -0.15376636 1.55804664 -0.04861971
H  1.41852250 0.66237869 -0.04754132
6
MD Step 108
C  -0.32747095 -0.57238141 0.00931443
H  0.20190067 -1.52798603 -0.04336978
H  -1.42886807 -0.56893009 -0.04426709
C  0.32438160 0.56197140 0.00592329
H  -0.15132356 1.55688971 -0.04754644
H  1.41510381 0.66407235 -0.04638975
6
MD Step 109
C  -0.32708469 -0.57186452 0.00917112
H  0.20119178 -1.52849256 -0.04235899
H  -1.42993777 -0.56957031 -0.04333246
C  0.32424768 0.56156373 0.00569641
H  -0.14893736 1.55531013 -0.04634977
H  1.41148924 0.66549731 -0.04512064
6
MD Step 110
C  -0.32674851 -0.57140095 0.00900883
H  0.20026915 -1.52885727 -0.04124292
H  -1.43060378 -0.57037227 -0.04228528
C  0.32416664 0.56126749 0.00545162
H  -0.14664155 1.55333701 -0.04503896
H  1.40774184 0.66664310 -0.04374396
6
MD Step 111
C  -0.32646545 -0.57099369 0.00882794
H  0.19913689 -1.52907712 -0.04002403
H  -1.43084930 -0.57133061 -0.04112750
C  0.32413623 0.56108182 0.00518983
H  -0.14446725 1.55101181 -0.04361914
H  1.40393471 0.66750603 -0.04226548
6
MD Step 112
C  -0.32623637 -0.57064349 0.00863017
H  0.19779349 -1.52916161 -0.03871385
H  -1.43067477 -0.57244768 -0.03987054
C  0.32415517 0.56100596 0.00491359
H  -0.14245566 1.54837460 -0.04210410
H  1.40013657 0.66807577 -0.04069931
6
MD Step 113
C  -0.32606512 -0.57035421 0.00841384
H  0.19626371 -1.52910092 -0.03730044
H  -1.43006599 -0.57370221 -0.03850209
C  0.32421773 0.56103405 0.00462117
H  -0.14062617 1.54549502 -0.04048542
H  1.39644202 0.66836730 -0.03903756
6
MD Step 114
C  -0.32594798 -0.57012191 0.00818353
H  0.19453353 -1.52893044 -0.03581442
H  -1.42905908 -0.57511320 -0.03705329
C  0.32432495 0.56116598 0.00431851
H  -0.13903973 1.54240695 -0.03879511
H  1.39290543 0.66835578 -0.03731189
6
MD Step 115
C  -0.32589146 -0.56995326 0.00793371
H  0.19265915 -1.52862197 -0.03421809
H  -1.42763124 -0.57663259 -0.03548618
C  0.32446612 0.56138943 0.00399926
H  -0.13769097 1.53921577 -0.03699993
H  1.38964749 0.66808567 -0.03548941
6
MD Step 116
C  -0.32589568 -0.56984846 0.00766403
H  0.19066538 -1.52818460 -0.03250835
H  -1.42580227 -0.57824529 -0.03379806
C  0.32463621 0.56169682 0.00366319
H  -0.13660728 1.53599621 -0.03509960
H  1.38675207 0.66756893 -0.03356951
6
MD Step 117
C  -0.32595229 -0.56979908 0.00738138
H  0.18853231 -1.52767746 -0.03072995
H  -1.42364752 -0.57998216 -0.03203474
C  0.32483827 0.56208762 0.00331855
H  -0.13586097 1.53277781 -0.03313946
H  1.38425091 0.66677176 -0.03159650
6
MD Step 118
C  -0.32605647 -0.56980043 0.00708864
H  0.18626820 -1.52713628 -0.02890124
H  -1.42122372 -0.58184784 -0.03021545
C  0.32507100 0.56255641 0.00296883
H  -0.13549646 1.52961627 -0.03113928
H  1.38219494 0.66568779 -0.02958920
6
MD Step 119
C  -0.32621035 -0.56985512 0.00678163
H  0.18392928 -1.52655278 -0.02699380
H  -1.41854813 -0.58380094 -0.02831237
C  0.32532549 0.56308976 0.00260919
H  -0.13550964 1.52661181 -0.02907360
H  1.38067246 0.66435805 -0.02752146
6
MD Step 120
C  -0.32641383 -0.56996361 0.00645761
H  0.18156359 -1.52592991 -0.02498889
H  -1.41565395 -0.58580921 -0.02630757
C  0.32559485 0.56367565 0.00223642
H  -0.13590199 1.52385168 -0.02692596
H  1.37975133 0.66281491 -0.02537594
6
MD Step 121
C  -0.32665616 -0.57011569 0.00612337
H  0.17915914 -1.52533274 -0.02292958
H  -1.41264130 -0.58790061 -0.02424535
C  0.32588300 0.56431225 0.00185816
H  -0.13673050 1.52135697 -0.02473914
H  1.37942567 0.66103032 -0.02319403
6
MD Step 122
C  -0.32692933 -0.57030408 0.00578269
H  0.17672388 -1.52480747 -0.02083929
H  -1.40959511 -0.59008378 -0.02215026
C  0.32619111 0.56499475 0.00147848
H  -0.13802756 1.51916108 -0.02253665
H  1.37969537 0.65899631 -0.02099803
6
MD Step 123
C  -0.32723034 -0.57052688 0.00543416
H  0.17429873 -1.52436708 -0.01870816
H  -1.40657000 -0.59233466 -0.02001333
C  0.32651525 0.56571331 0.00109560
H  -0.13978688 1.51732177 -0.02030941
H  1.38057921 0.65673856 -0.01877793
6
MD Step 124
C  -0.32755598 -0.57078202 0.00507635
H  0.17192425 -1.52402357 -0.01652634
H  -1.40362189 -0.59462909 -0.01782553
C  0.32685201 0.56645863 0.00070773
H  -0.14199535 1.51588692 -0.01804797
H  1.38208153 0.65428337 -0.01652346
6
MD Step 125
C  -0.32790161 -0.57106618 0.00470898
H  0.16963265 -1.52379485 -0.01429148
H  -1.40081420 -0.59695040 -0.01558530
C  0.32719977 0.56722340 0.00031436
H  -0.14464002 1.51488587 -0.01574988
H  1.38418467 0.65165009 -0.01423153
6