 Entering Gaussian System, Link 0=g16
 Initial command:
 /software/gaussian/g16-c01/avx2/g16/l1.exe "/gpfs/fs2/scratch/bweight/software/many_molecule_many_mode_NAMD/src/NAMD/TEST_NVT/TRAJ/traj-44/G16/GS_NEW/Gau-23305.inp" -scrdir="/gpfs/fs2/scratch/bweight/software/many_molecule_many_mode_NAMD/src/NAMD/TEST_NVT/TRAJ/traj-44/G16/GS_NEW/"
 Entering Link 1 = /software/gaussian/g16-c01/avx2/g16/l1.exe PID=     23306.
  
 Copyright (c) 1988-2019, Gaussian, Inc.  All Rights Reserved.
  
 This is part of the Gaussian(R) 16 program.  It is based on
 the Gaussian(R) 09 system (copyright 2009, Gaussian, Inc.),
 the Gaussian(R) 03 system (copyright 2003, Gaussian, Inc.),
 the Gaussian(R) 98 system (copyright 1998, Gaussian, Inc.),
 the Gaussian(R) 94 system (copyright 1995, Gaussian, Inc.),
 the Gaussian 92(TM) system (copyright 1992, Gaussian, Inc.),
 the Gaussian 90(TM) system (copyright 1990, Gaussian, Inc.),
 the Gaussian 88(TM) system (copyright 1988, Gaussian, Inc.),
 the Gaussian 86(TM) system (copyright 1986, Carnegie Mellon
 University), and the Gaussian 82(TM) system (copyright 1983,
 Carnegie Mellon University). Gaussian is a federally registered
 trademark of Gaussian, Inc.
  
 This software contains proprietary and confidential information,
 including trade secrets, belonging to Gaussian, Inc.
  
 This software is provided under written license and may be
 used, copied, transmitted, or stored only in accord with that
 written license.
  
 The following legend is applicable only to US Government
 contracts under FAR:
  
                    RESTRICTED RIGHTS LEGEND
  
 Use, reproduction and disclosure by the US Government is
 subject to restrictions as set forth in subparagraphs (a)
 and (c) of the Commercial Computer Software - Restricted
 Rights clause in FAR 52.227-19.
  
 Gaussian, Inc.
 340 Quinnipiac St., Bldg. 40, Wallingford CT 06492
  
  
 ---------------------------------------------------------------
 Warning -- This program may not be used in any manner that
 competes with the business of Gaussian, Inc. or will provide
 assistance to any competitor of Gaussian, Inc.  The licensee
 of this program is prohibited from giving any competitor of
 Gaussian, Inc. access to this program.  By using this program,
 the user acknowledges that Gaussian, Inc. is engaged in the
 business of creating and licensing software in the field of
 computational chemistry and represents and warrants to the
 licensee that it is not a competitor of Gaussian, Inc. and that
 it will not use this program in any manner prohibited above.
 ---------------------------------------------------------------
  

 Cite this work as:
 Gaussian 16, Revision C.01,
 M. J. Frisch, G. W. Trucks, H. B. Schlegel, G. E. Scuseria, 
 M. A. Robb, J. R. Cheeseman, G. Scalmani, V. Barone, 
 G. A. Petersson, H. Nakatsuji, X. Li, M. Caricato, A. V. Marenich, 
 J. Bloino, B. G. Janesko, R. Gomperts, B. Mennucci, H. P. Hratchian, 
 J. V. Ortiz, A. F. Izmaylov, J. L. Sonnenberg, D. Williams-Young, 
 F. Ding, F. Lipparini, F. Egidi, J. Goings, B. Peng, A. Petrone, 
 T. Henderson, D. Ranasinghe, V. G. Zakrzewski, J. Gao, N. Rega, 
 G. Zheng, W. Liang, M. Hada, M. Ehara, K. Toyota, R. Fukuda, 
 J. Hasegawa, M. Ishida, T. Nakajima, Y. Honda, O. Kitao, H. Nakai, 
 T. Vreven, K. Throssell, J. A. Montgomery, Jr., J. E. Peralta, 
 F. Ogliaro, M. J. Bearpark, J. J. Heyd, E. N. Brothers, K. N. Kudin, 
 V. N. Staroverov, T. A. Keith, R. Kobayashi, J. Normand, 
 K. Raghavachari, A. P. Rendell, J. C. Burant, S. S. Iyengar, 
 J. Tomasi, M. Cossi, J. M. Millam, M. Klene, C. Adamo, R. Cammi, 
 J. W. Ochterski, R. L. Martin, K. Morokuma, O. Farkas, 
 J. B. Foresman, and D. J. Fox, Gaussian, Inc., Wallingford CT, 2019.
 
 ******************************************
 Gaussian 16:  ES64L-G16RevC.01  3-Jul-2019
                11-Jan-2023 
 ******************************************
 %oldchk=../GS_OLD/geometry.chk
 %chk=geometry.chk
 %nprocshared=4
 Will use up to    4 processors via shared memory.
 %mem=5GB
 Copying data from "../GS_OLD/geometry.chk" to current chk file "geometry.chk"
 IOpt=  2 FromEx=T IUOpen= 4 IOptOp= 5 NList=   0 IFRang= 0 IUIn= 4 IUOut= 2.
 -------------------------------------------------------
 # WB97XD/6-311G SCF=XQC FORCE nosym pop=full guess=read
 -------------------------------------------------------
 1/10=7,30=1,38=1/1,3;
 2/12=2,15=1,17=6,18=5,40=1/2;
 3/5=4,6=6,11=2,25=1,30=1,71=1,74=-58,116=-2/1,2,3;
 4/5=1/1;
 5/5=2,8=3,13=1,38=6/2,8;
 6/7=3,28=1/1;
 7/29=1,30=1/1,2,3,16;
 1/10=7,30=1/3;
 99//99;
 ------------
 MD Step 1000
 ------------
 Symbolic Z-matrix:
 Charge =  0 Multiplicity = 1
 C                    -0.33622  -0.58125   0.00607 
 H                     0.21543  -1.53031  -0.02091 
 H                    -1.4195   -0.591    -0.02176 
 C                     0.33289   0.57759   0.00475 
 H                    -0.16094   1.56107  -0.02384 
 H                     1.44412   0.64336  -0.02298 
 

 GradGradGradGradGradGradGradGradGradGradGradGradGradGradGradGradGradGrad
 Berny optimization.
 Initialization pass.
 Trust Radius=3.00D-01 FncErr=1.00D-07 GrdErr=1.00D-07 EigMax=2.50D+02 EigMin=1.00D-04
 Number of steps in this run=      2 maximum allowed number of steps=      2.
 GradGradGradGradGradGradGradGradGradGradGradGradGradGradGradGradGradGrad

                          Input orientation:                          
 ---------------------------------------------------------------------
 Center     Atomic      Atomic             Coordinates (Angstroms)
 Number     Number       Type             X           Y           Z
 ---------------------------------------------------------------------
      1          6           0       -0.336218   -0.581253    0.006072
      2          1           0        0.215430   -1.530313   -0.020907
      3          1           0       -1.419497   -0.591003   -0.021760
      4          6           0        0.332893    0.577593    0.004752
      5          1           0       -0.160940    1.561073   -0.023844
      6          1           0        1.444118    0.643358   -0.022983
 ---------------------------------------------------------------------
                    Distance matrix (angstroms):
                    1          2          3          4          5
     1  C    0.000000
     2  H    1.098070   0.000000
     3  H    1.083680   1.885548   0.000000
     4  C    1.338147   2.111332   2.106464   0.000000
     5  H    2.149693   3.114214   2.493070   1.100873   0.000000
     6  H    2.161045   2.496903   3.118323   1.113515   1.848895
                    6
     6  H    0.000000
 Symmetry turned off by external request.
 Stoichiometry    C2H4
 Framework group  C1[X(C2H4)]
 Deg. of freedom    12
 Full point group                 C1      NOp   1
 Rotational constants (GHZ):         143.6977268          29.6880034          24.6110429
 Standard basis: 6-311G (5D, 7F)
    38 basis functions,    72 primitive gaussians,    38 cartesian basis functions
     8 alpha electrons        8 beta electrons
       nuclear repulsion energy        33.0812970604 Hartrees.
 NAtoms=    6 NActive=    6 NUniq=    6 SFac= 1.00D+00 NAtFMM=   60 NAOKFM=F Big=F
 Integral buffers will be    131072 words long.
 Raffenetti 2 integral format.
 Two-electron integral symmetry is turned off.
 Nuclear repulsion after empirical dispersion term =       33.0804565993 Hartrees.
 One-electron integrals computed using PRISM.
 NBasis=    38 RedAO= T EigKep=  6.43D-03  NBF=    38
 NBsUse=    38 1.00D-06 EigRej= -1.00D+00 NBFU=    38
 Initial guess from the checkpoint file:  "geometry.chk"
 B after Tr=    -0.000224   -0.000288   -0.000367
         Rot=    1.000000   -0.000001    0.000002    0.000008 Ang=  -0.00 deg.
 Keep R1 ints in memory in canonical form, NReq=4036876.
 Requested convergence on RMS density matrix=1.00D-08 within  32 cycles.
 Requested convergence on MAX density matrix=1.00D-06.
 Requested convergence on             energy=1.00D-06.
 No special actions if energy rises.
 SCF Done:  E(RwB97XD) =  -78.5559227321     A.U. after    8 cycles
            NFock=  8  Conv=0.59D-08     -V/T= 2.0051
 QCSCF skips out because SCF is already converged.

 **********************************************************************

            Population analysis using the SCF Density.

 **********************************************************************

 Alpha  occ. eigenvalues --  -10.29008 -10.28780  -0.86382  -0.67257  -0.55942
 Alpha  occ. eigenvalues --   -0.50955  -0.43675  -0.35682
 Alpha virt. eigenvalues --    0.07984   0.14110   0.16493   0.17032   0.24089
 Alpha virt. eigenvalues --    0.37473   0.39333   0.39840   0.46438   0.48854
 Alpha virt. eigenvalues --    0.49383   0.59110   0.66582   0.69161   0.77304
 Alpha virt. eigenvalues --    0.77589   0.84288   0.95211   2.23152   2.29006
 Alpha virt. eigenvalues --    2.33310   2.40748   2.67125   2.81788   2.87855
 Alpha virt. eigenvalues --    2.95171   3.14073   3.31998  23.35284  23.70615
     Molecular Orbital Coefficients:
                           1         2         3         4         5
                           O         O         O         O         O
     Eigenvalues --   -10.29008 -10.28780  -0.86382  -0.67257  -0.55942
   1 1   C  1S          0.11009   0.55253  -0.08837   0.06683  -0.00043
   2        2S          0.09080   0.45471  -0.13966   0.10703  -0.00070
   3        2PX         0.00016  -0.00002   0.02574   0.03697   0.13811
   4        2PY         0.00028  -0.00002   0.04632   0.06023  -0.07235
   5        2PZ         0.00000  -0.00001  -0.00113   0.00170   0.00023
   6        3S          0.00200   0.01450   0.37457  -0.29208   0.00194
   7        3PX        -0.00060   0.00043   0.03398   0.05913   0.21611
   8        3PY        -0.00103   0.00078   0.06075   0.09759  -0.11432
   9        3PZ        -0.00001  -0.00003  -0.00189   0.00303   0.00033
  10        4S          0.00305  -0.01473   0.19165  -0.22636   0.00118
  11        4PX         0.00147  -0.00157   0.00474   0.02356   0.11200
  12        4PY         0.00252  -0.00269   0.00862   0.04049  -0.06028
  13        4PZ         0.00000   0.00007  -0.00067   0.00151   0.00016
  14 2   H  1S         -0.00005  -0.00006   0.05233  -0.08739   0.10132
  15        2S         -0.00030   0.00011   0.05362  -0.10520   0.12828
  16        3S          0.00085   0.00166  -0.00169  -0.01507   0.04148
  17 3   H  1S         -0.00006  -0.00007   0.05404  -0.09149  -0.10558
  18        2S         -0.00030   0.00009   0.05467  -0.10912  -0.13250
  19        3S          0.00088   0.00171  -0.00172  -0.01614  -0.04274
  20 4   C  1S          0.55252  -0.11028  -0.08689  -0.06837  -0.00032
  21        2S          0.45477  -0.09056  -0.13720  -0.10964  -0.00051
  22        2PX        -0.00002  -0.00016  -0.02774   0.03684   0.11773
  23        2PY        -0.00003  -0.00029  -0.04646   0.06678  -0.07526
  24        2PZ        -0.00000   0.00000  -0.00093  -0.00178   0.00023
  25        3S          0.01401  -0.00370   0.36760   0.29958   0.00138
  26        3PX        -0.00020   0.00073  -0.03487   0.05991   0.18449
  27        3PY        -0.00031   0.00126  -0.05832   0.10766  -0.11664
  28        3PZ        -0.00003  -0.00000  -0.00159  -0.00321   0.00034
  29        4S         -0.01215   0.00857   0.18892   0.23705   0.00007
  30        4PX         0.00086  -0.00191  -0.00544   0.02629   0.10129
  31        4PY         0.00144  -0.00336  -0.00904   0.04553  -0.06300
  32        4PZ         0.00006  -0.00002  -0.00065  -0.00164   0.00017
  33 5   H  1S         -0.00007  -0.00004   0.05030   0.09406  -0.09088
  34        2S         -0.00003  -0.00031   0.05129   0.11202  -0.11439
  35        3S          0.00182   0.00012  -0.00111   0.01686  -0.03666
  36 6   H  1S         -0.00005  -0.00004   0.04871   0.09114   0.08565
  37        2S         -0.00003  -0.00032   0.05035   0.10935   0.10855
  38        3S          0.00176   0.00011  -0.00118   0.01605   0.03516
                           6         7         8         9        10
                           O         O         O         V         V
     Eigenvalues --    -0.50955  -0.43675  -0.35682   0.07984   0.14110
   1 1   C  1S         -0.00388   0.00028  -0.00086   0.00235  -0.03316
   2        2S         -0.00584   0.00048  -0.00140   0.00390  -0.05318
   3        2PX         0.09334  -0.11148  -0.00296   0.00128  -0.03025
   4        2PY         0.16865   0.06611  -0.00500   0.00213  -0.06485
   5        2PZ         0.00443  -0.00002   0.17938  -0.18903  -0.00212
   6        3S          0.02176  -0.00116   0.00409  -0.01182   0.11556
   7        3PX         0.13534  -0.17764  -0.00418   0.00194  -0.03520
   8        3PY         0.24667   0.10602  -0.00705   0.00320  -0.08030
   9        3PZ         0.00703   0.00000   0.28843  -0.27805  -0.00337
  10        4S         -0.05133  -0.00393   0.00600  -0.01318   1.21690
  11        4PX         0.06809  -0.11037  -0.00341   0.01096  -0.18802
  12        4PY         0.12554   0.06666  -0.00578   0.01838  -0.38765
  13        4PZ         0.00400   0.00005   0.26711  -0.69527  -0.01242
  14 2   H  1S         -0.08131  -0.11555   0.00013   0.00366  -0.01700
  15        2S         -0.11242  -0.17855   0.00175   0.00578  -0.04804
  16        3S         -0.04205  -0.08263   0.00104   0.01525  -0.83980
  17 3   H  1S         -0.07826   0.11302   0.00008   0.00368  -0.01224
  18        2S         -0.10743   0.17360   0.00170   0.00588  -0.03630
  19        3S         -0.03979   0.08012   0.00102   0.01500  -0.75983
  20 4   C  1S         -0.00821  -0.00055  -0.00071  -0.00229  -0.03639
  21        2S         -0.01284  -0.00092  -0.00116  -0.00380  -0.05844
  22        2PX        -0.09898   0.12458   0.00288   0.00146   0.04212
  23        2PY        -0.16193  -0.07328   0.00527   0.00263   0.06066
  24        2PZ         0.00465   0.00017   0.17916   0.18944  -0.00262
  25        3S          0.04158   0.00257   0.00343   0.01139   0.12902
  26        3PX        -0.14664   0.19951   0.00403   0.00224   0.05208
  27        3PY        -0.23784  -0.11639   0.00740   0.00405   0.07168
  28        3PZ         0.00735   0.00025   0.28684   0.27786  -0.00399
  29        4S         -0.03016   0.00398   0.00571   0.01295   1.25044
  30        4PX        -0.07665   0.12742   0.00311   0.01126   0.26971
  31        4PY        -0.12265  -0.07339   0.00582   0.02003   0.40907
  32        4PZ         0.00425   0.00013   0.26734   0.69634  -0.01556
  33 5   H  1S         -0.07425  -0.12430   0.00020  -0.00348  -0.01174
  34        2S         -0.10124  -0.19336   0.00185  -0.00579  -0.03662
  35        3S         -0.03770  -0.09071   0.00104  -0.01505  -0.81686
  36 6   H  1S         -0.08053   0.12434   0.00014  -0.00349  -0.01640
  37        2S         -0.11043   0.19471   0.00177  -0.00583  -0.04793
  38        3S         -0.04139   0.09147   0.00098  -0.01544  -0.89756
                          11        12        13        14        15
                           V         V         V         V         V
     Eigenvalues --     0.16493   0.17032   0.24089   0.37473   0.39333
   1 1   C  1S          0.00182  -0.04546   0.00008   0.01045   0.00203
   2        2S          0.00294  -0.07408   0.00012   0.01457   0.00338
   3        2PX         0.09756  -0.01879   0.09994  -0.03653  -0.02514
   4        2PY        -0.05282  -0.03820  -0.05723  -0.06694   0.00739
   5        2PZ         0.00019  -0.00574   0.00002  -0.00407  -0.00018
   6        3S         -0.00634   0.16716   0.00025   0.03070  -0.00452
   7        3PX         0.13930  -0.00976   0.10584  -0.04730  -0.11110
   8        3PY        -0.07704  -0.02572  -0.06183  -0.09182   0.03971
   9        3PZ         0.00026  -0.00796  -0.00003  -0.00821  -0.00003
  10        4S         -0.07875   1.44011  -0.02331  -2.68982  -0.32754
  11        4PX         0.58390  -0.11182   1.16827  -1.58090  -0.55704
  12        4PY        -0.30607  -0.21254  -0.66722  -2.75358   0.12000
  13        4PZ         0.00133  -0.03766   0.00075  -0.03725  -0.00220
  14 2   H  1S         -0.02912  -0.02549   0.01303  -0.05643   0.07752
  15        2S         -0.07974  -0.01769  -0.02497  -0.64764   0.80352
  16        3S         -1.01051  -1.01865  -1.54381  -0.32234  -0.34890
  17 3   H  1S          0.02884  -0.02456  -0.01548  -0.04873  -0.07449
  18        2S          0.07908  -0.01997   0.01853  -0.58737  -0.73283
  19        3S          1.11366  -1.00345   1.57774  -0.40657   0.23652
  20 4   C  1S          0.00123   0.04235  -0.00013  -0.02000   0.00006
  21        2S          0.00195   0.06895  -0.00023  -0.03274   0.00045
  22        2PX         0.10085  -0.02266  -0.10016  -0.04152  -0.03179
  23        2PY        -0.06136  -0.03742   0.05740  -0.07389   0.01175
  24        2PZ         0.00013   0.00560  -0.00002   0.00303   0.00049
  25        3S         -0.00376  -0.15319   0.00037   0.04077  -0.00783
  26        3PX         0.14497  -0.01752  -0.11347  -0.09301  -0.10733
  27        3PY        -0.08706  -0.02696   0.06349  -0.16833   0.05957
  28        3PZ         0.00018   0.00771   0.00003   0.00381   0.00112
  29        4S         -0.06391  -1.33869   0.01886   3.35417   0.20937
  30        4PX         0.53749  -0.11382  -1.12589  -1.20889  -0.62388
  31        4PY        -0.33564  -0.19886   0.65370  -2.12965  -0.01983
  32        4PZ         0.00088   0.03649  -0.00076   0.03096   0.00380
  33 5   H  1S          0.03073   0.02475   0.00694   0.01125  -0.07697
  34        2S          0.06778   0.02229  -0.03316   0.08017  -0.73658
  35        3S          1.08600   0.94748  -1.53172   0.46321   0.47127
  36 6   H  1S         -0.03154   0.02515  -0.00502   0.00618   0.09006
  37        2S         -0.06922   0.01924   0.03569   0.03330   0.93323
  38        3S         -1.00153   0.93707   1.50581   0.47049  -0.43920
                          16        17        18        19        20
                           V         V         V         V         V
     Eigenvalues --     0.39840   0.46438   0.48854   0.49383   0.59110
   1 1   C  1S         -0.01774   0.01206  -0.04676  -0.00020  -0.00049
   2        2S         -0.03133   0.02825  -0.07832  -0.00010  -0.00088
   3        2PX         0.02408  -0.06123   0.01350   0.00108   0.00184
   4        2PY         0.04765  -0.10627   0.01681   0.00151   0.00272
   5        2PZ         0.00013  -0.00049   0.00408  -0.15181  -0.19252
   6        3S          0.07613  -0.33628   0.09714  -0.00822  -0.00038
   7        3PX         0.09324  -0.24187  -0.02882   0.00069   0.00616
   8        3PY         0.19194  -0.41733  -0.06258   0.00006   0.00918
   9        3PZ        -0.00356  -0.00395   0.01860  -0.62836  -0.68493
  10        4S          2.54257   0.12686   3.13672   0.07252   0.05958
  11        4PX         0.14760   0.22475   0.80297   0.02322   0.01862
  12        4PY         0.36078   0.42937   1.39419   0.04191   0.03237
  13        4PZ        -0.00220   0.00045  -0.07513   0.68597   1.24065
  14 2   H  1S         -0.02256  -0.03462  -0.07643  -0.00212  -0.00146
  15        2S         -0.49961  -0.33086  -0.91651  -0.01992  -0.01076
  16        3S          0.26977   0.07421   0.64349   0.02493   0.02022
  17 3   H  1S         -0.03904  -0.03748  -0.07385  -0.00206  -0.00138
  18        2S         -0.65955  -0.36458  -0.88546  -0.01948  -0.00925
  19        3S          0.31537   0.07471   0.60304   0.02403   0.01964
  20 4   C  1S         -0.00168  -0.00228   0.05087   0.00253   0.00060
  21        2S         -0.00632   0.00384   0.08841   0.00458   0.00112
  22        2PX         0.00558   0.05515   0.02627  -0.00001   0.00171
  23        2PY         0.01559   0.09483   0.04935  -0.00008   0.00338
  24        2PZ        -0.00310  -0.00146   0.00417  -0.15272   0.19224
  25        3S          0.08039  -0.28855  -0.22749  -0.01785  -0.00201
  26        3PX        -0.05307   0.23542   0.05161  -0.00009   0.00603
  27        3PY        -0.06608   0.41032   0.09443  -0.00068   0.01173
  28        3PZ        -0.00895  -0.00606   0.01519  -0.63147   0.68242
  29        4S         -0.71579   0.76738  -3.10290  -0.09048  -0.05337
  30        4PX         1.15819  -0.35718   0.63065   0.01244   0.01854
  31        4PY         2.17031  -0.58364   1.06864   0.02072   0.03161
  32        4PZ        -0.02752  -0.01383   0.03269   0.69360  -1.23766
  33 5   H  1S         -0.05300  -0.06341   0.06419   0.00191   0.00135
  34        2S         -0.89489  -0.64928   0.80696   0.02899   0.00551
  35        3S         -0.15193   0.26256  -0.54557  -0.00735  -0.01962
  36 6   H  1S         -0.03573  -0.06168   0.06474   0.00196   0.00141
  37        2S         -0.70659  -0.62532   0.80702   0.02886   0.00625
  38        3S         -0.21332   0.28200  -0.57451  -0.00868  -0.01997
                          21        22        23        24        25
                           V         V         V         V         V
     Eigenvalues --     0.66582   0.69161   0.77304   0.77589   0.84288
   1 1   C  1S          0.00108  -0.00046   0.05029   0.07375   0.00086
   2        2S          0.00223  -0.00105   0.10613   0.15722   0.00201
   3        2PX        -0.13068   0.19849  -0.02790   0.11463  -0.00677
   4        2PY         0.07627  -0.12024  -0.04664   0.18455   0.01429
   5        2PZ        -0.00005   0.00017   0.00049   0.00422   0.00017
   6        3S         -0.01718   0.01629  -0.71182  -1.35615  -0.02334
   7        3PX        -0.61052   0.69780  -0.18447   0.44731  -0.21544
   8        3PY         0.35207  -0.42316  -0.31152   0.70886   0.16673
   9        3PZ        -0.00034   0.00067   0.00188   0.01476   0.00062
  10        4S          0.02448  -0.08267   0.68923   2.47341  -0.02641
  11        4PX         1.09494  -0.79790   0.20369  -0.77957   4.49003
  12        4PY        -0.63462   0.49073   0.21401  -0.99347  -2.57509
  13        4PZ         0.00037   0.00118   0.00872  -0.04738   0.00331
  14 2   H  1S          0.02295  -0.05890   0.01007   0.03246  -0.02657
  15        2S          0.12329  -0.62537   0.06588   0.09924  -1.55855
  16        3S         -1.03580   1.12111  -0.08735  -1.08985  -1.22436
  17 3   H  1S         -0.02201   0.05842   0.00990   0.03330   0.03031
  18        2S         -0.13716   0.66521   0.10509   0.06080   1.60444
  19        3S          1.02497  -1.07956  -0.05356  -1.26103   1.22264
  20 4   C  1S          0.00127  -0.00032   0.08374   0.03216   0.00053
  21        2S          0.00260  -0.00055   0.17828   0.06769   0.00102
  22        2PX        -0.15332  -0.18460  -0.09587   0.05059   0.01190
  23        2PY         0.08744   0.10124  -0.17611   0.09404   0.00273
  24        2PZ        -0.00006  -0.00018   0.00438  -0.00084  -0.00018
  25        3S         -0.01940  -0.00404  -1.49039  -0.39356  -0.00219
  26        3PX        -0.68889  -0.62388  -0.34901   0.27063   0.24377
  27        3PY         0.39661   0.33915  -0.64923   0.50014  -0.09444
  28        3PZ        -0.00037  -0.00062   0.01549  -0.00321  -0.00060
  29        4S          0.02024   0.06162   2.67564   0.15506   0.01109
  30        4PX         1.27552   0.74050   0.49020  -0.21372  -4.19946
  31        4PY        -0.72959  -0.39760   1.04163  -0.66665   2.38889
  32        4PZ         0.00055  -0.00103  -0.04517   0.02127  -0.00277
  33 5   H  1S         -0.02594  -0.05482   0.03462   0.00312  -0.02409
  34        2S         -0.15858  -0.56850   0.07324   0.08399  -1.43230
  35        3S          1.12406   0.96680  -1.18711   0.28907  -1.10500
  36 6   H  1S          0.02674   0.05483   0.03395   0.00383   0.02328
  37        2S          0.14791   0.52904   0.08172   0.01634   1.40823
  38        3S         -1.12936  -0.99399  -1.07999   0.19948   1.11655
                          26        27        28        29        30
                           V         V         V         V         V
     Eigenvalues --     0.95211   2.23152   2.29006   2.33310   2.40748
   1 1   C  1S          0.09571  -0.01036  -0.01449   0.00045  -0.00055
   2        2S          0.19887   0.00106  -0.01467   0.00098  -0.00066
   3        2PX        -0.09128  -0.08122  -0.13113   0.34150  -0.41085
   4        2PY        -0.15828  -0.15328  -0.23035  -0.19387   0.23250
   5        2PZ         0.00013  -0.01168  -0.01570   0.00001  -0.00067
   6        3S         -1.54051  -0.18384  -0.03423  -0.00165  -0.00504
   7        3PX        -0.23435   0.07816   0.20577  -0.40842   0.57224
   8        3PY        -0.39713   0.16304   0.37716   0.23452  -0.32621
   9        3PZ        -0.00223   0.01171   0.01957   0.00009   0.00076
  10        4S          5.71450  -0.11718  -0.89095   0.00246  -0.02275
  11        4PX         1.21234   0.05372  -0.18489  -0.03804   0.97985
  12        4PY         1.98008   0.06714  -0.35593   0.01251  -0.53961
  13        4PZ        -0.01584   0.00282   0.00711  -0.00027   0.00149
  14 2   H  1S          0.01542  -0.71568  -0.78825  -0.70238   0.65600
  15        2S         -0.29560   1.01895   1.18218   1.07723  -1.46176
  16        3S         -0.09722  -0.30716  -0.47261  -0.46874   0.37202
  17 3   H  1S          0.01583  -0.70765  -0.78239   0.69471  -0.68049
  18        2S         -0.25724   1.00890   1.17863  -1.07012   1.51336
  19        3S         -0.07380  -0.28312  -0.45036   0.45744  -0.36228
  20 4   C  1S         -0.09406  -0.01041   0.01241   0.00057   0.00039
  21        2S         -0.19512   0.00010   0.01244   0.00085   0.00067
  22        2PX        -0.09242   0.13174  -0.12554   0.30840   0.41505
  23        2PY        -0.15940   0.22856  -0.20938  -0.17886  -0.23888
  24        2PZ         0.00024  -0.01260   0.01531   0.00027   0.00032
  25        3S          1.50838  -0.16899   0.01951  -0.00006   0.00063
  26        3PX        -0.22640  -0.16810   0.21593  -0.38500  -0.58128
  27        3PY        -0.39823  -0.28427   0.35102   0.21984   0.33438
  28        3PZ         0.00306   0.01348  -0.01949  -0.00026  -0.00043
  29        4S         -5.69287  -0.16629   0.88996   0.01643   0.00921
  30        4PX         1.09522  -0.01315  -0.20277   0.09719  -0.86520
  31        4PY         1.99561  -0.03796  -0.31769  -0.05315   0.51152
  32        4PZ         0.01121   0.00395  -0.00570  -0.00015  -0.00131
  33 5   H  1S         -0.01782  -0.78374   0.68258   0.70916   0.68219
  34        2S          0.28392   1.13792  -1.04267  -1.03587  -1.45986
  35        3S          0.05916  -0.34923   0.40177   0.50894   0.41702
  36 6   H  1S         -0.01776  -0.77698   0.70575  -0.69698  -0.67761
  37        2S          0.31550   1.12456  -1.07063   1.01384   1.44203
  38        3S          0.07295  -0.35386   0.43330  -0.50760  -0.42721
                          31        32        33        34        35
                           V         V         V         V         V
     Eigenvalues --     2.67125   2.81788   2.87855   2.95171   3.14073
   1 1   C  1S          0.00044   0.00219  -0.01329   0.00010  -0.00959
   2        2S          0.00035   0.00636  -0.04430  -0.00005  -0.02933
   3        2PX         0.00456   0.06278  -0.46713  -0.73265   0.45484
   4        2PY         0.00712   0.11058  -0.84537   0.41309   0.78954
   5        2PZ        -0.92400  -0.93277  -0.12114  -0.00094   0.00606
   6        3S         -0.00145  -0.05281   0.38989   0.00272   0.24644
   7        3PX        -0.00341  -0.10931   0.83279   0.88336  -0.44335
   8        3PY        -0.00538  -0.19073   1.47760  -0.48454  -0.76509
   9        3PZ         0.93900   1.14017   0.15210   0.00133  -0.00780
  10        4S          0.01144   0.12226  -0.87595  -0.00878  -0.48001
  11        4PX        -0.00171   0.08804  -0.71375  -0.67073   0.23022
  12        4PY        -0.00217   0.15445  -1.27106   0.35749   0.38802
  13        4PZ        -0.33783  -0.61751  -0.09644  -0.00110   0.00484
  14 2   H  1S          0.01041  -0.01776   0.26613  -0.37869  -0.21529
  15        2S         -0.01193   0.01153  -0.22470   0.39020   0.16226
  16        3S         -0.00242   0.03544  -0.29841   0.27214   0.06104
  17 3   H  1S          0.01055  -0.01705   0.25464   0.37845  -0.21902
  18        2S         -0.01226   0.00980  -0.20308  -0.38530   0.16602
  19        3S         -0.00296   0.03612  -0.30250  -0.29048   0.07225
  20 4   C  1S          0.00044  -0.00215   0.01360   0.00062  -0.00750
  21        2S          0.00042  -0.00665   0.04775   0.00136  -0.02335
  22        2PX        -0.00626   0.05678  -0.41493  -0.80291  -0.49934
  23        2PY        -0.01141   0.10103  -0.73425   0.44395  -0.88686
  24        2PZ        -0.92548   0.93080   0.12361   0.00030   0.01108
  25        3S         -0.00235   0.05707  -0.42917  -0.00982   0.20049
  26        3PX         0.00647  -0.10299   0.77684   0.95715   0.53115
  27        3PY         0.01153  -0.18218   1.36994  -0.52350   0.95345
  28        3PZ         0.94108  -1.13815  -0.15570  -0.00032  -0.01400
  29        4S          0.01338  -0.12449   0.90273   0.02851  -0.38201
  30        4PX        -0.00059   0.08761  -0.71339  -0.69773  -0.32055
  31        4PY        -0.00145   0.15343  -1.24428   0.37780  -0.57888
  32        4PZ        -0.33892   0.61643   0.09938   0.00015   0.01086
  33 5   H  1S          0.01000   0.02332  -0.29151   0.41573  -0.26223
  34        2S         -0.01225  -0.01851   0.26217  -0.42641   0.20490
  35        3S         -0.00136  -0.03374   0.28702  -0.24904   0.12377
  36 6   H  1S          0.01014   0.02367  -0.29073  -0.42739  -0.24916
  37        2S         -0.01275  -0.01972   0.26915   0.43822   0.19535
  38        3S         -0.00090  -0.03175   0.26953   0.24717   0.11419
                          36        37        38
                           V         V         V
     Eigenvalues --     3.31998  23.35284  23.70615
   1 1   C  1S         -0.00043  -1.41556  -1.45076
   2        2S         -0.00055   1.50970   1.56883
   3        2PX         0.78278  -0.00666   0.01203
   4        2PY        -0.43668  -0.01077   0.02124
   5        2PZ         0.00092  -0.00048  -0.00021
   6        3S         -0.00112  -0.29645  -0.39904
   7        3PX        -1.12074   0.02434  -0.05544
   8        3PY         0.61905   0.04005  -0.09680
   9        3PZ        -0.00142   0.00135   0.00062
  10        4S         -0.00728   0.27444   0.76842
  11        4PX         1.97044  -0.02635   0.13305
  12        4PY        -1.08758  -0.04409   0.22902
  13        4PZ         0.00239  -0.00225  -0.00261
  14 2   H  1S          0.55684   0.01311   0.00697
  15        2S         -0.86724   0.00768  -0.01486
  16        3S         -0.46083  -0.08388  -0.03950
  17 3   H  1S         -0.56974   0.01521   0.00841
  18        2S          0.88577   0.00710  -0.01494
  19        3S          0.49049  -0.08651  -0.03976
  20 4   C  1S          0.00021  -1.44597   1.42031
  21        2S         -0.00000   1.54223  -1.53599
  22        2PX        -0.71192   0.00596   0.01269
  23        2PY         0.41083   0.01094   0.02147
  24        2PZ        -0.00078  -0.00048   0.00012
  25        3S          0.00433  -0.30284   0.39087
  26        3PX         1.01304  -0.02201  -0.05661
  27        3PY        -0.59450  -0.03980  -0.09703
  28        3PZ         0.00120   0.00137  -0.00032
  29        4S         -0.01326   0.28002  -0.76034
  30        4PX        -1.78616   0.02303   0.13099
  31        4PY         1.05546   0.04288   0.22702
  32        4PZ        -0.00205  -0.00223   0.00196
  33 5   H  1S          0.49222   0.01371  -0.00511
  34        2S         -0.76773   0.00786   0.01381
  35        3S         -0.43643  -0.08367   0.03757
  36 6   H  1S         -0.48380   0.01183  -0.00365
  37        2S          0.75765   0.00919   0.01330
  38        3S          0.41985  -0.08120   0.03688
     Density Matrix:
                           1         2         3         4         5
   1 1   C  1S          0.65940
   2        2S          0.56152   0.49202
   3        2PX        -0.00049  -0.00065   0.08450
   4        2PY        -0.00130  -0.00181   0.00362   0.08769
   5        2PZ         0.00008   0.00012  -0.00010  -0.00023   0.06440
   6        3S         -0.08895  -0.15387   0.00252   0.00638  -0.00018
   7        3PX         0.00092   0.00141   0.13071   0.00120  -0.00007
   8        3PY         0.00120   0.00185   0.00122   0.13122  -0.00020
   9        3PZ         0.00015   0.00026  -0.00018  -0.00037   0.10355
  10        4S         -0.07934  -0.11425  -0.01528  -0.02757   0.00049
  11        4PX         0.00022   0.00151   0.07026  -0.00452  -0.00049
  12        4PY         0.00059   0.00297  -0.00460   0.06562  -0.00087
  13        4PZ        -0.00009  -0.00022  -0.00072  -0.00122   0.09587
  14 2   H  1S         -0.02052  -0.03269   0.03480  -0.06304  -0.00104
  15        2S         -0.02282  -0.03649   0.04923  -0.08781  -0.00078
  16        3S          0.00055  -0.00074   0.02082  -0.03309  -0.00002
  17 3   H  1S         -0.02111  -0.03359  -0.07295  -0.00219  -0.00115
  18        2S         -0.02317  -0.03700  -0.10062  -0.00220  -0.00091
  19        3S          0.00061  -0.00067  -0.03838   0.00124  -0.00006
  20 4   C  1S          0.00607   0.00978  -0.01084  -0.01876  -0.00036
  21        2S          0.00975   0.01524  -0.01734  -0.03002  -0.00059
  22        2PX         0.01037   0.01658  -0.01246  -0.03211   0.00039
  23        2PY         0.01808   0.02892  -0.03216  -0.04973   0.00076
  24        2PZ        -0.00042  -0.00068  -0.00035  -0.00054   0.06431
  25        3S         -0.02625  -0.03986   0.04863   0.08428   0.00179
  26        3PX         0.01602   0.02483  -0.01828  -0.04583   0.00050
  27        3PY         0.02789   0.04323  -0.04575  -0.07124   0.00100
  28        3PZ        -0.00071  -0.00114  -0.00061  -0.00094   0.10296
  29        4S          0.00531   0.00390   0.02072   0.03633   0.00216
  30        4PX         0.00312   0.00643  -0.01309  -0.02103   0.00058
  31        4PY         0.00524   0.01091  -0.02107  -0.03737   0.00115
  32        4PZ        -0.00060  -0.00097  -0.00093  -0.00151   0.09594
  33 5   H  1S          0.00421   0.00691  -0.00171  -0.01234  -0.00042
  34        2S          0.00633   0.01052   0.00353  -0.02494  -0.00001
  35        3S          0.00326   0.00476   0.00424  -0.01749   0.00008
  36 6   H  1S          0.00414   0.00680  -0.00985  -0.00763  -0.00043
  37        2S          0.00622   0.01036  -0.02338  -0.00939  -0.00004
  38        3S          0.00321   0.00471  -0.01729  -0.00514   0.00005
                           6         7         8         9        10
   6        3S          0.45264
   7        3PX        -0.00197   0.20249
   8        3PY        -0.00150  -0.00458   0.19685
   9        3PZ        -0.00051  -0.00014  -0.00032   0.16651
  10        4S          0.27321  -0.02580  -0.04744   0.00064   0.18176
  11        4PX        -0.00663   0.10918  -0.01020  -0.00081  -0.01469
  12        4PY        -0.01223  -0.01033   0.09888  -0.00140  -0.02856
  13        4PZ         0.00098  -0.00096  -0.00161   0.15415   0.00185
  14 2   H  1S          0.08737   0.05606  -0.09848  -0.00173   0.06912
  15        2S          0.09766   0.07964  -0.13670  -0.00133   0.08144
  16        3S          0.00612   0.03400  -0.05091  -0.00005   0.01121
  17 3   H  1S          0.08985  -0.11412  -0.00180  -0.00188   0.06903
  18        2S          0.09913  -0.15723  -0.00057  -0.00149   0.07972
  19        3S          0.00612  -0.05974   0.00376  -0.00009   0.00997
  20 4   C  1S         -0.02650  -0.01691  -0.02929  -0.00062   0.00511
  21        2S         -0.04012  -0.02627  -0.04554  -0.00100   0.00380
  22        2PX        -0.04642  -0.01772  -0.04555   0.00068  -0.01781
  23        2PY        -0.08095  -0.04563  -0.07090   0.00130  -0.03095
  24        2PZ         0.00202  -0.00048  -0.00071   0.10341   0.00212
  25        3S          0.10217   0.07130   0.12380   0.00299   0.00123
  26        3PX        -0.06719  -0.02615  -0.06482   0.00088  -0.02654
  27        3PY        -0.11702  -0.06474  -0.10152   0.00172  -0.04599
  28        3PZ         0.00335  -0.00084  -0.00127   0.16556   0.00352
  29        4S          0.00198   0.03130   0.05513   0.00359  -0.03209
  30        4PX        -0.02269  -0.01953  -0.02953   0.00096  -0.00678
  31        4PY        -0.03882  -0.02964  -0.05397   0.00190  -0.01088
  32        4PZ         0.00285  -0.00130  -0.00209   0.15427   0.00326
  33 5   H  1S         -0.02056  -0.00068  -0.01774  -0.00061  -0.01491
  34        2S         -0.03141   0.00857  -0.03673   0.00005  -0.01938
  35        3S         -0.01223   0.00809  -0.02632   0.00015  -0.00354
  36 6   H  1S         -0.02021  -0.01487  -0.00924  -0.00062  -0.01509
  37        2S         -0.03099  -0.03581  -0.01058   0.00001  -0.02011
  38        3S         -0.01212  -0.02670  -0.00609   0.00011  -0.00409
                          11        12        13        14        15
  11        4PX         0.05991
  12        4PY        -0.00907   0.05120
  13        4PZ        -0.00119  -0.00199   0.14273
  14 2   H  1S          0.03351  -0.05421  -0.00089   0.08121
  15        2S          0.04837  -0.07511  -0.00033   0.10954   0.14984
  16        3S          0.02107  -0.02784   0.00018   0.03680   0.05260
  17 3   H  1S         -0.06305   0.00167  -0.00095  -0.01314  -0.02480
  18        2S         -0.08727   0.00423  -0.00038  -0.02470  -0.04300
  19        3S         -0.03346   0.00449   0.00017  -0.01806  -0.02741
  20 4   C  1S         -0.00314  -0.00574  -0.00055   0.00421   0.00667
  21        2S         -0.00649  -0.01174  -0.00088   0.00697   0.01114
  22        2PX        -0.01315  -0.01996   0.00095   0.00182  -0.00275
  23        2PY        -0.02006  -0.03681   0.00176   0.01148   0.02425
  24        2PZ        -0.00067  -0.00107   0.09574  -0.00049  -0.00015
  25        3S          0.02303   0.04127   0.00258  -0.02096  -0.03352
  26        3PX        -0.02022  -0.02826   0.00129   0.00100  -0.00727
  27        3PY        -0.02836  -0.05355   0.00241   0.01702   0.03623
  28        3PZ        -0.00110  -0.00176   0.15329  -0.00072  -0.00015
  29        4S          0.00789   0.01523   0.00327  -0.01765  -0.02421
  30        4PX        -0.01470  -0.01246   0.00118  -0.00162  -0.00839
  31        4PY        -0.01258  -0.02949   0.00225   0.01524   0.02709
  32        4PZ        -0.00132  -0.00217   0.14285  -0.00040   0.00025
  33 5   H  1S          0.00188  -0.01577  -0.00031   0.01121   0.02337
  34        2S          0.00902  -0.02747   0.00040   0.02376   0.04441
  35        3S          0.00746  -0.01580   0.00029   0.01660   0.02780
  36 6   H  1S         -0.01447  -0.00575  -0.00032  -0.00911  -0.01827
  37        2S         -0.02808  -0.00515   0.00038  -0.01889  -0.03446
  38        3S         -0.01721  -0.00116   0.00026  -0.01021  -0.01784
                          16        17        18        19        20
  16        3S          0.02110
  17 3   H  1S         -0.01828   0.08267
  18        2S         -0.02754   0.10991   0.14827
  19        3S         -0.01294   0.03613   0.05103   0.02019
  20 4   C  1S          0.00367   0.00430   0.00673   0.00369   0.65947
  21        2S          0.00542   0.00711   0.01121   0.00542   0.56157
  22        2PX        -0.00351   0.00905   0.02226   0.01669   0.00120
  23        2PY         0.01764   0.00743   0.00966   0.00559   0.00175
  24        2PZ         0.00003  -0.00048  -0.00010   0.00006   0.00007
  25        3S         -0.01406  -0.02131  -0.03359  -0.01393  -0.08924
  26        3PX        -0.00701   0.01436   0.03501   0.02607  -0.00045
  27        3PY         0.02653   0.00955   0.01176   0.00699  -0.00112
  28        3PZ         0.00007  -0.00070  -0.00008   0.00012   0.00016
  29        4S         -0.00588  -0.01735  -0.02321  -0.00525  -0.08008
  30        4PX        -0.00698   0.01401   0.02755   0.01703  -0.00023
  31        4PY         0.01588   0.00661   0.00666   0.00195  -0.00020
  32        4PZ         0.00024  -0.00040   0.00028   0.00027  -0.00004
  33 5   H  1S          0.01624  -0.00906  -0.01815  -0.00945  -0.02026
  34        2S          0.02744  -0.01866  -0.03390  -0.01694  -0.02225
  35        3S          0.01462  -0.01007  -0.01748  -0.00894   0.00061
  36 6   H  1S         -0.00958   0.01121   0.02321   0.01590  -0.01985
  37        2S         -0.01735   0.02381   0.04421   0.02701  -0.02214
  38        3S         -0.00919   0.01666   0.02770   0.01444   0.00049
                          21        22        23        24        25
  21        2S          0.49207
  22        2PX         0.00173   0.08263
  23        2PY         0.00248   0.00361   0.08781
  24        2PZ         0.00011   0.00013   0.00017   0.06425
  25        3S         -0.15423  -0.00557  -0.00815  -0.00013   0.45366
  26        3PX        -0.00068   0.12855   0.00177   0.00008  -0.00038
  27        3PY        -0.00170   0.00183   0.13152   0.00007   0.00096
  28        3PZ         0.00026   0.00019   0.00028   0.10286  -0.00052
  29        4S         -0.11567   0.01399   0.02334   0.00057   0.27807
  30        4PX        -0.00152   0.07303  -0.00505   0.00041   0.00637
  31        4PY        -0.00226  -0.00495   0.06694   0.00075   0.00999
  32        4PZ        -0.00013   0.00069   0.00124   0.09584   0.00073
  33 5   H  1S         -0.03226  -0.03353   0.06383  -0.00113   0.08627
  34        2S         -0.03554  -0.04965   0.08856  -0.00089   0.09512
  35        3S         -0.00059  -0.02246   0.03339  -0.00008   0.00564
  36 6   H  1S         -0.03164   0.07110   0.00261  -0.00103   0.08460
  37        2S         -0.03540   0.10121   0.00084  -0.00076   0.09466
  38        3S         -0.00075   0.04051  -0.00303  -0.00004   0.00593
                          26        27        28        29        30
  26        3PX         0.20034
  27        3PY        -0.00270   0.19754
  28        3PZ         0.00011   0.00011   0.16469
  29        4S          0.02575   0.04253   0.00071   0.18613
  30        4PX         0.11425  -0.01049   0.00064   0.01604   0.06621
  31        4PY        -0.01043   0.10106   0.00119   0.02495  -0.01012
  32        4PZ         0.00087   0.00159   0.15344   0.00177   0.00100
  33 5   H  1S         -0.05359   0.09984  -0.00187   0.06708  -0.03430
  34        2S         -0.07981   0.13802  -0.00148   0.07706  -0.05158
  35        3S         -0.03656   0.05137  -0.00013   0.00909  -0.02386
  36 6   H  1S          0.11236   0.00332  -0.00172   0.06748   0.06565
  37        2S          0.15974  -0.00041  -0.00130   0.07911   0.09375
  38        3S          0.06362  -0.00620  -0.00008   0.01036   0.03764
                          31        32        33        34        35
  31        4PY         0.05320
  32        4PZ         0.00189   0.14298
  33 5   H  1S          0.05556  -0.00096   0.08120
  34        2S          0.07692  -0.00040   0.11013   0.15182
  35        3S          0.02875   0.00014   0.03787   0.05477   0.02257
  36 6   H  1S         -0.00187  -0.00091  -0.01248  -0.02596  -0.01980
  37        2S         -0.00610  -0.00033  -0.02610  -0.04810  -0.03138
  38        3S         -0.00620   0.00016  -0.02008  -0.03156  -0.01550
                          36        37        38
  36 6   H  1S          0.07992
  37        2S          0.10964   0.15277
  38        3S          0.03825   0.05579   0.02316
    Full Mulliken population analysis:
                           1         2         3         4         5
   1 1   C  1S          0.65940
   2        2S          0.49326   0.49202
   3        2PX         0.00000   0.00000   0.08450
   4        2PY         0.00000   0.00000   0.00000   0.08769
   5        2PZ         0.00000   0.00000   0.00000   0.00000   0.06440
   6        3S         -0.02928  -0.06444   0.00000   0.00000   0.00000
   7        3PX         0.00000   0.00000   0.08223   0.00000   0.00000
   8        3PY         0.00000   0.00000   0.00000   0.08255   0.00000
   9        3PZ         0.00000   0.00000   0.00000   0.00000   0.06515
  10        4S         -0.01220  -0.02138   0.00000   0.00000   0.00000
  11        4PX         0.00000   0.00000   0.01547   0.00000   0.00000
  12        4PY         0.00000   0.00000   0.00000   0.01445   0.00000
  13        4PZ         0.00000   0.00000   0.00000   0.00000   0.02111
  14 2   H  1S         -0.00023  -0.00033   0.00180   0.00560   0.00000
  15        2S         -0.00166  -0.00318   0.00430   0.01320   0.00000
  16        3S          0.00004  -0.00007   0.00070   0.00191   0.00000
  17 3   H  1S         -0.00026  -0.00037   0.00798   0.00000   0.00000
  18        2S         -0.00174  -0.00334   0.01780   0.00000   0.00000
  19        3S          0.00005  -0.00006   0.00255  -0.00000   0.00000
  20 4   C  1S          0.00000   0.00000  -0.00002  -0.00006   0.00000
  21        2S          0.00000  -0.00000  -0.00002  -0.00005   0.00000
  22        2PX        -0.00002  -0.00002   0.00011   0.00085   0.00000
  23        2PY        -0.00006  -0.00005   0.00085   0.00197   0.00000
  24        2PZ        -0.00000  -0.00000  -0.00000  -0.00000   0.00042
  25        3S         -0.00059  -0.00099   0.00254   0.00761  -0.00000
  26        3PX        -0.00054  -0.00099   0.00019   0.00554   0.00000
  27        3PY        -0.00163  -0.00300   0.00553   0.01069   0.00000
  28        3PZ        -0.00000  -0.00000  -0.00000  -0.00000   0.00611
  29        4S          0.00034   0.00030   0.00094   0.00286  -0.00000
  30        4PX        -0.00018  -0.00046  -0.00071   0.00146   0.00000
  31        4PY        -0.00053  -0.00134   0.00146   0.00097   0.00000
  32        4PZ        -0.00000  -0.00000  -0.00000  -0.00000   0.00903
  33 5   H  1S          0.00000   0.00000  -0.00000  -0.00000   0.00000
  34        2S          0.00001   0.00002   0.00000  -0.00032   0.00000
  35        3S          0.00008   0.00013   0.00001  -0.00070  -0.00000
  36 6   H  1S          0.00000   0.00000  -0.00000  -0.00000   0.00000
  37        2S          0.00001   0.00002  -0.00024  -0.00007   0.00000
  38        3S          0.00007   0.00013  -0.00057  -0.00012  -0.00000
                           6         7         8         9        10
   6        3S          0.45264
   7        3PX         0.00000   0.20249
   8        3PY         0.00000   0.00000   0.19685
   9        3PZ         0.00000   0.00000   0.00000   0.16651
  10        4S          0.21166   0.00000   0.00000   0.00000   0.18176
  11        4PX         0.00000   0.07135   0.00000   0.00000   0.00000
  12        4PY         0.00000   0.00000   0.06461   0.00000   0.00000
  13        4PZ         0.00000   0.00000   0.00000   0.10073   0.00000
  14 2   H  1S          0.01600   0.01071   0.03237   0.00002   0.01826
  15        2S          0.04103   0.01953   0.05767   0.00002   0.04690
  16        3S          0.00282   0.00398   0.01025   0.00000   0.00845
  17 3   H  1S          0.01711   0.04453   0.00001   0.00002   0.01851
  18        2S          0.04257   0.07739   0.00000   0.00002   0.04643
  19        3S          0.00284   0.01385  -0.00001   0.00000   0.00757
  20 4   C  1S         -0.00059  -0.00057  -0.00172   0.00000   0.00032
  21        2S         -0.00100  -0.00105  -0.00316   0.00000   0.00029
  22        2PX         0.00242   0.00019   0.00551   0.00000   0.00081
  23        2PY         0.00731   0.00552   0.01064   0.00000   0.00243
  24        2PZ         0.00000  -0.00000  -0.00000   0.00614   0.00000
  25        3S          0.02178   0.01336   0.04018  -0.00000   0.00046
  26        3PX         0.01259  -0.00127   0.01850   0.00000   0.00409
  27        3PY         0.03798   0.01847   0.02853   0.00000   0.01228
  28        3PZ         0.00000  -0.00000  -0.00000   0.03529   0.00000
  29        4S          0.00075   0.00482   0.01472  -0.00000  -0.02015
  30        4PX         0.00638  -0.00401   0.00585   0.00000   0.00205
  31        4PY         0.01889   0.00587   0.00126   0.00000   0.00571
  32        4PZ         0.00000  -0.00000  -0.00000   0.04929   0.00000
  33 5   H  1S         -0.00006  -0.00000  -0.00019   0.00000  -0.00080
  34        2S         -0.00123   0.00006  -0.00326  -0.00000  -0.00327
  35        3S         -0.00200   0.00011  -0.00425  -0.00000  -0.00128
  36 6   H  1S         -0.00005  -0.00013  -0.00005   0.00000  -0.00080
  37        2S         -0.00117  -0.00255  -0.00052  -0.00000  -0.00334
  38        3S         -0.00196  -0.00353  -0.00055  -0.00000  -0.00146
                          11        12        13        14        15
  11        4PX         0.05991
  12        4PY         0.00000   0.05120
  13        4PZ         0.00000   0.00000   0.14273
  14 2   H  1S          0.00630   0.01754   0.00001   0.08121
  15        2S          0.01532   0.04092   0.00001   0.07738   0.14984
  16        3S          0.00523   0.01189  -0.00000   0.01375   0.04150
  17 3   H  1S          0.02363  -0.00001   0.00001  -0.00001  -0.00066
  18        2S          0.05488  -0.00002   0.00001  -0.00066  -0.00543
  19        3S          0.01642  -0.00002  -0.00000  -0.00202  -0.00802
  20 4   C  1S         -0.00018  -0.00058   0.00000   0.00000   0.00002
  21        2S         -0.00046  -0.00144   0.00000   0.00000   0.00003
  22        2PX        -0.00071   0.00138   0.00000  -0.00000   0.00000
  23        2PY         0.00139   0.00095   0.00000  -0.00000  -0.00036
  24        2PZ        -0.00000  -0.00000   0.00901   0.00000   0.00000
  25        3S          0.00647   0.02008  -0.00000  -0.00007  -0.00147
  26        3PX        -0.00415   0.00560   0.00000  -0.00000   0.00004
  27        3PY         0.00562   0.00125   0.00000  -0.00022  -0.00354
  28        3PZ        -0.00000  -0.00000   0.04898   0.00000   0.00000
  29        4S          0.00239   0.00799  -0.00000  -0.00103  -0.00433
  30        4PX        -0.00708   0.00315   0.00000   0.00001   0.00018
  31        4PY         0.00318  -0.00559   0.00000  -0.00241  -0.01019
  32        4PZ        -0.00000  -0.00000   0.08968   0.00000  -0.00000
  33 5   H  1S          0.00002  -0.00235   0.00000   0.00000   0.00000
  34        2S          0.00027  -0.00990  -0.00000   0.00000   0.00016
  35        3S          0.00028  -0.00731  -0.00000   0.00023   0.00147
  36 6   H  1S         -0.00175  -0.00048   0.00000  -0.00000  -0.00004
  37        2S         -0.00826  -0.00104  -0.00000  -0.00004  -0.00092
  38        3S         -0.00654  -0.00030  -0.00000  -0.00046  -0.00247
                          16        17        18        19        20
  16        3S          0.02110
  17 3   H  1S         -0.00205   0.08267
  18        2S         -0.00806   0.07764   0.14827
  19        3S         -0.00674   0.01350   0.04026   0.02019
  20 4   C  1S          0.00009   0.00000   0.00002   0.00009   0.65947
  21        2S          0.00016   0.00000   0.00003   0.00016   0.49331
  22        2PX         0.00001  -0.00000  -0.00028  -0.00059   0.00000
  23        2PY        -0.00074  -0.00000  -0.00008  -0.00013   0.00000
  24        2PZ        -0.00000   0.00000   0.00000  -0.00000   0.00000
  25        3S         -0.00242  -0.00007  -0.00149  -0.00241  -0.02938
  26        3PX         0.00007  -0.00016  -0.00289  -0.00364   0.00000
  27        3PY        -0.00443  -0.00007  -0.00065  -0.00065   0.00000
  28        3PZ        -0.00000   0.00000   0.00000  -0.00000   0.00000
  29        4S         -0.00220  -0.00102  -0.00418  -0.00198  -0.01231
  30        4PX         0.00018  -0.00186  -0.00868  -0.00670   0.00000
  31        4PY        -0.00748  -0.00059  -0.00140  -0.00051   0.00000
  32        4PZ        -0.00000   0.00000  -0.00000  -0.00000   0.00000
  33 5   H  1S          0.00023  -0.00000  -0.00004  -0.00043  -0.00022
  34        2S          0.00145  -0.00004  -0.00091  -0.00236  -0.00161
  35        3S          0.00247  -0.00046  -0.00244  -0.00286   0.00005
  36 6   H  1S         -0.00043   0.00000   0.00000   0.00022  -0.00020
  37        2S         -0.00240   0.00000   0.00015   0.00141  -0.00155
  38        3S         -0.00293   0.00023   0.00145   0.00243   0.00004
                          21        22        23        24        25
  21        2S          0.49207
  22        2PX         0.00000   0.08263
  23        2PY         0.00000   0.00000   0.08781
  24        2PZ         0.00000   0.00000   0.00000   0.06425
  25        3S         -0.06459   0.00000   0.00000   0.00000   0.45366
  26        3PX         0.00000   0.08087   0.00000   0.00000   0.00000
  27        3PY         0.00000   0.00000   0.08274   0.00000   0.00000
  28        3PZ         0.00000   0.00000   0.00000   0.06471   0.00000
  29        4S         -0.02165   0.00000   0.00000   0.00000   0.21542
  30        4PX         0.00000   0.01608   0.00000   0.00000   0.00000
  31        4PY         0.00000   0.00000   0.01474   0.00000   0.00000
  32        4PZ         0.00000   0.00000   0.00000   0.02111   0.00000
  33 5   H  1S         -0.00032   0.00153   0.00579   0.00000   0.01568
  34        2S         -0.00307   0.00386   0.01372   0.00000   0.03979
  35        3S         -0.00006   0.00067   0.00199   0.00000   0.00259
  36 6   H  1S         -0.00028   0.00681   0.00001   0.00000   0.01485
  37        2S         -0.00297   0.01724   0.00001   0.00000   0.03884
  38        3S         -0.00007   0.00270  -0.00001   0.00000   0.00270
                          26        27        28        29        30
  26        3PX         0.20034
  27        3PY         0.00000   0.19754
  28        3PZ         0.00000   0.00000   0.16469
  29        4S          0.00000   0.00000   0.00000   0.18613
  30        4PX         0.07466   0.00000   0.00000   0.00000   0.06621
  31        4PY         0.00000   0.06604   0.00000   0.00000   0.00000
  32        4PZ         0.00000   0.00000   0.10027   0.00000   0.00000
  33 5   H  1S          0.00909   0.03375   0.00002   0.01767   0.00576
  34        2S          0.01745   0.06008   0.00002   0.04428   0.01459
  35        3S          0.00382   0.01069   0.00000   0.00685   0.00529
  36 6   H  1S          0.04144   0.00007   0.00002   0.01754   0.02448
  37        2S          0.07706  -0.00001   0.00002   0.04500   0.05907
  38        3S          0.01484  -0.00009   0.00000   0.00776   0.01869
                          31        32        33        34        35
  31        4PY         0.05320
  32        4PZ         0.00000   0.14298
  33 5   H  1S          0.01858   0.00001   0.08120
  34        2S          0.04333   0.00001   0.07779   0.15182
  35        3S          0.01271  -0.00000   0.01415   0.04321   0.02257
  36 6   H  1S         -0.00004   0.00001  -0.00001  -0.00079  -0.00232
  37        2S         -0.00023   0.00001  -0.00079  -0.00658  -0.00954
  38        3S         -0.00018  -0.00000  -0.00236  -0.00959  -0.00828
                          36        37        38
  36 6   H  1S          0.07992
  37        2S          0.07745   0.15277
  38        3S          0.01429   0.04401   0.02316
     Gross orbital populations:
                           1
   1 1   C  1S          1.10435
   2        2S          0.88586
   3        2PX         0.22743
   4        2PY         0.23604
   5        2PZ         0.16622
   6        3S          0.79298
   7        3PX         0.56134
   8        3PY         0.55578
   9        3PZ         0.42318
  10        4S          0.50331
  11        4PX         0.25898
  12        4PY         0.21197
  13        4PZ         0.41227
  14 2   H  1S          0.27370
  15        2S          0.46722
  16        3S          0.08630
  17 3   H  1S          0.27820
  18        2S          0.46463
  19        3S          0.08242
  20 4   C  1S          1.10440
  21        2S          0.88584
  22        2PX         0.22207
  23        2PY         0.23645
  24        2PZ         0.16564
  25        3S          0.79252
  26        3PX         0.55253
  27        3PY         0.55698
  28        3PZ         0.42012
  29        4S          0.50689
  30        4PX         0.27441
  31        4PY         0.21544
  32        4PZ         0.41238
  33 5   H  1S          0.27369
  34        2S          0.46898
  35        3S          0.08787
  36 6   H  1S          0.26974
  37        2S          0.47086
  38        3S          0.09101
          Condensed to atoms (all electrons):
               1          2          3          4          5          6
     1  C    5.032659   0.387303   0.388347   0.602581  -0.035932  -0.035252
     2  H    0.387303   0.517398  -0.033660  -0.040117   0.006004  -0.009704
     3  H    0.388347  -0.033660   0.513938  -0.039734  -0.009541   0.005902
     4  C    0.602581  -0.040117  -0.039734   5.055007   0.384385   0.383562
     5  H   -0.035932   0.006004  -0.009541   0.384385   0.525878  -0.040263
     6  H   -0.035252  -0.009704   0.005902   0.383562  -0.040263   0.527361
 Mulliken charges:
               1
     1  C   -0.339705
     2  H    0.172777
     3  H    0.174748
     4  C   -0.345684
     5  H    0.169470
     6  H    0.168395
 Sum of Mulliken charges =   0.00000
 Mulliken charges with hydrogens summed into heavy atoms:
               1
     1  C    0.007819
     4  C   -0.007819
 Electronic spatial extent (au):  <R**2>=             83.6838
 Charge=              0.0000 electrons
 Dipole moment (field-independent basis, Debye):
    X=             -0.0021    Y=              0.0199    Z=             -0.0922  Tot=              0.0943
 Quadrupole moment (field-independent basis, Debye-Ang):
   XX=            -12.2033   YY=            -12.2122   ZZ=            -15.6660
   XY=              0.0174   XZ=             -0.0003   YZ=             -0.0029
 Traceless Quadrupole moment (field-independent basis, Debye-Ang):
   XX=              1.1572   YY=              1.1483   ZZ=             -2.3055
   XY=              0.0174   XZ=             -0.0003   YZ=             -0.0029
 Octapole moment (field-independent basis, Debye-Ang**2):
  XXX=             -0.3274  YYY=             -0.0306  ZZZ=             -0.0573  XYY=              0.1575
  XXY=             -0.0315  XXZ=             -0.1237  XZZ=             -0.0947  YZZ=             -0.0711
  YYZ=             -0.1630  XYZ=             -0.0341
 Hexadecapole moment (field-independent basis, Debye-Ang**3):
 XXXX=            -34.2676 YYYY=            -55.1586 ZZZZ=            -17.8019 XXXY=             -7.2486
 XXXZ=              0.0135 YYYX=            -10.7030 YYYZ=              0.0173 ZZZX=              0.0181
 ZZZY=              0.0318 XXYY=            -16.1807 XXZZ=             -9.9199 YYZZ=            -13.6312
 XXYZ=              0.0067 YYXZ=              0.0002 ZZXY=             -3.2056
 N-N= 3.308045659927D+01 E-N=-2.478754759220D+02  KE= 7.815736582385D+01
 Orbital energies and kinetic energies (alpha):
                                 1                 2
   1         O               -10.290085         15.978302
   2         O               -10.287796         15.979918
   3         O                -0.863825          1.538427
   4         O                -0.672569          1.272008
   5         O                -0.559419          0.942726
   6         O                -0.509550          1.284440
   7         O                -0.436755          1.044412
   8         O                -0.356823          1.038449
   9         V                 0.079843          1.181894
  10         V                 0.141099          0.588401
  11         V                 0.164925          0.593778
  12         V                 0.170318          0.678515
  13         V                 0.240890          0.582313
  14         V                 0.374733          0.854596
  15         V                 0.393330          0.932470
  16         V                 0.398405          0.779975
  17         V                 0.464384          1.192202
  18         V                 0.488541          1.423009
  19         V                 0.493833          1.301633
  20         V                 0.591096          1.652543
  21         V                 0.665818          1.572546
  22         V                 0.691612          2.147623
  23         V                 0.773036          2.422666
  24         V                 0.775894          2.320639
  25         V                 0.842875          1.086471
  26         V                 0.952113          3.424738
  27         V                 2.231520          3.925723
  28         V                 2.290056          4.030889
  29         V                 2.333095          4.304043
  30         V                 2.407483          4.521278
  31         V                 2.671252          6.301025
  32         V                 2.817876          6.306318
  33         V                 2.878549          6.136844
  34         V                 2.951710          6.225836
  35         V                 3.140732          6.821664
  36         V                 3.319981          6.401582
  37         V                23.352835         60.074639
  38         V                23.706146         60.203852
 Total kinetic energy from orbitals= 7.815736582385D+01
 Calling FoFJK, ICntrl=      2127 FMM=F ISym2X=0 I1Cent= 0 IOpClX= 0 NMat=1 NMatS=1 NMatT=0.
 -------------------------------------------------------------------
 Center     Atomic                   Forces (Hartrees/Bohr)
 Number     Number              X              Y              Z
 -------------------------------------------------------------------
      1        6           0.014560741    0.007372055   -0.003677931
      2        1          -0.009113718    0.006474624    0.001886314
      3        1           0.001073516   -0.004050857    0.001684078
      4        6           0.010143531    0.006736285   -0.004028302
      5        1           0.001358601   -0.011339241    0.001991972
      6        1          -0.018022672   -0.005192866    0.002143869
 -------------------------------------------------------------------
 Cartesian Forces:  Max     0.018022672 RMS     0.007760631

 GradGradGradGradGradGradGradGradGradGradGradGradGradGradGradGradGradGrad
 Berny optimization.
 Search for a local minimum.
 Step number   1 out of a maximum of    2
 All quantities printed in internal units (Hartrees-Bohrs-Radians)
 Second derivative matrix not updated -- first step.
 The second derivative matrix:
                          X1        Y1        Z1        X2        Y2
           X1           0.76092
           Y1           0.09927   0.85863
           Z1           0.00551   0.00833   0.17166
           X2          -0.16357   0.09561   0.00195   0.14107
           Y2           0.10186  -0.28314  -0.00694  -0.11495   0.27195
           Z2           0.00308  -0.00872  -0.05498  -0.00280   0.00720
           X3          -0.35521  -0.00216  -0.00767  -0.00033  -0.00018
           Y3          -0.00824  -0.11055  -0.00186   0.03251   0.01885
           Z3          -0.00979  -0.00180  -0.05647   0.00141   0.00052
           X4          -0.26724  -0.17824  -0.00074   0.02283   0.01326
           Y4          -0.17871  -0.47313  -0.00122  -0.01319  -0.00766
           Z4           0.00119   0.00215  -0.09442  -0.00056  -0.00077
           X5           0.02354  -0.01359   0.00059  -0.00001   0.00000
           Y5           0.01181  -0.00682   0.00080   0.00000  -0.00000
           Z5          -0.00048   0.00030   0.01749   0.00024  -0.00013
           X6           0.00155  -0.00089   0.00037  -0.00001   0.00000
           Y6          -0.02599   0.01501   0.00088   0.00000  -0.00000
           Z6           0.00050  -0.00027   0.01673  -0.00023   0.00012
                          Z2        X3        Y3        Z3        X4
           Z2           0.02857
           X3          -0.00029   0.35530
           Y3           0.00151   0.00248   0.07625
           Z3           0.01057   0.00836   0.00127   0.02961
           X4           0.00048   0.00025  -0.02676  -0.00047   0.71318
           Y4          -0.00026  -0.00015   0.01545   0.00029   0.11889
           Z4           0.01574  -0.00041  -0.00092   0.01640  -0.00476
           X5          -0.00024  -0.00001   0.00000   0.00025  -0.14819
           Y5           0.00015   0.00000  -0.00000  -0.00015   0.09415
           Z5           0.00928   0.00024  -0.00015  -0.00947  -0.00300
           X6          -0.00024  -0.00001   0.00000   0.00024  -0.32083
           Y6           0.00013   0.00000  -0.00000  -0.00013  -0.02130
           Z6          -0.00918  -0.00024   0.00015   0.00937   0.00849
                          Y4        Z4        X5        Y5        Z5
           Y4           0.86217
           Z4          -0.00937   0.17601
           X5           0.08600  -0.00199   0.12661
           Y5          -0.29242   0.00710  -0.10499   0.28292
           Z5           0.00878  -0.05739   0.00267  -0.00756   0.02983
           X6          -0.01285   0.00653  -0.00196  -0.00097   0.00033
           Y6          -0.10441   0.00181   0.03257   0.01632  -0.00125
           Z6           0.00178  -0.05633  -0.00128  -0.00034   0.01026
                          X6        Y6        Z6
           X6           0.32126
           Y6           0.01471   0.07308
           Z6          -0.00723  -0.00144   0.02916
 ITU=  0
     Eigenvalues ---    0.03733   0.04390   0.09274   0.10047   0.13534
     Eigenvalues ---    0.17495   0.26446   0.29055   0.53061   0.70334
     Eigenvalues ---    0.97685   1.56434
 Angle between quadratic step and forces=  34.96 degrees.
 Linear search not attempted -- first point.
 B after Tr=     0.006626    0.006224   -0.009433
         Rot=    1.000000   -0.000032    0.000017   -0.000110 Ang=  -0.01 deg.
 Variable       Old X    -DE/DX   Delta X   Delta X   Delta X     New X
                                 (Linear)    (Quad)   (Total)
    X1       -0.63536   0.01456   0.00000   0.02072   0.02758  -0.60778
    Y1       -1.09841   0.00737   0.00000   0.02061   0.02670  -1.07171
    Z1        0.01148  -0.00368   0.00000  -0.01993  -0.02945  -0.01797
    X2        0.40710  -0.00911   0.00000  -0.03238  -0.02512   0.38198
    Y2       -2.89187   0.00647   0.00000   0.02337   0.02968  -2.86220
    Z2       -0.03951   0.00189   0.00000   0.02446   0.01486  -0.02465
    X3       -2.68246   0.00107   0.00000   0.02294   0.02982  -2.65264
    Y3       -1.11683  -0.00405   0.00000  -0.01402  -0.00838  -1.12521
    Z3       -0.04112   0.00168   0.00000   0.02401   0.01442  -0.02670
    X4        0.62908   0.01014   0.00000   0.00669   0.01308   0.64216
    Y4        1.09149   0.00674   0.00000   0.00517   0.01154   1.10303
    Z4        0.00898  -0.00403   0.00000  -0.01911  -0.02846  -0.01947
    X5       -0.30413   0.00136   0.00000  -0.01076  -0.00477  -0.30890
    Y5        2.95000  -0.01134   0.00000  -0.03831  -0.03215   2.91785
    Z5       -0.04506   0.00199   0.00000   0.02380   0.01454  -0.03052
    X6        2.72899  -0.01802   0.00000  -0.04695  -0.04059   2.68840
    Y6        1.21577  -0.00519   0.00000  -0.03419  -0.02738   1.18839
    Z6       -0.04343   0.00214   0.00000   0.02335   0.01408  -0.02935
         Item               Value     Threshold  Converged?
 Maximum Force            0.018023     0.000450     NO 
 RMS     Force            0.007761     0.000300     NO 
 Maximum Displacement     0.040586     0.001800     NO 
 RMS     Displacement     0.023825     0.001200     NO 
 Predicted change in Energy=-1.431042D-03
 GradGradGradGradGradGradGradGradGradGradGradGradGradGradGradGradGradGrad

 Unable to Open any file for archive entry.
 1\1\GINC-BHD0009\Force\RwB97XD\6-311G\C2H4\BWEIGHT\11-Jan-2023\0\\# WB
 97XD/6-311G SCF=XQC FORCE nosym pop=full guess=read\\MD Step 1000\\0,1
 \C,-0.33621757,-0.58125325,0.00607247\H,0.21543012,-1.5303128,-0.02090
 744\H,-1.41949666,-0.59100278,-0.02176031\C,0.33289338,0.57759343,0.00
 475247\H,-0.16094001,1.56107304,-0.02384361\H,1.44411846,0.64335815,-0
 .02298348\\Version=ES64L-G16RevC.01\HF=-78.5559227\RMSD=5.905e-09\RMSF
 =7.761e-03\Dipole=-0.000828,0.0078399,-0.0362589\Quadrupole=0.8603194,
 0.8537677,-1.7140871,0.012903,-0.0002045,-0.0021654\PG=C01 [X(C2H4)]\\
 @
 The archive entry for this job was punched.


 REALITY IS FOR PEOPLE WHO CAN'T FACE SCIENCE FICTION.
 Job cpu time:       0 days  0 hours  0 minutes 43.4 seconds.
 Elapsed time:       0 days  0 hours  0 minutes 16.9 seconds.
 File lengths (MBytes):  RWF=    272 Int=      0 D2E=      0 Chk=     32 Scr=     32
 Normal termination of Gaussian 16 at Wed Jan 11 18:39:39 2023.
