 Entering Gaussian System, Link 0=g16
 Initial command:
 /software/gaussian/g16-c01/avx2/g16/l1.exe "/gpfs/fs2/scratch/bweight/software/many_molecule_many_mode_NAMD/src/NAMD/TEST_NVT/TRAJ/traj-47/G16/GS_NEW/Gau-6330.inp" -scrdir="/gpfs/fs2/scratch/bweight/software/many_molecule_many_mode_NAMD/src/NAMD/TEST_NVT/TRAJ/traj-47/G16/GS_NEW/"
 Entering Link 1 = /software/gaussian/g16-c01/avx2/g16/l1.exe PID=      6331.
  
 Copyright (c) 1988-2019, Gaussian, Inc.  All Rights Reserved.
  
 This is part of the Gaussian(R) 16 program.  It is based on
 the Gaussian(R) 09 system (copyright 2009, Gaussian, Inc.),
 the Gaussian(R) 03 system (copyright 2003, Gaussian, Inc.),
 the Gaussian(R) 98 system (copyright 1998, Gaussian, Inc.),
 the Gaussian(R) 94 system (copyright 1995, Gaussian, Inc.),
 the Gaussian 92(TM) system (copyright 1992, Gaussian, Inc.),
 the Gaussian 90(TM) system (copyright 1990, Gaussian, Inc.),
 the Gaussian 88(TM) system (copyright 1988, Gaussian, Inc.),
 the Gaussian 86(TM) system (copyright 1986, Carnegie Mellon
 University), and the Gaussian 82(TM) system (copyright 1983,
 Carnegie Mellon University). Gaussian is a federally registered
 trademark of Gaussian, Inc.
  
 This software contains proprietary and confidential information,
 including trade secrets, belonging to Gaussian, Inc.
  
 This software is provided under written license and may be
 used, copied, transmitted, or stored only in accord with that
 written license.
  
 The following legend is applicable only to US Government
 contracts under FAR:
  
                    RESTRICTED RIGHTS LEGEND
  
 Use, reproduction and disclosure by the US Government is
 subject to restrictions as set forth in subparagraphs (a)
 and (c) of the Commercial Computer Software - Restricted
 Rights clause in FAR 52.227-19.
  
 Gaussian, Inc.
 340 Quinnipiac St., Bldg. 40, Wallingford CT 06492
  
  
 ---------------------------------------------------------------
 Warning -- This program may not be used in any manner that
 competes with the business of Gaussian, Inc. or will provide
 assistance to any competitor of Gaussian, Inc.  The licensee
 of this program is prohibited from giving any competitor of
 Gaussian, Inc. access to this program.  By using this program,
 the user acknowledges that Gaussian, Inc. is engaged in the
 business of creating and licensing software in the field of
 computational chemistry and represents and warrants to the
 licensee that it is not a competitor of Gaussian, Inc. and that
 it will not use this program in any manner prohibited above.
 ---------------------------------------------------------------
  

 Cite this work as:
 Gaussian 16, Revision C.01,
 M. J. Frisch, G. W. Trucks, H. B. Schlegel, G. E. Scuseria, 
 M. A. Robb, J. R. Cheeseman, G. Scalmani, V. Barone, 
 G. A. Petersson, H. Nakatsuji, X. Li, M. Caricato, A. V. Marenich, 
 J. Bloino, B. G. Janesko, R. Gomperts, B. Mennucci, H. P. Hratchian, 
 J. V. Ortiz, A. F. Izmaylov, J. L. Sonnenberg, D. Williams-Young, 
 F. Ding, F. Lipparini, F. Egidi, J. Goings, B. Peng, A. Petrone, 
 T. Henderson, D. Ranasinghe, V. G. Zakrzewski, J. Gao, N. Rega, 
 G. Zheng, W. Liang, M. Hada, M. Ehara, K. Toyota, R. Fukuda, 
 J. Hasegawa, M. Ishida, T. Nakajima, Y. Honda, O. Kitao, H. Nakai, 
 T. Vreven, K. Throssell, J. A. Montgomery, Jr., J. E. Peralta, 
 F. Ogliaro, M. J. Bearpark, J. J. Heyd, E. N. Brothers, K. N. Kudin, 
 V. N. Staroverov, T. A. Keith, R. Kobayashi, J. Normand, 
 K. Raghavachari, A. P. Rendell, J. C. Burant, S. S. Iyengar, 
 J. Tomasi, M. Cossi, J. M. Millam, M. Klene, C. Adamo, R. Cammi, 
 J. W. Ochterski, R. L. Martin, K. Morokuma, O. Farkas, 
 J. B. Foresman, and D. J. Fox, Gaussian, Inc., Wallingford CT, 2019.
 
 ******************************************
 Gaussian 16:  ES64L-G16RevC.01  3-Jul-2019
                11-Jan-2023 
 ******************************************
 %oldchk=../GS_OLD/geometry.chk
 %chk=geometry.chk
 %nprocshared=4
 Will use up to    4 processors via shared memory.
 %mem=5GB
 Copying data from "../GS_OLD/geometry.chk" to current chk file "geometry.chk"
 IOpt=  2 FromEx=T IUOpen= 4 IOptOp= 5 NList=   0 IFRang= 0 IUIn= 4 IUOut= 2.
 -------------------------------------------------------
 # WB97XD/6-311G SCF=XQC FORCE nosym pop=full guess=read
 -------------------------------------------------------
 1/10=7,30=1,38=1/1,3;
 2/12=2,15=1,17=6,18=5,40=1/2;
 3/5=4,6=6,11=2,25=1,30=1,71=1,74=-58,116=-2/1,2,3;
 4/5=1/1;
 5/5=2,8=3,13=1,38=6/2,8;
 6/7=3,28=1/1;
 7/29=1,30=1/1,2,3,16;
 1/10=7,30=1/3;
 99//99;
 ------------
 MD Step 1000
 ------------
 Symbolic Z-matrix:
 Charge =  0 Multiplicity = 1
 C                    -0.33613  -0.58186   0.00544 
 H                     0.21475  -1.52882  -0.01706 
 H                    -1.41978  -0.58612  -0.01715 
 C                     0.33356   0.57751   0.00435 
 H                    -0.16338   1.56399  -0.0188 
 H                     1.44392   0.64763  -0.01876 
 

 GradGradGradGradGradGradGradGradGradGradGradGradGradGradGradGradGradGrad
 Berny optimization.
 Initialization pass.
 Trust Radius=3.00D-01 FncErr=1.00D-07 GrdErr=1.00D-07 EigMax=2.50D+02 EigMin=1.00D-04
 Number of steps in this run=      2 maximum allowed number of steps=      2.
 GradGradGradGradGradGradGradGradGradGradGradGradGradGradGradGradGradGrad

                          Input orientation:                          
 ---------------------------------------------------------------------
 Center     Atomic      Atomic             Coordinates (Angstroms)
 Number     Number       Type             X           Y           Z
 ---------------------------------------------------------------------
      1          6           0       -0.336135   -0.581857    0.005442
      2          1           0        0.214747   -1.528816   -0.017062
      3          1           0       -1.419780   -0.586122   -0.017148
      4          6           0        0.333563    0.577508    0.004346
      5          1           0       -0.163383    1.563992   -0.018797
      6          1           0        1.443917    0.647632   -0.018758
 ---------------------------------------------------------------------
                    Distance matrix (angstroms):
                    1          2          3          4          5
     1  C    0.000000
     2  H    1.095768   0.000000
     3  H    1.083889   1.886889   0.000000
     4  C    1.338889   2.109781   2.104450   0.000000
     5  H    2.152927   3.115838   2.490285   1.104827   0.000000
     6  H    2.163519   2.499558   3.118158   1.112806   1.850170
                    6
     6  H    0.000000
 Symmetry turned off by external request.
 Stoichiometry    C2H4
 Framework group  C1[X(C2H4)]
 Deg. of freedom    12
 Full point group                 C1      NOp   1
 Rotational constants (GHZ):         143.5369033          29.6683137          24.5907257
 Standard basis: 6-311G (5D, 7F)
    38 basis functions,    72 primitive gaussians,    38 cartesian basis functions
     8 alpha electrons        8 beta electrons
       nuclear repulsion energy        33.0685961451 Hartrees.
 NAtoms=    6 NActive=    6 NUniq=    6 SFac= 1.00D+00 NAtFMM=   60 NAOKFM=F Big=F
 Integral buffers will be    131072 words long.
 Raffenetti 2 integral format.
 Two-electron integral symmetry is turned off.
 Nuclear repulsion after empirical dispersion term =       33.0677547875 Hartrees.
 One-electron integrals computed using PRISM.
 NBasis=    38 RedAO= T EigKep=  6.45D-03  NBF=    38
 NBsUse=    38 1.00D-06 EigRej= -1.00D+00 NBFU=    38
 Initial guess from the checkpoint file:  "geometry.chk"
 B after Tr=    -0.000260   -0.000430   -0.000431
         Rot=    1.000000   -0.000002    0.000002    0.000006 Ang=  -0.00 deg.
 Keep R1 ints in memory in canonical form, NReq=4036876.
 Requested convergence on RMS density matrix=1.00D-08 within  32 cycles.
 Requested convergence on MAX density matrix=1.00D-06.
 Requested convergence on             energy=1.00D-06.
 No special actions if energy rises.
 SCF Done:  E(RwB97XD) =  -78.5558652988     A.U. after    8 cycles
            NFock=  8  Conv=0.54D-08     -V/T= 2.0051
 QCSCF skips out because SCF is already converged.

 **********************************************************************

            Population analysis using the SCF Density.

 **********************************************************************

 Alpha  occ. eigenvalues --  -10.29045 -10.28775  -0.86367  -0.67244  -0.55950
 Alpha  occ. eigenvalues --   -0.50927  -0.43683  -0.35670
 Alpha virt. eigenvalues --    0.07975   0.14104   0.16488   0.17025   0.24078
 Alpha virt. eigenvalues --    0.37399   0.39351   0.39847   0.46424   0.48838
 Alpha virt. eigenvalues --    0.49390   0.59099   0.66583   0.69157   0.77262
 Alpha virt. eigenvalues --    0.77594   0.84392   0.95146   2.23145   2.29024
 Alpha virt. eigenvalues --    2.33289   2.40776   2.67103   2.81812   2.87811
 Alpha virt. eigenvalues --    2.95200   3.14005   3.32050  23.35276  23.70548
     Molecular Orbital Coefficients:
                           1         2         3         4         5
                           O         O         O         O         O
     Eigenvalues --   -10.29045 -10.28775  -0.86367  -0.67244  -0.55950
   1 1   C  1S          0.09224   0.55579  -0.08845   0.06672  -0.00047
   2        2S          0.07611   0.45740  -0.13981   0.10685  -0.00078
   3        2PX         0.00016  -0.00001   0.02574   0.03680   0.13770
   4        2PY         0.00028  -0.00001   0.04611   0.06034  -0.07463
   5        2PZ         0.00000  -0.00000  -0.00093   0.00140   0.00010
   6        3S          0.00153   0.01456   0.37500  -0.29160   0.00217
   7        3PX        -0.00061   0.00041   0.03403   0.05888   0.21565
   8        3PY        -0.00105   0.00075   0.06067   0.09764  -0.11763
   9        3PZ        -0.00001  -0.00002  -0.00156   0.00250   0.00014
  10        4S          0.00351  -0.01461   0.19189  -0.22585   0.00195
  11        4PX         0.00151  -0.00151   0.00474   0.02350   0.11162
  12        4PY         0.00261  -0.00261   0.00856   0.04043  -0.06174
  13        4PZ         0.00000   0.00006  -0.00055   0.00125   0.00006
  14 2   H  1S         -0.00005  -0.00006   0.05270  -0.08768   0.10293
  15        2S         -0.00030   0.00010   0.05392  -0.10545   0.13012
  16        3S          0.00080   0.00170  -0.00173  -0.01512   0.04201
  17 3   H  1S         -0.00005  -0.00007   0.05419  -0.09109  -0.10549
  18        2S         -0.00030   0.00009   0.05486  -0.10876  -0.13240
  19        3S          0.00082   0.00174  -0.00172  -0.01604  -0.04274
  20 4   C  1S          0.55579  -0.09243  -0.08675  -0.06851  -0.00020
  21        2S          0.45746  -0.07587  -0.13699  -0.10987  -0.00032
  22        2PX        -0.00002  -0.00017  -0.02762   0.03733   0.11796
  23        2PY        -0.00002  -0.00029  -0.04659   0.06637  -0.07311
  24        2PZ        -0.00000   0.00000  -0.00075  -0.00146   0.00010
  25        3S          0.01410  -0.00324   0.36704   0.30025   0.00090
  26        3PX        -0.00022   0.00072  -0.03475   0.06056   0.18470
  27        3PY        -0.00036   0.00125  -0.05841   0.10715  -0.11359
  28        3PZ        -0.00002  -0.00000  -0.00130  -0.00262   0.00015
  29        4S         -0.01239   0.00816   0.18889   0.23782  -0.00015
  30        4PX         0.00092  -0.00189  -0.00553   0.02654   0.10161
  31        4PY         0.00154  -0.00329  -0.00909   0.04551  -0.06162
  32        4PZ         0.00005  -0.00001  -0.00053  -0.00135   0.00007
  33 5   H  1S         -0.00006  -0.00004   0.04984   0.09333  -0.08946
  34        2S         -0.00001  -0.00031   0.05096   0.11151  -0.11285
  35        3S          0.00180   0.00017  -0.00110   0.01673  -0.03619
  36 6   H  1S         -0.00005  -0.00004   0.04868   0.09183   0.08555
  37        2S         -0.00002  -0.00032   0.05033   0.11011   0.10825
  38        3S          0.00176   0.00017  -0.00116   0.01620   0.03498
                           6         7         8         9        10
                           O         O         O         V         V
     Eigenvalues --    -0.50927  -0.43683  -0.35670   0.07975   0.14104
   1 1   C  1S         -0.00376   0.00013  -0.00072   0.00193  -0.03289
   2        2S         -0.00565   0.00023  -0.00116   0.00321  -0.05274
   3        2PX         0.09496  -0.11068  -0.00239   0.00100  -0.03188
   4        2PY         0.16779   0.06607  -0.00414   0.00177  -0.06370
   5        2PZ         0.00365   0.00003   0.17939  -0.18908  -0.00170
   6        3S          0.02124  -0.00041   0.00340  -0.00972   0.11448
   7        3PX         0.13801  -0.17631  -0.00337   0.00152  -0.03780
   8        3PY         0.24527   0.10583  -0.00585   0.00265  -0.07874
   9        3PZ         0.00578   0.00007   0.28851  -0.27815  -0.00272
  10        4S         -0.05154  -0.00306   0.00493  -0.01082   1.21213
  11        4PX         0.06965  -0.10973  -0.00275   0.00873  -0.19579
  12        4PY         0.12473   0.06614  -0.00482   0.01521  -0.37982
  13        4PZ         0.00329   0.00007   0.26727  -0.69503  -0.01001
  14 2   H  1S         -0.08030  -0.11492   0.00010   0.00302  -0.01619
  15        2S         -0.11102  -0.17731   0.00142   0.00477  -0.04586
  16        3S         -0.04152  -0.08199   0.00085   0.01250  -0.82110
  17 3   H  1S         -0.07926   0.11259   0.00007   0.00303  -0.01292
  18        2S         -0.10893   0.17282   0.00140   0.00481  -0.03843
  19        3S         -0.04043   0.07959   0.00084   0.01226  -0.76893
  20 4   C  1S         -0.00830  -0.00044  -0.00058  -0.00188  -0.03672
  21        2S         -0.01299  -0.00072  -0.00094  -0.00312  -0.05899
  22        2PX        -0.09805   0.12498   0.00242   0.00126   0.04023
  23        2PY        -0.16246  -0.07384   0.00429   0.00215   0.06216
  24        2PZ         0.00382   0.00008   0.17917   0.18956  -0.00220
  25        3S          0.04207   0.00204   0.00279   0.00936   0.13041
  26        3PX        -0.14510   0.20015   0.00339   0.00192   0.04909
  27        3PY        -0.23891  -0.11743   0.00602   0.00330   0.07377
  28        3PZ         0.00604   0.00012   0.28675   0.27792  -0.00334
  29        4S         -0.02974   0.00265   0.00470   0.01072   1.25584
  30        4PX        -0.07572   0.12783   0.00262   0.00952   0.26159
  31        4PY        -0.12347  -0.07459   0.00472   0.01634   0.41725
  32        4PZ         0.00349   0.00007   0.26748   0.69624  -0.01302
  33 5   H  1S         -0.07455  -0.12510   0.00016  -0.00286  -0.01283
  34        2S         -0.10190  -0.19492   0.00150  -0.00474  -0.03885
  35        3S         -0.03806  -0.09146   0.00084  -0.01244  -0.83539
  36 6   H  1S         -0.08014   0.12431   0.00012  -0.00287  -0.01585
  37        2S         -0.10989   0.19466   0.00147  -0.00483  -0.04655
  38        3S         -0.04117   0.09143   0.00081  -0.01274  -0.88885
                          11        12        13        14        15
                           V         V         V         V         V
     Eigenvalues --     0.16488   0.17025   0.24078   0.37399   0.39351
   1 1   C  1S          0.00064  -0.04573   0.00013   0.01014   0.00091
   2        2S          0.00104  -0.07452   0.00019   0.01403   0.00137
   3        2PX         0.09627  -0.02044   0.10005  -0.03669  -0.02318
   4        2PY        -0.05426  -0.03735  -0.05725  -0.06635   0.01034
   5        2PZ         0.00002  -0.00474  -0.00001  -0.00334  -0.00013
   6        3S         -0.00219   0.16826   0.00021   0.03174   0.00151
   7        3PX         0.13785  -0.01218   0.10582  -0.04686  -0.10434
   8        3PY        -0.07841  -0.02428  -0.06149  -0.08996   0.05226
   9        3PZ         0.00002  -0.00657  -0.00004  -0.00677  -0.00015
  10        4S         -0.03475   1.44996  -0.02720  -2.63791  -0.18801
  11        4PX         0.57854  -0.11941   1.16838  -1.57046  -0.55097
  12        4PY        -0.31740  -0.20969  -0.67251  -2.73420   0.14079
  13        4PZ         0.00023  -0.03104   0.00016  -0.03069  -0.00172
  14 2   H  1S         -0.02945  -0.02509   0.01364  -0.05710   0.07565
  15        2S         -0.08075  -0.01746  -0.02436  -0.65390   0.76978
  16        3S         -1.04053  -1.01071  -1.54769  -0.32064  -0.32113
  17 3   H  1S          0.02830  -0.02509  -0.01563  -0.05005  -0.07635
  18        2S          0.07920  -0.02019   0.01851  -0.59576  -0.76801
  19        3S          1.08437  -1.02338   1.58097  -0.39331   0.24838
  20 4   C  1S          0.00130   0.04215  -0.00015  -0.02003  -0.00020
  21        2S          0.00208   0.06861  -0.00025  -0.03283  -0.00022
  22        2PX         0.10167  -0.02372  -0.10011  -0.04108  -0.03197
  23        2PY        -0.06116  -0.03662   0.05740  -0.07390   0.01262
  24        2PZ         0.00010   0.00459   0.00002   0.00245   0.00026
  25        3S         -0.00421  -0.15246   0.00032   0.04219  -0.00134
  26        3PX         0.14607  -0.01897  -0.11353  -0.09238  -0.11132
  27        3PY        -0.08679  -0.02622   0.06392  -0.16910   0.05446
  28        3PZ         0.00014   0.00632   0.00005   0.00304   0.00056
  29        4S         -0.05768  -1.32906   0.01864   3.32253   0.16100
  30        4PX         0.54135  -0.12132  -1.12617  -1.18812  -0.55614
  31        4PY        -0.33031  -0.19091   0.64796  -2.09401   0.10244
  32        4PZ         0.00069   0.02986  -0.00013   0.02513   0.00210
  33 5   H  1S          0.03127   0.02466   0.00612   0.01095  -0.08037
  34        2S          0.06783   0.02118  -0.03500   0.07242  -0.79226
  35        3S          1.08267   0.92289  -1.52368   0.45423   0.47535
  36 6   H  1S         -0.03119   0.02562  -0.00499   0.00502   0.08788
  37        2S         -0.06832   0.02114   0.03617   0.02179   0.89174
  38        3S         -1.00485   0.94757   1.50326   0.47205  -0.45200
                          16        17        18        19        20
                           V         V         V         V         V
     Eigenvalues --     0.39847   0.46424   0.48838   0.49390   0.59099
   1 1   C  1S         -0.01794   0.01300  -0.04637  -0.00020  -0.00039
   2        2S         -0.03160   0.02981  -0.07746  -0.00013  -0.00070
   3        2PX         0.02618  -0.06185   0.01207   0.00082   0.00146
   4        2PY         0.04785  -0.10666   0.01508   0.00124   0.00227
   5        2PZ         0.00018  -0.00038   0.00348  -0.15180  -0.19251
   6        3S          0.07428  -0.33759   0.08832  -0.00687  -0.00042
   7        3PX         0.10107  -0.24253  -0.03458   0.00022   0.00485
   8        3PY         0.18954  -0.41629  -0.07147  -0.00009   0.00764
   9        3PZ        -0.00278  -0.00320   0.01573  -0.62834  -0.68500
  10        4S          2.60877   0.06504   3.13540   0.06213   0.04898
  11        4PX         0.21124   0.21136   0.80612   0.01990   0.01579
  12        4PY         0.39902   0.40369   1.40950   0.03571   0.02611
  13        4PZ        -0.00150   0.00119  -0.06224   0.68608   1.24063
  14 2   H  1S         -0.02692  -0.03278  -0.07682  -0.00182  -0.00120
  15        2S         -0.54333  -0.30940  -0.91797  -0.01724  -0.00904
  16        3S          0.29711   0.05793   0.64283   0.02104   0.01657
  17 3   H  1S         -0.03377  -0.03566  -0.07453  -0.00178  -0.00113
  18        2S         -0.60471  -0.34453  -0.89545  -0.01711  -0.00765
  19        3S          0.30869   0.06058   0.60630   0.02035   0.01613
  20 4   C  1S         -0.00135  -0.00338   0.05097   0.00212   0.00050
  21        2S         -0.00578   0.00196   0.08878   0.00385   0.00093
  22        2PX         0.00798   0.05394   0.02775  -0.00001   0.00148
  23        2PY         0.01629   0.09403   0.05117   0.00006   0.00275
  24        2PZ        -0.00261  -0.00122   0.00354  -0.15287   0.19218
  25        3S          0.07976  -0.28333  -0.23561  -0.01507  -0.00176
  26        3PX        -0.04456   0.23303   0.05733  -0.00012   0.00523
  27        3PY        -0.06685   0.40899   0.10418  -0.00012   0.00953
  28        3PZ        -0.00743  -0.00498   0.01293  -0.63189   0.68208
  29        4S         -0.79081   0.81912  -3.08059  -0.07617  -0.04336
  30        4PX         1.21757  -0.36900   0.62270   0.01079   0.01457
  31        4PY         2.20072  -0.60768   1.05278   0.01739   0.02630
  32        4PZ        -0.02290  -0.01198   0.02584   0.69351  -1.23711
  33 5   H  1S         -0.04851  -0.06494   0.06294   0.00160   0.00111
  34        2S         -0.84886  -0.66541   0.79393   0.02417   0.00426
  35        3S         -0.17659   0.28179  -0.54448  -0.00659  -0.01614
  36 6   H  1S         -0.04087  -0.06302   0.06368   0.00165   0.00115
  37        2S         -0.76332  -0.63807   0.79256   0.02405   0.00500
  38        3S         -0.20109   0.29306  -0.56726  -0.00744  -0.01632
                          21        22        23        24        25
                           V         V         V         V         V
     Eigenvalues --     0.66583   0.69157   0.77262   0.77594   0.84392
   1 1   C  1S          0.00071  -0.00054   0.04736   0.07566   0.00094
   2        2S          0.00145  -0.00122   0.09983   0.16126   0.00210
   3        2PX        -0.12797   0.20094  -0.03181   0.11229  -0.00813
   4        2PY         0.07483  -0.12032  -0.05492   0.18339   0.01122
   5        2PZ        -0.00000   0.00006   0.00027   0.00349   0.00011
   6        3S         -0.01125   0.01610  -0.65660  -1.38275  -0.01998
   7        3PX        -0.60051   0.70996  -0.19818   0.43292  -0.22116
   8        3PY         0.34793  -0.42444  -0.34294   0.69903   0.15322
   9        3PZ        -0.00006   0.00029   0.00106   0.01222   0.00053
  10        4S          0.01985  -0.07934   0.58975   2.48526  -0.06334
  11        4PX         1.08340  -0.82510   0.18869  -0.72944   4.49748
  12        4PY        -0.62967   0.49050   0.27911  -1.01110  -2.60069
  13        4PZ        -0.00007   0.00085   0.00869  -0.03855   0.00070
  14 2   H  1S          0.02203  -0.05924   0.00870   0.03290  -0.02753
  15        2S          0.11648  -0.63162   0.07525   0.09600  -1.57265
  16        3S         -1.02216   1.13120  -0.02991  -1.11432  -1.22796
  17 3   H  1S         -0.02147   0.05878   0.00850   0.03371   0.03033
  18        2S         -0.12797   0.66540   0.09011   0.07513   1.61107
  19        3S          1.01374  -1.10254  -0.01888  -1.24291   1.23139
  20 4   C  1S          0.00092  -0.00063   0.08224   0.03568   0.00082
  21        2S          0.00186  -0.00121   0.17511   0.07520   0.00172
  22        2PX        -0.15568  -0.18163  -0.10003   0.04741   0.00965
  23        2PY         0.08912   0.10136  -0.17897   0.08692  -0.00032
  24        2PZ         0.00001  -0.00008   0.00361  -0.00055  -0.00012
  25        3S         -0.01307   0.00257  -1.47132  -0.45677  -0.01165
  26        3PX        -0.69703  -0.61094  -0.36938   0.26014   0.23564
  27        3PY         0.40121   0.33846  -0.66384   0.47272  -0.10836
  28        3PZ         0.00000  -0.00029   0.01278  -0.00215  -0.00044
  29        4S          0.01084   0.04612   2.66393   0.27893   0.04672
  30        4PX         1.28666   0.72441   0.54953  -0.23457  -4.20147
  31        4PY        -0.73467  -0.40947   1.04015  -0.61030   2.36790
  32        4PZ        -0.00003  -0.00059  -0.03768   0.01586  -0.00019
  33 5   H  1S         -0.02673  -0.05462   0.03440   0.00452  -0.02346
  34        2S         -0.16144  -0.55454   0.07332   0.07480  -1.42181
  35        3S          1.13509   0.96294  -1.16678   0.23000  -1.10230
  36 6   H  1S          0.02721   0.05422   0.03403   0.00528   0.02382
  37        2S          0.15644   0.52462   0.07332   0.02825   1.41134
  38        3S         -1.13809  -0.97021  -1.11268   0.16855   1.10826
                          26        27        28        29        30
                           V         V         V         V         V
     Eigenvalues --     0.95146   2.23145   2.29024   2.33289   2.40776
   1 1   C  1S          0.09578  -0.01039  -0.01461   0.00033  -0.00045
   2        2S          0.19901   0.00104  -0.01481   0.00081  -0.00047
   3        2PX        -0.09105  -0.08058  -0.13225   0.34136  -0.41060
   4        2PY        -0.15784  -0.14972  -0.22920  -0.19501   0.23518
   5        2PZ         0.00012  -0.00962  -0.01291  -0.00014  -0.00033
   6        3S         -1.54219  -0.18439  -0.03482  -0.00204  -0.00463
   7        3PX        -0.23228   0.07713   0.20838  -0.40726   0.57128
   8        3PY        -0.39565   0.15691   0.37425   0.23494  -0.33020
   9        3PZ        -0.00182   0.00963   0.01608   0.00023   0.00035
  10        4S          5.71388  -0.11675  -0.89020   0.00023  -0.02981
  11        4PX         1.19371   0.05480  -0.19154  -0.04084   0.98351
  12        4PY         1.98866   0.06848  -0.35273   0.01572  -0.55284
  13        4PZ        -0.01312   0.00232   0.00584  -0.00018   0.00063
  14 2   H  1S          0.01540  -0.71376  -0.78805  -0.70118   0.65979
  15        2S         -0.28849   1.01519   1.18285   1.07702  -1.47314
  16        3S         -0.09500  -0.30433  -0.46910  -0.46515   0.36830
  17 3   H  1S          0.01557  -0.70644  -0.78753   0.69010  -0.68084
  18        2S         -0.26219   1.00701   1.18408  -1.06449   1.51677
  19        3S         -0.08185  -0.28222  -0.45603   0.45327  -0.36154
  20 4   C  1S         -0.09400  -0.01027   0.01229   0.00039   0.00024
  21        2S         -0.19497   0.00029   0.01220   0.00055   0.00039
  22        2PX        -0.09228   0.13219  -0.12392   0.30920   0.41588
  23        2PY        -0.15907   0.23145  -0.20866  -0.17847  -0.23661
  24        2PZ         0.00020  -0.01033   0.01257   0.00009   0.00003
  25        3S          1.50775  -0.16890   0.02001   0.00005  -0.00006
  26        3PX        -0.22627  -0.16807   0.21228  -0.38689  -0.58286
  27        3PY        -0.39511  -0.29060   0.35166   0.22117   0.33110
  28        3PZ         0.00250   0.01110  -0.01602  -0.00007  -0.00006
  29        4S         -5.68929  -0.16410   0.88713   0.01393   0.01308
  30        4PX         1.11043  -0.01535  -0.19547   0.09957  -0.86963
  31        4PY         1.98096  -0.03323  -0.32148  -0.05707   0.50107
  32        4PZ         0.00925   0.00319  -0.00460  -0.00011  -0.00044
  33 5   H  1S         -0.01790  -0.78565   0.68135   0.71172   0.67839
  34        2S          0.29042   1.14000  -1.03866  -1.03827  -1.45071
  35        3S          0.06447  -0.35462   0.40535   0.51368   0.41954
  36 6   H  1S         -0.01789  -0.77774   0.70292  -0.69923  -0.67684
  37        2S          0.31056   1.12650  -1.06793   1.01682   1.44240
  38        3S          0.06918  -0.35370   0.42892  -0.50998  -0.42463
                          31        32        33        34        35
                           V         V         V         V         V
     Eigenvalues --     2.67103   2.81812   2.87811   2.95200   3.14005
   1 1   C  1S          0.00036   0.00181  -0.01334   0.00004  -0.00972
   2        2S          0.00029   0.00524  -0.04424  -0.00014  -0.02957
   3        2PX         0.00345   0.05205  -0.47323  -0.73201   0.44851
   4        2PY         0.00592   0.09170  -0.84961   0.40732   0.78866
   5        2PZ        -0.92375  -0.93557  -0.10010  -0.00063   0.00492
   6        3S         -0.00118  -0.04335   0.38822   0.00302   0.24749
   7        3PX        -0.00248  -0.09042   0.83958   0.88310  -0.43341
   8        3PY        -0.00442  -0.15783   1.48220  -0.47867  -0.76231
   9        3PZ         0.93877   1.14345   0.12564   0.00091  -0.00634
  10        4S          0.00934   0.10070  -0.87516  -0.01158  -0.48208
  11        4PX        -0.00155   0.07290  -0.71797  -0.67073   0.21945
  12        4PY        -0.00183   0.12746  -1.27146   0.35514   0.38586
  13        4PZ        -0.33762  -0.61957  -0.07958  -0.00075   0.00386
  14 2   H  1S          0.00857  -0.01441   0.26402  -0.37535  -0.21736
  15        2S         -0.00978   0.00907  -0.22082   0.38662   0.16479
  16        3S         -0.00207   0.02938  -0.30034   0.27438   0.06236
  17 3   H  1S          0.00866  -0.01381   0.25249   0.37807  -0.21432
  18        2S         -0.01003   0.00781  -0.20039  -0.38452   0.16115
  19        3S         -0.00248   0.02998  -0.30370  -0.29208   0.06700
  20 4   C  1S          0.00036  -0.00178   0.01374   0.00054  -0.00742
  21        2S          0.00035  -0.00551   0.04806   0.00128  -0.02310
  22        2PX        -0.00545   0.04674  -0.40988  -0.80387  -0.50283
  23        2PY        -0.00928   0.08308  -0.73520   0.44784  -0.88854
  24        2PZ        -0.92575   0.93317   0.10211   0.00065   0.00916
  25        3S         -0.00195   0.04721  -0.43117  -0.01010   0.19829
  26        3PX         0.00564  -0.08493   0.77198   0.95904   0.53725
  27        3PY         0.00946  -0.14997   1.37127  -0.52556   0.95671
  28        3PZ         0.94155  -1.14110  -0.12857  -0.00079  -0.01156
  29        4S          0.01101  -0.10285   0.90592   0.02817  -0.37769
  30        4PX        -0.00060   0.07218  -0.71026  -0.70055  -0.32529
  31        4PY        -0.00128   0.12661  -1.24661   0.37633  -0.58300
  32        4PZ        -0.33908   0.61843   0.08195   0.00053   0.00901
  33 5   H  1S          0.00820   0.01940  -0.29243   0.41940  -0.26118
  34        2S         -0.01008  -0.01559   0.26440  -0.43115   0.20491
  35        3S         -0.00098  -0.02767   0.28539  -0.24477   0.12233
  36 6   H  1S          0.00833   0.01974  -0.29110  -0.42833  -0.25207
  37        2S         -0.01050  -0.01645   0.26936   0.43958   0.19766
  38        3S         -0.00073  -0.02614   0.26912   0.24685   0.11784
                          36        37        38
                           V         V         V
     Eigenvalues --     3.32050  23.35276  23.70548
   1 1   C  1S         -0.00047  -1.41348  -1.45279
   2        2S         -0.00074   1.50747   1.57098
   3        2PX         0.78422  -0.00667   0.01204
   4        2PY        -0.44000  -0.01089   0.02124
   5        2PZ         0.00034  -0.00039  -0.00017
   6        3S          0.00164  -0.29598  -0.39932
   7        3PX        -1.12121   0.02434  -0.05533
   8        3PY         0.62681   0.04031  -0.09657
   9        3PZ        -0.00056   0.00111   0.00052
  10        4S         -0.02171   0.27358   0.76799
  11        4PX         1.97230  -0.02644   0.13218
  12        4PY        -1.10840  -0.04455   0.22913
  13        4PZ         0.00089  -0.00186  -0.00215
  14 2   H  1S          0.56137   0.01339   0.00724
  15        2S         -0.87558   0.00759  -0.01471
  16        3S         -0.46796  -0.08434  -0.03949
  17 3   H  1S         -0.57271   0.01512   0.00856
  18        2S          0.89156   0.00713  -0.01522
  19        3S          0.49067  -0.08639  -0.04021
  20 4   C  1S          0.00015  -1.44802   1.41821
  21        2S         -0.00001   1.54442  -1.53370
  22        2PX        -0.71150   0.00605   0.01272
  23        2PY         0.40446   0.01088   0.02156
  24        2PZ        -0.00019  -0.00039   0.00010
  25        3S          0.00269  -0.30335   0.39013
  26        3PX         1.01329  -0.02216  -0.05655
  27        3PY        -0.58314  -0.03943  -0.09694
  28        3PZ         0.00032   0.00112  -0.00026
  29        4S         -0.00404   0.28076  -0.75872
  30        4PX        -1.79224   0.02296   0.13151
  31        4PY         1.03556   0.04224   0.22625
  32        4PZ        -0.00053  -0.00182   0.00160
  33 5   H  1S          0.48659   0.01317  -0.00471
  34        2S         -0.76121   0.00807   0.01376
  35        3S         -0.42933  -0.08298   0.03763
  36 6   H  1S         -0.48279   0.01196  -0.00360
  37        2S          0.75733   0.00926   0.01303
  38        3S          0.42242  -0.08149   0.03659
     Density Matrix:
                           1         2         3         4         5
   1 1   C  1S          0.65940
   2        2S          0.56152   0.49202
   3        2PX        -0.00050  -0.00065   0.08450
   4        2PY        -0.00124  -0.00171   0.00352   0.08775
   5        2PZ         0.00006   0.00010  -0.00009  -0.00019   0.06439
   6        3S         -0.08895  -0.15387   0.00255   0.00612  -0.00014
   7        3PX         0.00090   0.00139   0.13073   0.00110  -0.00007
   8        3PY         0.00124   0.00190   0.00110   0.13128  -0.00016
   9        3PZ         0.00013   0.00021  -0.00016  -0.00030   0.10356
  10        4S         -0.07930  -0.11419  -0.01534  -0.02759   0.00040
  11        4PX         0.00024   0.00154   0.07025  -0.00449  -0.00040
  12        4PY         0.00060   0.00298  -0.00452   0.06553  -0.00073
  13        4PZ        -0.00008  -0.00019  -0.00059  -0.00101   0.09592
  14 2   H  1S         -0.02062  -0.03284   0.03479  -0.06322  -0.00088
  15        2S         -0.02289  -0.03660   0.04901  -0.08787  -0.00068
  16        3S          0.00057  -0.00071   0.02063  -0.03303  -0.00003
  17 3   H  1S         -0.02111  -0.03358  -0.07294  -0.00197  -0.00092
  18        2S         -0.02319  -0.03704  -0.10059  -0.00203  -0.00072
  19        3S          0.00061  -0.00068  -0.03834   0.00123  -0.00004
  20 4   C  1S          0.00606   0.00976  -0.01086  -0.01876  -0.00030
  21        2S          0.00973   0.01521  -0.01738  -0.03003  -0.00049
  22        2PX         0.01034   0.01652  -0.01249  -0.03206   0.00034
  23        2PY         0.01804   0.02885  -0.03218  -0.04969   0.00061
  24        2PZ        -0.00034  -0.00056  -0.00027  -0.00045   0.06431
  25        3S         -0.02619  -0.03977   0.04877   0.08432   0.00147
  26        3PX         0.01595   0.02472  -0.01834  -0.04574   0.00044
  27        3PY         0.02782   0.04313  -0.04581  -0.07125   0.00080
  28        3PZ        -0.00058  -0.00094  -0.00047  -0.00079   0.10292
  29        4S          0.00532   0.00391   0.02093   0.03646   0.00178
  30        4PX         0.00309   0.00637  -0.01304  -0.02102   0.00050
  31        4PY         0.00526   0.01093  -0.02105  -0.03748   0.00092
  32        4PZ        -0.00050  -0.00080  -0.00074  -0.00126   0.09599
  33 5   H  1S          0.00419   0.00689  -0.00167  -0.01234  -0.00034
  34        2S          0.00633   0.01052   0.00354  -0.02497  -0.00002
  35        3S          0.00325   0.00476   0.00422  -0.01755   0.00006
  36 6   H  1S          0.00414   0.00680  -0.00991  -0.00767  -0.00035
  37        2S          0.00620   0.01032  -0.02346  -0.00940  -0.00003
  38        3S          0.00318   0.00466  -0.01729  -0.00511   0.00005
                           6         7         8         9        10
   6        3S          0.45268
   7        3PX        -0.00189   0.20255
   8        3PY        -0.00164  -0.00468   0.19689
   9        3PZ        -0.00042  -0.00013  -0.00026   0.16656
  10        4S          0.27308  -0.02589  -0.04730   0.00052   0.18150
  11        4PX        -0.00667   0.10917  -0.01013  -0.00066  -0.01484
  12        4PY        -0.01229  -0.01015   0.09870  -0.00117  -0.02843
  13        4PZ         0.00082  -0.00078  -0.00133   0.15427   0.00152
  14 2   H  1S          0.08779   0.05601  -0.09866  -0.00146   0.06921
  15        2S          0.09795   0.07925  -0.13667  -0.00115   0.08137
  16        3S          0.00607   0.03367  -0.05078  -0.00006   0.01108
  17 3   H  1S          0.08985  -0.11412  -0.00145  -0.00151   0.06902
  18        2S          0.09924  -0.15720  -0.00030  -0.00118   0.07984
  19        3S          0.00616  -0.05967   0.00372  -0.00006   0.01006
  20 4   C  1S         -0.02645  -0.01695  -0.02932  -0.00051   0.00511
  21        2S         -0.04003  -0.02635  -0.04559  -0.00082   0.00382
  22        2PX        -0.04624  -0.01776  -0.04548   0.00059  -0.01763
  23        2PY        -0.08079  -0.04572  -0.07087   0.00104  -0.03090
  24        2PZ         0.00166  -0.00037  -0.00060   0.10342   0.00174
  25        3S          0.10194   0.07158   0.12396   0.00245   0.00112
  26        3PX        -0.06686  -0.02622  -0.06470   0.00077  -0.02623
  27        3PY        -0.11677  -0.06492  -0.10156   0.00138  -0.04589
  28        3PZ         0.00276  -0.00064  -0.00107   0.16552   0.00289
  29        4S          0.00194   0.03165   0.05535   0.00296  -0.03216
  30        4PX        -0.02254  -0.01942  -0.02952   0.00083  -0.00660
  31        4PY        -0.03887  -0.02965  -0.05414   0.00152  -0.01095
  32        4PZ         0.00235  -0.00103  -0.00174   0.15438   0.00268
  33 5   H  1S         -0.02050  -0.00067  -0.01773  -0.00050  -0.01493
  34        2S         -0.03146   0.00852  -0.03675   0.00003  -0.01953
  35        3S         -0.01226   0.00803  -0.02640   0.00011  -0.00362
  36 6   H  1S         -0.02018  -0.01493  -0.00929  -0.00051  -0.01496
  37        2S         -0.03083  -0.03590  -0.01058   0.00002  -0.01984
  38        3S         -0.01198  -0.02670  -0.00606   0.00010  -0.00393
                          11        12        13        14        15
  11        4PX         0.05988
  12        4PY        -0.00890   0.05098
  13        4PZ        -0.00096  -0.00166   0.14289
  14 2   H  1S          0.03339  -0.05413  -0.00076   0.08142
  15        2S          0.04804  -0.07484  -0.00030   0.10954   0.14945
  16        3S          0.02085  -0.02766   0.00014   0.03663   0.05223
  17 3   H  1S         -0.06307   0.00171  -0.00077  -0.01318  -0.02473
  18        2S         -0.08726   0.00417  -0.00029  -0.02463  -0.04270
  19        3S         -0.03342   0.00438   0.00015  -0.01797  -0.02717
  20 4   C  1S         -0.00319  -0.00574  -0.00045   0.00423   0.00669
  21        2S         -0.00657  -0.01173  -0.00072   0.00698   0.01116
  22        2PX        -0.01327  -0.01997   0.00081   0.00184  -0.00270
  23        2PY        -0.02009  -0.03674   0.00142   0.01146   0.02422
  24        2PZ        -0.00052  -0.00090   0.09579  -0.00040  -0.00012
  25        3S          0.02324   0.04128   0.00211  -0.02101  -0.03357
  26        3PX        -0.02041  -0.02827   0.00110   0.00104  -0.00720
  27        3PY        -0.02843  -0.05351   0.00195   0.01703   0.03625
  28        3PZ        -0.00086  -0.00149   0.15331  -0.00059  -0.00012
  29        4S          0.00812   0.01526   0.00270  -0.01766  -0.02414
  30        4PX        -0.01473  -0.01249   0.00101  -0.00154  -0.00826
  31        4PY        -0.01254  -0.02956   0.00182   0.01535   0.02727
  32        4PZ        -0.00105  -0.00182   0.14300  -0.00033   0.00021
  33 5   H  1S          0.00195  -0.01570  -0.00026   0.01119   0.02332
  34        2S          0.00910  -0.02739   0.00031   0.02375   0.04436
  35        3S          0.00747  -0.01579   0.00023   0.01663   0.02782
  36 6   H  1S         -0.01457  -0.00585  -0.00026  -0.00906  -0.01814
  37        2S         -0.02822  -0.00528   0.00032  -0.01881  -0.03425
  38        3S         -0.01724  -0.00120   0.00022  -0.01017  -0.01772
                          16        17        18        19        20
  16        3S          0.02089
  17 3   H  1S         -0.01818   0.08264
  18        2S         -0.02732   0.10988   0.14821
  19        3S         -0.01279   0.03609   0.05094   0.02012
  20 4   C  1S          0.00369   0.00430   0.00674   0.00370   0.65947
  21        2S          0.00544   0.00710   0.01124   0.00544   0.56156
  22        2PX        -0.00347   0.00901   0.02218   0.01664   0.00116
  23        2PY         0.01762   0.00741   0.00969   0.00567   0.00181
  24        2PZ         0.00003  -0.00040  -0.00009   0.00005   0.00006
  25        3S         -0.01408  -0.02132  -0.03374  -0.01403  -0.08925
  26        3PX        -0.00696   0.01431   0.03491   0.02599  -0.00049
  27        3PY         0.02653   0.00954   0.01184   0.00711  -0.00107
  28        3PZ         0.00006  -0.00059  -0.00008   0.00009   0.00013
  29        4S         -0.00581  -0.01751  -0.02355  -0.00542  -0.08016
  30        4PX        -0.00692   0.01392   0.02740   0.01695  -0.00020
  31        4PY         0.01596   0.00650   0.00655   0.00195  -0.00021
  32        4PZ         0.00020  -0.00033   0.00023   0.00022  -0.00003
  33 5   H  1S          0.01619  -0.00908  -0.01814  -0.00940  -0.02011
  34        2S          0.02740  -0.01872  -0.03395  -0.01689  -0.02217
  35        3S          0.01462  -0.01010  -0.01750  -0.00892   0.00060
  36 6   H  1S         -0.00949   0.01119   0.02314   0.01584  -0.01989
  37        2S         -0.01720   0.02381   0.04413   0.02691  -0.02218
  38        3S         -0.00912   0.01666   0.02766   0.01438   0.00049
                          21        22        23        24        25
  21        2S          0.49205
  22        2PX         0.00166   0.08262
  23        2PY         0.00257   0.00370   0.08757
  24        2PZ         0.00009   0.00010   0.00015   0.06424
  25        3S         -0.15424  -0.00537  -0.00842  -0.00011   0.45372
  26        3PX        -0.00074   0.12852   0.00189   0.00006  -0.00019
  27        3PY        -0.00162   0.00196   0.13129   0.00007   0.00070
  28        3PZ         0.00021   0.00015   0.00024   0.10281  -0.00042
  29        4S         -0.11582   0.01380   0.02330   0.00048   0.27860
  30        4PX        -0.00147   0.07307  -0.00507   0.00033   0.00626
  31        4PY        -0.00226  -0.00505   0.06707   0.00061   0.00995
  32        4PZ        -0.00011   0.00057   0.00101   0.09588   0.00059
  33 5   H  1S         -0.03204  -0.03354   0.06353  -0.00090   0.08569
  34        2S         -0.03543  -0.04984   0.08846  -0.00070   0.09481
  35        3S         -0.00061  -0.02262   0.03350  -0.00006   0.00565
  36 6   H  1S         -0.03170   0.07114   0.00283  -0.00087   0.08479
  37        2S         -0.03545   0.10120   0.00107  -0.00066   0.09482
  38        3S         -0.00074   0.04046  -0.00298  -0.00005   0.00590
                          26        27        28        29        30
  26        3PX         0.20023
  27        3PY        -0.00255   0.19740
  28        3PZ         0.00007   0.00010   0.16454
  29        4S          0.02537   0.04261   0.00060   0.18674
  30        4PX         0.11430  -0.01057   0.00053   0.01565   0.06629
  31        4PY        -0.01062   0.10138   0.00097   0.02513  -0.01034
  32        4PZ         0.00073   0.00129   0.15345   0.00146   0.00084
  33 5   H  1S         -0.05365   0.09951  -0.00148   0.06702  -0.03447
  34        2S         -0.08017   0.13806  -0.00117   0.07736  -0.05197
  35        3S         -0.03683   0.05161  -0.00009   0.00930  -0.02407
  36 6   H  1S          0.11236   0.00366  -0.00145   0.06747   0.06564
  37        2S          0.15965  -0.00007  -0.00112   0.07893   0.09371
  38        3S          0.06352  -0.00613  -0.00008   0.01016   0.03760
                          31        32        33        34        35
  31        4PY         0.05359
  32        4PZ         0.00153   0.14312
  33 5   H  1S          0.05569  -0.00077   0.08081
  34        2S          0.07739  -0.00031   0.11005   0.15229
  35        3S          0.02906   0.00012   0.03805   0.05520   0.02282
  36 6   H  1S         -0.00182  -0.00076  -0.01246  -0.02599  -0.01987
  37        2S         -0.00612  -0.00029  -0.02612  -0.04823  -0.03150
  38        3S         -0.00628   0.00012  -0.02009  -0.03165  -0.01557
                          36        37        38
  36 6   H  1S          0.07999
  37        2S          0.10965   0.15270
  38        3S          0.03818   0.05567   0.02309
    Full Mulliken population analysis:
                           1         2         3         4         5
   1 1   C  1S          0.65940
   2        2S          0.49326   0.49202
   3        2PX         0.00000   0.00000   0.08450
   4        2PY         0.00000   0.00000   0.00000   0.08775
   5        2PZ         0.00000   0.00000   0.00000   0.00000   0.06439
   6        3S         -0.02928  -0.06444   0.00000   0.00000   0.00000
   7        3PX         0.00000   0.00000   0.08225   0.00000   0.00000
   8        3PY         0.00000   0.00000   0.00000   0.08259   0.00000
   9        3PZ         0.00000   0.00000   0.00000   0.00000   0.06515
  10        4S         -0.01219  -0.02137   0.00000   0.00000   0.00000
  11        4PX         0.00000   0.00000   0.01547   0.00000   0.00000
  12        4PY         0.00000   0.00000   0.00000   0.01443   0.00000
  13        4PZ         0.00000   0.00000   0.00000   0.00000   0.02112
  14 2   H  1S         -0.00023  -0.00033   0.00182   0.00567   0.00000
  15        2S         -0.00167  -0.00321   0.00430   0.01325   0.00000
  16        3S          0.00004  -0.00007   0.00069   0.00190   0.00000
  17 3   H  1S         -0.00026  -0.00037   0.00797   0.00000   0.00000
  18        2S         -0.00174  -0.00334   0.01779   0.00000   0.00000
  19        3S          0.00005  -0.00006   0.00255  -0.00000   0.00000
  20 4   C  1S          0.00000   0.00000  -0.00002  -0.00006   0.00000
  21        2S          0.00000  -0.00000  -0.00002  -0.00005   0.00000
  22        2PX        -0.00002  -0.00002   0.00011   0.00085   0.00000
  23        2PY        -0.00006  -0.00005   0.00085   0.00196   0.00000
  24        2PZ        -0.00000  -0.00000  -0.00000  -0.00000   0.00041
  25        3S         -0.00059  -0.00099   0.00254   0.00760  -0.00000
  26        3PX        -0.00054  -0.00099   0.00019   0.00552   0.00000
  27        3PY        -0.00162  -0.00298   0.00553   0.01068   0.00000
  28        3PZ        -0.00000  -0.00000  -0.00000  -0.00000   0.00609
  29        4S          0.00034   0.00030   0.00095   0.00286  -0.00000
  30        4PX        -0.00018  -0.00045  -0.00070   0.00146   0.00000
  31        4PY        -0.00053  -0.00134   0.00146   0.00098   0.00000
  32        4PZ        -0.00000  -0.00000  -0.00000  -0.00000   0.00902
  33 5   H  1S          0.00000   0.00000  -0.00000  -0.00000   0.00000
  34        2S          0.00001   0.00002   0.00000  -0.00032   0.00000
  35        3S          0.00008   0.00013   0.00001  -0.00070  -0.00000
  36 6   H  1S          0.00000   0.00000  -0.00000  -0.00000   0.00000
  37        2S          0.00001   0.00002  -0.00024  -0.00007   0.00000
  38        3S          0.00007   0.00013  -0.00057  -0.00012  -0.00000
                           6         7         8         9        10
   6        3S          0.45268
   7        3PX         0.00000   0.20255
   8        3PY         0.00000   0.00000   0.19689
   9        3PZ         0.00000   0.00000   0.00000   0.16656
  10        4S          0.21155   0.00000   0.00000   0.00000   0.18150
  11        4PX         0.00000   0.07134   0.00000   0.00000   0.00000
  12        4PY         0.00000   0.00000   0.06449   0.00000   0.00000
  13        4PZ         0.00000   0.00000   0.00000   0.10081   0.00000
  14 2   H  1S          0.01617   0.01075   0.03256   0.00001   0.01833
  15        2S          0.04130   0.01947   0.05773   0.00001   0.04695
  16        3S          0.00280   0.00394   0.01021   0.00000   0.00837
  17 3   H  1S          0.01710   0.04452   0.00000   0.00001   0.01850
  18        2S          0.04260   0.07737   0.00000   0.00001   0.04650
  19        3S          0.00286   0.01384  -0.00000   0.00000   0.00764
  20 4   C  1S         -0.00059  -0.00057  -0.00171   0.00000   0.00032
  21        2S         -0.00100  -0.00105  -0.00315   0.00000   0.00029
  22        2PX         0.00241   0.00019   0.00549   0.00000   0.00080
  23        2PY         0.00728   0.00552   0.01062   0.00000   0.00243
  24        2PZ         0.00000  -0.00000  -0.00000   0.00612   0.00000
  25        3S          0.02169   0.01340   0.04018  -0.00000   0.00042
  26        3PX         0.01252  -0.00126   0.01845   0.00000   0.00404
  27        3PY         0.03785   0.01852   0.02854   0.00000   0.01225
  28        3PZ         0.00000  -0.00000  -0.00000   0.03522   0.00000
  29        4S          0.00073   0.00488   0.01477  -0.00000  -0.02018
  30        4PX         0.00633  -0.00398   0.00585   0.00000   0.00200
  31        4PY         0.01890   0.00587   0.00128   0.00000   0.00574
  32        4PZ         0.00000  -0.00000  -0.00000   0.04929   0.00000
  33 5   H  1S         -0.00005  -0.00000  -0.00019   0.00000  -0.00080
  34        2S         -0.00122   0.00006  -0.00323  -0.00000  -0.00328
  35        3S         -0.00200   0.00010  -0.00426  -0.00000  -0.00131
  36 6   H  1S         -0.00005  -0.00013  -0.00005   0.00000  -0.00079
  37        2S         -0.00116  -0.00254  -0.00052  -0.00000  -0.00328
  38        3S         -0.00193  -0.00352  -0.00055  -0.00000  -0.00140
                          11        12        13        14        15
  11        4PX         0.05988
  12        4PY         0.00000   0.05098
  13        4PZ         0.00000   0.00000   0.14289
  14 2   H  1S          0.00629   0.01752   0.00001   0.08142
  15        2S          0.01522   0.04075   0.00000   0.07738   0.14945
  16        3S          0.00518   0.01180  -0.00000   0.01369   0.04121
  17 3   H  1S          0.02364  -0.00000   0.00001  -0.00001  -0.00066
  18        2S          0.05489  -0.00001   0.00000  -0.00066  -0.00538
  19        3S          0.01641  -0.00001  -0.00000  -0.00201  -0.00794
  20 4   C  1S         -0.00019  -0.00058   0.00000   0.00000   0.00002
  21        2S         -0.00047  -0.00144   0.00000   0.00000   0.00003
  22        2PX        -0.00072   0.00138   0.00000  -0.00000   0.00000
  23        2PY         0.00139   0.00096   0.00000  -0.00000  -0.00036
  24        2PZ        -0.00000  -0.00000   0.00900   0.00000   0.00000
  25        3S          0.00653   0.02008  -0.00000  -0.00007  -0.00148
  26        3PX        -0.00418   0.00560   0.00000  -0.00000   0.00004
  27        3PY         0.00563   0.00127   0.00000  -0.00022  -0.00356
  28        3PZ        -0.00000  -0.00000   0.04895   0.00000   0.00000
  29        4S          0.00246   0.00801  -0.00000  -0.00103  -0.00433
  30        4PX        -0.00709   0.00316   0.00000   0.00001   0.00018
  31        4PY         0.00318  -0.00559   0.00000  -0.00244  -0.01027
  32        4PZ        -0.00000  -0.00000   0.08973   0.00000  -0.00000
  33 5   H  1S          0.00002  -0.00233   0.00000   0.00000   0.00000
  34        2S          0.00026  -0.00984  -0.00000   0.00000   0.00016
  35        3S          0.00028  -0.00729  -0.00000   0.00023   0.00146
  36 6   H  1S         -0.00176  -0.00049   0.00000  -0.00000  -0.00004
  37        2S         -0.00827  -0.00107  -0.00000  -0.00004  -0.00090
  38        3S         -0.00654  -0.00032  -0.00000  -0.00046  -0.00245
                          16        17        18        19        20
  16        3S          0.02089
  17 3   H  1S         -0.00203   0.08264
  18        2S         -0.00798   0.07761   0.14821
  19        3S         -0.00665   0.01348   0.04019   0.02012
  20 4   C  1S          0.00009   0.00000   0.00002   0.00009   0.65947
  21        2S          0.00016   0.00000   0.00003   0.00016   0.49330
  22        2PX         0.00001  -0.00000  -0.00028  -0.00059   0.00000
  23        2PY        -0.00074  -0.00000  -0.00008  -0.00013   0.00000
  24        2PZ        -0.00000   0.00000   0.00000  -0.00000   0.00000
  25        3S         -0.00243  -0.00007  -0.00151  -0.00244  -0.02938
  26        3PX         0.00007  -0.00016  -0.00290  -0.00364   0.00000
  27        3PY        -0.00444  -0.00007  -0.00065  -0.00066   0.00000
  28        3PZ        -0.00000   0.00000   0.00000  -0.00000   0.00000
  29        4S         -0.00218  -0.00103  -0.00426  -0.00205  -0.01232
  30        4PX         0.00018  -0.00186  -0.00866  -0.00669   0.00000
  31        4PY        -0.00753  -0.00058  -0.00137  -0.00051   0.00000
  32        4PZ        -0.00000   0.00000  -0.00000  -0.00000   0.00000
  33 5   H  1S          0.00023  -0.00000  -0.00004  -0.00043  -0.00022
  34        2S          0.00144  -0.00004  -0.00092  -0.00236  -0.00159
  35        3S          0.00246  -0.00046  -0.00245  -0.00286   0.00005
  36 6   H  1S         -0.00043   0.00000   0.00000   0.00022  -0.00020
  37        2S         -0.00238   0.00000   0.00015   0.00141  -0.00156
  38        3S         -0.00290   0.00023   0.00145   0.00242   0.00004
                          21        22        23        24        25
  21        2S          0.49205
  22        2PX         0.00000   0.08262
  23        2PY         0.00000   0.00000   0.08757
  24        2PZ         0.00000   0.00000   0.00000   0.06424
  25        3S         -0.06460   0.00000   0.00000   0.00000   0.45372
  26        3PX         0.00000   0.08085   0.00000   0.00000   0.00000
  27        3PY         0.00000   0.00000   0.08260   0.00000   0.00000
  28        3PZ         0.00000   0.00000   0.00000   0.06468   0.00000
  29        4S         -0.02168   0.00000   0.00000   0.00000   0.21583
  30        4PX         0.00000   0.01609   0.00000   0.00000   0.00000
  31        4PY         0.00000   0.00000   0.01477   0.00000   0.00000
  32        4PZ         0.00000   0.00000   0.00000   0.02112   0.00000
  33 5   H  1S         -0.00031   0.00151   0.00566   0.00000   0.01540
  34        2S         -0.00304   0.00387   0.01363   0.00000   0.03942
  35        3S         -0.00006   0.00068   0.00200   0.00000   0.00259
  36 6   H  1S         -0.00028   0.00684   0.00002   0.00000   0.01491
  37        2S         -0.00298   0.01725   0.00001   0.00000   0.03895
  38        3S         -0.00007   0.00270  -0.00001   0.00000   0.00269
                          26        27        28        29        30
  26        3PX         0.20023
  27        3PY         0.00000   0.19740
  28        3PZ         0.00000   0.00000   0.16454
  29        4S          0.00000   0.00000   0.00000   0.18674
  30        4PX         0.07469   0.00000   0.00000   0.00000   0.06629
  31        4PY         0.00000   0.06624   0.00000   0.00000   0.00000
  32        4PZ         0.00000   0.00000   0.10028   0.00000   0.00000
  33 5   H  1S          0.00906   0.03337   0.00001   0.01758   0.00580
  34        2S          0.01753   0.05992   0.00001   0.04431   0.01475
  35        3S          0.00386   0.01075   0.00000   0.00699   0.00537
  36 6   H  1S          0.04148   0.00009   0.00001   0.01756   0.02447
  37        2S          0.07704  -0.00000   0.00001   0.04493   0.05903
  38        3S          0.01481  -0.00009   0.00000   0.00761   0.01866
                          31        32        33        34        35
  31        4PY         0.05359
  32        4PZ         0.00000   0.14312
  33 5   H  1S          0.01860   0.00001   0.08081
  34        2S          0.04359   0.00000   0.07774   0.15229
  35        3S          0.01286  -0.00000   0.01422   0.04355   0.02282
  36 6   H  1S         -0.00004   0.00001  -0.00001  -0.00078  -0.00233
  37        2S         -0.00024   0.00000  -0.00079  -0.00658  -0.00957
  38        3S         -0.00020  -0.00000  -0.00235  -0.00961  -0.00831
                          36        37        38
  36 6   H  1S          0.07999
  37        2S          0.07746   0.15270
  38        3S          0.01426   0.04392   0.02309
     Gross orbital populations:
                           1
   1 1   C  1S          1.10435
   2        2S          0.88586
   3        2PX         0.22745
   4        2PY         0.23618
   5        2PZ         0.16620
   6        3S          0.79306
   7        3PX         0.56153
   8        3PY         0.55601
   9        3PZ         0.42320
  10        4S          0.50303
  11        4PX         0.25885
  12        4PY         0.21146
  13        4PZ         0.41252
  14 2   H  1S          0.27436
  15        2S          0.46667
  16        3S          0.08561
  17 3   H  1S          0.27811
  18        2S          0.46460
  19        3S          0.08241
  20 4   C  1S          1.10441
  21        2S          0.88584
  22        2PX         0.22203
  23        2PY         0.23582
  24        2PZ         0.16558
  25        3S          0.79242
  26        3PX         0.55233
  27        3PY         0.55633
  28        3PZ         0.41980
  29        4S          0.50778
  30        4PX         0.27471
  31        4PY         0.21643
  32        4PZ         0.41257
  33 5   H  1S          0.27250
  34        2S          0.46976
  35        3S          0.08890
  36 6   H  1S          0.26994
  37        2S          0.47072
  38        3S          0.09068
          Condensed to atoms (all electrons):
               1          2          3          4          5          6
     1  C    5.032350   0.387529   0.388455   0.602291  -0.035836  -0.035098
     2  H    0.387529   0.516321  -0.033320  -0.040284   0.005987  -0.009594
     3  H    0.388455  -0.033320   0.513546  -0.039886  -0.009568   0.005885
     4  C    0.602291  -0.040284  -0.039886   5.056549   0.383974   0.383417
     5  H   -0.035836   0.005987  -0.009568   0.383974   0.526930  -0.040331
     6  H   -0.035098  -0.009594   0.005885   0.383417  -0.040331   0.527063
 Mulliken charges:
               1
     1  C   -0.339692
     2  H    0.173362
     3  H    0.174888
     4  C   -0.346060
     5  H    0.168844
     6  H    0.168658
 Sum of Mulliken charges =   0.00000
 Mulliken charges with hydrogens summed into heavy atoms:
               1
     1  C    0.008558
     4  C   -0.008558
 Electronic spatial extent (au):  <R**2>=             83.7239
 Charge=              0.0000 electrons
 Dipole moment (field-independent basis, Debye):
    X=              0.0000    Y=              0.0187    Z=             -0.0758  Tot=              0.0781
 Quadrupole moment (field-independent basis, Debye-Ang):
   XX=            -12.2001   YY=            -12.2149   ZZ=            -15.6714
   XY=              0.0147   XZ=             -0.0011   YZ=             -0.0018
 Traceless Quadrupole moment (field-independent basis, Debye-Ang):
   XX=              1.1620   YY=              1.1473   ZZ=             -2.3093
   XY=              0.0147   XZ=             -0.0011   YZ=             -0.0018
 Octapole moment (field-independent basis, Debye-Ang**2):
  XXX=             -0.3285  YYY=             -0.0764  ZZZ=             -0.0680  XYY=              0.1722
  XXY=             -0.0261  XXZ=             -0.1073  XZZ=             -0.0931  YZZ=             -0.0889
  YYZ=             -0.1394  XYZ=             -0.0280
 Hexadecapole moment (field-independent basis, Debye-Ang**3):
 XXXX=            -34.2632 YYYY=            -55.2138 ZZZZ=            -17.8084 XXXY=             -7.2470
 XXXZ=              0.0111 YYYX=            -10.7126 YYYZ=              0.0154 ZZZX=              0.0164
 ZZZY=              0.0260 XXYY=            -16.1902 XXZZ=             -9.9231 YYZZ=            -13.6463
 XXYZ=              0.0045 YYXZ=              0.0000 ZZXY=             -3.2058
 N-N= 3.306775478748D+01 E-N=-2.478473074899D+02  KE= 7.815384305818D+01
 Orbital energies and kinetic energies (alpha):
                                 1                 2
   1         O               -10.290450         15.978700
   2         O               -10.287750         15.979659
   3         O                -0.863666          1.537625
   4         O                -0.672437          1.271962
   5         O                -0.559501          0.942391
   6         O                -0.509267          1.284404
   7         O                -0.436835          1.044015
   8         O                -0.356704          1.038166
   9         V                 0.079755          1.182060
  10         V                 0.141041          0.588778
  11         V                 0.164882          0.594076
  12         V                 0.170255          0.679122
  13         V                 0.240776          0.582461
  14         V                 0.373995          0.853957
  15         V                 0.393507          0.933951
  16         V                 0.398469          0.780040
  17         V                 0.464242          1.193942
  18         V                 0.488379          1.421172
  19         V                 0.493896          1.301962
  20         V                 0.590992          1.651949
  21         V                 0.665833          1.573434
  22         V                 0.691567          2.146925
  23         V                 0.772621          2.405647
  24         V                 0.775937          2.339389
  25         V                 0.843924          1.086620
  26         V                 0.951458          3.420888
  27         V                 2.231447          3.925234
  28         V                 2.290242          4.029310
  29         V                 2.332891          4.304676
  30         V                 2.407761          4.522035
  31         V                 2.671034          6.300784
  32         V                 2.818119          6.307281
  33         V                 2.878113          6.136780
  34         V                 2.951997          6.225524
  35         V                 3.140053          6.821460
  36         V                 3.320498          6.401616
  37         V                23.352765         60.074828
  38         V                23.705481         60.203377
 Total kinetic energy from orbitals= 7.815384305818D+01
 Calling FoFJK, ICntrl=      2127 FMM=F ISym2X=0 I1Cent= 0 IOpClX= 0 NMat=1 NMatS=1 NMatT=0.
 -------------------------------------------------------------------
 Center     Atomic                   Forces (Hartrees/Bohr)
 Number     Number              X              Y              Z
 -------------------------------------------------------------------
      1        6           0.014350134    0.009841179   -0.003007644
      2        1          -0.008680474    0.005163045    0.001524825
      3        1           0.001253930   -0.004552118    0.001384665
      4        6           0.008308320    0.008542919   -0.003332481
      5        1           0.002384930   -0.013450988    0.001671750
      6        1          -0.017616840   -0.005544037    0.001758885
 -------------------------------------------------------------------
 Cartesian Forces:  Max     0.017616840 RMS     0.007912982

 GradGradGradGradGradGradGradGradGradGradGradGradGradGradGradGradGradGrad
 Berny optimization.
 Search for a local minimum.
 Step number   1 out of a maximum of    2
 All quantities printed in internal units (Hartrees-Bohrs-Radians)
 Second derivative matrix not updated -- first step.
 The second derivative matrix:
                          X1        Y1        Z1        X2        Y2
           X1           0.76149
           Y1           0.09646   0.85932
           Z1           0.00437   0.00699   0.17113
           X2          -0.16477   0.09661   0.00166   0.14207
           Y2           0.10278  -0.28517  -0.00584  -0.11599   0.27393
           Z2           0.00260  -0.00732  -0.05506  -0.00238   0.00605
           X3          -0.35509  -0.00093  -0.00623  -0.00015  -0.00008
           Y3          -0.00693  -0.11059  -0.00153   0.03258   0.01892
           Z3          -0.00799  -0.00147  -0.05608   0.00118   0.00044
           X4          -0.26671  -0.17765  -0.00059   0.02286   0.01329
           Y4          -0.17811  -0.47176  -0.00101  -0.01321  -0.00768
           Z4           0.00100   0.00176  -0.09419  -0.00047  -0.00065
           X5           0.02343  -0.01353   0.00048  -0.00000   0.00000
           Y5           0.01179  -0.00681   0.00065   0.00000  -0.00000
           Z5          -0.00039   0.00024   0.01729   0.00020  -0.00010
           X6           0.00165  -0.00095   0.00031  -0.00000   0.00000
           Y6          -0.02599   0.01501   0.00073   0.00000  -0.00000
           Z6           0.00041  -0.00022   0.01691  -0.00020   0.00010
                          Z2        X3        Y3        Z3        X4
           Z2           0.02856
           X3          -0.00023   0.35514
           Y3           0.00125   0.00108   0.07623
           Z3           0.01060   0.00679   0.00103   0.02936
           X4           0.00039   0.00011  -0.02673  -0.00038   0.71219
           Y4          -0.00021  -0.00007   0.01544   0.00024   0.12039
           Z4           0.01588  -0.00033  -0.00075   0.01615  -0.00409
           X5          -0.00019  -0.00000   0.00000   0.00020  -0.14696
           Y5           0.00012   0.00000  -0.00000  -0.00012   0.09293
           Z5           0.00923   0.00020  -0.00012  -0.00937  -0.00239
           X6          -0.00020  -0.00000   0.00000   0.00020  -0.32150
           Y6           0.00011   0.00000  -0.00000  -0.00011  -0.02222
           Z6          -0.00920  -0.00020   0.00012   0.00934   0.00705
                          Y4        Z4        X5        Y5        Z5
           Y4           0.85733
           Z4          -0.00752   0.17546
           X5           0.08475  -0.00156   0.12561
           Y5          -0.28868   0.00566  -0.10369   0.27917
           Z5           0.00703  -0.05683   0.00211  -0.00602   0.02945
           X6          -0.01376   0.00545  -0.00207  -0.00104   0.00028
           Y6          -0.10465   0.00149   0.03246   0.01633  -0.00103
           Z6           0.00147  -0.05647  -0.00103  -0.00028   0.01023
                          X6        Y6        Z6
           X6           0.32193
           Y6           0.01575   0.07332
           Z6          -0.00604  -0.00120   0.02919
 ITU=  0
     Eigenvalues ---    0.03717   0.04387   0.09325   0.09968   0.13516
     Eigenvalues ---    0.17492   0.26386   0.29041   0.52982   0.70220
     Eigenvalues ---    0.97718   1.56034
 Angle between quadratic step and forces=  33.14 degrees.
 Linear search not attempted -- first point.
 B after Tr=     0.006150    0.007373   -0.007767
         Rot=    1.000000   -0.000028    0.000015   -0.000119 Ang=  -0.01 deg.
 Variable       Old X    -DE/DX   Delta X   Delta X   Delta X     New X
                                 (Linear)    (Quad)   (Total)
    X1       -0.63520   0.01435   0.00000   0.02024   0.02665  -0.60856
    Y1       -1.09955   0.00984   0.00000   0.02350   0.03073  -1.06882
    Z1        0.01028  -0.00301   0.00000  -0.01643  -0.02428  -0.01399
    X2        0.40581  -0.00868   0.00000  -0.03066  -0.02383   0.38198
    Y2       -2.88904   0.00516   0.00000   0.02303   0.03049  -2.85856
    Z2       -0.03224   0.00152   0.00000   0.02017   0.01226  -0.01998
    X3       -2.68299   0.00125   0.00000   0.02321   0.02962  -2.65337
    Y3       -1.10761  -0.00455   0.00000  -0.01740  -0.01066  -1.11827
    Z3       -0.03240   0.00138   0.00000   0.01978   0.01187  -0.02053
    X4        0.63034   0.00831   0.00000   0.00520   0.01108   0.64143
    Y4        1.09133   0.00854   0.00000   0.00704   0.01456   1.10590
    Z4        0.00821  -0.00333   0.00000  -0.01571  -0.02340  -0.01519
    X5       -0.30875   0.00238   0.00000  -0.00785  -0.00239  -0.31114
    Y5        2.95552  -0.01345   0.00000  -0.04302  -0.03572   2.91980
    Z5       -0.03552   0.00167   0.00000   0.01957   0.01196  -0.02357
    X6        2.72861  -0.01762   0.00000  -0.04700  -0.04113   2.68748
    Y6        1.22385  -0.00554   0.00000  -0.03741  -0.02940   1.19445
    Z6       -0.03545   0.00176   0.00000   0.01921   0.01159  -0.02386
         Item               Value     Threshold  Converged?
 Maximum Force            0.017617     0.000450     NO 
 RMS     Force            0.007913     0.000300     NO 
 Maximum Displacement     0.041133     0.001800     NO 
 RMS     Displacement     0.023595     0.001200     NO 
 Predicted change in Energy=-1.470072D-03
 GradGradGradGradGradGradGradGradGradGradGradGradGradGradGradGradGradGrad

 Unable to Open any file for archive entry.
 1\1\GINC-BHD0010\Force\RwB97XD\6-311G\C2H4\BWEIGHT\11-Jan-2023\0\\# WB
 97XD/6-311G SCF=XQC FORCE nosym pop=full guess=read\\MD Step 1000\\0,1
 \C,-0.33613465,-0.58185675,0.00544217\H,0.21474661,-1.52881602,-0.0170
 6219\H,-1.4197797,-0.58612159,-0.01714789\C,0.33356349,0.57750809,0.00
 434589\H,-0.16338335,1.56399172,-0.01879748\H,1.44391729,0.64763235,-0
 .01875788\\Version=ES64L-G16RevC.01\HF=-78.5558653\RMSD=5.419e-09\RMSF
 =7.913e-03\Dipole=0.0000152,0.0073751,-0.0298153\Quadrupole=0.8639175,
 0.8529736,-1.7168911,0.0109263,-0.0007957,-0.0013229\PG=C01 [X(C2H4)]\
 \@
 The archive entry for this job was punched.


 WE MIGHT AS WELL ATTEMPT TO INTRODUCE A NEW PLANET 
 INTO THE SOLAR SYSTEM, OR TO ANNIHILATE ONE ALREADYIN EXISTENCE, 
 AS TO CREATE OR DESTROY A PARTICLE OF HYDROGEN.
 ALL THE CHANGES WE CAN PRODUCE CONSIST IN SEPARATING PARTICLES
 THAT ARE IN A STATE OF ... COMBINATION, AND JOINING 
 THOSE THAT WERE PREVIOUSLY AT A DISTANCE.

                                    -- JOHN DALTON, 1810
 Job cpu time:       0 days  0 hours  0 minutes 53.8 seconds.
 Elapsed time:       0 days  0 hours  0 minutes 20.6 seconds.
 File lengths (MBytes):  RWF=    272 Int=      0 D2E=      0 Chk=     32 Scr=     32
 Normal termination of Gaussian 16 at Wed Jan 11 18:36:37 2023.
