 Entering Gaussian System, Link 0=g16
 Initial command:
 /software/gaussian/g16-c01/avx2/g16/l1.exe "/gpfs/fs2/scratch/bweight/software/many_molecule_many_mode_NAMD/src/NAMD/TEST_NVT/TRAJ/traj-25/G16/GS_NEW/Gau-10900.inp" -scrdir="/gpfs/fs2/scratch/bweight/software/many_molecule_many_mode_NAMD/src/NAMD/TEST_NVT/TRAJ/traj-25/G16/GS_NEW/"
 Entering Link 1 = /software/gaussian/g16-c01/avx2/g16/l1.exe PID=     10901.
  
 Copyright (c) 1988-2019, Gaussian, Inc.  All Rights Reserved.
  
 This is part of the Gaussian(R) 16 program.  It is based on
 the Gaussian(R) 09 system (copyright 2009, Gaussian, Inc.),
 the Gaussian(R) 03 system (copyright 2003, Gaussian, Inc.),
 the Gaussian(R) 98 system (copyright 1998, Gaussian, Inc.),
 the Gaussian(R) 94 system (copyright 1995, Gaussian, Inc.),
 the Gaussian 92(TM) system (copyright 1992, Gaussian, Inc.),
 the Gaussian 90(TM) system (copyright 1990, Gaussian, Inc.),
 the Gaussian 88(TM) system (copyright 1988, Gaussian, Inc.),
 the Gaussian 86(TM) system (copyright 1986, Carnegie Mellon
 University), and the Gaussian 82(TM) system (copyright 1983,
 Carnegie Mellon University). Gaussian is a federally registered
 trademark of Gaussian, Inc.
  
 This software contains proprietary and confidential information,
 including trade secrets, belonging to Gaussian, Inc.
  
 This software is provided under written license and may be
 used, copied, transmitted, or stored only in accord with that
 written license.
  
 The following legend is applicable only to US Government
 contracts under FAR:
  
                    RESTRICTED RIGHTS LEGEND
  
 Use, reproduction and disclosure by the US Government is
 subject to restrictions as set forth in subparagraphs (a)
 and (c) of the Commercial Computer Software - Restricted
 Rights clause in FAR 52.227-19.
  
 Gaussian, Inc.
 340 Quinnipiac St., Bldg. 40, Wallingford CT 06492
  
  
 ---------------------------------------------------------------
 Warning -- This program may not be used in any manner that
 competes with the business of Gaussian, Inc. or will provide
 assistance to any competitor of Gaussian, Inc.  The licensee
 of this program is prohibited from giving any competitor of
 Gaussian, Inc. access to this program.  By using this program,
 the user acknowledges that Gaussian, Inc. is engaged in the
 business of creating and licensing software in the field of
 computational chemistry and represents and warrants to the
 licensee that it is not a competitor of Gaussian, Inc. and that
 it will not use this program in any manner prohibited above.
 ---------------------------------------------------------------
  

 Cite this work as:
 Gaussian 16, Revision C.01,
 M. J. Frisch, G. W. Trucks, H. B. Schlegel, G. E. Scuseria, 
 M. A. Robb, J. R. Cheeseman, G. Scalmani, V. Barone, 
 G. A. Petersson, H. Nakatsuji, X. Li, M. Caricato, A. V. Marenich, 
 J. Bloino, B. G. Janesko, R. Gomperts, B. Mennucci, H. P. Hratchian, 
 J. V. Ortiz, A. F. Izmaylov, J. L. Sonnenberg, D. Williams-Young, 
 F. Ding, F. Lipparini, F. Egidi, J. Goings, B. Peng, A. Petrone, 
 T. Henderson, D. Ranasinghe, V. G. Zakrzewski, J. Gao, N. Rega, 
 G. Zheng, W. Liang, M. Hada, M. Ehara, K. Toyota, R. Fukuda, 
 J. Hasegawa, M. Ishida, T. Nakajima, Y. Honda, O. Kitao, H. Nakai, 
 T. Vreven, K. Throssell, J. A. Montgomery, Jr., J. E. Peralta, 
 F. Ogliaro, M. J. Bearpark, J. J. Heyd, E. N. Brothers, K. N. Kudin, 
 V. N. Staroverov, T. A. Keith, R. Kobayashi, J. Normand, 
 K. Raghavachari, A. P. Rendell, J. C. Burant, S. S. Iyengar, 
 J. Tomasi, M. Cossi, J. M. Millam, M. Klene, C. Adamo, R. Cammi, 
 J. W. Ochterski, R. L. Martin, K. Morokuma, O. Farkas, 
 J. B. Foresman, and D. J. Fox, Gaussian, Inc., Wallingford CT, 2019.
 
 ******************************************
 Gaussian 16:  ES64L-G16RevC.01  3-Jul-2019
                11-Jan-2023 
 ******************************************
 %oldchk=../GS_OLD/geometry.chk
 %chk=geometry.chk
 %nprocshared=4
 Will use up to    4 processors via shared memory.
 %mem=5GB
 Copying data from "../GS_OLD/geometry.chk" to current chk file "geometry.chk"
 IOpt=  2 FromEx=T IUOpen= 4 IOptOp= 5 NList=   0 IFRang= 0 IUIn= 4 IUOut= 2.
 -------------------------------------------------------
 # WB97XD/6-311G SCF=XQC FORCE nosym pop=full guess=read
 -------------------------------------------------------
 1/10=7,30=1,38=1/1,3;
 2/12=2,15=1,17=6,18=5,40=1/2;
 3/5=4,6=6,11=2,25=1,30=1,71=1,74=-58,116=-2/1,2,3;
 4/5=1/1;
 5/5=2,8=3,13=1,38=6/2,8;
 6/7=3,28=1/1;
 7/29=1,30=1/1,2,3,16;
 1/10=7,30=1/3;
 99//99;
 -----------
 MD Step 999
 -----------
 Symbolic Z-matrix:
 Charge =  0 Multiplicity = 1
 C                    -0.33558  -0.58073   0.00511 
 H                     0.21149  -1.52862  -0.01641 
 H                    -1.42024  -0.59573  -0.01714 
 C                     0.33298   0.57712   0.00427 
 H                    -0.16582   1.56889  -0.01906 
 H                     1.44668   0.63946  -0.01818 
 

 GradGradGradGradGradGradGradGradGradGradGradGradGradGradGradGradGradGrad
 Berny optimization.
 Initialization pass.
 Trust Radius=3.00D-01 FncErr=1.00D-07 GrdErr=1.00D-07 EigMax=2.50D+02 EigMin=1.00D-04
 Number of steps in this run=      2 maximum allowed number of steps=      2.
 GradGradGradGradGradGradGradGradGradGradGradGradGradGradGradGradGradGrad

                          Input orientation:                          
 ---------------------------------------------------------------------
 Center     Atomic      Atomic             Coordinates (Angstroms)
 Number     Number       Type             X           Y           Z
 ---------------------------------------------------------------------
      1          6           0       -0.335585   -0.580730    0.005114
      2          1           0        0.211486   -1.528618   -0.016410
      3          1           0       -1.420240   -0.595732   -0.017144
      4          6           0        0.332977    0.577125    0.004271
      5          1           0       -0.165821    1.568888   -0.019060
      6          1           0        1.446680    0.639459   -0.018182
 ---------------------------------------------------------------------
                    Distance matrix (angstroms):
                    1          2          3          4          5
     1  C    0.000000
     2  H    1.094642   0.000000
     3  H    1.084987   1.879576   0.000000
     4  C    1.337013   2.109346   2.109460   0.000000
     5  H    2.156446   3.120402   2.501829   1.110378   0.000000
     6  H    2.160063   2.495249   3.121687   1.115672   1.861182
                    6
     6  H    0.000000
 Symmetry turned off by external request.
 Stoichiometry    C2H4
 Framework group  C1[X(C2H4)]
 Deg. of freedom    12
 Full point group                 C1      NOp   1
 Rotational constants (GHZ):         143.2643710          29.6900956          24.5975041
 Standard basis: 6-311G (5D, 7F)
    38 basis functions,    72 primitive gaussians,    38 cartesian basis functions
     8 alpha electrons        8 beta electrons
       nuclear repulsion energy        33.0618921313 Hartrees.
 NAtoms=    6 NActive=    6 NUniq=    6 SFac= 1.00D+00 NAtFMM=   60 NAOKFM=F Big=F
 Integral buffers will be    131072 words long.
 Raffenetti 2 integral format.
 Two-electron integral symmetry is turned off.
 Nuclear repulsion after empirical dispersion term =       33.0610511443 Hartrees.
 One-electron integrals computed using PRISM.
 NBasis=    38 RedAO= T EigKep=  6.41D-03  NBF=    38
 NBsUse=    38 1.00D-06 EigRej= -1.00D+00 NBFU=    38
 Initial guess from the checkpoint file:  "geometry.chk"
 B after Tr=    -0.000208   -0.000362   -0.000466
         Rot=    1.000000   -0.000000    0.000001    0.000003 Ang=  -0.00 deg.
 Keep R1 ints in memory in canonical form, NReq=4036876.
 Requested convergence on RMS density matrix=1.00D-08 within  32 cycles.
 Requested convergence on MAX density matrix=1.00D-06.
 Requested convergence on             energy=1.00D-06.
 No special actions if energy rises.
 SCF Done:  E(RwB97XD) =  -78.5558363601     A.U. after    8 cycles
            NFock=  8  Conv=0.56D-08     -V/T= 2.0052
 QCSCF skips out because SCF is already converged.

 **********************************************************************

            Population analysis using the SCF Density.

 **********************************************************************

 Alpha  occ. eigenvalues --  -10.29119 -10.28751  -0.86386  -0.67181  -0.55893
 Alpha  occ. eigenvalues --   -0.50974  -0.43607  -0.35709
 Alpha virt. eigenvalues --    0.08012   0.14086   0.16433   0.16987   0.24073
 Alpha virt. eigenvalues --    0.37576   0.39251   0.39758   0.46318   0.48780
 Alpha virt. eigenvalues --    0.49361   0.59109   0.66509   0.69051   0.77185
 Alpha virt. eigenvalues --    0.77631   0.84367   0.95301   2.23195   2.28943
 Alpha virt. eigenvalues --    2.33290   2.40712   2.67122   2.81789   2.87814
 Alpha virt. eigenvalues --    2.95168   3.14072   3.31831  23.35144  23.70653
     Molecular Orbital Coefficients:
                           1         2         3         4         5
                           O         O         O         O         O
     Eigenvalues --   -10.29119 -10.28751  -0.86386  -0.67181  -0.55893
   1 1   C  1S          0.06813   0.55925  -0.08864   0.06648  -0.00029
   2        2S          0.05627   0.46027  -0.14010   0.10649  -0.00048
   3        2PX         0.00016  -0.00000   0.02613   0.03746   0.13745
   4        2PY         0.00028  -0.00000   0.04615   0.06205  -0.07444
   5        2PZ         0.00000  -0.00000  -0.00089   0.00137   0.00014
   6        3S          0.00090   0.01462   0.37570  -0.29058   0.00129
   7        3PX        -0.00063   0.00039   0.03440   0.05993   0.21517
   8        3PY        -0.00109   0.00070   0.06033   0.10019  -0.11727
   9        3PZ        -0.00001  -0.00002  -0.00150   0.00244   0.00021
  10        4S          0.00419  -0.01447   0.19177  -0.22632   0.00076
  11        4PX         0.00159  -0.00146   0.00484   0.02424   0.11177
  12        4PY         0.00273  -0.00249   0.00837   0.04120  -0.06147
  13        4PZ        -0.00000   0.00006  -0.00053   0.00123   0.00010
  14 2   H  1S         -0.00004  -0.00007   0.05290  -0.08842   0.10248
  15        2S         -0.00031   0.00009   0.05397  -0.10619   0.12965
  16        3S          0.00072   0.00174  -0.00165  -0.01547   0.04202
  17 3   H  1S         -0.00005  -0.00007   0.05385  -0.09158  -0.10494
  18        2S         -0.00031   0.00007   0.05461  -0.10915  -0.13183
  19        3S          0.00075   0.00176  -0.00168  -0.01617  -0.04268
  20 4   C  1S          0.55927  -0.06832  -0.08668  -0.06863   0.00005
  21        2S          0.46031  -0.05602  -0.13687  -0.11005   0.00010
  22        2PX        -0.00001  -0.00016  -0.02770   0.03684   0.11817
  23        2PY        -0.00002  -0.00028  -0.04742   0.06467  -0.07330
  24        2PZ        -0.00000   0.00000  -0.00074  -0.00141   0.00014
  25        3S          0.01422  -0.00263   0.36678   0.30071  -0.00030
  26        3PX        -0.00025   0.00071  -0.03479   0.05993   0.18527
  27        3PY        -0.00043   0.00123  -0.05958   0.10492  -0.11408
  28        3PZ        -0.00002  -0.00000  -0.00128  -0.00256   0.00022
  29        4S         -0.01274   0.00763   0.18879   0.23874  -0.00141
  30        4PX         0.00100  -0.00185  -0.00542   0.02590   0.10175
  31        4PY         0.00172  -0.00324  -0.00928   0.04472  -0.06226
  32        4PZ         0.00005  -0.00001  -0.00052  -0.00132   0.00012
  33 5   H  1S         -0.00005  -0.00004   0.04904   0.09227  -0.08966
  34        2S         -0.00001  -0.00031   0.05048   0.11083  -0.11356
  35        3S          0.00177   0.00026  -0.00123   0.01657  -0.03649
  36 6   H  1S         -0.00004  -0.00004   0.04846   0.09114   0.08574
  37        2S         -0.00000  -0.00032   0.05014   0.10986   0.10891
  38        3S          0.00175   0.00025  -0.00123   0.01626   0.03531
                           6         7         8         9        10
                           O         O         O         V         V
     Eigenvalues --    -0.50974  -0.43607  -0.35709   0.08012   0.14086
   1 1   C  1S         -0.00434   0.00014  -0.00067   0.00188  -0.03218
   2        2S         -0.00659   0.00026  -0.00110   0.00311  -0.05158
   3        2PX         0.09426  -0.11121  -0.00237   0.00102  -0.03153
   4        2PY         0.16751   0.06596  -0.00404   0.00167  -0.06341
   5        2PZ         0.00357   0.00000   0.17943  -0.18900  -0.00148
   6        3S          0.02384  -0.00062   0.00320  -0.00944   0.11161
   7        3PX         0.13705  -0.17734  -0.00335   0.00154  -0.03750
   8        3PY         0.24483   0.10539  -0.00570   0.00251  -0.07860
   9        3PZ         0.00566   0.00002   0.28862  -0.27810  -0.00239
  10        4S         -0.04850  -0.00271   0.00476  -0.01013   1.19227
  11        4PX         0.06925  -0.11053  -0.00271   0.00883  -0.19530
  12        4PY         0.12465   0.06648  -0.00462   0.01464  -0.38138
  13        4PZ         0.00321   0.00004   0.26701  -0.69633  -0.00880
  14 2   H  1S         -0.07984  -0.11531   0.00012   0.00292  -0.01526
  15        2S         -0.11004  -0.17798   0.00142   0.00456  -0.04481
  16        3S         -0.04113  -0.08241   0.00085   0.01202  -0.81020
  17 3   H  1S         -0.07882   0.11297   0.00007   0.00292  -0.01210
  18        2S         -0.10805   0.17380   0.00137   0.00465  -0.03737
  19        3S         -0.04007   0.08034   0.00082   0.01192  -0.75770
  20 4   C  1S         -0.00761  -0.00040  -0.00059  -0.00189  -0.03737
  21        2S         -0.01186  -0.00066  -0.00096  -0.00314  -0.06003
  22        2PX        -0.09854   0.12408   0.00231   0.00118   0.04092
  23        2PY        -0.16276  -0.07338   0.00423   0.00220   0.06303
  24        2PZ         0.00373   0.00015   0.17932   0.18958  -0.00235
  25        3S          0.03895   0.00196   0.00283   0.00937   0.13296
  26        3PX        -0.14557   0.19910   0.00323   0.00180   0.04991
  27        3PY        -0.23907  -0.11735   0.00594   0.00335   0.07472
  28        3PZ         0.00590   0.00022   0.28688   0.27775  -0.00355
  29        4S         -0.03476   0.00200   0.00467   0.01147   1.26974
  30        4PX        -0.07566   0.12776   0.00250   0.00907   0.26305
  31        4PY        -0.12316  -0.07447   0.00470   0.01649   0.41685
  32        4PZ         0.00342   0.00013   0.26702   0.69758  -0.01369
  33 5   H  1S         -0.07536  -0.12439   0.00016  -0.00287  -0.01402
  34        2S         -0.10345  -0.19467   0.00149  -0.00486  -0.04025
  35        3S         -0.03858  -0.09164   0.00082  -0.01292  -0.84334
  36 6   H  1S         -0.08055   0.12391   0.00010  -0.00287  -0.01692
  37        2S         -0.11087   0.19443   0.00141  -0.00482  -0.04799
  38        3S         -0.04149   0.09141   0.00078  -0.01293  -0.89697
                          11        12        13        14        15
                           V         V         V         V         V
     Eigenvalues --     0.16433   0.16987   0.24073   0.37576   0.39251
   1 1   C  1S          0.00014  -0.04606  -0.00003   0.01114   0.00119
   2        2S          0.00021  -0.07505  -0.00005   0.01574   0.00198
   3        2PX         0.09601  -0.02263   0.10054  -0.03696  -0.02430
   4        2PY        -0.05393  -0.03740  -0.05772  -0.06762   0.00852
   5        2PZ        -0.00001  -0.00468   0.00003  -0.00325  -0.00013
   6        3S         -0.00026   0.16932   0.00017   0.02947  -0.00360
   7        3PX         0.13808  -0.01502   0.10692  -0.04966  -0.10816
   8        3PY        -0.07782  -0.02428  -0.06206  -0.09580   0.04510
   9        3PZ        -0.00001  -0.00649  -0.00000  -0.00642  -0.00016
  10        4S         -0.01890   1.46340  -0.00613  -2.80255  -0.19872
  11        4PX         0.57097  -0.13584   1.17154  -1.59514  -0.54330
  12        4PY        -0.31314  -0.21106  -0.66561  -2.79263   0.15836
  13        4PZ         0.00002  -0.03064   0.00060  -0.03032  -0.00159
  14 2   H  1S         -0.03014  -0.02473   0.01338  -0.05381   0.07619
  15        2S         -0.08140  -0.01636  -0.02224  -0.62215   0.77909
  16        3S         -1.04261  -1.00358  -1.56180  -0.35353  -0.32966
  17 3   H  1S          0.02879  -0.02522  -0.01515  -0.04662  -0.07653
  18        2S          0.08012  -0.02162   0.01758  -0.56557  -0.76402
  19        3S          1.06450  -1.04973   1.57860  -0.41747   0.25743
  20 4   C  1S          0.00181   0.04187   0.00001  -0.01990  -0.00008
  21        2S          0.00291   0.06818  -0.00000  -0.03247   0.00011
  22        2PX         0.10191  -0.02381  -0.09992  -0.04234  -0.03101
  23        2PY        -0.06253  -0.03570   0.05729  -0.07489   0.01440
  24        2PZ         0.00022   0.00455  -0.00003   0.00255   0.00022
  25        3S         -0.00612  -0.15218   0.00022   0.03850  -0.00588
  26        3PX         0.14692  -0.01942  -0.11292  -0.09311  -0.10708
  27        3PY        -0.08867  -0.02510   0.06402  -0.16791   0.06132
  28        3PZ         0.00031   0.00629  -0.00002   0.00342   0.00046
  29        4S         -0.07148  -1.30559  -0.00222   3.41635   0.15648
  30        4PX         0.54256  -0.11864  -1.11985  -1.26470  -0.54950
  31        4PY        -0.33659  -0.18544   0.65267  -2.21411   0.07731
  32        4PZ         0.00134   0.02946  -0.00062   0.02533   0.00187
  33 5   H  1S          0.03225   0.02490   0.00610   0.01369  -0.08032
  34        2S          0.07044   0.02231  -0.03476   0.11356  -0.78362
  35        3S          1.09196   0.90161  -1.50145   0.45875   0.48388
  36 6   H  1S         -0.03111   0.02639  -0.00523   0.00893   0.08726
  37        2S         -0.06939   0.02223   0.03495   0.06905   0.88770
  38        3S         -0.99522   0.93871   1.49710   0.47670  -0.45547
                          16        17        18        19        20
                           V         V         V         V         V
     Eigenvalues --     0.39758   0.46318   0.48780   0.49361   0.59109
   1 1   C  1S         -0.01682   0.01365  -0.04630   0.00015  -0.00038
   2        2S         -0.02987   0.03086  -0.07726   0.00044  -0.00069
   3        2PX         0.02289  -0.06137   0.01041   0.00073   0.00142
   4        2PY         0.04301  -0.10766   0.01448   0.00107   0.00222
   5        2PZ        -0.00002  -0.00041   0.00227  -0.15159  -0.19271
   6        3S          0.07485  -0.33845   0.08455  -0.00739  -0.00038
   7        3PX         0.09446  -0.23905  -0.03816   0.00059   0.00480
   8        3PY         0.18139  -0.41765  -0.07279   0.00029   0.00749
   9        3PZ        -0.00318  -0.00325   0.01068  -0.62779  -0.68569
  10        4S          2.40160  -0.02039   3.17989   0.03800   0.04800
  11        4PX         0.09540   0.19329   0.81084   0.01348   0.01429
  12        4PY         0.21631   0.35246   1.39714   0.02438   0.02627
  13        4PZ        -0.00217   0.00162  -0.05555   0.68591   1.24183
  14 2   H  1S         -0.02798  -0.03355  -0.07707  -0.00122  -0.00114
  15        2S         -0.55870  -0.31497  -0.93080  -0.01025  -0.00803
  16        3S          0.25760   0.04921   0.63424   0.01563   0.01601
  17 3   H  1S         -0.03662  -0.03431  -0.07607  -0.00120  -0.00113
  18        2S         -0.63990  -0.32276  -0.91055  -0.01012  -0.00784
  19        3S          0.27391   0.04706   0.61432   0.01538   0.01579
  20 4   C  1S         -0.00316  -0.00403   0.05102   0.00171   0.00047
  21        2S         -0.00870   0.00088   0.08890   0.00313   0.00089
  22        2PX         0.00563   0.05434   0.02906  -0.00014   0.00141
  23        2PY         0.01264   0.09322   0.05091  -0.00038   0.00266
  24        2PZ        -0.00249  -0.00118   0.00237  -0.15295   0.19225
  25        3S          0.08250  -0.28074  -0.23952  -0.01311  -0.00164
  26        3PX        -0.05044   0.23478   0.06043  -0.00025   0.00491
  27        3PY        -0.07428   0.40557   0.10366  -0.00108   0.00926
  28        3PZ        -0.00728  -0.00482   0.00805  -0.63193   0.68200
  29        4S         -0.56369   0.87625  -3.05325  -0.05147  -0.04253
  30        4PX         1.12668  -0.39187   0.62965   0.00549   0.01563
  31        4PY         2.03569  -0.67315   1.08869   0.00963   0.02543
  32        4PZ        -0.02120  -0.01174   0.02991   0.69386  -1.23759
  33 5   H  1S         -0.05077  -0.06442   0.06267   0.00113   0.00111
  34        2S         -0.86275  -0.64818   0.77402   0.01783   0.00452
  35        3S         -0.11726   0.29932  -0.56174  -0.00270  -0.01592
  36 6   H  1S         -0.04169  -0.06430   0.06225   0.00112   0.00111
  37        2S         -0.76153  -0.64777   0.77116   0.01759   0.00436
  38        3S         -0.15644   0.31092  -0.56760  -0.00299  -0.01601
                          21        22        23        24        25
                           V         V         V         V         V
     Eigenvalues --     0.66509   0.69051   0.77185   0.77631   0.84367
   1 1   C  1S          0.00056  -0.00078   0.05319   0.07205   0.00106
   2        2S          0.00119  -0.00165   0.11223   0.15362   0.00243
   3        2PX        -0.12131   0.20523  -0.02288   0.11388  -0.00821
   4        2PY         0.07040  -0.12214  -0.04012   0.18703   0.01288
   5        2PZ        -0.00005   0.00009   0.00053   0.00338   0.00007
   6        3S         -0.01022   0.01642  -0.76206  -1.33208  -0.02641
   7        3PX        -0.57854   0.72819  -0.16504   0.44760  -0.21977
   8        3PY         0.33273  -0.43318  -0.28683   0.72556   0.15897
   9        3PZ        -0.00030   0.00034   0.00197   0.01183   0.00021
  10        4S          0.01782  -0.04520   0.75610   2.46299   0.03599
  11        4PX         1.08684  -0.82591   0.13800  -0.75406   4.49451
  12        4PY        -0.62165   0.51189   0.18373  -1.01867  -2.54448
  13        4PZ         0.00036   0.00067   0.00576  -0.03823   0.00282
  14 2   H  1S          0.01967  -0.06034   0.01141   0.03210  -0.02684
  15        2S          0.08407  -0.64926   0.08130   0.09590  -1.55500
  16        3S         -0.98851   1.16492  -0.12043  -1.10804  -1.22656
  17 3   H  1S         -0.01907   0.05955   0.01164   0.03259   0.03019
  18        2S         -0.09529   0.67045   0.10192   0.06086   1.58931
  19        3S          0.98448  -1.12374  -0.11377  -1.24054   1.22148
  20 4   C  1S          0.00079  -0.00045   0.08468   0.02870   0.00073
  21        2S          0.00161  -0.00092   0.18020   0.06039   0.00145
  22        2PX        -0.16114  -0.17630  -0.09623   0.05458   0.01258
  23        2PY         0.09282   0.09890  -0.17075   0.09987  -0.00067
  24        2PZ        -0.00008  -0.00011   0.00347  -0.00080  -0.00006
  25        3S         -0.01193   0.00330  -1.50209  -0.33356  -0.00554
  26        3PX        -0.71268  -0.58413  -0.34878   0.28551   0.25105
  27        3PY         0.41249   0.32469  -0.62335   0.52167  -0.11243
  28        3PZ        -0.00038  -0.00035   0.01226  -0.00300  -0.00008
  29        4S          0.00661   0.00919   2.69479   0.04744  -0.04717
  30        4PX         1.28015   0.66271   0.51640  -0.25070  -4.19635
  31        4PY        -0.73702  -0.35480   0.98000  -0.68238   2.42468
  32        4PZ         0.00067  -0.00042  -0.03591   0.01837  -0.00260
  33 5   H  1S         -0.02857  -0.05389   0.03491   0.00191  -0.02371
  34        2S         -0.18350  -0.54964   0.06565   0.07588  -1.42213
  35        3S          1.15393   0.90769  -1.13630   0.31952  -1.10054
  36 6   H  1S          0.02917   0.05375   0.03474   0.00226   0.02332
  37        2S          0.17970   0.53353   0.07088   0.01893   1.41408
  38        3S         -1.15727  -0.92605  -1.08950   0.24738   1.11129
                          26        27        28        29        30
                           V         V         V         V         V
     Eigenvalues --     0.95301   2.23195   2.28943   2.33290   2.40712
   1 1   C  1S          0.09561  -0.01065  -0.01447  -0.00030  -0.00039
   2        2S          0.19865   0.00067  -0.01496  -0.00063  -0.00052
   3        2PX        -0.09177  -0.08482  -0.13123  -0.33591  -0.41504
   4        2PY        -0.15886  -0.15732  -0.23069   0.19065   0.23304
   5        2PZ         0.00007  -0.00950  -0.01237  -0.00010  -0.00045
   6        3S         -1.53767  -0.18357  -0.03052   0.00057  -0.00349
   7        3PX        -0.23513   0.08388   0.20891   0.39960   0.57846
   8        3PY        -0.40120   0.16717   0.37712  -0.22874  -0.32555
   9        3PZ        -0.00187   0.00949   0.01549   0.00004   0.00051
  10        4S          5.71644  -0.12892  -0.89423   0.00023  -0.00517
  11        4PX         1.19804   0.05042  -0.18642   0.02216   0.97728
  12        4PY         1.99175   0.06926  -0.35450  -0.00482  -0.53684
  13        4PZ        -0.01226   0.00245   0.00565   0.00013   0.00102
  14 2   H  1S          0.01541  -0.72562  -0.77659   0.69020   0.67138
  15        2S         -0.28972   1.03565   1.16619  -1.05207  -1.48510
  16        3S         -0.09197  -0.30795  -0.46455   0.46212   0.37939
  17 3   H  1S          0.01577  -0.71534  -0.77533  -0.68549  -0.68847
  18        2S         -0.26484   1.02148   1.17004   1.04732   1.52145
  19        3S         -0.07234  -0.28823  -0.44920  -0.45430  -0.37119
  20 4   C  1S         -0.09413  -0.00974   0.01205  -0.00030   0.00015
  21        2S         -0.19531   0.00128   0.01166  -0.00034   0.00038
  22        2PX        -0.09265   0.12917  -0.12698  -0.31484   0.41098
  23        2PY        -0.16019   0.22441  -0.21336   0.18262  -0.23875
  24        2PZ         0.00017  -0.01011   0.01248  -0.00028   0.00023
  25        3S          1.50996  -0.17209   0.02224  -0.00106  -0.00079
  26        3PX        -0.22903  -0.16372   0.21686   0.39648  -0.57618
  27        3PY        -0.40002  -0.28264   0.36062  -0.22860   0.33621
  28        3PZ         0.00238   0.01091  -0.01594   0.00032  -0.00032
  29        4S         -5.69160  -0.14553   0.88088  -0.01093  -0.01101
  30        4PX         1.11258  -0.01753  -0.20356  -0.08860  -0.86001
  31        4PY         1.99410  -0.03110  -0.32579   0.05060   0.50827
  32        4PZ         0.00937   0.00285  -0.00448   0.00002  -0.00085
  33 5   H  1S         -0.01818  -0.77487   0.69526  -0.71941   0.66748
  34        2S          0.28935   1.12061  -1.05847   1.05461  -1.43279
  35        3S          0.05492  -0.35321   0.41531  -0.51880   0.41554
  36 6   H  1S         -0.01803  -0.77068   0.71121   0.70705  -0.66864
  37        2S          0.30939   1.11378  -1.07627  -1.03494   1.42967
  38        3S          0.06770  -0.35141   0.43677   0.51449  -0.42179
                          31        32        33        34        35
                           V         V         V         V         V
     Eigenvalues --     2.67122   2.81789   2.87814   2.95168   3.14072
   1 1   C  1S          0.00034   0.00175  -0.01324  -0.00004  -0.00943
   2        2S          0.00027   0.00515  -0.04453  -0.00035  -0.02894
   3        2PX         0.00369   0.05037  -0.46377  -0.73370   0.45813
   4        2PY         0.00561   0.08907  -0.84081   0.41452   0.79749
   5        2PZ        -0.92277  -0.93680  -0.09806  -0.00081   0.00520
   6        3S         -0.00103  -0.04298   0.39357   0.00486   0.24357
   7        3PX        -0.00272  -0.08800   0.82966   0.88508  -0.44982
   8        3PY        -0.00404  -0.15421   1.47722  -0.48695  -0.78080
   9        3PZ         0.93722   1.14525   0.12321   0.00109  -0.00667
  10        4S          0.00884   0.09886  -0.87911  -0.01301  -0.47206
  11        4PX        -0.00138   0.07115  -0.71620  -0.66577   0.23433
  12        4PY        -0.00208   0.12515  -1.27294   0.35521   0.40563
  13        4PZ        -0.33681  -0.62065  -0.07817  -0.00086   0.00422
  14 2   H  1S          0.00831  -0.01464   0.26620  -0.37726  -0.21967
  15        2S         -0.00953   0.00956  -0.22315   0.38484   0.16671
  16        3S         -0.00210   0.02894  -0.30168   0.27398   0.06675
  17 3   H  1S          0.00843  -0.01445   0.25895   0.37791  -0.22082
  18        2S         -0.00981   0.00887  -0.21100  -0.38195   0.16607
  19        3S         -0.00232   0.02880  -0.29953  -0.28883   0.07586
  20 4   C  1S          0.00036  -0.00176   0.01389   0.00038  -0.00729
  21        2S          0.00035  -0.00542   0.04830   0.00091  -0.02328
  22        2PX        -0.00499   0.04641  -0.42151  -0.80115  -0.49470
  23        2PY        -0.00935   0.08213  -0.74299   0.44248  -0.88116
  24        2PZ        -0.92682   0.93232   0.10007   0.00017   0.00859
  25        3S         -0.00197   0.04646  -0.43321  -0.00698   0.20244
  26        3PX         0.00521  -0.08400   0.78645   0.95202   0.52300
  27        3PY         0.00966  -0.14765   1.37851  -0.51850   0.93966
  28        3PZ         0.94263  -1.14092  -0.12594  -0.00023  -0.01080
  29        4S          0.01102  -0.10150   0.91421   0.02187  -0.38782
  30        4PX        -0.00055   0.07118  -0.71636  -0.69725  -0.30937
  31        4PY        -0.00147   0.12399  -1.24762   0.37615  -0.56572
  32        4PZ        -0.33967   0.61884   0.08028   0.00014   0.00835
  33 5   H  1S          0.00818   0.01909  -0.29439   0.41707  -0.25875
  34        2S         -0.01009  -0.01540   0.26757  -0.43221   0.20426
  35        3S         -0.00087  -0.02654   0.27976  -0.24024   0.11815
  36 6   H  1S          0.00823   0.01897  -0.28963  -0.42789  -0.24485
  37        2S         -0.01033  -0.01562   0.26548   0.44171   0.19081
  38        3S         -0.00071  -0.02592   0.27158   0.24424   0.10925
                          36        37        38
                           V         V         V
     Eigenvalues --     3.31831  23.35144  23.70653
   1 1   C  1S         -0.00025  -1.41186  -1.45437
   2        2S         -0.00033   1.50565   1.57273
   3        2PX         0.78250  -0.00660   0.01209
   4        2PY        -0.43538  -0.01091   0.02109
   5        2PZ         0.00066  -0.00039  -0.00016
   6        3S         -0.00123  -0.29504  -0.40019
   7        3PX        -1.11960   0.02447  -0.05583
   8        3PY         0.61925   0.04095  -0.09689
   9        3PZ        -0.00102   0.00109   0.00048
  10        4S          0.00349   0.27075   0.77112
  11        4PX         1.97141  -0.02700   0.13383
  12        4PY        -1.08805  -0.04618   0.22918
  13        4PZ         0.00175  -0.00180  -0.00204
  14 2   H  1S          0.55837   0.01362   0.00739
  15        2S         -0.86998   0.00745  -0.01520
  16        3S         -0.46468  -0.08441  -0.03990
  17 3   H  1S         -0.56828   0.01502   0.00814
  18        2S          0.88427   0.00739  -0.01479
  19        3S          0.48812  -0.08628  -0.03944
  20 4   C  1S         -0.00008  -1.44955   1.41665
  21        2S         -0.00041   1.54603  -1.53212
  22        2PX        -0.71321   0.00590   0.01261
  23        2PY         0.40967   0.01043   0.02166
  24        2PZ        -0.00056  -0.00038   0.00010
  25        3S          0.00554  -0.30362   0.39054
  26        3PX         1.01348  -0.02187  -0.05669
  27        3PY        -0.59058  -0.03845  -0.09786
  28        3PZ         0.00084   0.00108  -0.00027
  29        4S         -0.02794   0.28231  -0.76058
  30        4PX        -1.78724   0.02253   0.13114
  31        4PY         1.05375   0.04042   0.22873
  32        4PZ        -0.00148  -0.00179   0.00161
  33 5   H  1S          0.48784   0.01232  -0.00397
  34        2S         -0.76515   0.00862   0.01293
  35        3S         -0.42514  -0.08250   0.03649
  36 6   H  1S         -0.48550   0.01154  -0.00346
  37        2S          0.76232   0.00923   0.01316
  38        3S          0.41669  -0.08130   0.03675
     Density Matrix:
                           1         2         3         4         5
   1 1   C  1S          0.65941
   2        2S          0.56153   0.49205
   3        2PX        -0.00056  -0.00076   0.08447
   4        2PY        -0.00128  -0.00178   0.00353   0.08789
   5        2PZ         0.00006   0.00010  -0.00008  -0.00019   0.06442
   6        3S         -0.08898  -0.15392   0.00284   0.00631  -0.00015
   7        3PX         0.00086   0.00132   0.13073   0.00113  -0.00006
   8        3PY         0.00124   0.00191   0.00116   0.13143  -0.00016
   9        3PZ         0.00012   0.00021  -0.00015  -0.00030   0.10363
  10        4S         -0.07929  -0.11416  -0.01528  -0.02714   0.00040
  11        4PX         0.00026   0.00157   0.07045  -0.00454  -0.00039
  12        4PY         0.00057   0.00291  -0.00464   0.06561  -0.00069
  13        4PZ        -0.00007  -0.00017  -0.00058  -0.00099   0.09585
  14 2   H  1S         -0.02061  -0.03283   0.03491  -0.06331  -0.00084
  15        2S         -0.02280  -0.03646   0.04934  -0.08785  -0.00063
  16        3S          0.00058  -0.00069   0.02088  -0.03298  -0.00002
  17 3   H  1S         -0.02103  -0.03347  -0.07288  -0.00228  -0.00091
  18        2S         -0.02310  -0.03688  -0.10060  -0.00216  -0.00072
  19        3S          0.00061  -0.00066  -0.03846   0.00136  -0.00004
  20 4   C  1S          0.00609   0.00982  -0.01082  -0.01881  -0.00030
  21        2S          0.00979   0.01530  -0.01731  -0.03010  -0.00049
  22        2PX         0.01044   0.01670  -0.01239  -0.03224   0.00031
  23        2PY         0.01811   0.02897  -0.03217  -0.04968   0.00060
  24        2PZ        -0.00033  -0.00053  -0.00029  -0.00045   0.06438
  25        3S         -0.02639  -0.04007   0.04852   0.08451   0.00147
  26        3PX         0.01611   0.02498  -0.01814  -0.04589   0.00040
  27        3PY         0.02793   0.04331  -0.04561  -0.07112   0.00079
  28        3PZ        -0.00056  -0.00090  -0.00050  -0.00078   0.10299
  29        4S          0.00537   0.00399   0.02034   0.03583   0.00174
  30        4PX         0.00311   0.00641  -0.01307  -0.02095   0.00047
  31        4PY         0.00528   0.01097  -0.02093  -0.03716   0.00093
  32        4PZ        -0.00048  -0.00077  -0.00075  -0.00122   0.09585
  33 5   H  1S          0.00419   0.00688  -0.00171  -0.01234  -0.00034
  34        2S          0.00634   0.01054   0.00352  -0.02503  -0.00002
  35        3S          0.00328   0.00481   0.00425  -0.01764   0.00006
  36 6   H  1S          0.00416   0.00684  -0.00982  -0.00762  -0.00035
  37        2S          0.00631   0.01051  -0.02336  -0.00946  -0.00004
  38        3S          0.00326   0.00479  -0.01730  -0.00520   0.00004
                           6         7         8         9        10
   6        3S          0.45277
   7        3PX        -0.00169   0.20263
   8        3PY        -0.00167  -0.00454   0.19703
   9        3PZ        -0.00043  -0.00011  -0.00025   0.16669
  10        4S          0.27293  -0.02599  -0.04679   0.00052   0.18121
  11        4PX        -0.00678   0.10954  -0.01014  -0.00064  -0.01503
  12        4PY        -0.01205  -0.01032   0.09878  -0.00111  -0.02793
  13        4PZ         0.00075  -0.00077  -0.00130   0.15417   0.00147
  14 2   H  1S          0.08773   0.05616  -0.09877  -0.00139   0.06884
  15        2S          0.09758   0.07973  -0.13659  -0.00106   0.08060
  16        3S          0.00605   0.03407  -0.05067  -0.00003   0.01083
  17 3   H  1S          0.08952  -0.11410  -0.00203  -0.00150   0.06898
  18        2S          0.09877  -0.15732  -0.00065  -0.00118   0.07970
  19        3S          0.00607  -0.05990   0.00387  -0.00007   0.01002
  20 4   C  1S         -0.02660  -0.01687  -0.02934  -0.00051   0.00522
  21        2S         -0.04027  -0.02620  -0.04560  -0.00082   0.00394
  22        2PX        -0.04676  -0.01767  -0.04580   0.00054  -0.01821
  23        2PY        -0.08106  -0.04567  -0.07079   0.00103  -0.03134
  24        2PZ         0.00159  -0.00039  -0.00059   0.10355   0.00170
  25        3S          0.10266   0.07109   0.12400   0.00245   0.00100
  26        3PX        -0.06763  -0.02602  -0.06500   0.00070  -0.02714
  27        3PY        -0.11722  -0.06456  -0.10128   0.00136  -0.04667
  28        3PZ         0.00264  -0.00068  -0.00105   0.16566   0.00282
  29        4S          0.00168   0.03075   0.05433   0.00290  -0.03258
  30        4PX        -0.02266  -0.01956  -0.02948   0.00078  -0.00692
  31        4PY        -0.03897  -0.02945  -0.05362   0.00154  -0.01140
  32        4PZ         0.00224  -0.00104  -0.00170   0.15417   0.00261
  33 5   H  1S         -0.02045  -0.00069  -0.01769  -0.00050  -0.01510
  34        2S         -0.03146   0.00857  -0.03677   0.00002  -0.01986
  35        3S         -0.01235   0.00812  -0.02649   0.00010  -0.00377
  36 6   H  1S         -0.02033  -0.01487  -0.00933  -0.00051  -0.01540
  37        2S         -0.03142  -0.03587  -0.01080  -0.00000  -0.02061
  38        3S         -0.01236  -0.02674  -0.00623   0.00008  -0.00423
                          11        12        13        14        15
  11        4PX         0.06026
  12        4PY        -0.00905   0.05108
  13        4PZ        -0.00094  -0.00158   0.14261
  14 2   H  1S          0.03357  -0.05424  -0.00071   0.08158
  15        2S          0.04845  -0.07490  -0.00025   0.10968   0.14957
  16        3S          0.02114  -0.02769   0.00016   0.03675   0.05239
  17 3   H  1S         -0.06327   0.00162  -0.00076  -0.01308  -0.02481
  18        2S         -0.08763   0.00428  -0.00030  -0.02477  -0.04319
  19        3S         -0.03366   0.00457   0.00014  -0.01820  -0.02759
  20 4   C  1S         -0.00314  -0.00566  -0.00045   0.00424   0.00669
  21        2S         -0.00650  -0.01161  -0.00072   0.00701   0.01117
  22        2PX        -0.01316  -0.02005   0.00076   0.00190  -0.00264
  23        2PY        -0.02005  -0.03683   0.00140   0.01144   0.02410
  24        2PZ        -0.00053  -0.00086   0.09578  -0.00039  -0.00010
  25        3S          0.02307   0.04099   0.00211  -0.02110  -0.03362
  26        3PX        -0.02021  -0.02827   0.00103   0.00103  -0.00726
  27        3PY        -0.02820  -0.05360   0.00192   0.01700   0.03611
  28        3PZ        -0.00087  -0.00141   0.15323  -0.00056  -0.00010
  29        4S          0.00775   0.01445   0.00266  -0.01744  -0.02373
  30        4PX        -0.01478  -0.01235   0.00095  -0.00168  -0.00852
  31        4PY        -0.01244  -0.02944   0.00182   0.01519   0.02698
  32        4PZ        -0.00105  -0.00173   0.14261  -0.00031   0.00021
  33 5   H  1S          0.00197  -0.01589  -0.00025   0.01122   0.02332
  34        2S          0.00918  -0.02775   0.00031   0.02388   0.04453
  35        3S          0.00755  -0.01597   0.00022   0.01676   0.02800
  36 6   H  1S         -0.01449  -0.00583  -0.00026  -0.00913  -0.01827
  37        2S         -0.02818  -0.00530   0.00029  -0.01894  -0.03448
  38        3S         -0.01728  -0.00121   0.00020  -0.01023  -0.01784
                          16        17        18        19        20
  16        3S          0.02099
  17 3   H  1S         -0.01830   0.08255
  18        2S         -0.02764   0.10984   0.14832
  19        3S         -0.01302   0.03621   0.05119   0.02030
  20 4   C  1S          0.00368   0.00429   0.00666   0.00365   0.65947
  21        2S          0.00542   0.00708   0.01109   0.00535   0.56154
  22        2PX        -0.00346   0.00904   0.02221   0.01665   0.00117
  23        2PY         0.01748   0.00751   0.00971   0.00558   0.00188
  24        2PZ         0.00003  -0.00038  -0.00008   0.00005   0.00005
  25        3S         -0.01405  -0.02122  -0.03324  -0.01373  -0.08920
  26        3PX        -0.00700   0.01433   0.03495   0.02603  -0.00050
  27        3PY         0.02638   0.00948   0.01156   0.00686  -0.00100
  28        3PZ         0.00007  -0.00056  -0.00006   0.00010   0.00012
  29        4S         -0.00558  -0.01717  -0.02290  -0.00512  -0.08027
  30        4PX        -0.00707   0.01411   0.02770   0.01709  -0.00019
  31        4PY         0.01582   0.00647   0.00638   0.00180  -0.00024
  32        4PZ         0.00020  -0.00031   0.00024   0.00022  -0.00004
  33 5   H  1S          0.01615  -0.00903  -0.01810  -0.00945  -0.01998
  34        2S          0.02746  -0.01870  -0.03405  -0.01705  -0.02221
  35        3S          0.01471  -0.01013  -0.01765  -0.00905   0.00054
  36 6   H  1S         -0.00957   0.01122   0.02327   0.01594  -0.01982
  37        2S         -0.01734   0.02382   0.04433   0.02711  -0.02219
  38        3S         -0.00918   0.01667   0.02775   0.01448   0.00046
                          21        22        23        24        25
  21        2S          0.49201
  22        2PX         0.00167   0.08240
  23        2PY         0.00270   0.00396   0.08740
  24        2PZ         0.00008   0.00010   0.00015   0.06434
  25        3S         -0.15414  -0.00541  -0.00879  -0.00009   0.45338
  26        3PX        -0.00076   0.12824   0.00209   0.00007  -0.00014
  27        3PY        -0.00152   0.00209   0.13104   0.00007   0.00039
  28        3PZ         0.00020   0.00015   0.00023   0.10294  -0.00039
  29        4S         -0.11600   0.01416   0.02424   0.00046   0.27899
  30        4PX        -0.00145   0.07288  -0.00515   0.00033   0.00620
  31        4PY        -0.00236  -0.00509   0.06685   0.00061   0.01033
  32        4PZ        -0.00011   0.00055   0.00099   0.09579   0.00060
  33 5   H  1S         -0.03184  -0.03312   0.06322  -0.00090   0.08516
  34        2S         -0.03550  -0.04938   0.08845  -0.00072   0.09494
  35        3S         -0.00068  -0.02247   0.03362  -0.00007   0.00578
  36 6   H  1S         -0.03160   0.07092   0.00266  -0.00083   0.08452
  37        2S         -0.03549   0.10116   0.00106  -0.00062   0.09493
  38        3S         -0.00079   0.04048  -0.00286  -0.00004   0.00604
                          26        27        28        29        30
  26        3PX         0.19993
  27        3PY        -0.00263   0.19707
  28        3PZ         0.00009   0.00010   0.16469
  29        4S          0.02592   0.04415   0.00056   0.18819
  30        4PX         0.11410  -0.01092   0.00052   0.01577   0.06622
  31        4PY        -0.01083   0.10111   0.00097   0.02624  -0.01061
  32        4PZ         0.00070   0.00126   0.15326   0.00142   0.00081
  33 5   H  1S         -0.05316   0.09920  -0.00149   0.06757  -0.03438
  34        2S         -0.07970   0.13832  -0.00120   0.07872  -0.05200
  35        3S         -0.03670   0.05191  -0.00012   0.00983  -0.02413
  36 6   H  1S          0.11212   0.00323  -0.00139   0.06767   0.06550
  37        2S          0.15974  -0.00038  -0.00106   0.07957   0.09378
  38        3S          0.06360  -0.00610  -0.00007   0.01042   0.03768
                          31        32        33        34        35
  31        4PY         0.05342
  32        4PZ         0.00152   0.14263
  33 5   H  1S          0.05560  -0.00078   0.08022
  34        2S          0.07761  -0.00034   0.10979   0.15266
  35        3S          0.02921   0.00010   0.03809   0.05550   0.02299
  36 6   H  1S         -0.00203  -0.00073  -0.01249  -0.02595  -0.01985
  37        2S         -0.00630  -0.00027  -0.02600  -0.04808  -0.03151
  38        3S         -0.00630   0.00012  -0.01994  -0.03154  -0.01558
                          36        37        38
  36 6   H  1S          0.07970
  37        2S          0.10961   0.15309
  38        3S          0.03824   0.05589   0.02319
    Full Mulliken population analysis:
                           1         2         3         4         5
   1 1   C  1S          0.65941
   2        2S          0.49328   0.49205
   3        2PX         0.00000   0.00000   0.08447
   4        2PY         0.00000   0.00000   0.00000   0.08789
   5        2PZ         0.00000   0.00000   0.00000   0.00000   0.06442
   6        3S         -0.02929  -0.06446   0.00000   0.00000   0.00000
   7        3PX         0.00000   0.00000   0.08225   0.00000   0.00000
   8        3PY         0.00000   0.00000   0.00000   0.08269   0.00000
   9        3PZ         0.00000   0.00000   0.00000   0.00000   0.06519
  10        4S         -0.01219  -0.02136   0.00000   0.00000   0.00000
  11        4PX         0.00000   0.00000   0.01551   0.00000   0.00000
  12        4PY         0.00000   0.00000   0.00000   0.01445   0.00000
  13        4PZ         0.00000   0.00000   0.00000   0.00000   0.02111
  14 2   H  1S         -0.00024  -0.00034   0.00182   0.00572   0.00000
  15        2S         -0.00167  -0.00320   0.00431   0.01329   0.00000
  16        3S          0.00005  -0.00007   0.00070   0.00191   0.00000
  17 3   H  1S         -0.00026  -0.00037   0.00793   0.00000   0.00000
  18        2S         -0.00173  -0.00331   0.01777   0.00001   0.00000
  19        3S          0.00005  -0.00006   0.00256  -0.00000   0.00000
  20 4   C  1S          0.00000   0.00000  -0.00002  -0.00006   0.00000
  21        2S          0.00000  -0.00000  -0.00002  -0.00006   0.00000
  22        2PX        -0.00002  -0.00002   0.00011   0.00086   0.00000
  23        2PY        -0.00006  -0.00005   0.00086   0.00198   0.00000
  24        2PZ        -0.00000  -0.00000  -0.00000  -0.00000   0.00042
  25        3S         -0.00059  -0.00100   0.00254   0.00766  -0.00000
  26        3PX        -0.00055  -0.00100   0.00019   0.00556   0.00000
  27        3PY        -0.00164  -0.00301   0.00553   0.01069   0.00000
  28        3PZ        -0.00000  -0.00000  -0.00000  -0.00000   0.00614
  29        4S          0.00034   0.00030   0.00092   0.00282  -0.00000
  30        4PX        -0.00018  -0.00046  -0.00071   0.00145   0.00000
  31        4PY        -0.00053  -0.00135   0.00145   0.00096   0.00000
  32        4PZ        -0.00000  -0.00000  -0.00000  -0.00000   0.00903
  33 5   H  1S          0.00000   0.00000  -0.00000  -0.00000   0.00000
  34        2S          0.00001   0.00002   0.00000  -0.00031   0.00000
  35        3S          0.00008   0.00013   0.00001  -0.00071  -0.00000
  36 6   H  1S          0.00000   0.00000  -0.00000  -0.00000   0.00000
  37        2S          0.00001   0.00002  -0.00024  -0.00007   0.00000
  38        3S          0.00008   0.00013  -0.00057  -0.00012  -0.00000
                           6         7         8         9        10
   6        3S          0.45277
   7        3PX         0.00000   0.20263
   8        3PY         0.00000   0.00000   0.19703
   9        3PZ         0.00000   0.00000   0.00000   0.16669
  10        4S          0.21144   0.00000   0.00000   0.00000   0.18121
  11        4PX         0.00000   0.07158   0.00000   0.00000   0.00000
  12        4PY         0.00000   0.00000   0.06455   0.00000   0.00000
  13        4PZ         0.00000   0.00000   0.00000   0.10075   0.00000
  14 2   H  1S          0.01621   0.01074   0.03273   0.00001   0.01825
  15        2S          0.04121   0.01949   0.05786   0.00001   0.04655
  16        3S          0.00279   0.00396   0.01021   0.00000   0.00818
  17 3   H  1S          0.01698   0.04442   0.00001   0.00001   0.01847
  18        2S          0.04233   0.07738   0.00000   0.00001   0.04637
  19        3S          0.00282   0.01390  -0.00001   0.00000   0.00761
  20 4   C  1S         -0.00060  -0.00057  -0.00172   0.00000   0.00033
  21        2S         -0.00101  -0.00105  -0.00317   0.00000   0.00030
  22        2PX         0.00245   0.00018   0.00555   0.00000   0.00083
  23        2PY         0.00735   0.00553   0.01064   0.00000   0.00246
  24        2PZ         0.00000  -0.00000  -0.00000   0.00617   0.00000
  25        3S          0.02194   0.01335   0.04032  -0.00000   0.00038
  26        3PX         0.01270  -0.00127   0.01856   0.00000   0.00418
  27        3PY         0.03811   0.01844   0.02845   0.00000   0.01246
  28        3PZ         0.00000  -0.00000  -0.00000   0.03540   0.00000
  29        4S          0.00064   0.00474   0.01451  -0.00000  -0.02047
  30        4PX         0.00637  -0.00402   0.00583   0.00000   0.00209
  31        4PY         0.01897   0.00583   0.00122   0.00000   0.00598
  32        4PZ         0.00000  -0.00000  -0.00000   0.04932   0.00000
  33 5   H  1S         -0.00005  -0.00000  -0.00019   0.00000  -0.00080
  34        2S         -0.00121   0.00006  -0.00321  -0.00000  -0.00332
  35        3S         -0.00201   0.00010  -0.00426  -0.00000  -0.00136
  36 6   H  1S         -0.00005  -0.00013  -0.00005   0.00000  -0.00081
  37        2S         -0.00119  -0.00257  -0.00053   0.00000  -0.00342
  38        3S         -0.00200  -0.00355  -0.00057  -0.00000  -0.00152
                          11        12        13        14        15
  11        4PX         0.06026
  12        4PY         0.00000   0.05108
  13        4PZ         0.00000   0.00000   0.14261
  14 2   H  1S          0.00628   0.01759   0.00001   0.08158
  15        2S          0.01526   0.04086   0.00000   0.07747   0.14957
  16        3S          0.00521   0.01183  -0.00000   0.01373   0.04133
  17 3   H  1S          0.02371  -0.00001   0.00001  -0.00001  -0.00068
  18        2S          0.05512  -0.00004   0.00000  -0.00068  -0.00553
  19        3S          0.01653  -0.00003  -0.00000  -0.00205  -0.00813
  20 4   C  1S         -0.00018  -0.00057   0.00000   0.00000   0.00002
  21        2S         -0.00046  -0.00143   0.00000   0.00000   0.00003
  22        2PX        -0.00071   0.00139   0.00000  -0.00000   0.00000
  23        2PY         0.00139   0.00095   0.00000  -0.00000  -0.00036
  24        2PZ        -0.00000  -0.00000   0.00902   0.00000   0.00000
  25        3S          0.00648   0.01995  -0.00000  -0.00007  -0.00148
  26        3PX        -0.00416   0.00560   0.00000  -0.00000   0.00004
  27        3PY         0.00558   0.00122   0.00000  -0.00022  -0.00355
  28        3PZ        -0.00000  -0.00000   0.04902   0.00000   0.00000
  29        4S          0.00235   0.00758  -0.00000  -0.00102  -0.00426
  30        4PX        -0.00713   0.00312   0.00000   0.00002   0.00019
  31        4PY         0.00315  -0.00561   0.00000  -0.00241  -0.01017
  32        4PZ        -0.00000  -0.00000   0.08961   0.00000  -0.00000
  33 5   H  1S          0.00002  -0.00234   0.00000   0.00000   0.00000
  34        2S          0.00026  -0.00993  -0.00000   0.00000   0.00015
  35        3S          0.00027  -0.00736  -0.00000   0.00023   0.00146
  36 6   H  1S         -0.00176  -0.00048   0.00000  -0.00000  -0.00004
  37        2S         -0.00832  -0.00107  -0.00000  -0.00004  -0.00092
  38        3S         -0.00659  -0.00032  -0.00000  -0.00046  -0.00248
                          16        17        18        19        20
  16        3S          0.02099
  17 3   H  1S         -0.00207   0.08255
  18        2S         -0.00814   0.07759   0.14832
  19        3S         -0.00681   0.01353   0.04038   0.02030
  20 4   C  1S          0.00009   0.00000   0.00002   0.00009   0.65947
  21        2S          0.00016   0.00000   0.00003   0.00016   0.49328
  22        2PX         0.00001  -0.00000  -0.00027  -0.00058   0.00000
  23        2PY        -0.00073  -0.00000  -0.00008  -0.00013   0.00000
  24        2PZ        -0.00000   0.00000   0.00000  -0.00000   0.00000
  25        3S         -0.00242  -0.00007  -0.00146  -0.00237  -0.02936
  26        3PX         0.00007  -0.00016  -0.00286  -0.00363   0.00000
  27        3PY        -0.00441  -0.00007  -0.00063  -0.00064   0.00000
  28        3PZ        -0.00000   0.00000   0.00000  -0.00000   0.00000
  29        4S         -0.00210  -0.00100  -0.00411  -0.00192  -0.01234
  30        4PX         0.00019  -0.00186  -0.00869  -0.00671   0.00000
  31        4PY        -0.00746  -0.00057  -0.00134  -0.00047   0.00000
  32        4PZ        -0.00000   0.00000  -0.00000  -0.00000   0.00000
  33 5   H  1S          0.00022  -0.00000  -0.00004  -0.00042  -0.00021
  34        2S          0.00143  -0.00004  -0.00089  -0.00235  -0.00157
  35        3S          0.00246  -0.00045  -0.00243  -0.00287   0.00004
  36 6   H  1S         -0.00043   0.00000   0.00000   0.00022  -0.00020
  37        2S         -0.00241   0.00000   0.00015   0.00141  -0.00155
  38        3S         -0.00293   0.00023   0.00144   0.00242   0.00004
                          21        22        23        24        25
  21        2S          0.49201
  22        2PX         0.00000   0.08240
  23        2PY         0.00000   0.00000   0.08740
  24        2PZ         0.00000   0.00000   0.00000   0.06434
  25        3S         -0.06455   0.00000   0.00000   0.00000   0.45338
  26        3PX         0.00000   0.08068   0.00000   0.00000   0.00000
  27        3PY         0.00000   0.00000   0.08244   0.00000   0.00000
  28        3PZ         0.00000   0.00000   0.00000   0.06476   0.00000
  29        4S         -0.02171   0.00000   0.00000   0.00000   0.21613
  30        4PX         0.00000   0.01605   0.00000   0.00000   0.00000
  31        4PY         0.00000   0.00000   0.01472   0.00000   0.00000
  32        4PZ         0.00000   0.00000   0.00000   0.02110   0.00000
  33 5   H  1S         -0.00029   0.00145   0.00550   0.00000   0.01507
  34        2S         -0.00300   0.00380   0.01354   0.00000   0.03914
  35        3S         -0.00006   0.00067   0.00201   0.00000   0.00264
  36 6   H  1S         -0.00028   0.00673   0.00001   0.00000   0.01474
  37        2S         -0.00296   0.01719   0.00001   0.00000   0.03882
  38        3S         -0.00007   0.00270  -0.00001   0.00000   0.00275
                          26        27        28        29        30
  26        3PX         0.19993
  27        3PY         0.00000   0.19707
  28        3PZ         0.00000   0.00000   0.16469
  29        4S          0.00000   0.00000   0.00000   0.18819
  30        4PX         0.07456   0.00000   0.00000   0.00000   0.06622
  31        4PY         0.00000   0.06607   0.00000   0.00000   0.00000
  32        4PZ         0.00000   0.00000   0.10015   0.00000   0.00000
  33 5   H  1S          0.00888   0.03294   0.00001   0.01763   0.00577
  34        2S          0.01734   0.05984   0.00001   0.04490   0.01474
  35        3S          0.00385   0.01083   0.00000   0.00737   0.00538
  36 6   H  1S          0.04119   0.00007   0.00001   0.01756   0.02442
  37        2S          0.07697  -0.00001   0.00001   0.04519   0.05912
  38        3S          0.01484  -0.00008   0.00000   0.00779   0.01873
                          31        32        33        34        35
  31        4PY         0.05342
  32        4PZ         0.00000   0.14263
  33 5   H  1S          0.01856   0.00001   0.08022
  34        2S          0.04375   0.00000   0.07755   0.15266
  35        3S          0.01296  -0.00000   0.01423   0.04379   0.02299
  36 6   H  1S         -0.00004   0.00001  -0.00001  -0.00075  -0.00229
  37        2S         -0.00022   0.00000  -0.00076  -0.00641  -0.00946
  38        3S         -0.00018  -0.00000  -0.00230  -0.00947  -0.00825
                          36        37        38
  36 6   H  1S          0.07970
  37        2S          0.07743   0.15309
  38        3S          0.01429   0.04410   0.02319
     Gross orbital populations:
                           1
   1 1   C  1S          1.10435
   2        2S          0.88586
   3        2PX         0.22738
   4        2PY         0.23661
   5        2PZ         0.16632
   6        3S          0.79321
   7        3PX         0.56143
   8        3PY         0.55645
   9        3PZ         0.42356
  10        4S          0.50184
  11        4PX         0.25966
  12        4PY         0.21097
  13        4PZ         0.41213
  14 2   H  1S          0.27485
  15        2S          0.46664
  16        3S          0.08555
  17 3   H  1S          0.27782
  18        2S          0.46469
  19        3S          0.08279
  20 4   C  1S          1.10442
  21        2S          0.88584
  22        2PX         0.22144
  23        2PY         0.23536
  24        2PZ         0.16582
  25        3S          0.79189
  26        3PX         0.55152
  27        3PY         0.55546
  28        3PZ         0.42020
  29        4S          0.51002
  30        4PX         0.27450
  31        4PY         0.21669
  32        4PZ         0.41184
  33 5   H  1S          0.27065
  34        2S          0.47056
  35        3S          0.09001
  36 6   H  1S          0.26903
  37        2S          0.47138
  38        3S          0.09127
          Condensed to atoms (all electrons):
               1          2          3          4          5          6
     1  C    5.033489   0.387521   0.388173   0.602321  -0.036076  -0.035672
     2  H    0.387521   0.517214  -0.034085  -0.039863   0.005972  -0.009722
     3  H    0.388173  -0.034085   0.514169  -0.039340  -0.009500   0.005887
     4  C    0.602321  -0.039863  -0.039340   5.055087   0.383509   0.383296
     5  H   -0.036076   0.005972  -0.009500   0.383509   0.527019  -0.039706
     6  H   -0.035672  -0.009722   0.005887   0.383296  -0.039706   0.527593
 Mulliken charges:
               1
     1  C   -0.339756
     2  H    0.172963
     3  H    0.174696
     4  C   -0.345010
     5  H    0.168782
     6  H    0.168325
 Sum of Mulliken charges =  -0.00000
 Mulliken charges with hydrogens summed into heavy atoms:
               1
     1  C    0.007903
     4  C   -0.007903
 Electronic spatial extent (au):  <R**2>=             83.7621
 Charge=             -0.0000 electrons
 Dipole moment (field-independent basis, Debye):
    X=             -0.0006    Y=              0.0092    Z=             -0.0741  Tot=              0.0747
 Quadrupole moment (field-independent basis, Debye-Ang):
   XX=            -12.2065   YY=            -12.2134   ZZ=            -15.6739
   XY=              0.0199   XZ=             -0.0003   YZ=             -0.0029
 Traceless Quadrupole moment (field-independent basis, Debye-Ang):
   XX=              1.1581   YY=              1.1512   ZZ=             -2.3093
   XY=              0.0199   XZ=             -0.0003   YZ=             -0.0029
 Octapole moment (field-independent basis, Debye-Ang**2):
  XXX=             -0.2997  YYY=             -0.0798  ZZZ=             -0.0611  XYY=              0.1161
  XXY=             -0.0588  XXZ=             -0.1036  XZZ=             -0.0916  YZZ=             -0.0967
  YYZ=             -0.1356  XYZ=             -0.0274
 Hexadecapole moment (field-independent basis, Debye-Ang**3):
 XXXX=            -34.3006 YYYY=            -55.2250 ZZZZ=            -17.8048 XXXY=             -7.2247
 XXXZ=              0.0082 YYYX=            -10.7056 YYYZ=              0.0105 ZZZX=              0.0127
 ZZZY=              0.0251 XXYY=            -16.2123 XXZZ=             -9.9343 YYZZ=            -13.6593
 XXYZ=              0.0051 YYXZ=              0.0008 ZZXY=             -3.2034
 N-N= 3.306105114430D+01 E-N=-2.478297160505D+02  KE= 7.814795390815D+01
 Orbital energies and kinetic energies (alpha):
                                 1                 2
   1         O               -10.291193         15.979191
   2         O               -10.287511         15.979243
   3         O                -0.863865          1.540170
   4         O                -0.671806          1.270254
   5         O                -0.558925          0.941465
   6         O                -0.509736          1.283132
   7         O                -0.436074          1.041601
   8         O                -0.357087          1.038922
   9         V                 0.080122          1.181708
  10         V                 0.140862          0.590229
  11         V                 0.164333          0.597272
  12         V                 0.169875          0.680342
  13         V                 0.240735          0.583760
  14         V                 0.375757          0.856201
  15         V                 0.392509          0.932393
  16         V                 0.397578          0.774590
  17         V                 0.463184          1.194811
  18         V                 0.487801          1.420676
  19         V                 0.493612          1.300918
  20         V                 0.591086          1.653185
  21         V                 0.665086          1.573097
  22         V                 0.690506          2.144755
  23         V                 0.771850          2.433366
  24         V                 0.776305          2.305798
  25         V                 0.843666          1.086816
  26         V                 0.953012          3.430389
  27         V                 2.231951          3.922491
  28         V                 2.289429          4.031089
  29         V                 2.332896          4.301688
  30         V                 2.407116          4.518805
  31         V                 2.671220          6.301278
  32         V                 2.817886          6.306809
  33         V                 2.878136          6.134733
  34         V                 2.951683          6.226643
  35         V                 3.140720          6.822154
  36         V                 3.318310          6.401121
  37         V                23.351444         60.074011
  38         V                23.706528         60.204472
 Total kinetic energy from orbitals= 7.814795390815D+01
 Calling FoFJK, ICntrl=      2127 FMM=F ISym2X=0 I1Cent= 0 IOpClX= 0 NMat=1 NMatS=1 NMatT=0.
 -------------------------------------------------------------------
 Center     Atomic                   Forces (Hartrees/Bohr)
 Number     Number              X              Y              Z
 -------------------------------------------------------------------
      1        6           0.011502201    0.007434947   -0.002908520
      2        1          -0.007528750    0.004834647    0.001476912
      3        1           0.001937617   -0.003354851    0.001367434
      4        6           0.009176314    0.012039318   -0.003397255
      5        1           0.004281009   -0.016320037    0.001713357
      6        1          -0.019368391   -0.004634026    0.001748071
 -------------------------------------------------------------------
 Cartesian Forces:  Max     0.019368391 RMS     0.008243236

 GradGradGradGradGradGradGradGradGradGradGradGradGradGradGradGradGradGrad
 Berny optimization.
 Search for a local minimum.
 Step number   1 out of a maximum of    2
 All quantities printed in internal units (Hartrees-Bohrs-Radians)
 Second derivative matrix not updated -- first step.
 The second derivative matrix:
                          X1        Y1        Z1        X2        Y2
           X1           0.76109
           Y1           0.10046   0.86419
           Z1           0.00436   0.00681   0.17294
           X2          -0.16419   0.09663   0.00159   0.14171
           Y2           0.10304  -0.28689  -0.00561  -0.11602   0.27572
           Z2           0.00249  -0.00703  -0.05545  -0.00226   0.00582
           X3          -0.35369  -0.00334  -0.00608  -0.00047  -0.00027
           Y3          -0.00973  -0.11038  -0.00150   0.03264   0.01881
           Z3          -0.00777  -0.00145  -0.05675   0.00112   0.00041
           X4          -0.26802  -0.17943  -0.00064   0.02297   0.01325
           Y4          -0.17954  -0.47514  -0.00106  -0.01326  -0.00765
           Z4           0.00091   0.00165  -0.09485  -0.00045  -0.00062
           X5           0.02335  -0.01348   0.00047  -0.00000   0.00000
           Y5           0.01174  -0.00678   0.00065   0.00000  -0.00000
           Z5          -0.00039   0.00024   0.01739   0.00019  -0.00010
           X6           0.00146  -0.00084   0.00030  -0.00000   0.00000
           Y6          -0.02597   0.01500   0.00071   0.00000  -0.00000
           Z6           0.00039  -0.00022   0.01671  -0.00019   0.00010
                          Z2        X3        Y3        Z3        X4
           Z2           0.02884
           X3          -0.00023   0.35379
           Y3           0.00120   0.00382   0.07613
           Z3           0.01060   0.00664   0.00103   0.02967
           X4           0.00040   0.00038  -0.02674  -0.00039   0.70870
           Y4          -0.00022  -0.00022   0.01544   0.00024   0.12235
           Z4           0.01596  -0.00033  -0.00073   0.01654  -0.00384
           X5          -0.00020  -0.00000   0.00000   0.00020  -0.14522
           Y5           0.00012   0.00000  -0.00000  -0.00012   0.09067
           Z5           0.00929   0.00020  -0.00012  -0.00945  -0.00234
           X6          -0.00019  -0.00000   0.00000   0.00020  -0.31881
           Y6           0.00010   0.00000  -0.00000  -0.00011  -0.02009
           Z6          -0.00924  -0.00019   0.00012   0.00940   0.00682
                          Y4        Z4        X5        Y5        Z5
           Y4           0.85508
           Z4          -0.00729   0.17511
           X5           0.08274  -0.00153   0.12370
           Y5          -0.28383   0.00556  -0.10150   0.27441
           Z5           0.00691  -0.05673   0.00208  -0.00592   0.02934
           X6          -0.01207   0.00524  -0.00183  -0.00091   0.00026
           Y6          -0.10391   0.00144   0.03224   0.01619  -0.00100
           Z6           0.00142  -0.05603  -0.00103  -0.00028   0.01016
                          X6        Y6        Z6
           X6           0.31918
           Y6           0.01382   0.07273
           Z6          -0.00580  -0.00115   0.02901
 ITU=  0
     Eigenvalues ---    0.03740   0.04375   0.09325   0.09963   0.13508
     Eigenvalues ---    0.17399   0.26523   0.28868   0.52754   0.69617
     Eigenvalues ---    0.97295   1.56674
 Angle between quadratic step and forces=  32.00 degrees.
 Linear search not attempted -- first point.
 B after Tr=     0.005904    0.006544   -0.007577
         Rot=    1.000000   -0.000011    0.000006   -0.000099 Ang=  -0.01 deg.
 Variable       Old X    -DE/DX   Delta X   Delta X   Delta X     New X
                                 (Linear)    (Quad)   (Total)
    X1       -0.63416   0.01150   0.00000   0.01857   0.02469  -0.60947
    Y1       -1.09742   0.00743   0.00000   0.02053   0.02695  -1.07047
    Z1        0.00966  -0.00291   0.00000  -0.01580  -0.02340  -0.01374
    X2        0.39965  -0.00753   0.00000  -0.02795  -0.02148   0.37818
    Y2       -2.88867   0.00483   0.00000   0.01975   0.02637  -2.86230
    Z2       -0.03101   0.00148   0.00000   0.01956   0.01193  -0.01908
    X3       -2.68386   0.00194   0.00000   0.02365   0.02978  -2.65408
    Y3       -1.12577  -0.00335   0.00000  -0.00632  -0.00030  -1.12607
    Z3       -0.03240   0.00137   0.00000   0.01907   0.01144  -0.02096
    X4        0.62924   0.00918   0.00000   0.00585   0.01154   0.64077
    Y4        1.09061   0.01204   0.00000   0.00657   0.01324   1.10385
    Z4        0.00807  -0.00340   0.00000  -0.01557  -0.02311  -0.01504
    X5       -0.31336   0.00428   0.00000  -0.00247   0.00285  -0.31050
    Y5        2.96477  -0.01632   0.00000  -0.05365  -0.04717   2.91760
    Z5       -0.03602   0.00171   0.00000   0.01936   0.01184  -0.02418
    X6        2.73383  -0.01937   0.00000  -0.05306  -0.04739   2.68644
    Y6        1.20840  -0.00463   0.00000  -0.02616  -0.01909   1.18932
    Z6       -0.03436   0.00175   0.00000   0.01882   0.01131  -0.02305
         Item               Value     Threshold  Converged?
 Maximum Force            0.019368     0.000450     NO 
 RMS     Force            0.008243     0.000300     NO 
 Maximum Displacement     0.047387     0.001800     NO 
 RMS     Displacement     0.023751     0.001200     NO 
 Predicted change in Energy=-1.552874D-03
 GradGradGradGradGradGradGradGradGradGradGradGradGradGradGradGradGradGrad

 Unable to Open any file for archive entry.
 1\1\GINC-BHD0005\Force\RwB97XD\6-311G\C2H4\BWEIGHT\11-Jan-2023\0\\# WB
 97XD/6-311G SCF=XQC FORCE nosym pop=full guess=read\\MD Step 999\\0,1\
 C,-0.33558456,-0.58073007,0.00511438\H,0.21148611,-1.52861819,-0.01641
 043\H,-1.42023986,-0.59573181,-0.01714434\C,0.33297737,0.57712469,0.00
 427149\H,-0.16582096,1.56888779,-0.01906031\H,1.44668038,0.63945888,-0
 .01818221\\Version=ES64L-G16RevC.01\HF=-78.5558364\RMSD=5.589e-09\RMSF
 =8.243e-03\Dipole=-0.0002477,0.0036148,-0.0291563\Quadrupole=0.8610372
 ,0.8558821,-1.7169193,0.014807,-0.0002472,-0.0021738\PG=C01 [X(C2H4)]\
 \@
 The archive entry for this job was punched.


 THE WHOLE OF SCIENCE IS NOTHING MORE THAN A REFINEMENT OF EVERYDAY THINKING.
                                                              -- A. EINSTEIN
 Job cpu time:       0 days  0 hours  0 minutes 47.3 seconds.
 Elapsed time:       0 days  0 hours  0 minutes 16.6 seconds.
 File lengths (MBytes):  RWF=    272 Int=      0 D2E=      0 Chk=     32 Scr=     32
 Normal termination of Gaussian 16 at Wed Jan 11 18:37:45 2023.
