6
MD Step 0 Units = [Angstroms]
C  -0.33763715 -0.58748864 0.00000000
H  0.19552659 -1.51519357 0.00000000
H  -1.40763715 -0.58748864 0.00000000
C  0.33763715 0.58748865 0.00000000
H  -0.19552659 1.51519357 0.00000000
H  1.40763715 0.58748865 0.00000000
6
MD Step 1 Units = [Angstroms]
C  -0.33805766 -0.58792696 -0.00039402
H  0.19795126 -1.51300712 0.00234672
H  -1.40547021 -0.58516149 0.00235065
C  0.33726924 0.58713819 -0.00039486
H  -0.19325397 1.51770765 0.00234952
H  1.41016785 0.58986000 0.00235344
6
MD Step 2 Units = [Angstroms]
C  -0.33852589 -0.58844972 -0.00078725
H  0.20053110 -1.51117571 0.00468868
H  -1.40373064 -0.58289108 0.00469666
C  0.33695929 0.58687908 -0.00078890
H  -0.19113682 1.52052226 0.00469414
H  1.41300398 0.59226025 0.00470194
