6
MD Step 0
C  -0.33763715 -0.58748864 0.00000000
H  0.19552659 -1.51519357 0.00000000
H  -1.40763715 -0.58748864 0.00000000
C  0.33763715 0.58748865 0.00000000
H  -0.19552659 1.51519357 0.00000000
H  1.40763715 0.58748865 0.00000000
6
MD Step 1
C  -0.33800602 -0.58783575 -0.00039385
H  0.19788661 -1.51299031 0.00234604
H  -1.40541930 -0.58521253 0.00234842
C  0.33721636 0.58704652 -0.00039434
H  -0.19318036 1.51769135 0.00234767
H  1.41012258 0.58991589 0.00235004
6
MD Step 2
C  -0.33831794 -0.58808547 -0.00078696
H  0.20026539 -1.51110010 0.00468762
H  -1.40352604 -0.58308984 0.00469245
C  0.33674884 0.58651335 -0.00078791
H  -0.19085489 1.52045231 0.00469074
H  1.41281292 0.59247112 0.00469539
6
MD Step 3
C  -0.33856874 -0.58823632 -0.00117860
H  0.20265739 -1.50953747 0.00702033
H  -1.40200603 -0.58113179 0.00702796
C  0.33624037 0.58589385 -0.00117989
H  -0.18854718 1.52344205 0.00702447
H  1.41564069 0.59514012 0.00703102
6
MD Step 4
C  -0.33875500 -0.58828790 -0.00156805
H  0.20505381 -1.50830974 0.00933981
H  -1.40089845 -0.57934861 0.00935101
C  0.33569702 0.58519373 -0.00156943
H  -0.18625210 1.52662082 0.00934394
H  1.41853571 0.59790778 0.00935160
6
MD Step 5
C  -0.33887417 -0.58824096 -0.00195461
H  0.20744264 -1.50741698 0.01164170
H  -1.40023165 -0.57774955 0.01165781
C  0.33512501 0.58441957 -0.00195567
H  -0.18396284 1.52994431 0.01164401
H  1.42142690 0.60075809 0.01165149
6
MD Step 6
C  -0.33892467 -0.58809731 -0.00233757
H  0.20980875 -1.50685232 0.01392157
H  -1.40002228 -0.57634290 0.01394461
C  0.33453067 0.58357871 -0.00233766
H  -0.18167144 1.53336471 0.01391934
H  1.42424392 0.60367428 0.01392475
6
MD Step 7
C  -0.33890591 -0.58785978 -0.00271620
H  0.21213417 -1.50660230 0.01617489
H  -1.40027468 -0.57513597 0.01620766
C  0.33392028 0.58267918 -0.00271448
H  -0.17936932 1.53683165 0.01616440
H  1.42691876 0.60663886 0.01616524
6
MD Step 8
C  -0.33881837 -0.58753220 -0.00308975
H  0.21439845 -1.50664747 0.01839703
H  -1.40098078 -0.57413511 0.01844308
C  0.33330001 0.58172955 -0.00308514
H  -0.17704786 1.54029335 0.01837346
H  1.42938711 0.60963376 0.01836661
6
MD Step 9
C  -0.33866356 -0.58711926 -0.00345745
H  0.21657909 -1.50696308 0.02058324
H  -1.40212035 -0.57334566 0.02064680
C  0.33267588 0.58073883 -0.00344864
H  -0.17469884 1.54369765 0.02054063
H  1.43158951 0.61264048 0.02052242
6
MD Step 10
C  -0.33844401 -0.58662646 -0.00381847
H  0.21865203 -1.50751994 0.02272860
H  -1.40366171 -0.57277198 0.02281454
C  0.33205364 0.57971632 -0.00380398
H  -0.17231498 1.54699310 0.02265994
H  1.43347249 0.61564016 0.02262618
6
MD Step 11
C  -0.33816334 -0.58606028 -0.00417177
H  0.22059115 -1.50828486 0.02482688
H  -1.40556184 -0.57241759 0.02494051
C  0.33143913 0.57867210 -0.00414994
H  -0.16989169 1.55012805 0.02472412
H  1.43498834 0.61861213 0.02467026
6
MD Step 12
C  -0.33782580 -0.58542722 -0.00451667
H  0.22237219 -1.50922279 0.02687413
H  -1.40777064 -0.57228441 0.02702104
C  0.33083715 0.57761514 -0.00448573
H  -0.16742337 1.55305715 0.02672827
H  1.43609881 0.62153907 0.02664947
6
MD Step 13
C  -0.33743651 -0.58473454 -0.00485225
H  0.22396998 -1.51029653 0.02886510
H  -1.41022958 -0.57237347 0.02905097
C  0.33025247 0.57655491 -0.00481037
H  -0.16490782 1.55573667 0.02866637
H  1.43677267 0.62440210 0.02855762
6
MD Step 14
C  -0.33700127 -0.58398990 -0.00517758
H  0.22536012 -1.51146808 0.03079449
H  -1.41287448 -0.57268457 0.03102484
C  0.32968946 0.57550074 -0.00512288
H  -0.16234508 1.55812705 0.03053246
H  1.43698714 0.62718267 0.03038877
6
MD Step 15
C  -0.33652640 -0.58320121 -0.00549167
H  0.22651954 -1.51269950 0.03265699
H  -1.41563724 -0.57321632 0.03293695
C  0.32915207 0.57446169 -0.00542236
H  -0.15973769 1.56019357 0.03232076
H  1.43672814 0.62986265 0.03213729
6
MD Step 16
C  -0.33601863 -0.58237656 -0.00579358
H  0.22742698 -1.51395369 0.03444731
H  -1.41844771 -0.57396603 0.03478143
C  0.32864377 0.57344643 -0.00570794
H  -0.15709073 1.56190692 0.03402571
H  1.43599048 0.63242452 0.03379791
6
MD Step 17
C  -0.33548494 -0.58152408 -0.00608231
H  0.22806347 -1.51519520 0.03616024
H  -1.42123543 -0.57492974 0.03655228
C  0.32816756 0.57246316 -0.00597878
H  -0.15441198 1.56324362 0.03564200
H  1.43477800 0.63485153 0.03536578
6
MD Step 18
C  -0.33493243 -0.58065189 -0.00635690
H  0.22841271 -1.51639086 0.03779070
H  -1.42393128 -0.57610222 0.03824346
C  0.32772592 0.57151955 -0.00623416
H  -0.15171189 1.56418645 0.03716469
H  1.43310352 0.63712778 0.03683655
6
MD Step 19
C  -0.33436824 -0.57976793 -0.00661642
H  0.22846141 -1.51751040 0.03933381
H  -1.42646897 -0.57747698 0.03984896
C  0.32732079 0.57062262 -0.00647337
H  -0.14900362 1.56472469 0.03858921
H  1.43098877 0.63923843 0.03820636
6
MD Step 20
C  -0.33379939 -0.57887995 -0.00685995
H  0.22819956 -1.51852694 0.04078490
H  -1.42878643 -0.57904632 0.04136290
C  0.32695362 0.56977870 -0.00669583
H  -0.14630290 1.56485431 0.03991140
H  1.42846424 0.64116975 0.03947192
6
MD Step 21
C  -0.33321014 -0.57796015 -0.00709598
H  0.22760396 -1.51945533 0.04219536
H  -1.43091350 -0.58086744 0.04283786
C  0.32661142 0.56896096 -0.00690952
H  -0.14352115 1.56457517 0.04117806
H  1.42546112 0.64298225 0.04067873
6
MD Step 22
C  -0.33262982 -0.57705110 -0.00731432
H  0.22668829 -1.52023799 0.04350519
H  -1.43271104 -0.58286393 0.04420997
C  0.32630839 0.56820675 -0.00710550
H  -0.14078663 1.56390004 0.04233544
H  1.42213583 0.64459138 0.04177643
6
MD Step 23
C  -0.33206486 -0.57615967 -0.00751419
H  0.22545330 -1.52085967 0.04471052
H  -1.43413377 -0.58502440 0.04547396
C  0.32604430 0.56752018 -0.00728342
H  -0.13812293 1.56284550 0.04338079
H  1.41854459 0.64598701 0.04276346
6
MD Step 24
C  -0.33152120 -0.57529223 -0.00769487
H  0.22390360 -1.52130983 0.04580790
H  -1.43514430 -0.58733655 0.04662499
C  0.32581845 0.56690447 -0.00744303
H  -0.13555560 1.56143467 0.04431191
H  1.41475043 0.64716054 0.04363891
6
MD Step 25
C  -0.33100426 -0.57445457 -0.00785575
H  0.22204760 -1.52158273 0.04679429
H  -1.43571370 -0.58978725 0.04765870
C  0.32562962 0.56636195 -0.00758418
H  -0.13311188 1.55969699 0.04512718
H  1.41082229 0.64810490 0.04440248
6
MD Step 26
C  -0.33051889 -0.57365186 -0.00799629
H  0.21989756 -1.52167750 0.04766711
H  -1.43582185 -0.59236266 0.04857127
C  0.32547616 0.56589406 -0.00770680
H  -0.13082037 1.55766774 0.04582555
H  1.40683395 0.64881463 0.04505445
6
MD Step 27
C  -0.33006934 -0.57288863 -0.00811602
H  0.21746943 -1.52159815 0.04842425
H  -1.43545778 -0.59504832 0.04935947
C  0.32535604 0.56550135 -0.00781092
H  -0.12871069 1.55538757 0.04640656
H  1.40286276 0.64928584 0.04559564
6
MD Step 28
C  -0.32965917 -0.57216870 -0.00821461
H  0.21478275 -1.52135349 0.04906410
H  -1.43461978 -0.59782931 0.05002070
C  0.32526693 0.56518355 -0.00789667
H  -0.12681305 1.55290184 0.04687028
H  1.39898813 0.64951621 0.04602737
6
MD Step 29
C  -0.32929128 -0.57149523 -0.00829179
H  0.21186046 -1.52095694 0.04958556
H  -1.43331548 -0.60069035 0.05055302
C  0.32520627 0.56493957 -0.00796423
H  -0.12515775 1.55025982 0.04721733
H  1.39528991 0.64950490 0.04635135
6
MD Step 30
C  -0.32896785 -0.57087066 -0.00834743
H  0.20872867 -1.52042632 0.04998799
H  -1.43156186 -0.60361591 0.05095518
C  0.32517140 0.56476761 -0.00801386
H  -0.12377476 1.54751384 0.04744879
H  1.39184657 0.64925254 0.04656963
6
MD Step 31
C  -0.32868287 -0.57028188 -0.00838257
H  0.20533645 -1.51976898 0.05027977
H  -1.42933628 -0.60666356 0.05123497
C  0.32515908 0.56466183 -0.00804689
H  -0.12266248 1.54464941 0.04757052
H  1.38865190 0.64875185 0.04668858
6
MD Step 32
C  -0.32844455 -0.56974488 -0.00839615
H  0.20179606 -1.51902565 0.05045272
H  -1.42672333 -0.60974411 0.05138417
C  0.32516728 0.56462260 -0.00806265
H  -0.12187966 1.54179176 0.04758016
H  1.38585892 0.64801531 0.04670652
6
MD Step 33
C  -0.32825289 -0.56926015 -0.00838832
H  0.19814196 -1.51822567 0.05050764
H  -1.42376738 -0.61284171 0.05140361
C  0.32519362 0.56464646 -0.00806155
H  -0.12145228 1.53899696 0.04747993
H  1.38353203 0.64704733 0.04662590
6
MD Step 34
C  -0.32810717 -0.56882760 -0.00835930
H  0.19441037 -1.51740097 0.05044570
H  -1.42052083 -0.61594074 0.05129478
C  0.32523604 0.56472968 -0.00804397
H  -0.12140353 1.53631934 0.04727234
H  1.38172642 0.64585332 0.04644908
6
MD Step 35
C  -0.32800598 -0.56844658 -0.00830944
H  0.19063873 -1.51658539 0.05026847
H  -1.41704342 -0.61902598 0.05105984
C  0.32529295 0.56486835 -0.00801031
H  -0.12175312 1.53381008 0.04696001
H  1.38048634 0.64443965 0.04617822
6
MD Step 36
C  -0.32794723 -0.56811602 -0.00823911
H  0.18686516 -1.51581392 0.04997784
H  -1.41340134 -0.62208266 0.05070153
C  0.32536325 0.56505855 -0.00796094
H  -0.12251665 1.53151593 0.04654563
H  1.37984357 0.64281352 0.04581525
6
MD Step 37
C  -0.32792820 -0.56783443 -0.00814879
H  0.18312791 -1.51512182 0.04957597
H  -1.40966619 -0.62509658 0.05022310
C  0.32544641 0.56529647 -0.00789621
H  -0.12370501 1.52947783 0.04603188
H  1.37981635 0.64098293 0.04536174
6
MD Step 38
C  -0.32794562 -0.56760002 -0.00803900
H  0.17946473 -1.51454383 0.04906522
H  -1.40591368 -0.62805418 0.04962831
C  0.32554249 0.56557850 -0.00781644
H  -0.12532392 1.52772984 0.04542135
H  1.38040867 0.63895666 0.04481895
6
MD Step 39
C  -0.32799576 -0.56741080 -0.00791031
H  0.17591226 -1.51411314 0.04844813
H  -1.40222216 -0.63094258 0.04892126
C  0.32565213 0.56590135 -0.00772189
H  -0.12737344 1.52629809 0.04471651
H  1.38161010 0.63674424 0.04418778
6
MD Step 40
C  -0.32807450 -0.56726464 -0.00776332
H  0.17250540 -1.51386055 0.04772734
H  -1.39867099 -0.63374962 0.04810635
C  0.32577652 0.56626213 -0.00761279
H  -0.12984771 1.52520010 0.04391964
H  1.38339607 0.63435599 0.04346880
6
MD Step 41
C  -0.32817703 -0.56715996 -0.00759935
H  0.16929152 -1.51381421 0.04690899
H  -1.39535396 -0.63645158 0.04719201
C  0.32591669 0.56665672 -0.00748985
H  -0.13272284 1.52444835 0.04303655
H  1.38571948 0.63181404 0.04266575
6
MD Step 42
C  -0.32829925 -0.56709411 -0.00741834
H  0.16628538 -1.51399661 0.04599234
H  -1.39233112 -0.63905008 0.04617899
C  0.32607526 0.56708484 -0.00735270
H  -0.13599280 1.52403780 0.04206539
H  1.38853965 0.62911931 0.04177536
6
MD Step 43
C  -0.32843664 -0.56706514 -0.00722090
H  0.16351310 -1.51442599 0.04498009
H  -1.38967298 -0.64153510 0.04507190
C  0.32625449 0.56754500 -0.00720148
H  -0.13963365 1.52395834 0.04100782
H  1.39179611 0.62628463 0.04079768
6
MD Step 44
C  -0.32858481 -0.56707130 -0.00700765
H  0.16099696 -1.51511502 0.04387486
H  -1.38744327 -0.64389724 0.04387519
C  0.32645679 0.56803617 -0.00703631
H  -0.14361583 1.52419113 0.03986539
H  1.39541967 0.62332376 0.03973276
6
MD Step 45
C  -0.32873964 -0.56711114 -0.00677918
H  0.15875503 -1.51607028 0.04267924
H  -1.38569696 -0.64612762 0.04259312
C  0.32668460 0.56855769 -0.00685729
H  -0.14790458 1.52470932 0.03863954
H  1.39933439 0.62025137 0.03858076
6
MD Step 46
C  -0.32889740 -0.56718348 -0.00653606
H  0.15680091 -1.51729198 0.04139575
H  -1.38447857 -0.64821781 0.04122966
C  0.32694025 0.56910926 -0.00666457
H  -0.15246052 1.52547896 0.03733168
H  1.40345966 0.61708309 0.03734204
6
MD Step 47
C  -0.32905489 -0.56728750 -0.00627881
H  0.15514363 -1.51877379 0.04002689
H  -1.38382069 -0.65015976 0.03978846
C  0.32722585 0.56969081 -0.00645830
H  -0.15724034 1.52646017 0.03594325
H  1.40771230 0.61383541 0.03601725
6
MD Step 48
C  -0.32920949 -0.56742272 -0.00600795
H  0.15378756 -1.52050292 0.03857512
H  -1.38374285 -0.65194573 0.03827284
C  0.32754319 0.57030242 -0.00623867
H  -0.16219757 1.52760837 0.03447578
H  1.41200853 0.61052567 0.03460741
6
MD Step 49
C  -0.32935930 -0.56758899 -0.00572395
H  0.15273255 -1.52246040 0.03704291
H  -1.38425089 -0.65356821 0.03668579
C  0.32789370 0.57094422 -0.00600593
H  -0.16728339 1.52887565 0.03293099
H  1.41626586 0.60717195 0.03311396
6
MD Step 50
C  -0.32950309 -0.56778646 -0.00542728
H  0.15197408 -1.52462147 0.03543278
H  -1.38533668 -0.65501995 0.03503002
C  0.32827829 0.57161629 -0.00576037
H  -0.17244743 1.53021209 0.03131080
H  1.42040478 0.60379296 0.03153880
6
MD Step 51
C  -0.32963250 -0.56800356 -0.00513539
H  0.15153807 -1.52682996 0.03383991
H  -1.38690184 -0.65621741 0.03340285
C  0.32867483 0.57227999 -0.00551650
H  -0.17734786 1.53149152 0.02971048
H  1.42412322 0.60059786 0.02997499
6
MD Step 52
C  -0.32975562 -0.56825283 -0.00483170
H  0.15137832 -1.52917955 0.03217436
H  -1.38898978 -0.65723082 0.03171163
C  0.32910574 0.57297360 -0.00526058
H  -0.18222738 1.53274230 0.02803938
H  1.42758287 0.59741521 0.02833456
6
MD Step 53
C  -0.32987331 -0.56853496 -0.00451666
H  0.15147979 -1.53163401 0.03043890
H  -1.39155545 -0.65805424 0.02995848
C  0.32957030 0.57369656 -0.00499308
H  -0.18703867 1.53391878 0.02630020
H  1.43072500 0.59426371 0.02662070
6
MD Step 54
C  -0.32998698 -0.56885068 -0.00419070
H  0.15182463 -1.53415432 0.02863651
H  -1.39454332 -0.65868220 0.02814555
C  0.33006723 0.57444788 -0.00471454
H  -0.19173589 1.53497791 0.02449603
H  1.43349831 0.59116215 0.02483702
6
MD Step 55
C  -0.33009851 -0.56920069 -0.00385432
H  0.15239263 -1.53669956 0.02677043
H  -1.39788916 -0.65910982 0.02627510
C  0.33059467 0.57522620 -0.00442557
H  -0.19627527 1.53588009 0.02263030
H  1.43585953 0.58812925 0.02298758
6
MD Step 56
C  -0.33021011 -0.56958558 -0.00350803
H  0.15316173 -1.53922788 0.02484416
H  -1.40152184 -0.65933296 0.02434960
C  0.33115017 0.57602963 -0.00412684
H  -0.20061567 1.53658991 0.02070677
H  1.43777394 0.58518351 0.02107683
6
MD Step 57
C  -0.33032424 -0.57000573 -0.00315242
H  0.15410856 -1.54169736 0.02286146
H  -1.40536534 -0.65934833 0.02237179
C  0.33173076 0.57685582 -0.00381906
H  -0.20471905 1.53707679 0.01872956
H  1.43921572 0.58234306 0.01910952
6
MD Step 58
C  -0.33044348 -0.57046124 -0.00278809
H  0.15520893 -1.54406693 0.02082643
H  -1.40934075 -0.65915362 0.02034476
C  0.33233292 0.57770187 -0.00350302
H  -0.20855091 1.53731551 0.01670311
H  1.44016815 0.57962554 0.01709074
6
MD Step 59
C  -0.33057040 -0.57095189 -0.00241572
H  0.15643829 -1.54629718 0.01874343
H  -1.41336813 -0.65874762 0.01827194
C  0.33295263 0.57856434 -0.00317954
H  -0.21208065 1.53728658 0.01463211
H  1.44062376 0.57704796 0.01502580
6
MD Step 60
C  -0.33070747 -0.57147704 -0.00203605
H  0.15777224 -1.54835108 0.01661713
H  -1.41736832 -0.65813033 0.01615721
C  0.33358541 0.57943928 -0.00284947
H  -0.21528185 1.53697652 0.01252152
H  1.44058432 0.57462653 0.01292020
6
MD Step 61
C  -0.33085735 -0.57203709 -0.00164883
H  0.15919060 -1.55019995 0.01444665
H  -1.42127527 -0.65730103 0.01399904
C  0.33422805 0.58032456 -0.00251281
H  -0.21814072 1.53637688 0.01037075
H  1.44006002 0.57237030 0.01077380
6
MD Step 62
C  -0.33102166 -0.57262902 -0.00125592
H  0.16066660 -1.55180814 0.01224300
H  -1.42500526 -0.65626427 0.01180789
C  0.33487351 0.58121280 -0.00217138
H  -0.22063168 1.53548797 0.00819089
H  1.43907163 0.57029996 0.00859806
6
MD Step 63
C  -0.33120206 -0.57325080 -0.00085822
H  0.16217847 -1.55314939 0.01001159
H  -1.42849035 -0.65502397 0.00958878
C  0.33551609 0.58209848 -0.00182610
H  -0.22274210 1.53431528 0.00598739
H  1.43764786 0.56842877 0.00639868
6
MD Step 64
C  -0.33139981 -0.57389984 -0.00045665
H  0.16370593 -1.55420200 0.00775802
H  -1.43166880 -0.65358537 0.00734711
C  0.33614983 0.58297568 -0.00147790
H  -0.22446423 1.53287060 0.00376574
H  1.43582576 0.56676882 0.00418133
6
MD Step 65
C  -0.33161575 -0.57457308 -0.00005218
H  0.16523051 -1.55494911 0.00548802
H  -1.43448594 -0.65195505 0.00508854
C  0.33676852 0.58383802 -0.00112771
H  -0.22579520 1.53117196 0.00153148
H  1.43365016 0.56533086 0.00195155
6
MD Step 66
C  -0.33185026 -0.57526695 0.00035421
H  0.16673575 -1.55537894 0.00320746
H  -1.43689483 -0.65014085 0.00281900
C  0.33736578 0.58467881 -0.00077644
H  -0.22673705 1.52924340 -0.00070993
H  1.43117306 0.56412431 -0.00028528
6
MD Step 67
C  -0.33210322 -0.57597738 0.00076151
H  0.16820734 -1.55548495 0.00092223
H  -1.43885684 -0.64815181 0.00054457
C  0.33793515 0.58549103 -0.00042497
H  -0.22729664 1.52711470 -0.00295308
H  1.42845277 0.56315717 -0.00252398
6
MD Step 68
C  -0.33237406 -0.57669988 0.00116871
H  0.16963326 -1.55526586 -0.00136174
H  -1.44034201 -0.64599809 -0.00172853
C  0.33847016 0.58626740 -0.00007417
H  -0.22748549 1.52482103 -0.00519272
H  1.42555295 0.56243598 -0.00475964
6
MD Step 69
C  -0.33266169 -0.57742950 0.00157479
H  0.17100388 -1.55472568 -0.00363857
H  -1.44132938 -0.64369092 -0.00399403
C  0.33896444 0.58700050 0.00027515
H  -0.22731962 1.52240246 -0.00742377
H  1.42254144 0.56196581 -0.00698761
6
MD Step 70
C  -0.33296456 -0.57816095 0.00197875
H  0.17231198 -1.55387361 -0.00590242
H  -1.44180713 -0.64124242 -0.00624567
C  0.33941180 0.58768277 0.00062220
H  -0.22681925 1.51990340 -0.00964139
H  1.41948891 0.56175023 -0.00920357
6
MD Step 71
C  -0.33328858 -0.57890730 0.00238991
H  0.17358549 -1.55269821 -0.00820544
H  -1.44177839 -0.63860115 -0.00853475
C  0.33981718 0.58832342 0.00097513
H  -0.22599158 1.51730746 -0.01189762
H  1.41638950 0.56178915 -0.01146014
6
MD Step 72
C  -0.33362326 -0.57964381 0.00279698
H  0.17478925 -1.55124462 -0.01048411
H  -1.44124420 -0.63584558 -0.01079760
C  0.34016418 0.58889800 0.00132436
H  -0.22488150 1.51473136 -0.01413137
H  1.41339469 0.56208554 -0.01369688
6
MD Step 73
C  -0.33396563 -0.58036421 0.00319898
H  0.17592316 -1.54953676 -0.01273295
H  -1.44022042 -0.63299036 -0.01302821
C  0.34044774 0.58939902 0.00166925
H  -0.22351991 1.51222932 -0.01633853
H  1.41057606 0.56263875 -0.01591030
6
MD Step 74
C  -0.33431226 -0.58106213 0.00359503
H  0.17698930 -1.54760269 -0.01494672
H  -1.43873186 -0.63005057 -0.01522086
C  0.34066346 0.58981924 0.00200919
H  -0.22193988 1.50985643 -0.01851526
H  1.40800127 0.56344684 -0.01809718
6
MD Step 75
C  -0.33465936 -0.58173112 0.00398424
H  0.17799183 -1.54547410 -0.01712043
H  -1.43681201 -0.62704168 -0.01737017
C  0.34080771 0.59015185 0.00234364
H  -0.22017593 1.50766752 -0.02065807
H  1.40573224 0.56450659 -0.02025447
6
MD Step 76
C  -0.33500278 -0.58236474 0.00436581
H  0.17893673 -1.54318580 -0.01924938
H  -1.43450259 -0.62397934 -0.01947111
C  0.34087770 0.59039054 0.00267206
H  -0.21826322 1.50571587 -0.02276369
H  1.40382330 0.56581363 -0.02237928
6
MD Step 77
C  -0.33533801 -0.58295668 0.00473899
H  0.17983161 -1.54077513 -0.02132915
H  -1.43185301 -0.62087928 -0.02151910
C  0.34087161 0.59052967 0.00299396
H  -0.21623669 1.50405194 -0.02482914
H  1.40231960 0.56736249 -0.02446877
6
MD Step 78
C  -0.33566031 -0.58350079 0.00510309
H  0.18068537 -1.53828127 -0.02335565
H  -1.42891972 -0.61775719 -0.02351000
C  0.34078861 0.59056437 0.00330888
H  -0.21413021 1.50272197 -0.02685160
H  1.40125562 0.56914663 -0.02652004
6
MD Step 79
C  -0.33596468 -0.58399121 0.00545749
H  0.18150789 -1.53574460 -0.02532506
H  -1.42576529 -0.61462859 -0.02544018
C  0.34062890 0.59049068 0.00361632
H  -0.21197568 1.50176668 -0.02882838
H  1.40065415 0.57115853 -0.02853008
6
MD Step 80
C  -0.33624599 -0.58442244 0.00580160
H  0.18230964 -1.53320585 -0.02723389
H  -1.42245741 -0.61150869 -0.02730649
C  0.34039372 0.59030568 0.00391580
H  -0.20980224 1.50122001 -0.03075683
H  1.40052549 0.57338967 -0.03049563
6
MD Step 81
C  -0.33650256 -0.58479474 0.00613942
H  0.18311190 -1.53067202 -0.02910377
H  -1.41902324 -0.60837115 -0.02913056
C  0.34008173 0.59000437 0.00421073
H  -0.20760677 1.50110359 -0.03265950
H  1.40086858 0.57586151 -0.03243888
6
MD Step 82
C  -0.33672558 -0.58509828 0.00646601
H  0.18391474 -1.52821618 -0.03090679
H  -1.41558213 -0.60527163 -0.03088591
C  0.33969976 0.58958939 0.00449664
H  -0.20543984 1.50143915 -0.03450837
H  1.40166676 0.57853246 -0.03433014
6
MD Step 83
C  -0.33690991 -0.58532914 0.00678095
H  0.18472819 -1.52587607 -0.03264017
H  -1.41220994 -0.60222406 -0.03257078
C  0.33925195 0.58906148 0.00477294
H  -0.20331867 1.50223448 -0.03630042
H  1.40289266 0.58139090 -0.03616506
6
MD Step 84
C  -0.33705064 -0.58548411 0.00708389
H  0.18556125 -1.52368664 -0.03430127
H  -1.40898165 -0.59924168 -0.03418382
C  0.33874318 0.58842275 0.00503898
H  -0.20125562 1.50348722 -0.03803241
H  1.40450777 0.58442412 -0.03793889
6
MD Step 85
C  -0.33714324 -0.58556078 0.00737449
H  0.18642149 -1.52167938 -0.03588763
H  -1.40596948 -0.59633705 -0.03572399
C  0.33817902 0.58767669 0.00529406
H  -0.19925807 1.50518479 -0.03970076
H  1.40646371 0.58761836 -0.03964645
6
MD Step 86
C  -0.33718366 -0.58555757 0.00765246
H  0.18731469 -1.51988161 -0.03739686
H  -1.40324103 -0.59352196 -0.03719046
C  0.33756559 0.58682815 0.00553743
H  -0.19732855 1.50730453 -0.04130157
H  1.40870381 0.59095874 -0.04128222
6
MD Step 87
C  -0.33716847 -0.58547381 0.00791750
H  0.18824453 -1.51831597 -0.03882665
H  -1.40085733 -0.59080745 -0.03858256
C  0.33690941 0.58588334 0.00576828
H  -0.19546506 1.50981418 -0.04283056
H  1.41116480 0.59442930 -0.04284035
6
MD Step 88
C  -0.33709502 -0.58530973 0.00816931
H  0.18921234 -1.51699997 -0.04017470
H  -1.39887110 -0.58820381 -0.03989964
C  0.33621734 0.58484969 0.00598576
H  -0.19366147 1.51267264 -0.04428311
H  1.41377871 0.59801298 -0.04431479
6
MD Step 89
C  -0.33696150 -0.58506651 0.00840759
H  0.19021693 -1.51594566 -0.04143870
H  -1.39732511 -0.58572059 -0.04114095
C  0.33549640 0.58373583 0.00618898
H  -0.19190824 1.51583103 -0.04565425
H  1.41647469 0.60169170 -0.04569933
6
MD Step 90
C  -0.33676709 -0.58474629 0.00863202
H  0.19125450 -1.51515945 -0.04261628
H  -1.39625085 -0.58336659 -0.04230555
C  0.33475371 0.58255141 0.00637703
H  -0.19019301 1.51923394 -0.04693878
H  1.41918086 0.60544644 -0.04698771
6
MD Step 91
C  -0.33651849 -0.58436245 0.00883594
H  0.19228823 -1.51466099 -0.04367224
H  -1.39569154 -0.58121609 -0.04335966
C  0.33401811 0.58134212 0.00654378
H  -0.18855076 1.52271965 -0.04809542
H  1.42174860 0.60914783 -0.04813798
6
MD Step 92
C  -0.33621045 -0.58390849 0.00902527
H  0.19333981 -1.51442673 -0.04463693
H  -1.39562918 -0.57921018 -0.04433431
C  0.33327474 0.58008379 0.00669355
H  -0.18691709 1.52632681 -0.04915466
H  1.42418840 0.61288531 -0.04918008
6
MD Step 93
C  -0.33584531 -0.58338909 0.00919958
H  0.19439815 -1.51444672 -0.04550786
H  -1.39605678 -0.57735544 -0.04522757
C  0.33253029 0.57878799 0.00682547
H  -0.18527641 1.52999072 -0.05011112
H  1.42643692 0.61663828 -0.05010849
6
MD Step 94
C  -0.33542647 -0.58280970 0.00935842
H  0.19545005 -1.51470612 -0.04628248
H  -1.39695470 -0.57565782 -0.04603708
C  0.33179124 0.57746667 0.00693871
H  -0.18361340 1.53364589 -0.05095949
H  1.42843559 0.62038575 -0.05091800
6
MD Step 95
C  -0.33495834 -0.58217647 0.00950128
H  0.19648047 -1.51518570 -0.04695819
H  -1.39829133 -0.57412261 -0.04676008
C  0.33106383 0.57613205 0.00703249
H  -0.18191367 1.53722745 -0.05169467
H  1.43013169 0.62410646 -0.05160389
6
MD Step 96
C  -0.33444624 -0.58149619 0.00962765
H  0.19747293 -1.51586245 -0.04753242
H  -1.40002426 -0.57275445 -0.04739344
C  0.33035397 0.57479642 0.00710609
H  -0.18016432 1.54067244 -0.05231187
H  1.43147919 0.62777912 -0.05216196
6
MD Step 97
C  -0.33389626 -0.58077614 0.00973697
H  0.19840989 -1.51671017 -0.04800258
H  -1.40210173 -0.57155731 -0.04793370
C  0.32966725 0.57347202 0.00715888
H  -0.17835451 1.54392105 -0.05280662
H  1.43243944 0.63138255 -0.05258857
6
MD Step 98
C  -0.33331521 -0.58002401 0.00982870
H  0.19927316 -1.51770025 -0.04836619
H  -1.40446430 -0.57053442 -0.04837719
C  0.32900885 0.57217082 0.00719032
H  -0.17647580 1.54691761 -0.05317498
H  1.43298171 0.63489591 -0.05288077
6
MD Step 99
C  -0.33271037 -0.57924781 0.00990229
H  0.20004436 -1.51880237 -0.04862089
H  -1.40704663 -0.56968830 -0.04872011
C  0.32838352 0.57090445 0.00719995
H  -0.17452257 1.54961161 -0.05341349
H  1.43308367 0.63829882 -0.05303626
6
MD Step 100
C  -0.33208941 -0.57845573 0.00995720
H  0.20070535 -1.51998520 -0.04876449
H  -1.40977944 -0.56902067 -0.04895866
C  0.32779559 0.56968401 0.00718743
H  -0.17249219 1.55195840 -0.05351933
H  1.43273163 0.64157160 -0.05305345
6
MD Step 101
C  -0.33144798 -0.57764047 0.00999383
H  0.20125034 -1.52124082 -0.04879672
H  -1.41264560 -0.56852116 -0.04909273
C  0.32723773 0.56849665 0.00715207
H  -0.17034477 1.55396208 -0.05349106
H  1.43190940 0.64475800 -0.05293048
6
MD Step 102
C  -0.33080638 -0.57682599 0.01001082
H  0.20165088 -1.52251387 -0.04871414
H  -1.41551783 -0.56820118 -0.04911513
C  0.32672441 0.56737561 0.00709420
H  -0.16812473 1.55554888 -0.05332639
H  1.43063249 0.64777723 -0.05266826
6
MD Step 103
C  -0.33017261 -0.57602053 0.01000775
H  0.20189165 -1.52377374 -0.04851533
H  -1.41832459 -0.56805999 -0.04902258
C  0.32625842 0.56632995 0.00701384
H  -0.16583937 1.55669473 -0.05302451
H  1.42891403 0.65061229 -0.05226743
6
MD Step 104
C  -0.32955445 -0.57523206 0.00998430
H  0.20195910 -1.52499155 -0.04819923
H  -1.42099740 -0.56809600 -0.04881223
C  0.32584194 0.56536776 0.00691111
H  -0.16349937 1.55738344 -0.05258536
H  1.42677604 0.65324745 -0.05172938
6
MD Step 105
C  -0.32895930 -0.57446820 0.00994019
H  0.20184173 -1.52614071 -0.04776515
H  -1.42347217 -0.56830679 -0.04848171
C  0.32547658 0.56449610 0.00678624
H  -0.16111872 1.55760694 -0.05200961
H  1.42424930 0.65566844 -0.05105620
6
MD Step 106
C  -0.32839411 -0.57373609 0.00987526
H  0.20153039 -1.52719738 -0.04721286
H  -1.42569044 -0.56868909 -0.04802920
C  0.32516331 0.56372088 0.00663959
H  -0.15871462 1.55736543 -0.05129868
H  1.42137302 0.65786255 -0.05025068
6
MD Step 107
C  -0.32786531 -0.57304232 0.00978940
H  0.20101842 -1.52814092 -0.04654253
H  -1.42760028 -0.56923886 -0.04745350
C  0.32490247 0.56304685 0.00647164
H  -0.15630738 1.55666738 -0.05045473
H  1.41819448 0.65981870 -0.04931629
6
MD Step 108
C  -0.32737864 -0.57239286 0.00968262
H  0.20030186 -1.52895424 -0.04575483
H  -1.42915716 -0.56995127 -0.04675405
C  0.32469377 0.56247751 0.00628298
H  -0.15392024 1.55552953 -0.04948063
H  1.41476850 0.66152755 -0.04825709
6
MD Step 109
C  -0.32693919 -0.57179297 0.00955504
H  0.19937953 -1.52962405 -0.04485086
H  -1.43032458 -0.57082080 -0.04593097
C  0.32453633 0.56201510 0.00607428
H  -0.15157913 1.55397670 -0.04837994
H  1.41115672 0.66298154 -0.04707769
6
MD Step 110
C  -0.32655127 -0.57124716 0.00940684
H  0.19825315 -1.53014108 -0.04383221
H  -1.43107449 -0.57184122 -0.04498506
C  0.32442868 0.56166057 0.00584633
H  -0.14931243 1.55204152 -0.04715683
H  1.40742672 0.66417490 -0.04578321
6
MD Step 111
C  -0.32620068 -0.57073371 0.00923054
H  0.19686697 -1.53052179 -0.04264805
H  -1.43141388 -0.57305948 -0.04386829
C  0.32436469 0.56139880 0.00558833
H  -0.14704171 1.54966042 -0.04575302
H  1.40346633 0.66515587 -0.04431275
6
MD Step 112
C  -0.32590799 -0.57028109 0.00903434
H  0.19528914 -1.53074358 -0.04135388
H  -1.43130578 -0.57441407 -0.04263243
C  0.32434592 0.56124298 0.00531291
H  -0.14490978 1.54698618 -0.04423712
H  1.39954008 0.66586988 -0.04273881
6
MD Step 113
C  -0.32567522 -0.56989154 0.00881873
H  0.19353027 -1.53080963 -0.03995275
H  -1.43074858 -0.57589676 -0.04128040
C  0.32436942 0.56119031 0.00502112
H  -0.14295183 1.54407418 -0.04261513
H  1.39573006 0.66631627 -0.04106771
6
MD Step 114
C  -0.32550351 -0.56956640 0.00858430
H  0.19160373 -1.53072727 -0.03844812
H  -1.42974994 -0.57749886 -0.03981576
C  0.32443194 0.56123686 0.00471402
H  -0.14120389 1.54098512 -0.04089340
H  1.39211889 0.66649602 -0.03930587
6
MD Step 115
C  -0.32539313 -0.56930622 0.00833171
H  0.18952549 -1.53050781 -0.03684384
H  -1.42832671 -0.57921136 -0.03824263
C  0.32453006 0.56137771 0.00439273
H  -0.13970219 1.53778396 -0.03907855
H  1.38878775 0.66641157 -0.03745974
6
MD Step 116
C  -0.32534353 -0.56911073 0.00806171
H  0.18731395 -1.53016632 -0.03514411
H  -1.42650473 -0.58102490 -0.03656571
C  0.32466032 0.56160705 0.00405835
H  -0.13848250 1.53453860 -0.03717739
H  1.38581436 0.66606669 -0.03553568
6
MD Step 117
C  -0.32535328 -0.56897889 0.00777509
H  0.18498971 -1.52972135 -0.03335341
H  -1.42431856 -0.58292995 -0.03479017
C  0.32481932 0.56191836 0.00371199
H  -0.13757937 1.53131845 -0.03519678
H  1.38327087 0.66546636 -0.03353990
6
MD Step 118
C  -0.32542016 -0.56890896 0.00747271
H  0.18257532 -1.52919454 -0.03147654
H  -1.42181107 -0.58491677 -0.03292161
C  0.32500386 0.56230457 0.00335473
H  -0.13702531 1.52819284 -0.03314361
H  1.38122169 0.66461653 -0.03147834
6
MD Step 119
C  -0.32554119 -0.56889853 0.00715548
H  0.18009498 -1.52861019 -0.02951849
H  -1.41903285 -0.58697557 -0.03096599
C  0.32521107 0.56275827 0.00298764
H  -0.13684994 1.52522921 -0.03102462
H  1.37972150 0.66352406 -0.02935669
6
MD Step 120
C  -0.32571265 -0.56894462 0.00682435
H  0.17757417 -1.52799472 -0.02748445
H  -1.41604152 -0.58909654 -0.02892957
C  0.32543849 0.56327187 0.00261174
H  -0.13707913 1.52249140 -0.02884639
H  1.37881339 0.66219650 -0.02718032
6
MD Step 121
C  -0.32592601 -0.56904220 0.00648752
H  0.17509346 -1.52738931 -0.02542406
H  -1.41296645 -0.59122390 -0.02686319
C  0.32567907 0.56382628 0.00223612
H  -0.13772461 1.52009334 -0.02666244
H  1.37854017 0.66067290 -0.02500142
6
MD Step 122
C  -0.32618059 -0.56918899 0.00613872
H  0.17262507 -1.52680899 -0.02329834
H  -1.40980928 -0.59339416 -0.02472891
C  0.32593647 0.56442590 0.00185356
H  -0.13881117 1.51802939 -0.02443148
H  1.37890430 0.65893092 -0.02277752
6
MD Step 123
C  -0.32647108 -0.56938088 0.00577893
H  0.17019545 -1.52628222 -0.02111265
H  -1.40664096 -0.59559799 -0.02253320
C  0.32620985 0.56506399 0.00146492
H  -0.14034789 1.51634071 -0.02215908
H  1.37990620 0.65697962 -0.02051305
6
MD Step 124
C  -0.32679178 -0.56961350 0.00540914
H  0.16783066 -1.52583694 -0.01887242
H  -1.40353470 -0.59782624 -0.02028252
C  0.32649888 0.56573438 0.00107101
H  -0.14233703 1.51505831 -0.01985054
H  1.38153126 0.65482856 -0.01821228
6
MD Step 125
C  -0.32713676 -0.56988237 0.00503032
H  0.16555597 -1.52549989 -0.01658306
H  -1.40056432 -0.60006998 -0.01798325
C  0.32680373 0.56643155 0.00067263
H  -0.14477356 1.51420212 -0.01751085
H  1.38375025 0.65248784 -0.01587937
6