6
MD Step 0 Units = [Angstroms / fs]
C  0.00447828 0.00447826 0.00448070
H  0.01543896 0.01546297 0.01544368
H  0.01546104 0.01545006 0.01545939
C  0.00447680 0.00447757 0.00447734
H  0.01545898 0.01545007 0.01545487
H  0.01543831 0.01545492 0.01547054
6
MD Step 1 Units = [Angstroms / fs]
C  0.00427679 0.00413320 0.00448216
H  0.01606323 0.01409104 0.01543402
H  0.01386727 0.01525052 0.01544999
C  0.00469856 0.00483620 0.00447886
H  0.01483387 0.01671274 0.01544494
H  0.01678794 0.01559848 0.01546053
6
MD Step 2 Units = [Angstroms / fs]
C  0.00409595 0.00380212 0.00448649
H  0.01667269 0.01263582 0.01540526
H  0.01205753 0.01499654 0.01542235
C  0.00493967 0.00520777 0.00448348
H  0.01422081 0.01784261 0.01541487
H  0.01787259 0.01568500 0.01542990
