 Entering Gaussian System, Link 0=g16
 Initial command:
 /software/gaussian/g16-c01/avx2/g16/l1.exe "/gpfs/fs2/scratch/bweight/software/many_molecule_many_mode_NAMD/src/NAMD/TEST_NVT/TRAJ/traj-39/G16/GS_NEW/Gau-31645.inp" -scrdir="/gpfs/fs2/scratch/bweight/software/many_molecule_many_mode_NAMD/src/NAMD/TEST_NVT/TRAJ/traj-39/G16/GS_NEW/"
 Entering Link 1 = /software/gaussian/g16-c01/avx2/g16/l1.exe PID=     31646.
  
 Copyright (c) 1988-2019, Gaussian, Inc.  All Rights Reserved.
  
 This is part of the Gaussian(R) 16 program.  It is based on
 the Gaussian(R) 09 system (copyright 2009, Gaussian, Inc.),
 the Gaussian(R) 03 system (copyright 2003, Gaussian, Inc.),
 the Gaussian(R) 98 system (copyright 1998, Gaussian, Inc.),
 the Gaussian(R) 94 system (copyright 1995, Gaussian, Inc.),
 the Gaussian 92(TM) system (copyright 1992, Gaussian, Inc.),
 the Gaussian 90(TM) system (copyright 1990, Gaussian, Inc.),
 the Gaussian 88(TM) system (copyright 1988, Gaussian, Inc.),
 the Gaussian 86(TM) system (copyright 1986, Carnegie Mellon
 University), and the Gaussian 82(TM) system (copyright 1983,
 Carnegie Mellon University). Gaussian is a federally registered
 trademark of Gaussian, Inc.
  
 This software contains proprietary and confidential information,
 including trade secrets, belonging to Gaussian, Inc.
  
 This software is provided under written license and may be
 used, copied, transmitted, or stored only in accord with that
 written license.
  
 The following legend is applicable only to US Government
 contracts under FAR:
  
                    RESTRICTED RIGHTS LEGEND
  
 Use, reproduction and disclosure by the US Government is
 subject to restrictions as set forth in subparagraphs (a)
 and (c) of the Commercial Computer Software - Restricted
 Rights clause in FAR 52.227-19.
  
 Gaussian, Inc.
 340 Quinnipiac St., Bldg. 40, Wallingford CT 06492
  
  
 ---------------------------------------------------------------
 Warning -- This program may not be used in any manner that
 competes with the business of Gaussian, Inc. or will provide
 assistance to any competitor of Gaussian, Inc.  The licensee
 of this program is prohibited from giving any competitor of
 Gaussian, Inc. access to this program.  By using this program,
 the user acknowledges that Gaussian, Inc. is engaged in the
 business of creating and licensing software in the field of
 computational chemistry and represents and warrants to the
 licensee that it is not a competitor of Gaussian, Inc. and that
 it will not use this program in any manner prohibited above.
 ---------------------------------------------------------------
  

 Cite this work as:
 Gaussian 16, Revision C.01,
 M. J. Frisch, G. W. Trucks, H. B. Schlegel, G. E. Scuseria, 
 M. A. Robb, J. R. Cheeseman, G. Scalmani, V. Barone, 
 G. A. Petersson, H. Nakatsuji, X. Li, M. Caricato, A. V. Marenich, 
 J. Bloino, B. G. Janesko, R. Gomperts, B. Mennucci, H. P. Hratchian, 
 J. V. Ortiz, A. F. Izmaylov, J. L. Sonnenberg, D. Williams-Young, 
 F. Ding, F. Lipparini, F. Egidi, J. Goings, B. Peng, A. Petrone, 
 T. Henderson, D. Ranasinghe, V. G. Zakrzewski, J. Gao, N. Rega, 
 G. Zheng, W. Liang, M. Hada, M. Ehara, K. Toyota, R. Fukuda, 
 J. Hasegawa, M. Ishida, T. Nakajima, Y. Honda, O. Kitao, H. Nakai, 
 T. Vreven, K. Throssell, J. A. Montgomery, Jr., J. E. Peralta, 
 F. Ogliaro, M. J. Bearpark, J. J. Heyd, E. N. Brothers, K. N. Kudin, 
 V. N. Staroverov, T. A. Keith, R. Kobayashi, J. Normand, 
 K. Raghavachari, A. P. Rendell, J. C. Burant, S. S. Iyengar, 
 J. Tomasi, M. Cossi, J. M. Millam, M. Klene, C. Adamo, R. Cammi, 
 J. W. Ochterski, R. L. Martin, K. Morokuma, O. Farkas, 
 J. B. Foresman, and D. J. Fox, Gaussian, Inc., Wallingford CT, 2019.
 
 ******************************************
 Gaussian 16:  ES64L-G16RevC.01  3-Jul-2019
                11-Jan-2023 
 ******************************************
 %oldchk=../GS_OLD/geometry.chk
 %chk=geometry.chk
 %nprocshared=4
 Will use up to    4 processors via shared memory.
 %mem=5GB
 Copying data from "../GS_OLD/geometry.chk" to current chk file "geometry.chk"
 IOpt=  2 FromEx=T IUOpen= 4 IOptOp= 5 NList=   0 IFRang= 0 IUIn= 4 IUOut= 2.
 -------------------------------------------------------
 # WB97XD/6-311G SCF=XQC FORCE nosym pop=full guess=read
 -------------------------------------------------------
 1/10=7,30=1,38=1/1,3;
 2/12=2,15=1,17=6,18=5,40=1/2;
 3/5=4,6=6,11=2,25=1,30=1,71=1,74=-58,116=-2/1,2,3;
 4/5=1/1;
 5/5=2,8=3,13=1,38=6/2,8;
 6/7=3,28=1/1;
 7/29=1,30=1/1,2,3,16;
 1/10=7,30=1/3;
 99//99;
 ------------
 MD Step 1000
 ------------
 Symbolic Z-matrix:
 Charge =  0 Multiplicity = 1
 C                    -0.33715  -0.58301   0.00427 
 H                     0.23257  -1.52634  -0.00671 
 H                    -1.4242   -0.57555  -0.00734 
 C                     0.33304   0.57739   0.00285 
 H                    -0.14575   1.56416  -0.00974 
 H                     1.43824   0.65662  -0.00912 
 

 GradGradGradGradGradGradGradGradGradGradGradGradGradGradGradGradGradGrad
 Berny optimization.
 Initialization pass.
 Trust Radius=3.00D-01 FncErr=1.00D-07 GrdErr=1.00D-07 EigMax=2.50D+02 EigMin=1.00D-04
 Number of steps in this run=      2 maximum allowed number of steps=      2.
 GradGradGradGradGradGradGradGradGradGradGradGradGradGradGradGradGradGrad

                          Input orientation:                          
 ---------------------------------------------------------------------
 Center     Atomic      Atomic             Coordinates (Angstroms)
 Number     Number       Type             X           Y           Z
 ---------------------------------------------------------------------
      1          6           0       -0.337147   -0.583006    0.004266
      2          1           0        0.232572   -1.526339   -0.006711
      3          1           0       -1.424198   -0.575552   -0.007343
      4          6           0        0.333039    0.577386    0.002852
      5          1           0       -0.145753    1.564156   -0.009739
      6          1           0        1.438244    0.656621   -0.009121
 ---------------------------------------------------------------------
                    Distance matrix (angstroms):
                    1          2          3          4          5
     1  C    0.000000
     2  H    1.102079   0.000000
     3  H    1.087139   1.910206   0.000000
     4  C    1.340024   2.106145   2.101727   0.000000
     5  H    2.155721   3.113567   2.492545   1.096866   0.000000
     6  H    2.165380   2.493785   3.116381   1.108106   1.825559
                    6
     6  H    0.000000
 Symmetry turned off by external request.
 Stoichiometry    C2H4
 Framework group  C1[X(C2H4)]
 Deg. of freedom    12
 Full point group                 C1      NOp   1
 Rotational constants (GHZ):         143.6246900          29.6528210          24.5794994
 Standard basis: 6-311G (5D, 7F)
    38 basis functions,    72 primitive gaussians,    38 cartesian basis functions
     8 alpha electrons        8 beta electrons
       nuclear repulsion energy        33.0664929213 Hartrees.
 NAtoms=    6 NActive=    6 NUniq=    6 SFac= 1.00D+00 NAtFMM=   60 NAOKFM=F Big=F
 Integral buffers will be    131072 words long.
 Raffenetti 2 integral format.
 Two-electron integral symmetry is turned off.
 Nuclear repulsion after empirical dispersion term =       33.0656506770 Hartrees.
 One-electron integrals computed using PRISM.
 NBasis=    38 RedAO= T EigKep=  6.47D-03  NBF=    38
 NBsUse=    38 1.00D-06 EigRej= -1.00D+00 NBFU=    38
 Initial guess from the checkpoint file:  "geometry.chk"
 B after Tr=    -0.000275   -0.000453   -0.000152
         Rot=    1.000000   -0.000000    0.000001    0.000005 Ang=  -0.00 deg.
 Keep R1 ints in memory in canonical form, NReq=4036876.
 Requested convergence on RMS density matrix=1.00D-08 within  32 cycles.
 Requested convergence on MAX density matrix=1.00D-06.
 Requested convergence on             energy=1.00D-06.
 No special actions if energy rises.
 SCF Done:  E(RwB97XD) =  -78.5555032924     A.U. after    8 cycles
            NFock=  8  Conv=0.38D-08     -V/T= 2.0051
 QCSCF skips out because SCF is already converged.

 **********************************************************************

            Population analysis using the SCF Density.

 **********************************************************************

 Alpha  occ. eigenvalues --  -10.28951 -10.28863  -0.86351  -0.67293  -0.55981
 Alpha  occ. eigenvalues --   -0.50877  -0.43693  -0.35650
 Alpha virt. eigenvalues --    0.07963   0.14097   0.16517   0.17024   0.24077
 Alpha virt. eigenvalues --    0.36967   0.39422   0.40184   0.46491   0.48867
 Alpha virt. eigenvalues --    0.49403   0.59090   0.66613   0.69189   0.77381
 Alpha virt. eigenvalues --    0.77448   0.84550   0.95046   2.23111   2.29154
 Alpha virt. eigenvalues --    2.33233   2.40827   2.67080   2.81858   2.87758
 Alpha virt. eigenvalues --    2.95204   3.14088   3.32178  23.35331  23.70459
     Molecular Orbital Coefficients:
                           1         2         3         4         5
                           O         O         O         O         O
     Eigenvalues --   -10.28951 -10.28863  -0.86351  -0.67293  -0.55981
   1 1   C  1S          0.42896  -0.36526  -0.08805   0.06717  -0.00042
   2        2S          0.35317  -0.30046  -0.13918   0.10754  -0.00069
   3        2PX         0.00012   0.00011   0.02588   0.03483   0.13914
   4        2PY         0.00021   0.00018   0.04656   0.05620  -0.07304
   5        2PZ        -0.00000   0.00000  -0.00051   0.00065   0.00011
   6        3S          0.01054  -0.01011   0.37353  -0.29350   0.00188
   7        3PX        -0.00019  -0.00071   0.03460   0.05608   0.21826
   8        3PY        -0.00030  -0.00125   0.06180   0.09183  -0.11573
   9        3PZ        -0.00001   0.00001  -0.00084   0.00118   0.00017
  10        4S         -0.00676   0.01336   0.19205  -0.22555   0.00114
  11        4PX         0.00016   0.00215   0.00497   0.02243   0.11269
  12        4PY         0.00026   0.00368   0.00884   0.03830  -0.06075
  13        4PZ         0.00002  -0.00002  -0.00029   0.00060   0.00008
  14 2   H  1S         -0.00007   0.00002   0.05209  -0.08536   0.10290
  15        2S         -0.00017  -0.00027   0.05366  -0.10371   0.13058
  16        3S          0.00169  -0.00077  -0.00191  -0.01455   0.04205
  17 3   H  1S         -0.00008   0.00002   0.05381  -0.08968  -0.10701
  18        2S         -0.00018  -0.00025   0.05477  -0.10784  -0.13456
  19        3S          0.00174  -0.00079  -0.00191  -0.01566  -0.04323
  20 4   C  1S          0.36512   0.42909  -0.08709  -0.06800  -0.00026
  21        2S          0.30066   0.35302  -0.13751  -0.10907  -0.00041
  22        2PX        -0.00011   0.00012  -0.02722   0.03922   0.11632
  23        2PY        -0.00019   0.00022  -0.04572   0.07039  -0.07448
  24        2PZ         0.00000  -0.00000  -0.00036  -0.00084   0.00012
  25        3S          0.00871   0.01159   0.36829   0.29813   0.00112
  26        3PX         0.00031  -0.00069  -0.03391   0.06329   0.18181
  27        3PY         0.00055  -0.00117  -0.05693   0.11277  -0.11522
  28        3PZ        -0.00001  -0.00001  -0.00064  -0.00148   0.00018
  29        4S         -0.00418  -0.01423   0.18893   0.23612  -0.00021
  30        4PX        -0.00054   0.00200  -0.00533   0.02783   0.10025
  31        4PY        -0.00099   0.00348  -0.00881   0.04803  -0.06261
  32        4PZ         0.00002   0.00002  -0.00027  -0.00075   0.00009
  33 5   H  1S         -0.00008  -0.00001   0.05071   0.09577  -0.08938
  34        2S         -0.00022   0.00023   0.05152   0.11316  -0.11193
  35        3S          0.00151   0.00104  -0.00093   0.01708  -0.03584
  36 6   H  1S         -0.00007  -0.00000   0.04931   0.09320   0.08408
  37        2S         -0.00022   0.00024   0.05072   0.11084   0.10597
  38        3S          0.00146   0.00102  -0.00095   0.01637   0.03430
                           6         7         8         9        10
                           O         O         O         V         V
     Eigenvalues --    -0.50877  -0.43693  -0.35650   0.07963   0.14097
   1 1   C  1S         -0.00216   0.00029  -0.00038   0.00102  -0.03467
   2        2S         -0.00305   0.00050  -0.00061   0.00169  -0.05566
   3        2PX         0.09421  -0.10932  -0.00122   0.00051  -0.03089
   4        2PY         0.16971   0.06520  -0.00202   0.00081  -0.06623
   5        2PZ         0.00177  -0.00002   0.17950  -0.18933  -0.00103
   6        3S          0.01409  -0.00121   0.00179  -0.00511   0.12174
   7        3PX         0.13643  -0.17475  -0.00172   0.00077  -0.03577
   8        3PY         0.24791   0.10478  -0.00283   0.00120  -0.08165
   9        3PZ         0.00282  -0.00003   0.28851  -0.27817  -0.00164
  10        4S         -0.06138  -0.00419   0.00264  -0.00608   1.25663
  11        4PX         0.06825  -0.10894  -0.00141   0.00458  -0.18548
  12        4PY         0.12573   0.06610  -0.00232   0.00749  -0.38422
  13        4PZ         0.00161   0.00000   0.26727  -0.69484  -0.00579
  14 2   H  1S         -0.08228  -0.11401   0.00005   0.00158  -0.01953
  15        2S         -0.11486  -0.17617   0.00071   0.00252  -0.05149
  16        3S         -0.04299  -0.08130   0.00044   0.00680  -0.85929
  17 3   H  1S         -0.07968   0.11122   0.00003   0.00159  -0.01489
  18        2S         -0.11049   0.17077   0.00070   0.00256  -0.04017
  19        3S         -0.04098   0.07856   0.00043   0.00666  -0.77994
  20 4   C  1S         -0.00994  -0.00056  -0.00029  -0.00095  -0.03505
  21        2S         -0.01566  -0.00094  -0.00048  -0.00157  -0.05627
  22        2PX        -0.09848   0.12655   0.00125   0.00064   0.04093
  23        2PY        -0.16041  -0.07478   0.00233   0.00121   0.05922
  24        2PZ         0.00208   0.00010   0.17903   0.18952  -0.00098
  25        3S          0.04941   0.00267   0.00141   0.00471   0.12385
  26        3PX        -0.14628   0.20178   0.00176   0.00099   0.05065
  27        3PY        -0.23632  -0.11834   0.00330   0.00188   0.07019
  28        3PZ         0.00327   0.00014   0.28673   0.27822  -0.00148
  29        4S         -0.01901   0.00382   0.00232   0.00499   1.21357
  30        4PX        -0.07701   0.12948   0.00135   0.00480   0.27033
  31        4PY        -0.12300  -0.07496   0.00261   0.00878   0.41258
  32        4PZ         0.00189   0.00008   0.26797   0.69587  -0.00613
  33 5   H  1S         -0.07252  -0.12588   0.00009  -0.00145  -0.00960
  34        2S         -0.09813  -0.19523   0.00080  -0.00241  -0.03452
  35        3S         -0.03663  -0.09165   0.00044  -0.00605  -0.79852
  36 6   H  1S         -0.07920   0.12572   0.00006  -0.00145  -0.01409
  37        2S         -0.10784   0.19613   0.00077  -0.00241  -0.04562
  38        3S         -0.04054   0.09213   0.00042  -0.00616  -0.87643
                          11        12        13        14        15
                           V         V         V         V         V
     Eigenvalues --     0.16517   0.17024   0.24077   0.36967   0.39422
   1 1   C  1S          0.00118  -0.04504   0.00007   0.00790   0.00103
   2        2S          0.00190  -0.07343   0.00010   0.01028   0.00162
   3        2PX         0.09819  -0.01918   0.09900  -0.03481  -0.02370
   4        2PY        -0.05383  -0.03541  -0.05676  -0.06364   0.00963
   5        2PZ         0.00006  -0.00240   0.00002  -0.00165  -0.00007
   6        3S         -0.00397   0.16692   0.00020   0.03586  -0.00085
   7        3PX         0.14004  -0.01058   0.10380  -0.04082  -0.10606
   8        3PY        -0.07792  -0.02231  -0.06068  -0.07862   0.04957
   9        3PZ         0.00008  -0.00334   0.00000  -0.00346  -0.00012
  10        4S         -0.05988   1.40355  -0.02172  -2.33984  -0.17875
  11        4PX         0.59760  -0.11337   1.16856  -1.49366  -0.52882
  12        4PY        -0.31857  -0.19317  -0.66672  -2.59356   0.13088
  13        4PZ         0.00042  -0.01568   0.00050  -0.01380  -0.00094
  14 2   H  1S         -0.02881  -0.02608   0.01389  -0.06385   0.07463
  15        2S         -0.08102  -0.01832  -0.02663  -0.70595   0.75869
  16        3S         -1.03755  -0.97780  -1.52325  -0.23819  -0.31832
  17 3   H  1S          0.02784  -0.02592  -0.01655  -0.05704  -0.07559
  18        2S          0.07960  -0.02284   0.01937  -0.65447  -0.75693
  19        3S          1.11292  -0.99644   1.55687  -0.32284   0.24004
  20 4   C  1S          0.00178   0.04294  -0.00011  -0.01978  -0.00012
  21        2S          0.00285   0.06986  -0.00019  -0.03272  -0.00005
  22        2PX         0.09943  -0.02509  -0.10103  -0.03922  -0.03158
  23        2PY        -0.06130  -0.03844   0.05791  -0.06956   0.01330
  24        2PZ         0.00011   0.00241  -0.00002   0.00118   0.00012
  25        3S         -0.00578  -0.15419   0.00033   0.04778  -0.00347
  26        3PX         0.14279  -0.02085  -0.11551  -0.09186  -0.10983
  27        3PY        -0.08649  -0.02820   0.06475  -0.16481   0.05718
  28        3PZ         0.00015   0.00331  -0.00001   0.00135   0.00023
  29        4S         -0.07954  -1.37532   0.01510   3.12185   0.16709
  30        4PX         0.52338  -0.12980  -1.12659  -1.05262  -0.58147
  31        4PY        -0.33200  -0.20957   0.65519  -1.84834   0.11898
  32        4PZ         0.00068   0.01571  -0.00050   0.01305   0.00093
  33 5   H  1S          0.03098   0.02375   0.00581   0.00412  -0.08174
  34        2S          0.06586   0.02093  -0.03457  -0.00781  -0.80613
  35        3S          1.08914   0.95718  -1.55219   0.43836   0.47262
  36 6   H  1S         -0.03107   0.02499  -0.00410  -0.00000   0.08841
  37        2S         -0.06640   0.01952   0.03632  -0.04477   0.90117
  38        3S         -0.98133   0.97723   1.53039   0.44475  -0.45298
                          16        17        18        19        20
                           V         V         V         V         V
     Eigenvalues --     0.40184   0.46491   0.48867   0.49403   0.59090
   1 1   C  1S         -0.02028  -0.01091   0.04661  -0.00033  -0.00021
   2        2S         -0.03522  -0.02638   0.07811  -0.00046  -0.00037
   3        2PX         0.03135   0.06041  -0.01391   0.00050   0.00074
   4        2PY         0.05740   0.10528  -0.01762   0.00063   0.00103
   5        2PZ         0.00022   0.00007  -0.00253  -0.15229  -0.19227
   6        3S          0.07447   0.33415  -0.10176  -0.00280  -0.00021
   7        3PX         0.11025   0.24024   0.02954  -0.00001   0.00246
   8        3PY         0.20838   0.41575   0.06393  -0.00076   0.00344
   9        3PZ        -0.00120   0.00124  -0.01140  -0.62953  -0.68376
  10        4S          3.01901  -0.30419  -3.00064   0.04410   0.02522
  11        4PX         0.41318  -0.28974  -0.82024   0.01403   0.00799
  12        4PY         0.75549  -0.53709  -1.42479   0.02522   0.01445
  13        4PZ        -0.00012   0.00007   0.03607   0.68846   1.23927
  14 2   H  1S         -0.02279   0.03464   0.07443  -0.00129  -0.00062
  15        2S         -0.49472   0.33934   0.87695  -0.01283  -0.00466
  16        3S          0.36835  -0.09813  -0.65093   0.01398   0.00861
  17 3   H  1S         -0.03059   0.03705   0.07202  -0.00125  -0.00059
  18        2S         -0.56467   0.36686   0.84680  -0.01247  -0.00412
  19        3S          0.38332  -0.09666  -0.61230   0.01340   0.00833
  20 4   C  1S          0.00241   0.00123  -0.05088   0.00134   0.00025
  21        2S          0.00031  -0.00555  -0.08845   0.00241   0.00047
  22        2PX         0.01165  -0.05563  -0.02607   0.00009   0.00078
  23        2PY         0.02226  -0.09563  -0.04836   0.00011   0.00156
  24        2PZ        -0.00147   0.00076  -0.00257  -0.15257   0.19230
  25        3S          0.07474   0.29128   0.22454  -0.00877  -0.00088
  26        3PX        -0.03796  -0.23657  -0.05292   0.00012   0.00275
  27        3PY        -0.05429  -0.41151  -0.09515  -0.00019   0.00544
  28        3PZ        -0.00397   0.00307  -0.00992  -0.63131   0.68296
  29        4S         -1.24448  -0.63060   3.14881  -0.05462  -0.02220
  30        4PX         1.39895   0.27601  -0.57787   0.00734   0.00765
  31        4PY         2.52118   0.44668  -0.97946   0.01253   0.01263
  32        4PZ        -0.01466   0.00598  -0.00999   0.69117  -1.23762
  33 5   H  1S         -0.04318   0.06344  -0.06592   0.00119   0.00057
  34        2S         -0.82632   0.66120  -0.85079   0.01741   0.00210
  35        3S         -0.29108  -0.23270   0.52646  -0.00552  -0.00828
  36 6   H  1S         -0.03542   0.06192  -0.06626   0.00121   0.00059
  37        2S         -0.73417   0.64079  -0.84964   0.01735   0.00234
  38        3S         -0.30435  -0.25099   0.55253  -0.00617  -0.00837
                          21        22        23        24        25
                           V         V         V         V         V
     Eigenvalues --     0.66613   0.69189   0.77381   0.77448   0.84550
   1 1   C  1S          0.00106   0.00055   0.03736   0.08033   0.00084
   2        2S          0.00221   0.00123   0.07864   0.17109   0.00200
   3        2PX        -0.14500  -0.18879  -0.04596   0.10876  -0.00728
   4        2PY         0.08502   0.11460  -0.07599   0.17411   0.01460
   5        2PZ        -0.00006  -0.00010  -0.00003   0.00166   0.00006
   6        3S         -0.01827  -0.01724  -0.47944  -1.44545  -0.02342
   7        3PX        -0.65586  -0.65285  -0.25230   0.41021  -0.22516
   8        3PY         0.37987   0.39703  -0.41936   0.64377   0.17199
   9        3PZ        -0.00029  -0.00037   0.00007   0.00579   0.00018
  10        4S          0.03447   0.07747   0.31253   2.51741  -0.02298
  11        4PX         1.08284   0.74333   0.32204  -0.73262   4.56773
  12        4PY        -0.62830  -0.46130   0.37305  -0.93302  -2.61127
  13        4PZ         0.00027  -0.00038   0.00646  -0.01848   0.00223
  14 2   H  1S          0.02800   0.05714   0.00394   0.03422  -0.02772
  15        2S          0.19067   0.60715   0.04682   0.10095  -1.60004
  16        3S         -1.09594  -1.04431   0.08800  -1.07732  -1.23493
  17 3   H  1S         -0.02712  -0.05653   0.00373   0.03514   0.03172
  18        2S         -0.21030  -0.64441   0.09031   0.06973   1.64646
  19        3S          1.08266   1.00093   0.14488  -1.24489   1.23785
  20 4   C  1S          0.00132   0.00032   0.07761   0.04613   0.00072
  21        2S          0.00267   0.00058   0.16540   0.09733   0.00141
  22        2PX        -0.13939   0.19482  -0.10391   0.03487   0.00787
  23        2PY         0.08002  -0.10724  -0.18986   0.06528   0.00482
  24        2PZ        -0.00004   0.00010   0.00204  -0.00010  -0.00008
  25        3S         -0.01898   0.00324  -1.40767  -0.64120  -0.00488
  26        3PX        -0.64556   0.67495  -0.39217   0.21308   0.22092
  27        3PY         0.37402  -0.36862  -0.72394   0.39278  -0.08269
  28        3PZ        -0.00023   0.00035   0.00727  -0.00059  -0.00021
  29        4S          0.01159  -0.05448   2.60206   0.59822   0.00236
  30        4PX         1.28097  -0.87235   0.54044  -0.14489  -4.12566
  31        4PY        -0.73562   0.47011   1.15454  -0.50897   2.35421
  32        4PZ         0.00050   0.00029  -0.02107   0.00624  -0.00186
  33 5   H  1S         -0.02114   0.05629   0.03309   0.00919  -0.02401
  34        2S         -0.09683   0.56203   0.07204   0.09485  -1.40828
  35        3S          1.06941  -1.06415  -1.22437   0.09843  -1.09036
  36 6   H  1S          0.02207  -0.05627   0.03239   0.00985   0.02340
  37        2S          0.09188  -0.52550   0.08941   0.03210   1.38544
  38        3S         -1.07313   1.09239  -1.11322   0.02621   1.10179
                          26        27        28        29        30
                           V         V         V         V         V
     Eigenvalues --     0.95046   2.23111   2.29154   2.33233   2.40827
   1 1   C  1S          0.09611  -0.00940  -0.01448   0.00050   0.00054
   2        2S          0.19976   0.00274  -0.01374   0.00102   0.00064
   3        2PX        -0.09071  -0.06911  -0.13169   0.35943   0.40271
   4        2PY        -0.15727  -0.13174  -0.23218  -0.20399  -0.22740
   5        2PZ         0.00017  -0.00463  -0.00670   0.00009   0.00034
   6        3S         -1.55018  -0.18920  -0.04534  -0.00111   0.00518
   7        3PX        -0.23145   0.06120   0.20585  -0.43472  -0.56267
   8        3PY        -0.39165   0.13324   0.37938   0.24941   0.31949
   9        3PZ        -0.00063   0.00464   0.00829  -0.00006  -0.00041
  10        4S          5.70634  -0.07967  -0.86979   0.00384   0.02060
  11        4PX         1.21675   0.05673  -0.18689  -0.08995  -1.00114
  12        4PY         1.97945   0.07069  -0.36348   0.04082   0.55077
  13        4PZ        -0.00821   0.00074   0.00316  -0.00015  -0.00079
  14 2   H  1S          0.01540  -0.68689  -0.81916  -0.72144  -0.62924
  15        2S         -0.29224   0.97012   1.22024   1.13180   1.43381
  16        3S         -0.10424  -0.29514  -0.49218  -0.47315  -0.34883
  17 3   H  1S          0.01581  -0.67792  -0.81299   0.71571   0.65359
  18        2S         -0.25077   0.95928   1.21710  -1.12839  -1.48556
  19        3S         -0.07920  -0.27065  -0.46812   0.46147   0.33889
  20 4   C  1S         -0.09364  -0.01129   0.01246   0.00051  -0.00039
  21        2S         -0.19413  -0.00159   0.01307   0.00075  -0.00068
  22        2PX        -0.09201   0.14367  -0.11975   0.29067  -0.42163
  23        2PY        -0.15862   0.24771  -0.19888  -0.16921   0.24343
  24        2PZ         0.00021  -0.00573   0.00644   0.00016  -0.00021
  25        3S          1.50000  -0.16280   0.01295   0.00022  -0.00038
  26        3PX        -0.22403  -0.18412   0.20686  -0.35842   0.58917
  27        3PY        -0.39348  -0.31086   0.33580   0.20536  -0.34018
  28        3PZ         0.00159   0.00615  -0.00824  -0.00016   0.00028
  29        4S         -5.68498  -0.20600   0.89471   0.01570  -0.00597
  30        4PX         1.08318  -0.01441  -0.19481   0.13784   0.85876
  31        4PY         1.97814  -0.03634  -0.30382  -0.07730  -0.50932
  32        4PZ         0.00339   0.00210  -0.00221  -0.00001   0.00070
  33 5   H  1S         -0.01778  -0.80594   0.64984   0.68777  -0.70903
  34        2S          0.28781   1.17752  -0.99886  -0.98391   1.49453
  35        3S          0.06137  -0.35780   0.38090   0.50074  -0.43562
  36 6   H  1S         -0.01759  -0.80143   0.67337  -0.67443   0.70355
  37        2S          0.31988   1.16858  -1.02742   0.96112  -1.47628
  38        3S          0.07741  -0.36270   0.41258  -0.49806   0.44495
                          31        32        33        34        35
                           V         V         V         V         V
     Eigenvalues --     2.67080   2.81858   2.87758   2.95204   3.14088
   1 1   C  1S          0.00018  -0.00096  -0.01376   0.00008  -0.01004
   2        2S          0.00013  -0.00271  -0.04423  -0.00012  -0.03065
   3        2PX         0.00163  -0.02735  -0.48541  -0.71769   0.43681
   4        2PY         0.00221  -0.04799  -0.88039   0.40257   0.75991
   5        2PZ        -0.92653   0.93677  -0.05106  -0.00057   0.00150
   6        3S         -0.00051   0.02220   0.38367   0.00352   0.25673
   7        3PX        -0.00107   0.04710   0.84971   0.86327  -0.40900
   8        3PY        -0.00135   0.08196   1.51071  -0.46970  -0.70799
   9        3PZ         0.94247  -1.14553   0.06380   0.00076  -0.00205
  10        4S          0.00465  -0.05241  -0.88233  -0.01040  -0.50860
  11        4PX        -0.00087  -0.03753  -0.71626  -0.67269   0.19544
  12        4PY        -0.00128  -0.06580  -1.27814   0.35496   0.33239
  13        4PZ        -0.33945   0.62173  -0.04010  -0.00061   0.00108
  14 2   H  1S          0.00448   0.00698   0.25738  -0.37275  -0.20464
  15        2S         -0.00507  -0.00411  -0.21125   0.39260   0.15519
  16        3S         -0.00106  -0.01530  -0.30032   0.27151   0.04328
  17 3   H  1S          0.00454   0.00668   0.24525   0.37328  -0.20712
  18        2S         -0.00521  -0.00335  -0.18879  -0.38842   0.15709
  19        3S         -0.00128  -0.01555  -0.30335  -0.29134   0.05354
  20 4   C  1S          0.00019   0.00091   0.01349   0.00059  -0.00740
  21        2S          0.00019   0.00285   0.04814   0.00136  -0.02222
  22        2PX        -0.00293  -0.02379  -0.39885  -0.81784  -0.51265
  23        2PY        -0.00558  -0.04257  -0.70807   0.45123  -0.91222
  24        2PZ        -0.92301  -0.94007   0.05366   0.00007   0.00591
  25        3S         -0.00112  -0.02453  -0.43446  -0.01009   0.18768
  26        3PX         0.00308   0.04362   0.76247   0.97996   0.55991
  27        3PY         0.00576   0.07740   1.34603  -0.53379   1.00642
  28        3PZ         0.93819   1.14871  -0.06784  -0.00008  -0.00745
  29        4S          0.00584   0.05295   0.90114   0.02921  -0.35356
  30        4PX        -0.00040  -0.03755  -0.71197  -0.70316  -0.35107
  31        4PY        -0.00097  -0.06580  -1.24225   0.37779  -0.63715
  32        4PZ        -0.33719  -0.62259   0.04347   0.00003   0.00585
  33 5   H  1S          0.00414  -0.01040  -0.29632   0.41993  -0.27647
  34        2S         -0.00513   0.00850   0.27096  -0.42429   0.21786
  35        3S         -0.00054   0.01432   0.28624  -0.25077   0.14175
  36 6   H  1S          0.00419  -0.01048  -0.29368  -0.43291  -0.26212
  37        2S         -0.00533   0.00894   0.27544   0.43726   0.20632
  38        3S         -0.00037   0.01356   0.26977   0.25093   0.13056
                          36        37        38
                           V         V         V
     Eigenvalues --     3.32178  23.35331  23.70459
   1 1   C  1S         -0.00046  -1.41855  -1.44783
   2        2S         -0.00061   1.51299   1.56564
   3        2PX         0.79512  -0.00651   0.01215
   4        2PY        -0.44200  -0.01047   0.02146
   5        2PZ         0.00052  -0.00019  -0.00010
   6        3S         -0.00090  -0.29791  -0.39807
   7        3PX        -1.13506   0.02348  -0.05542
   8        3PY         0.62535   0.03846  -0.09672
   9        3PZ        -0.00078   0.00053   0.00033
  10        4S         -0.00667   0.27975   0.76424
  11        4PX         2.00283  -0.02426   0.13335
  12        4PY        -1.10294  -0.04039   0.22922
  13        4PZ         0.00133  -0.00092  -0.00127
  14 2   H  1S          0.56800   0.01238   0.00678
  15        2S         -0.88997   0.00788  -0.01442
  16        3S         -0.46314  -0.08363  -0.03939
  17 3   H  1S         -0.58174   0.01454   0.00826
  18        2S          0.90957   0.00735  -0.01445
  19        3S          0.49396  -0.08638  -0.03956
  20 4   C  1S          0.00013  -1.44307   1.42323
  21        2S         -0.00014   1.53908  -1.53900
  22        2PX        -0.69897   0.00635   0.01264
  23        2PY         0.40221   0.01153   0.02143
  24        2PZ        -0.00043  -0.00022   0.00004
  25        3S          0.00505  -0.30172   0.39055
  26        3PX         0.99702  -0.02309  -0.05613
  27        3PY        -0.58415  -0.04145  -0.09627
  28        3PZ         0.00066   0.00062  -0.00007
  29        4S         -0.01834   0.27490  -0.75878
  30        4PX        -1.76730   0.02518   0.12956
  31        4PY         1.04561   0.04624   0.22481
  32        4PZ        -0.00115  -0.00099   0.00067
  33 5   H  1S          0.48036   0.01442  -0.00535
  34        2S         -0.75054   0.00780   0.01410
  35        3S         -0.43911  -0.08382   0.03793
  36 6   H  1S         -0.47371   0.01273  -0.00407
  37        2S          0.74238   0.00899   0.01375
  38        3S          0.42375  -0.08157   0.03744
     Density Matrix:
                           1         2         3         4         5
   1 1   C  1S          0.65939
   2        2S          0.56146   0.49192
   3        2PX        -0.00044  -0.00057   0.08414
   4        2PY        -0.00123  -0.00170   0.00373   0.08743
   5        2PZ         0.00003   0.00005  -0.00005  -0.00012   0.06445
   6        3S         -0.08884  -0.15368   0.00233   0.00613  -0.00007
   7        3PX         0.00092   0.00141   0.13035   0.00117  -0.00004
   8        3PY         0.00120   0.00184   0.00120   0.13080  -0.00011
   9        3PZ         0.00006   0.00010  -0.00008  -0.00018   0.10359
  10        4S         -0.07942  -0.11442  -0.01611  -0.02902   0.00024
  11        4PX         0.00025   0.00158   0.06986  -0.00451  -0.00021
  12        4PY         0.00067   0.00313  -0.00454   0.06531  -0.00037
  13        4PZ        -0.00004  -0.00010  -0.00030  -0.00050   0.09596
  14 2   H  1S         -0.02051  -0.03267   0.03481  -0.06257  -0.00041
  15        2S         -0.02304  -0.03686   0.04876  -0.08769  -0.00030
  16        3S          0.00050  -0.00082   0.02026  -0.03315   0.00000
  17 3   H  1S         -0.02111  -0.03360  -0.07257  -0.00198  -0.00047
  18        2S         -0.02341  -0.03739  -0.10028  -0.00260  -0.00038
  19        3S          0.00056  -0.00075  -0.03812   0.00071  -0.00002
  20 4   C  1S          0.00604   0.00973  -0.01088  -0.01885  -0.00014
  21        2S          0.00969   0.01515  -0.01742  -0.03018  -0.00023
  22        2PX         0.01028   0.01643  -0.01254  -0.03205   0.00020
  23        2PY         0.01789   0.02860  -0.03207  -0.04967   0.00040
  24        2PZ        -0.00019  -0.00031  -0.00011  -0.00015   0.06428
  25        3S         -0.02601  -0.03951   0.04887   0.08476   0.00070
  26        3PX         0.01584   0.02453  -0.01843  -0.04594   0.00026
  27        3PY         0.02755   0.04267  -0.04582  -0.07145   0.00053
  28        3PZ        -0.00032  -0.00052  -0.00020  -0.00028   0.10295
  29        4S          0.00534   0.00391   0.02174   0.03819   0.00088
  30        4PX         0.00307   0.00634  -0.01326  -0.02127   0.00027
  31        4PY         0.00515   0.01075  -0.02132  -0.03781   0.00056
  32        4PZ        -0.00026  -0.00043  -0.00036  -0.00055   0.09621
  33 5   H  1S          0.00419   0.00687  -0.00172  -0.01249  -0.00017
  34        2S          0.00618   0.01026   0.00359  -0.02490   0.00002
  35        3S          0.00312   0.00455   0.00430  -0.01731   0.00005
  36 6   H  1S          0.00412   0.00676  -0.00997  -0.00770  -0.00017
  37        2S          0.00608   0.01013  -0.02336  -0.00933   0.00000
  38        3S          0.00307   0.00450  -0.01714  -0.00501   0.00003
                           6         7         8         9        10
   6        3S          0.45217
   7        3PX        -0.00198   0.20226
   8        3PY        -0.00143  -0.00490   0.19618
   9        3PZ        -0.00021  -0.00007  -0.00017   0.16650
  10        4S          0.27375  -0.02682  -0.04931   0.00032   0.18355
  11        4PX        -0.00689   0.10875  -0.01033  -0.00034  -0.01537
  12        4PY        -0.01280  -0.01041   0.09838  -0.00058  -0.02992
  13        4PZ         0.00044  -0.00040  -0.00066   0.15423   0.00083
  14 2   H  1S          0.08736   0.05634  -0.09774  -0.00068   0.06981
  15        2S          0.09865   0.07931  -0.13651  -0.00052   0.08327
  16        3S          0.00631   0.03328  -0.05100  -0.00000   0.01184
  17 3   H  1S          0.08992  -0.11366  -0.00125  -0.00078   0.06973
  18        2S          0.10019  -0.15688  -0.00089  -0.00062   0.08151
  19        3S          0.00631  -0.05940   0.00304  -0.00004   0.01056
  20 4   C  1S         -0.02641  -0.01703  -0.02953  -0.00024   0.00498
  21        2S         -0.03995  -0.02649  -0.04595  -0.00039   0.00368
  22        2PX        -0.04600  -0.01782  -0.04540   0.00034  -0.01684
  23        2PY        -0.08010  -0.04542  -0.07070   0.00066  -0.02915
  24        2PZ         0.00092  -0.00015  -0.00019   0.10332   0.00093
  25        3S          0.10148   0.07193   0.12503   0.00117   0.00109
  26        3PX        -0.06638  -0.02633  -0.06490   0.00045  -0.02491
  27        3PY        -0.11548  -0.06472  -0.10165   0.00090  -0.04302
  28        3PZ         0.00151  -0.00028  -0.00036   0.16547   0.00153
  29        4S          0.00220   0.03296   0.05817   0.00147  -0.03196
  30        4PX        -0.02247  -0.01976  -0.02981   0.00045  -0.00594
  31        4PY        -0.03838  -0.02992  -0.05449   0.00092  -0.00935
  32        4PZ         0.00125  -0.00050  -0.00075   0.15463   0.00142
  33 5   H  1S         -0.02041  -0.00056  -0.01779  -0.00024  -0.01397
  34        2S         -0.03065   0.00886  -0.03651   0.00006  -0.01782
  35        3S         -0.01165   0.00824  -0.02605   0.00008  -0.00287
  36 6   H  1S         -0.02009  -0.01498  -0.00917  -0.00025  -0.01424
  37        2S         -0.03030  -0.03578  -0.01027   0.00004  -0.01867
  38        3S         -0.01154  -0.02652  -0.00585   0.00006  -0.00346
                          11        12        13        14        15
  11        4PX         0.05952
  12        4PY        -0.00910   0.05086
  13        4PZ        -0.00049  -0.00081   0.14287
  14 2   H  1S          0.03349  -0.05388  -0.00035   0.08071
  15        2S          0.04801  -0.07504  -0.00012   0.10924   0.14983
  16        3S          0.02065  -0.02782   0.00009   0.03655   0.05232
  17 3   H  1S         -0.06271   0.00175  -0.00040  -0.01335  -0.02445
  18        2S         -0.08691   0.00384  -0.00017  -0.02433  -0.04168
  19        3S         -0.03318   0.00409   0.00007  -0.01759  -0.02651
  20 4   C  1S         -0.00325  -0.00594  -0.00023   0.00421   0.00682
  21        2S         -0.00667  -0.01204  -0.00036   0.00697   0.01139
  22        2PX        -0.01332  -0.01965   0.00043   0.00176  -0.00264
  23        2PY        -0.01969  -0.03660   0.00083   0.01134   0.02424
  24        2PZ        -0.00026  -0.00038   0.09571  -0.00022  -0.00009
  25        3S          0.02349   0.04207   0.00106  -0.02104  -0.03432
  26        3PX        -0.02046  -0.02796   0.00060   0.00114  -0.00677
  27        3PY        -0.02796  -0.05346   0.00115   0.01698   0.03640
  28        3PZ        -0.00043  -0.00064   0.15328  -0.00032  -0.00011
  29        4S          0.00893   0.01706   0.00135  -0.01841  -0.02572
  30        4PX        -0.01493  -0.01238   0.00053  -0.00153  -0.00809
  31        4PY        -0.01249  -0.02970   0.00105   0.01533   0.02741
  32        4PZ        -0.00053  -0.00083   0.14325  -0.00019   0.00007
  33 5   H  1S          0.00218  -0.01579  -0.00012   0.01118   0.02325
  34        2S          0.00950  -0.02731   0.00020   0.02368   0.04416
  35        3S          0.00765  -0.01567   0.00013   0.01654   0.02770
  36 6   H  1S         -0.01458  -0.00550  -0.00012  -0.00910  -0.01818
  37        2S         -0.02809  -0.00468   0.00019  -0.01881  -0.03420
  38        3S         -0.01715  -0.00094   0.00012  -0.01017  -0.01768
                          16        17        18        19        20
  16        3S          0.02089
  17 3   H  1S         -0.01783   0.08221
  18        2S         -0.02666   0.10963   0.14822
  19        3S         -0.01242   0.03586   0.05069   0.01994
  20 4   C  1S          0.00380   0.00430   0.00686   0.00381   0.65948
  21        2S          0.00563   0.00710   0.01143   0.00560   0.56161
  22        2PX        -0.00336   0.00898   0.02225   0.01677   0.00118
  23        2PY         0.01782   0.00732   0.00976   0.00581   0.00175
  24        2PZ        -0.00000  -0.00021  -0.00007   0.00002   0.00003
  25        3S         -0.01466  -0.02135  -0.03427  -0.01445  -0.08937
  26        3PX        -0.00665   0.01428   0.03495   0.02612  -0.00049
  27        3PY         0.02682   0.00964   0.01226   0.00743  -0.00114
  28        3PZ         0.00001  -0.00031  -0.00007   0.00003   0.00007
  29        4S         -0.00659  -0.01809  -0.02466  -0.00593  -0.07992
  30        4PX        -0.00679   0.01405   0.02768   0.01713  -0.00020
  31        4PY         0.01613   0.00676   0.00710   0.00224  -0.00017
  32        4PZ         0.00009  -0.00018   0.00009   0.00010  -0.00002
  33 5   H  1S          0.01621  -0.00903  -0.01801  -0.00930  -0.02030
  34        2S          0.02728  -0.01858  -0.03364  -0.01670  -0.02210
  35        3S          0.01455  -0.01004  -0.01735  -0.00883   0.00068
  36 6   H  1S         -0.00946   0.01118   0.02311   0.01587  -0.01993
  37        2S         -0.01713   0.02371   0.04395   0.02683  -0.02200
  38        3S         -0.00908   0.01657   0.02756   0.01433   0.00056
                          21        22        23        24        25
  21        2S          0.49215
  22        2PX         0.00170   0.08305
  23        2PY         0.00248   0.00336   0.08785
  24        2PZ         0.00005   0.00005   0.00005   0.06412
  25        3S         -0.15445  -0.00546  -0.00812  -0.00005   0.45436
  26        3PX        -0.00073   0.12899   0.00169   0.00002  -0.00022
  27        3PY        -0.00173   0.00174   0.13178   0.00000   0.00106
  28        3PZ         0.00011   0.00007   0.00009   0.10269  -0.00022
  29        4S         -0.11544   0.01290   0.02153   0.00022   0.27770
  30        4PX        -0.00143   0.07374  -0.00518   0.00017   0.00601
  31        4PY        -0.00215  -0.00506   0.06758   0.00032   0.00953
  32        4PZ        -0.00005   0.00030   0.00054   0.09596   0.00030
  33 5   H  1S         -0.03232  -0.03362   0.06425  -0.00051   0.08642
  34        2S         -0.03529  -0.05005   0.08858  -0.00041   0.09444
  35        3S         -0.00048  -0.02293   0.03329  -0.00005   0.00537
  36 6   H  1S         -0.03176   0.07161   0.00269  -0.00045   0.08493
  37        2S         -0.03517   0.10147   0.00045  -0.00033   0.09408
  38        3S         -0.00064   0.04062  -0.00349  -0.00002   0.00567
                          26        27        28        29        30
  26        3PX         0.20065
  27        3PY        -0.00236   0.19820
  28        3PZ         0.00003   0.00001   0.16446
  29        4S          0.02413   0.03992   0.00027   0.18410
  30        4PX         0.11512  -0.01046   0.00027   0.01496   0.06711
  31        4PY        -0.01035   0.10215   0.00052   0.02341  -0.01023
  32        4PZ         0.00038   0.00069   0.15369   0.00072   0.00044
  33 5   H  1S         -0.05340   0.10049  -0.00084   0.06623  -0.03456
  34        2S         -0.07995   0.13804  -0.00068   0.07519  -0.05213
  35        3S         -0.03707   0.05122  -0.00007   0.00838  -0.02431
  36 6   H  1S          0.11293   0.00371  -0.00075   0.06658   0.06627
  37        2S          0.15982  -0.00064  -0.00056   0.07706   0.09428
  38        3S          0.06365  -0.00675  -0.00003   0.00956   0.03790
                          31        32        33        34        35
  31        4PY         0.05414
  32        4PZ         0.00084   0.14363
  33 5   H  1S          0.05621  -0.00044   0.08167
  34        2S          0.07739  -0.00019   0.11029   0.15147
  35        3S          0.02890   0.00005   0.03797   0.05477   0.02264
  36 6   H  1S         -0.00181  -0.00040  -0.01234  -0.02619  -0.02018
  37        2S         -0.00638  -0.00014  -0.02630  -0.04883  -0.03195
  38        3S         -0.00654   0.00007  -0.02041  -0.03209  -0.01581
                          36        37        38
  36 6   H  1S          0.08053
  37        2S          0.10988   0.15237
  38        3S          0.03831   0.05568   0.02316
    Full Mulliken population analysis:
                           1         2         3         4         5
   1 1   C  1S          0.65939
   2        2S          0.49321   0.49192
   3        2PX         0.00000   0.00000   0.08414
   4        2PY         0.00000   0.00000   0.00000   0.08743
   5        2PZ         0.00000   0.00000   0.00000   0.00000   0.06445
   6        3S         -0.02924  -0.06436   0.00000   0.00000   0.00000
   7        3PX         0.00000   0.00000   0.08201   0.00000   0.00000
   8        3PY         0.00000   0.00000   0.00000   0.08229   0.00000
   9        3PZ         0.00000   0.00000   0.00000   0.00000   0.06517
  10        4S         -0.01221  -0.02141   0.00000   0.00000   0.00000
  11        4PX         0.00000   0.00000   0.01539   0.00000   0.00000
  12        4PY         0.00000   0.00000   0.00000   0.01438   0.00000
  13        4PZ         0.00000   0.00000   0.00000   0.00000   0.02113
  14 2   H  1S         -0.00022  -0.00032   0.00182   0.00541   0.00000
  15        2S         -0.00166  -0.00318   0.00436   0.01299   0.00000
  16        3S          0.00004  -0.00008   0.00070   0.00189  -0.00000
  17 3   H  1S         -0.00025  -0.00036   0.00782  -0.00000   0.00000
  18        2S         -0.00175  -0.00334   0.01767  -0.00000   0.00000
  19        3S          0.00004  -0.00007   0.00254   0.00000   0.00000
  20 4   C  1S          0.00000   0.00000  -0.00002  -0.00006   0.00000
  21        2S          0.00000  -0.00000  -0.00002  -0.00005   0.00000
  22        2PX        -0.00002  -0.00002   0.00011   0.00084   0.00000
  23        2PY        -0.00006  -0.00005   0.00084   0.00194   0.00000
  24        2PZ        -0.00000  -0.00000  -0.00000  -0.00000   0.00041
  25        3S         -0.00058  -0.00098   0.00254   0.00762  -0.00000
  26        3PX        -0.00053  -0.00098   0.00020   0.00553   0.00000
  27        3PY        -0.00160  -0.00294   0.00552   0.01069   0.00000
  28        3PZ        -0.00000  -0.00000  -0.00000  -0.00000   0.00607
  29        4S          0.00034   0.00030   0.00099   0.00300  -0.00000
  30        4PX        -0.00018  -0.00045  -0.00071   0.00147   0.00000
  31        4PY        -0.00052  -0.00132   0.00148   0.00099   0.00000
  32        4PZ        -0.00000  -0.00000  -0.00000  -0.00000   0.00903
  33 5   H  1S          0.00000   0.00000  -0.00000  -0.00000   0.00000
  34        2S          0.00001   0.00002   0.00000  -0.00031  -0.00000
  35        3S          0.00007   0.00012   0.00002  -0.00069  -0.00000
  36 6   H  1S          0.00000   0.00000  -0.00000  -0.00000   0.00000
  37        2S          0.00001   0.00002  -0.00023  -0.00006  -0.00000
  38        3S          0.00007   0.00012  -0.00056  -0.00011  -0.00000
                           6         7         8         9        10
   6        3S          0.45217
   7        3PX         0.00000   0.20226
   8        3PY         0.00000   0.00000   0.19618
   9        3PZ         0.00000   0.00000   0.00000   0.16650
  10        4S          0.21207   0.00000   0.00000   0.00000   0.18355
  11        4PX         0.00000   0.07106   0.00000   0.00000   0.00000
  12        4PY         0.00000   0.00000   0.06429   0.00000   0.00000
  13        4PZ         0.00000   0.00000   0.00000   0.10078   0.00000
  14 2   H  1S          0.01582   0.01100   0.03158   0.00000   0.01837
  15        2S          0.04119   0.01996   0.05690   0.00000   0.04780
  16        3S          0.00290   0.00401   0.01017   0.00000   0.00892
  17 3   H  1S          0.01696   0.04409  -0.00000   0.00000   0.01863
  18        2S          0.04280   0.07708  -0.00000   0.00000   0.04735
  19        3S          0.00293   0.01379   0.00000   0.00000   0.00801
  20 4   C  1S         -0.00059  -0.00057  -0.00172   0.00000   0.00031
  21        2S         -0.00099  -0.00105  -0.00316   0.00000   0.00028
  22        2PX         0.00239   0.00019   0.00547   0.00000   0.00076
  23        2PY         0.00720   0.00547   0.01058   0.00000   0.00229
  24        2PZ         0.00000  -0.00000  -0.00000   0.00609   0.00000
  25        3S          0.02154   0.01344   0.04046  -0.00000   0.00041
  26        3PX         0.01241  -0.00125   0.01849   0.00000   0.00384
  27        3PY         0.03737   0.01844   0.02858   0.00000   0.01148
  28        3PZ         0.00000  -0.00000  -0.00000   0.03512   0.00000
  29        4S          0.00083   0.00508   0.01552  -0.00000  -0.02004
  30        4PX         0.00631  -0.00404   0.00591   0.00000   0.00180
  31        4PY         0.01866   0.00593   0.00132   0.00000   0.00490
  32        4PZ         0.00000  -0.00000  -0.00000   0.04931   0.00000
  33 5   H  1S         -0.00005  -0.00000  -0.00019   0.00000  -0.00074
  34        2S         -0.00118   0.00007  -0.00319  -0.00000  -0.00298
  35        3S         -0.00189   0.00012  -0.00419  -0.00000  -0.00103
  36 6   H  1S         -0.00005  -0.00012  -0.00005   0.00000  -0.00074
  37        2S         -0.00113  -0.00251  -0.00050  -0.00000  -0.00308
  38        3S         -0.00185  -0.00348  -0.00054  -0.00000  -0.00123
                          11        12        13        14        15
  11        4PX         0.05952
  12        4PY         0.00000   0.05086
  13        4PZ         0.00000   0.00000   0.14287
  14 2   H  1S          0.00648   0.01726   0.00000   0.08071
  15        2S          0.01565   0.04050   0.00000   0.07716   0.14983
  16        3S          0.00528   0.01179  -0.00000   0.01366   0.04128
  17 3   H  1S          0.02350   0.00000   0.00000  -0.00001  -0.00060
  18        2S          0.05470   0.00002   0.00000  -0.00060  -0.00499
  19        3S          0.01631   0.00001  -0.00000  -0.00191  -0.00756
  20 4   C  1S         -0.00019  -0.00060   0.00000   0.00000   0.00002
  21        2S         -0.00047  -0.00148   0.00000   0.00000   0.00003
  22        2PX        -0.00072   0.00136   0.00000  -0.00000   0.00000
  23        2PY         0.00137   0.00096   0.00000  -0.00000  -0.00036
  24        2PZ        -0.00000  -0.00000   0.00898   0.00000   0.00000
  25        3S          0.00660   0.02045  -0.00000  -0.00007  -0.00153
  26        3PX        -0.00418   0.00554   0.00000  -0.00000   0.00003
  27        3PY         0.00554   0.00130   0.00000  -0.00023  -0.00361
  28        3PZ        -0.00000  -0.00000   0.04888   0.00000   0.00000
  29        4S          0.00270   0.00895  -0.00000  -0.00108  -0.00464
  30        4PX        -0.00717   0.00314   0.00000   0.00001   0.00015
  31        4PY         0.00317  -0.00559   0.00000  -0.00245  -0.01037
  32        4PZ        -0.00000  -0.00000   0.08982   0.00000  -0.00000
  33 5   H  1S          0.00003  -0.00233   0.00000   0.00000   0.00000
  34        2S          0.00030  -0.00977  -0.00000   0.00000   0.00016
  35        3S          0.00031  -0.00722  -0.00000   0.00023   0.00146
  36 6   H  1S         -0.00175  -0.00046   0.00000  -0.00000  -0.00004
  37        2S         -0.00819  -0.00095  -0.00000  -0.00004  -0.00092
  38        3S         -0.00648  -0.00025  -0.00000  -0.00046  -0.00246
                          16        17        18        19        20
  16        3S          0.02089
  17 3   H  1S         -0.00194   0.08221
  18        2S         -0.00760   0.07744   0.14822
  19        3S         -0.00636   0.01340   0.03999   0.01994
  20 4   C  1S          0.00010   0.00000   0.00002   0.00010   0.65948
  21        2S          0.00017   0.00000   0.00003   0.00017   0.49334
  22        2PX         0.00001  -0.00000  -0.00028  -0.00059   0.00000
  23        2PY        -0.00075  -0.00000  -0.00008  -0.00013   0.00000
  24        2PZ         0.00000   0.00000   0.00000  -0.00000   0.00000
  25        3S         -0.00254  -0.00007  -0.00154  -0.00252  -0.02942
  26        3PX         0.00005  -0.00016  -0.00293  -0.00368   0.00000
  27        3PY        -0.00450  -0.00007  -0.00067  -0.00069   0.00000
  28        3PZ        -0.00000   0.00000   0.00000  -0.00000   0.00000
  29        4S         -0.00248  -0.00107  -0.00448  -0.00224  -0.01229
  30        4PX         0.00015  -0.00189  -0.00880  -0.00679   0.00000
  31        4PY        -0.00762  -0.00060  -0.00148  -0.00058   0.00000
  32        4PZ        -0.00000   0.00000  -0.00000  -0.00000   0.00000
  33 5   H  1S          0.00023  -0.00000  -0.00004  -0.00042  -0.00023
  34        2S          0.00144  -0.00004  -0.00091  -0.00233  -0.00161
  35        3S          0.00246  -0.00046  -0.00242  -0.00282   0.00005
  36 6   H  1S         -0.00043   0.00000   0.00000   0.00022  -0.00021
  37        2S         -0.00238   0.00000   0.00015   0.00141  -0.00156
  38        3S         -0.00290   0.00023   0.00145   0.00241   0.00004
                          21        22        23        24        25
  21        2S          0.49215
  22        2PX         0.00000   0.08305
  23        2PY         0.00000   0.00000   0.08785
  24        2PZ         0.00000   0.00000   0.00000   0.06412
  25        3S         -0.06468   0.00000   0.00000   0.00000   0.45436
  26        3PX         0.00000   0.08115   0.00000   0.00000   0.00000
  27        3PY         0.00000   0.00000   0.08290   0.00000   0.00000
  28        3PZ         0.00000   0.00000   0.00000   0.06460   0.00000
  29        4S         -0.02160   0.00000   0.00000   0.00000   0.21513
  30        4PX         0.00000   0.01624   0.00000   0.00000   0.00000
  31        4PY         0.00000   0.00000   0.01488   0.00000   0.00000
  32        4PZ         0.00000   0.00000   0.00000   0.02113   0.00000
  33 5   H  1S         -0.00033   0.00152   0.00597   0.00000   0.01587
  34        2S         -0.00308   0.00381   0.01388   0.00000   0.03975
  35        3S         -0.00005   0.00067   0.00200   0.00000   0.00247
  36 6   H  1S         -0.00030   0.00702   0.00002   0.00000   0.01513
  37        2S         -0.00299   0.01739   0.00001   0.00000   0.03893
  38        3S         -0.00006   0.00271  -0.00002   0.00000   0.00259
                          26        27        28        29        30
  26        3PX         0.20065
  27        3PY         0.00000   0.19820
  28        3PZ         0.00000   0.00000   0.16446
  29        4S          0.00000   0.00000   0.00000   0.18410
  30        4PX         0.07523   0.00000   0.00000   0.00000   0.06711
  31        4PY         0.00000   0.06675   0.00000   0.00000   0.00000
  32        4PZ         0.00000   0.00000   0.10043   0.00000   0.00000
  33 5   H  1S          0.00888   0.03446   0.00000   0.01752   0.00565
  34        2S          0.01705   0.06066   0.00000   0.04335   0.01434
  35        3S          0.00377   0.01073   0.00000   0.00633   0.00524
  36 6   H  1S          0.04205   0.00010   0.00000   0.01741   0.02471
  37        2S          0.07732  -0.00002   0.00000   0.04403   0.05934
  38        3S          0.01482  -0.00011   0.00000   0.00718   0.01876
                          31        32        33        34        35
  31        4PY         0.05414
  32        4PZ         0.00000   0.14363
  33 5   H  1S          0.01893   0.00000   0.08167
  34        2S          0.04388   0.00000   0.07791   0.15147
  35        3S          0.01284  -0.00000   0.01419   0.04321   0.02264
  36 6   H  1S         -0.00005   0.00000  -0.00001  -0.00086  -0.00244
  37        2S         -0.00029   0.00000  -0.00086  -0.00702  -0.00995
  38        3S         -0.00023  -0.00000  -0.00247  -0.00999  -0.00858
                          36        37        38
  36 6   H  1S          0.08053
  37        2S          0.07762   0.15237
  38        3S          0.01431   0.04393   0.02316
     Gross orbital populations:
                           1
   1 1   C  1S          1.10436
   2        2S          0.88586
   3        2PX         0.22659
   4        2PY         0.23519
   5        2PZ         0.16626
   6        3S          0.79220
   7        3PX         0.56096
   8        3PY         0.55420
   9        3PZ         0.42298
  10        4S          0.50729
  11        4PX         0.25876
  12        4PY         0.21217
  13        4PZ         0.41247
  14 2   H  1S          0.27212
  15        2S          0.46757
  16        3S          0.08655
  17 3   H  1S          0.27676
  18        2S          0.46499
  19        3S          0.08258
  20 4   C  1S          1.10440
  21        2S          0.88584
  22        2PX         0.22306
  23        2PY         0.23670
  24        2PZ         0.16534
  25        3S          0.79336
  26        3PX         0.55329
  27        3PY         0.55827
  28        3PZ         0.41957
  29        4S          0.50281
  30        4PX         0.27552
  31        4PY         0.21679
  32        4PZ         0.41335
  33 5   H  1S          0.27516
  34        2S          0.46804
  35        3S          0.08719
  36 6   H  1S          0.27161
  37        2S          0.46983
  38        3S          0.09001
          Condensed to atoms (all electrons):
               1          2          3          4          5          6
     1  C    5.030362   0.387343   0.388477   0.601933  -0.034692  -0.034109
     2  H    0.387343   0.515628  -0.031552  -0.041515   0.005981  -0.009644
     3  H    0.388477  -0.031552   0.512035  -0.041068  -0.009445   0.005881
     4  C    0.601933  -0.041515  -0.041068   5.060893   0.384329   0.383717
     5  H   -0.034692   0.005981  -0.009445   0.384329   0.526386  -0.042178
     6  H   -0.034109  -0.009644   0.005881   0.383717  -0.042178   0.527780
 Mulliken charges:
               1
     1  C   -0.339315
     2  H    0.173760
     3  H    0.175672
     4  C   -0.348288
     5  H    0.169619
     6  H    0.168553
 Sum of Mulliken charges =  -0.00000
 Mulliken charges with hydrogens summed into heavy atoms:
               1
     1  C    0.010117
     4  C   -0.010117
 Electronic spatial extent (au):  <R**2>=             83.7211
 Charge=             -0.0000 electrons
 Dipole moment (field-independent basis, Debye):
    X=              0.0093    Y=              0.0381    Z=             -0.0392  Tot=              0.0554
 Quadrupole moment (field-independent basis, Debye-Ang):
   XX=            -12.1970   YY=            -12.2151   ZZ=            -15.6746
   XY=              0.0111   XZ=             -0.0008   YZ=             -0.0033
 Traceless Quadrupole moment (field-independent basis, Debye-Ang):
   XX=              1.1652   YY=              1.1472   ZZ=             -2.3124
   XY=              0.0111   XZ=             -0.0008   YZ=             -0.0033
 Octapole moment (field-independent basis, Debye-Ang**2):
  XXX=             -0.4388  YYY=              0.0373  ZZZ=             -0.0838  XYY=              0.3069
  XXY=             -0.0152  XXZ=             -0.0679  XZZ=             -0.0947  YZZ=             -0.0677
  YYZ=             -0.0848  XYZ=             -0.0147
 Hexadecapole moment (field-independent basis, Debye-Ang**3):
 XXXX=            -34.2675 YYYY=            -55.2164 ZZZZ=            -17.8110 XXXY=             -7.2710
 XXXZ=              0.0121 YYYX=            -10.7065 YYYZ=              0.0182 ZZZX=              0.0159
 ZZZY=              0.0301 XXYY=            -16.1791 XXZZ=             -9.9233 YYZZ=            -13.6457
 XXYZ=              0.0069 YYXZ=              0.0021 ZZXY=             -3.2078
 N-N= 3.306565067701D+01 E-N=-2.478430500973D+02  KE= 7.815465623107D+01
 Orbital energies and kinetic energies (alpha):
                                 1                 2
   1         O               -10.289510         15.975753
   2         O               -10.288633         15.982641
   3         O                -0.863514          1.536050
   4         O                -0.672934          1.272314
   5         O                -0.559815          0.942479
   6         O                -0.508767          1.285050
   7         O                -0.436935          1.045410
   8         O                -0.356496          1.037632
   9         V                 0.079630          1.182231
  10         V                 0.140973          0.588860
  11         V                 0.165169          0.591869
  12         V                 0.170238          0.679497
  13         V                 0.240774          0.582443
  14         V                 0.369674          0.845353
  15         V                 0.394223          0.935259
  16         V                 0.401839          0.794436
  17         V                 0.464913          1.190121
  18         V                 0.488673          1.419449
  19         V                 0.494031          1.302464
  20         V                 0.590898          1.651009
  21         V                 0.666135          1.574791
  22         V                 0.691887          2.146358
  23         V                 0.773808          2.360447
  24         V                 0.774477          2.386345
  25         V                 0.845503          1.089819
  26         V                 0.950457          3.415316
  27         V                 2.231106          3.932293
  28         V                 2.291541          4.024768
  29         V                 2.332335          4.307704
  30         V                 2.408272          4.520037
  31         V                 2.670805          6.300514
  32         V                 2.818577          6.308907
  33         V                 2.877581          6.138350
  34         V                 2.952038          6.225514
  35         V                 3.140885          6.819495
  36         V                 3.321782          6.402396
  37         V                23.353309         60.075250
  38         V                23.704590         60.202662
 Total kinetic energy from orbitals= 7.815465623107D+01
 Calling FoFJK, ICntrl=      2127 FMM=F ISym2X=0 I1Cent= 0 IOpClX= 0 NMat=1 NMatS=1 NMatT=0.
 -------------------------------------------------------------------
 Center     Atomic                   Forces (Hartrees/Bohr)
 Number     Number              X              Y              Z
 -------------------------------------------------------------------
      1        6           0.016599734    0.010530981   -0.001588529
      2        1          -0.012813585    0.007427453    0.000801165
      3        1           0.003644604   -0.006563289    0.000722173
      4        6           0.008998551    0.005812130   -0.001670146
      5        1          -0.002058253   -0.009854194    0.000836777
      6        1          -0.014371051   -0.007353081    0.000898560
 -------------------------------------------------------------------
 Cartesian Forces:  Max     0.016599734 RMS     0.007982072

 GradGradGradGradGradGradGradGradGradGradGradGradGradGradGradGradGradGrad
 Berny optimization.
 Search for a local minimum.
 Step number   1 out of a maximum of    2
 All quantities printed in internal units (Hartrees-Bohrs-Radians)
 Second derivative matrix not updated -- first step.
 The second derivative matrix:
                          X1        Y1        Z1        X2        Y2
           X1           0.75780
           Y1           0.09342   0.84823
           Z1           0.00215   0.00306   0.16800
           X2          -0.16616   0.09637   0.00078   0.14345
           Y2           0.10168  -0.27629  -0.00280  -0.11539   0.26481
           Z2           0.00126  -0.00355  -0.05364  -0.00115   0.00288
           X3          -0.35143   0.00166  -0.00317   0.00021   0.00013
           Y3          -0.00348  -0.11052  -0.00075   0.03200   0.01932
           Z3          -0.00407  -0.00072  -0.05516   0.00059   0.00024
           X4          -0.26583  -0.17666  -0.00017   0.02249   0.01358
           Y4          -0.17708  -0.46982  -0.00025  -0.01299  -0.00784
           Z4           0.00064   0.00118  -0.09411  -0.00023  -0.00032
           X5           0.02375  -0.01372   0.00026  -0.00000   0.00000
           Y5           0.01152  -0.00665   0.00035   0.00000  -0.00000
           Z5          -0.00020   0.00014   0.01786   0.00010  -0.00005
           X6           0.00187  -0.00108   0.00016  -0.00000   0.00000
           Y6          -0.02606   0.01505   0.00038   0.00000  -0.00000
           Z6           0.00022  -0.00011   0.01706  -0.00010   0.00005
                          Z2        X3        Y3        Z3        X4
           Z2           0.02773
           X3          -0.00011   0.35140
           Y3           0.00065  -0.00190   0.07582
           Z3           0.01051   0.00345   0.00048   0.02877
           X4           0.00020  -0.00018  -0.02663  -0.00018   0.71619
           Y4          -0.00009   0.00010   0.01538   0.00012   0.12088
           Z4           0.01531  -0.00017  -0.00038   0.01598  -0.00224
           X5          -0.00010  -0.00000   0.00000   0.00010  -0.14650
           Y5           0.00007   0.00000  -0.00000  -0.00007   0.09402
           Z5           0.00921   0.00010  -0.00007  -0.00940  -0.00131
           X6          -0.00010  -0.00000   0.00000   0.00010  -0.32617
           Y6           0.00005   0.00000  -0.00000  -0.00005  -0.02520
           Z6          -0.00911  -0.00010   0.00007   0.00931   0.00372
                          Y4        Z4        X5        Y5        Z5
           Y4           0.86665
           Z4          -0.00447   0.17802
           X5           0.08504  -0.00088   0.12513
           Y5          -0.29900   0.00318  -0.10440   0.28961
           Z5           0.00389  -0.05810   0.00117  -0.00339   0.03008
           X6          -0.01595   0.00288  -0.00238  -0.00115   0.00015
           Y6          -0.10536   0.00082   0.03307   0.01604  -0.00053
           Z6           0.00080  -0.05709  -0.00055  -0.00014   0.01036
                          X6        Y6        Z6
           X6           0.32668
           Y6           0.01818   0.07427
           Z6          -0.00319  -0.00067   0.02947
 ITU=  0
     Eigenvalues ---    0.03706   0.04387   0.09465   0.09827   0.13525
     Eigenvalues ---    0.17529   0.26391   0.29097   0.52996   0.70558
     Eigenvalues ---    0.97672   1.55676
 Angle between quadratic step and forces=  31.98 degrees.
 Linear search not attempted -- first point.
 B after Tr=     0.008115    0.008755   -0.004026
         Rot=    1.000000   -0.000023    0.000013   -0.000119 Ang=  -0.01 deg.
 Variable       Old X    -DE/DX   Delta X   Delta X   Delta X     New X
                                 (Linear)    (Quad)   (Total)
    X1       -0.63712   0.01660   0.00000   0.02478   0.03316  -0.60396
    Y1       -1.10172   0.01053   0.00000   0.02722   0.03583  -1.06589
    Z1        0.00806  -0.00159   0.00000  -0.00864  -0.01273  -0.00467
    X2        0.43950  -0.01281   0.00000  -0.05240  -0.04361   0.39589
    Y2       -2.88436   0.00743   0.00000   0.02575   0.03459  -2.84977
    Z2       -0.01268   0.00080   0.00000   0.01052   0.00637  -0.00631
    X3       -2.69134   0.00364   0.00000   0.03472   0.04310  -2.64824
    Y3       -1.08764  -0.00656   0.00000  -0.02835  -0.02023  -1.10787
    Z3       -0.01388   0.00072   0.00000   0.01035   0.00621  -0.00767
    X4        0.62935   0.00900   0.00000   0.00878   0.01663   0.64599
    Y4        1.09110   0.00581   0.00000   0.00904   0.01795   1.10905
    Z4        0.00539  -0.00167   0.00000  -0.00801  -0.01197  -0.00658
    X5       -0.27543  -0.00206   0.00000  -0.03226  -0.02484  -0.30027
    Y5        2.95583  -0.00985   0.00000  -0.03669  -0.02801   2.92781
    Z5       -0.01840   0.00084   0.00000   0.01005   0.00616  -0.01225
    X6        2.71789  -0.01437   0.00000  -0.03228  -0.02444   2.69344
    Y6        1.24083  -0.00735   0.00000  -0.04953  -0.04013   1.20070
    Z6       -0.01724   0.00090   0.00000   0.00987   0.00597  -0.01127
         Item               Value     Threshold  Converged?
 Maximum Force            0.016600     0.000450     NO 
 RMS     Force            0.007982     0.000300     NO 
 Maximum Displacement     0.043606     0.001800     NO 
 RMS     Displacement     0.026263     0.001200     NO 
 Predicted change in Energy=-1.660644D-03
 GradGradGradGradGradGradGradGradGradGradGradGradGradGradGradGradGradGrad

 Unable to Open any file for archive entry.
 1\1\GINC-BHD0008\Force\RwB97XD\6-311G\C2H4\BWEIGHT\11-Jan-2023\0\\# WB
 97XD/6-311G SCF=XQC FORCE nosym pop=full guess=read\\MD Step 1000\\0,1
 \C,-0.33714731,-0.58300647,0.00426565\H,0.23257237,-1.52633899,-0.0067
 1081\H,-1.42419843,-0.5755521,-0.0073434\C,0.33303913,0.5773862,0.0028
 5247\H,-0.14575289,1.56415568,-0.00973884\H,1.43824375,0.65662141,-0.0
 0912068\\Version=ES64L-G16RevC.01\HF=-78.5555033\RMSD=3.763e-09\RMSF=7
 .982e-03\Dipole=0.0036466,0.0149821,-0.0154177\Quadrupole=0.8663324,0.
 8528807,-1.7192131,0.0082477,-0.0005926,-0.0024634\PG=C01 [X(C2H4)]\\@
 The archive entry for this job was punched.


 THE CAUTIOUS SELDOM ERR...CONFUCIUS                   
 Job cpu time:       0 days  0 hours  0 minutes 57.7 seconds.
 Elapsed time:       0 days  0 hours  0 minutes 19.7 seconds.
 File lengths (MBytes):  RWF=    272 Int=      0 D2E=      0 Chk=     32 Scr=     32
 Normal termination of Gaussian 16 at Wed Jan 11 16:36:40 2023.
