 Entering Gaussian System, Link 0=g16
 Initial command:
 /software/gaussian/g16-c01/avx2/g16/l1.exe "/gpfs/fs2/scratch/bweight/software/many_molecule_many_mode_NAMD/src/NAMD/TEST_NVT/TRAJ/traj-37/G16/GS_NEW/Gau-32305.inp" -scrdir="/gpfs/fs2/scratch/bweight/software/many_molecule_many_mode_NAMD/src/NAMD/TEST_NVT/TRAJ/traj-37/G16/GS_NEW/"
 Entering Link 1 = /software/gaussian/g16-c01/avx2/g16/l1.exe PID=     32306.
  
 Copyright (c) 1988-2019, Gaussian, Inc.  All Rights Reserved.
  
 This is part of the Gaussian(R) 16 program.  It is based on
 the Gaussian(R) 09 system (copyright 2009, Gaussian, Inc.),
 the Gaussian(R) 03 system (copyright 2003, Gaussian, Inc.),
 the Gaussian(R) 98 system (copyright 1998, Gaussian, Inc.),
 the Gaussian(R) 94 system (copyright 1995, Gaussian, Inc.),
 the Gaussian 92(TM) system (copyright 1992, Gaussian, Inc.),
 the Gaussian 90(TM) system (copyright 1990, Gaussian, Inc.),
 the Gaussian 88(TM) system (copyright 1988, Gaussian, Inc.),
 the Gaussian 86(TM) system (copyright 1986, Carnegie Mellon
 University), and the Gaussian 82(TM) system (copyright 1983,
 Carnegie Mellon University). Gaussian is a federally registered
 trademark of Gaussian, Inc.
  
 This software contains proprietary and confidential information,
 including trade secrets, belonging to Gaussian, Inc.
  
 This software is provided under written license and may be
 used, copied, transmitted, or stored only in accord with that
 written license.
  
 The following legend is applicable only to US Government
 contracts under FAR:
  
                    RESTRICTED RIGHTS LEGEND
  
 Use, reproduction and disclosure by the US Government is
 subject to restrictions as set forth in subparagraphs (a)
 and (c) of the Commercial Computer Software - Restricted
 Rights clause in FAR 52.227-19.
  
 Gaussian, Inc.
 340 Quinnipiac St., Bldg. 40, Wallingford CT 06492
  
  
 ---------------------------------------------------------------
 Warning -- This program may not be used in any manner that
 competes with the business of Gaussian, Inc. or will provide
 assistance to any competitor of Gaussian, Inc.  The licensee
 of this program is prohibited from giving any competitor of
 Gaussian, Inc. access to this program.  By using this program,
 the user acknowledges that Gaussian, Inc. is engaged in the
 business of creating and licensing software in the field of
 computational chemistry and represents and warrants to the
 licensee that it is not a competitor of Gaussian, Inc. and that
 it will not use this program in any manner prohibited above.
 ---------------------------------------------------------------
  

 Cite this work as:
 Gaussian 16, Revision C.01,
 M. J. Frisch, G. W. Trucks, H. B. Schlegel, G. E. Scuseria, 
 M. A. Robb, J. R. Cheeseman, G. Scalmani, V. Barone, 
 G. A. Petersson, H. Nakatsuji, X. Li, M. Caricato, A. V. Marenich, 
 J. Bloino, B. G. Janesko, R. Gomperts, B. Mennucci, H. P. Hratchian, 
 J. V. Ortiz, A. F. Izmaylov, J. L. Sonnenberg, D. Williams-Young, 
 F. Ding, F. Lipparini, F. Egidi, J. Goings, B. Peng, A. Petrone, 
 T. Henderson, D. Ranasinghe, V. G. Zakrzewski, J. Gao, N. Rega, 
 G. Zheng, W. Liang, M. Hada, M. Ehara, K. Toyota, R. Fukuda, 
 J. Hasegawa, M. Ishida, T. Nakajima, Y. Honda, O. Kitao, H. Nakai, 
 T. Vreven, K. Throssell, J. A. Montgomery, Jr., J. E. Peralta, 
 F. Ogliaro, M. J. Bearpark, J. J. Heyd, E. N. Brothers, K. N. Kudin, 
 V. N. Staroverov, T. A. Keith, R. Kobayashi, J. Normand, 
 K. Raghavachari, A. P. Rendell, J. C. Burant, S. S. Iyengar, 
 J. Tomasi, M. Cossi, J. M. Millam, M. Klene, C. Adamo, R. Cammi, 
 J. W. Ochterski, R. L. Martin, K. Morokuma, O. Farkas, 
 J. B. Foresman, and D. J. Fox, Gaussian, Inc., Wallingford CT, 2019.
 
 ******************************************
 Gaussian 16:  ES64L-G16RevC.01  3-Jul-2019
                11-Jan-2023 
 ******************************************
 %oldchk=../GS_OLD/geometry.chk
 %chk=geometry.chk
 %nprocshared=4
 Will use up to    4 processors via shared memory.
 %mem=5GB
 Copying data from "../GS_OLD/geometry.chk" to current chk file "geometry.chk"
 IOpt=  2 FromEx=T IUOpen= 4 IOptOp= 5 NList=   0 IFRang= 0 IUIn= 4 IUOut= 2.
 -------------------------------------------------------
 # WB97XD/6-311G SCF=XQC FORCE nosym pop=full guess=read
 -------------------------------------------------------
 1/10=7,30=1,38=1/1,3;
 2/12=2,15=1,17=6,18=5,40=1/2;
 3/5=4,6=6,11=2,25=1,30=1,71=1,74=-58,116=-2/1,2,3;
 4/5=1/1;
 5/5=2,8=3,13=1,38=6/2,8;
 6/7=3,28=1/1;
 7/29=1,30=1/1,2,3,16;
 1/10=7,30=1/3;
 99//99;
 -----------
 MD Step 999
 -----------
 Symbolic Z-matrix:
 Charge =  0 Multiplicity = 1
 C                    -0.33671  -0.5826    0.00234 
 H                     0.22163  -1.52184   0.00047 
 H                    -1.41785  -0.58212  -0.00005 
 C                     0.33215   0.57593   0.00164 
 H                    -0.15676   1.57445  -0.00233 
 H                     1.45109   0.65282  -0.00162 
 

 GradGradGradGradGradGradGradGradGradGradGradGradGradGradGradGradGradGrad
 Berny optimization.
 Initialization pass.
 Trust Radius=3.00D-01 FncErr=1.00D-07 GrdErr=1.00D-07 EigMax=2.50D+02 EigMin=1.00D-04
 Number of steps in this run=      2 maximum allowed number of steps=      2.
 GradGradGradGradGradGradGradGradGradGradGradGradGradGradGradGradGradGrad

                          Input orientation:                          
 ---------------------------------------------------------------------
 Center     Atomic      Atomic             Coordinates (Angstroms)
 Number     Number       Type             X           Y           Z
 ---------------------------------------------------------------------
      1          6           0       -0.336707   -0.582598    0.002335
      2          1           0        0.221628   -1.521837    0.000473
      3          1           0       -1.417854   -0.582125   -0.000046
      4          6           0        0.332154    0.575929    0.001641
      5          1           0       -0.156760    1.574455   -0.002334
      6          1           0        1.451095    0.652816   -0.001622
 ---------------------------------------------------------------------
                    Distance matrix (angstroms):
                    1          2          3          4          5
     1  C    0.000000
     2  H    1.092663   0.000000
     3  H    1.081149   1.889698   0.000000
     4  C    1.337745   2.100676   2.098481   0.000000
     5  H    2.164550   3.119328   2.498239   1.111803   0.000000
     6  H    2.173131   2.498140   3.123451   1.121584   1.853272
                    6
     6  H    0.000000
 Symmetry turned off by external request.
 Stoichiometry    C2H4
 Framework group  C1[X(C2H4)]
 Deg. of freedom    12
 Full point group                 C1      NOp   1
 Rotational constants (GHZ):         143.1530455          29.6701632          24.5764791
 Standard basis: 6-311G (5D, 7F)
    38 basis functions,    72 primitive gaussians,    38 cartesian basis functions
     8 alpha electrons        8 beta electrons
       nuclear repulsion energy        33.0505368680 Hartrees.
 NAtoms=    6 NActive=    6 NUniq=    6 SFac= 1.00D+00 NAtFMM=   60 NAOKFM=F Big=F
 Integral buffers will be    131072 words long.
 Raffenetti 2 integral format.
 Two-electron integral symmetry is turned off.
 Nuclear repulsion after empirical dispersion term =       33.0496946210 Hartrees.
 One-electron integrals computed using PRISM.
 NBasis=    38 RedAO= T EigKep=  6.42D-03  NBF=    38
 NBsUse=    38 1.00D-06 EigRej= -1.00D+00 NBFU=    38
 Initial guess from the checkpoint file:  "geometry.chk"
 B after Tr=    -0.000267   -0.000350   -0.000478
         Rot=    1.000000    0.000001    0.000000    0.000006 Ang=   0.00 deg.
 Keep R1 ints in memory in canonical form, NReq=4036876.
 Requested convergence on RMS density matrix=1.00D-08 within  32 cycles.
 Requested convergence on MAX density matrix=1.00D-06.
 Requested convergence on             energy=1.00D-06.
 No special actions if energy rises.
 SCF Done:  E(RwB97XD) =  -78.5552032170     A.U. after    8 cycles
            NFock=  8  Conv=0.51D-08     -V/T= 2.0053
 QCSCF skips out because SCF is already converged.

 **********************************************************************

            Population analysis using the SCF Density.

 **********************************************************************

 Alpha  occ. eigenvalues --  -10.29177 -10.28733  -0.86384  -0.67165  -0.55948
 Alpha  occ. eigenvalues --   -0.50927  -0.43576  -0.35701
 Alpha virt. eigenvalues --    0.08009   0.14068   0.16431   0.16971   0.24046
 Alpha virt. eigenvalues --    0.37246   0.39272   0.40012   0.46238   0.48824
 Alpha virt. eigenvalues --    0.49364   0.59095   0.66505   0.69091   0.77110
 Alpha virt. eigenvalues --    0.77648   0.84547   0.95223   2.23136   2.29017
 Alpha virt. eigenvalues --    2.33320   2.40805   2.67092   2.81832   2.87678
 Alpha virt. eigenvalues --    2.95155   3.14059   3.31955  23.35132  23.70592
     Molecular Orbital Coefficients:
                           1         2         3         4         5
                           O         O         O         O         O
     Eigenvalues --   -10.29177 -10.28733  -0.86384  -0.67165  -0.55948
   1 1   C  1S          0.05600   0.56060  -0.08891   0.06616  -0.00033
   2        2S          0.04629   0.46137  -0.14056   0.10595  -0.00054
   3        2PX         0.00016   0.00000   0.02583   0.03685   0.14076
   4        2PY         0.00028   0.00002   0.04607   0.06067  -0.07509
   5        2PZ        -0.00000  -0.00000  -0.00013   0.00010   0.00006
   6        3S          0.00059   0.01466   0.37704  -0.28907   0.00148
   7        3PX        -0.00064   0.00038   0.03439   0.05891   0.22047
   8        3PY        -0.00110   0.00068   0.06090   0.09804  -0.11853
   9        3PZ        -0.00000  -0.00000  -0.00020   0.00019   0.00009
  10        4S          0.00444  -0.01441   0.19239  -0.22383   0.00086
  11        4PX         0.00162  -0.00143   0.00466   0.02350   0.11333
  12        4PY         0.00278  -0.00245   0.00836   0.04030  -0.06172
  13        4PZ        -0.00000   0.00001  -0.00006   0.00011   0.00004
  14 2   H  1S         -0.00004  -0.00007   0.05349  -0.08743   0.10511
  15        2S         -0.00031   0.00008   0.05463  -0.10522   0.13273
  16        3S          0.00070   0.00176  -0.00179  -0.01514   0.04292
  17 3   H  1S         -0.00005  -0.00008   0.05480  -0.09091  -0.10853
  18        2S         -0.00031   0.00006   0.05545  -0.10853  -0.13604
  19        3S          0.00072   0.00179  -0.00183  -0.01603  -0.04394
  20 4   C  1S          0.56063  -0.05619  -0.08634  -0.06894  -0.00019
  21        2S          0.46141  -0.04604  -0.13632  -0.11058  -0.00029
  22        2PX        -0.00000  -0.00017  -0.02804   0.03694   0.11452
  23        2PY         0.00000  -0.00029  -0.04744   0.06616  -0.07223
  24        2PZ        -0.00000   0.00000  -0.00008  -0.00026   0.00006
  25        3S          0.01423  -0.00232   0.36523   0.30225   0.00076
  26        3PX        -0.00027   0.00071  -0.03496   0.06023   0.17945
  27        3PY        -0.00045   0.00123  -0.05907   0.10721  -0.11212
  28        3PZ        -0.00000  -0.00000  -0.00015  -0.00045   0.00010
  29        4S         -0.01283   0.00736   0.18823   0.24081  -0.00045
  30        4PX         0.00104  -0.00182  -0.00555   0.02663   0.09976
  31        4PY         0.00177  -0.00319  -0.00941   0.04611  -0.06154
  32        4PZ         0.00001   0.00000  -0.00007  -0.00022   0.00005
  33 5   H  1S         -0.00005  -0.00005   0.04857   0.09352  -0.08657
  34        2S         -0.00000  -0.00031   0.05000   0.11219  -0.10939
  35        3S          0.00175   0.00029  -0.00108   0.01689  -0.03504
  36 6   H  1S         -0.00003  -0.00005   0.04741   0.09131   0.08207
  37        2S         -0.00000  -0.00032   0.04930   0.11018   0.10424
  38        3S          0.00171   0.00028  -0.00114   0.01630   0.03374
                           6         7         8         9        10
                           O         O         O         V         V
     Eigenvalues --    -0.50927  -0.43576  -0.35701   0.08009   0.14068
   1 1   C  1S         -0.00330   0.00022  -0.00006   0.00022  -0.03154
   2        2S         -0.00492   0.00038  -0.00010   0.00037  -0.05054
   3        2PX         0.09378  -0.10828  -0.00028   0.00008  -0.03076
   4        2PY         0.16853   0.06411  -0.00041   0.00004  -0.06351
   5        2PZ         0.00034  -0.00001   0.17952  -0.18906  -0.00007
   6        3S          0.01915  -0.00091   0.00029  -0.00113   0.10897
   7        3PX         0.13595  -0.17249  -0.00039   0.00012  -0.03656
   8        3PY         0.24608   0.10257  -0.00055   0.00007  -0.07926
   9        3PZ         0.00054  -0.00002   0.28901  -0.27830  -0.00016
  10        4S         -0.05350  -0.00317   0.00061  -0.00086   1.18453
  11        4PX         0.06842  -0.10782  -0.00028   0.00098  -0.18495
  12        4PY         0.12497   0.06480  -0.00037   0.00130  -0.37227
  13        4PZ         0.00030  -0.00001   0.26711  -0.69619  -0.00035
  14 2   H  1S         -0.08109  -0.11280   0.00004   0.00033  -0.01606
  15        2S         -0.11217  -0.17360   0.00019   0.00049  -0.04674
  16        3S         -0.04197  -0.08008   0.00013   0.00143  -0.80397
  17 3   H  1S         -0.07858   0.11055   0.00001   0.00032  -0.01213
  18        2S         -0.10803   0.16935   0.00014   0.00047  -0.03675
  19        3S         -0.04007   0.07796   0.00010   0.00136  -0.73745
  20 4   C  1S         -0.00859  -0.00048  -0.00010  -0.00026  -0.03799
  21        2S         -0.01345  -0.00079  -0.00016  -0.00044  -0.06105
  22        2PX        -0.09825   0.12685   0.00028   0.00018   0.04235
  23        2PY        -0.16205  -0.07458   0.00066   0.00046   0.06281
  24        2PZ         0.00058   0.00008   0.17931   0.18981  -0.00042
  25        3S          0.04349   0.00224   0.00048   0.00128   0.13563
  26        3PX        -0.14561   0.20365   0.00039   0.00027   0.05184
  27        3PY        -0.23850  -0.11900   0.00096   0.00069   0.07401
  28        3PZ         0.00092   0.00013   0.28659   0.27790  -0.00060
  29        4S         -0.02966   0.00324   0.00058   0.00197   1.27316
  30        4PX        -0.07630   0.13203   0.00034   0.00125   0.27367
  31        4PY        -0.12350  -0.07627   0.00083   0.00271   0.42496
  32        4PZ         0.00054   0.00009   0.26723   0.69793  -0.00255
  33 5   H  1S         -0.07467  -0.12608   0.00002  -0.00041  -0.01351
  34        2S         -0.10232  -0.19750   0.00023  -0.00075  -0.03990
  35        3S         -0.03823  -0.09318   0.00011  -0.00184  -0.84579
  36 6   H  1S         -0.07997   0.12599  -0.00001  -0.00040  -0.01741
  37        2S         -0.11005   0.19834   0.00016  -0.00071  -0.04924
  38        3S         -0.04133   0.09367   0.00007  -0.00181  -0.91343
                          11        12        13        14        15
                           V         V         V         V         V
     Eigenvalues --     0.16431   0.16971   0.24046   0.37246   0.39272
   1 1   C  1S          0.00139  -0.04673   0.00003   0.00894   0.00090
   2        2S          0.00224  -0.07615   0.00005   0.01193   0.00142
   3        2PX         0.09531  -0.01986   0.10058  -0.03511  -0.02219
   4        2PY        -0.05210  -0.03848  -0.05763  -0.06390   0.00902
   5        2PZ         0.00003  -0.00054   0.00003  -0.00030  -0.00001
   6        3S         -0.00483   0.17248   0.00024   0.03659  -0.00066
   7        3PX         0.13660  -0.01087   0.10556  -0.04267  -0.10443
   8        3PY        -0.07591  -0.02538  -0.06141  -0.08179   0.04869
   9        3PZ         0.00005  -0.00075   0.00002  -0.00057  -0.00002
  10        4S         -0.06137   1.48237  -0.01546  -2.49401  -0.17146
  11        4PX         0.58111  -0.12040   1.17885  -1.54158  -0.54358
  12        4PY        -0.30966  -0.21958  -0.67245  -2.68728   0.15884
  13        4PZ         0.00017  -0.00357   0.00042  -0.00209  -0.00024
  14 2   H  1S         -0.02904  -0.02567   0.01496  -0.05973   0.07423
  15        2S         -0.08348  -0.01811  -0.02130  -0.67592   0.75796
  16        3S         -1.01833  -1.04151  -1.56380  -0.29814  -0.29174
  17 3   H  1S          0.02876  -0.02499  -0.01704  -0.05341  -0.07503
  18        2S          0.08311  -0.02048   0.01566  -0.62705  -0.75360
  19        3S          1.09793  -1.03526   1.58974  -0.36638   0.22462
  20 4   C  1S          0.00117   0.04127  -0.00009  -0.02016   0.00001
  21        2S          0.00187   0.06720  -0.00017  -0.03327   0.00016
  22        2PX         0.10350  -0.02230  -0.10008  -0.04070  -0.03292
  23        2PY        -0.06272  -0.03700   0.05736  -0.07221   0.01463
  24        2PZ         0.00006   0.00064  -0.00004   0.00037   0.00002
  25        3S         -0.00368  -0.14945   0.00037   0.04839  -0.00394
  26        3PX         0.14888  -0.01768  -0.11472  -0.09405  -0.11006
  27        3PY        -0.08914  -0.02763   0.06457  -0.16882   0.05866
  28        3PZ         0.00009   0.00089  -0.00005   0.00060   0.00003
  29        4S         -0.05714  -1.28632   0.01118   3.25280   0.15160
  30        4PX         0.53857  -0.10790  -1.11255  -1.12810  -0.53394
  31        4PY        -0.33352  -0.18836   0.64698  -1.97597   0.10294
  32        4PZ         0.00039   0.00405  -0.00048   0.00365   0.00007
  33 5   H  1S          0.03188   0.02561   0.00452   0.00715  -0.08187
  34        2S          0.06728   0.02431  -0.03793   0.03090  -0.80191
  35        3S          1.07765   0.90881  -1.49852   0.44526   0.51093
  36 6   H  1S         -0.03226   0.02606  -0.00304   0.00303   0.08882
  37        2S         -0.06808   0.02194   0.03961  -0.00575   0.89893
  38        3S         -1.00141   0.90317   1.48042   0.45589  -0.49796
                          16        17        18        19        20
                           V         V         V         V         V
     Eigenvalues --     0.40012   0.46238   0.48824   0.49364   0.59095
   1 1   C  1S         -0.01848   0.01585  -0.04483   0.00016  -0.00005
   2        2S         -0.03226   0.03448  -0.07420   0.00028  -0.00010
   3        2PX         0.02777  -0.06230   0.00754   0.00001   0.00017
   4        2PY         0.05110  -0.10812   0.00793  -0.00006   0.00017
   5        2PZ         0.00001   0.00008  -0.00017  -0.15149  -0.19272
   6        3S          0.06901  -0.34015   0.05884  -0.00108  -0.00003
   7        3PX         0.10287  -0.23751  -0.05355   0.00004   0.00055
   8        3PY         0.19468  -0.41088  -0.10294  -0.00028   0.00054
   9        3PZ        -0.00051  -0.00001  -0.00042  -0.62741  -0.68602
  10        4S          2.83467  -0.11383   3.13290  -0.00671   0.00628
  11        4PX         0.31251   0.16602   0.83573  -0.00142   0.00192
  12        4PY         0.58027   0.31796   1.44716  -0.00209   0.00397
  13        4PZ         0.00052   0.00059  -0.00545   0.68571   1.24229
  14 2   H  1S         -0.02427  -0.02748  -0.07801   0.00007  -0.00014
  15        2S         -0.51426  -0.25138  -0.93518   0.00145  -0.00113
  16        3S          0.32044   0.00883   0.64123  -0.00035   0.00191
  17 3   H  1S         -0.03189  -0.02976  -0.07611   0.00007  -0.00013
  18        2S         -0.58260  -0.27732  -0.90903   0.00143  -0.00105
  19        3S          0.33447   0.01187   0.61152  -0.00037   0.00195
  20 4   C  1S         -0.00011  -0.00686   0.05120   0.00006   0.00005
  21        2S         -0.00372  -0.00409   0.08983   0.00013   0.00009
  22        2PX         0.01025   0.05249   0.03103  -0.00013   0.00017
  23        2PY         0.02010   0.09015   0.05593  -0.00035   0.00047
  24        2PZ        -0.00045  -0.00025  -0.00019  -0.15321   0.19217
  25        3S          0.07828  -0.26516  -0.26276  -0.00104  -0.00015
  26        3PX        -0.04068   0.22885   0.07500  -0.00028   0.00060
  27        3PY        -0.05909   0.39775   0.13203  -0.00099   0.00164
  28        3PZ        -0.00116  -0.00094  -0.00092  -0.63274   0.68139
  29        4S         -1.05685   0.97418  -3.00995   0.00443  -0.00523
  30        4PX         1.30654  -0.39979   0.58878  -0.00215   0.00206
  31        4PY         2.35439  -0.66708   1.00247  -0.00313   0.00259
  32        4PZ        -0.00485  -0.00187   0.00540   0.69401  -1.23670
  33 5   H  1S         -0.04750  -0.06955   0.05953  -0.00004   0.00014
  34        2S         -0.85117  -0.70838   0.74972   0.00006   0.00037
  35        3S         -0.20514   0.32922  -0.53290   0.00185  -0.00203
  36 6   H  1S         -0.03977  -0.06837   0.05947  -0.00004   0.00015
  37        2S         -0.76077  -0.69237   0.74559   0.00011   0.00041
  38        3S         -0.22617   0.34606  -0.54965   0.00174  -0.00213
                          21        22        23        24        25
                           V         V         V         V         V
     Eigenvalues --     0.66505   0.69091   0.77110   0.77648   0.84547
   1 1   C  1S          0.00083  -0.00057   0.04861   0.07501   0.00086
   2        2S          0.00171  -0.00125   0.10243   0.15988   0.00201
   3        2PX        -0.11751   0.20750  -0.03025   0.11266  -0.00748
   4        2PY         0.06818  -0.12438  -0.05102   0.18349   0.01303
   5        2PZ        -0.00003   0.00008   0.00007   0.00027   0.00001
   6        3S         -0.01310   0.01567  -0.67579  -1.37399  -0.02283
   7        3PX        -0.56378   0.74242  -0.19230   0.43755  -0.21620
   8        3PY         0.32390  -0.44477  -0.32662   0.70236   0.15979
   9        3PZ        -0.00016   0.00027   0.00035   0.00094  -0.00003
  10        4S          0.01722  -0.06375   0.59435   2.47383  -0.00456
  11        4PX         1.04433  -0.86102   0.18997  -0.75135   4.55560
  12        4PY        -0.60131   0.52643   0.21981  -0.99713  -2.59883
  13        4PZ         0.00025  -0.00016   0.00096  -0.00369   0.00164
  14 2   H  1S          0.01924  -0.06069   0.00924   0.03293  -0.02841
  15        2S          0.08271  -0.65463   0.07507   0.10360  -1.59646
  16        3S         -0.97145   1.18648  -0.06770  -1.10860  -1.24706
  17 3   H  1S         -0.01845   0.06013   0.00919   0.03354   0.03190
  18        2S         -0.09282   0.68503   0.10526   0.06977   1.63539
  19        3S          0.96438  -1.14727  -0.04029  -1.25379   1.24638
  20 4   C  1S          0.00101  -0.00038   0.08270   0.03415   0.00059
  21        2S          0.00207  -0.00071   0.17605   0.07201   0.00115
  22        2PX        -0.16461  -0.17320  -0.09826   0.04899   0.01085
  23        2PY         0.09407   0.09584  -0.17794   0.09008   0.00156
  24        2PZ        -0.00008  -0.00007   0.00060  -0.00014  -0.00001
  25        3S         -0.01583  -0.00072  -1.47797  -0.43218  -0.00398
  26        3PX        -0.72493  -0.57057  -0.36050   0.26579   0.24502
  27        3PY         0.41726   0.31240  -0.65883   0.48665  -0.10309
  28        3PZ        -0.00034  -0.00025   0.00213  -0.00063   0.00004
  29        4S          0.01688   0.03814   2.70039   0.23648  -0.00931
  30        4PX         1.32022   0.67306   0.51207  -0.23020  -4.13881
  31        4PY        -0.75643  -0.35996   1.03576  -0.64726   2.36857
  32        4PZ         0.00063   0.00014  -0.00586   0.00252  -0.00175
  33 5   H  1S         -0.02887  -0.05294   0.03498   0.00429  -0.02319
  34        2S         -0.18254  -0.52752   0.05761   0.07712  -1.39724
  35        3S          1.16626   0.89020  -1.16347   0.25848  -1.07336
  36 6   H  1S          0.02954   0.05292   0.03446   0.00487   0.02271
  37        2S          0.17277   0.49875   0.06454   0.01981   1.38048
  38        3S         -1.17057  -0.91257  -1.08139   0.18620   1.08287
                          26        27        28        29        30
                           V         V         V         V         V
     Eigenvalues --     0.95223   2.23136   2.29017   2.33320   2.40805
   1 1   C  1S          0.09599  -0.01049  -0.01492   0.00038  -0.00047
   2        2S          0.19949   0.00109  -0.01534   0.00080  -0.00056
   3        2PX        -0.09132  -0.07363  -0.13105   0.34440  -0.41322
   4        2PY        -0.15825  -0.13956  -0.23169  -0.19494   0.23332
   5        2PZ         0.00008  -0.00089  -0.00128   0.00009  -0.00016
   6        3S         -1.54524  -0.18712  -0.03505  -0.00104  -0.00443
   7        3PX        -0.23455   0.06568   0.20632  -0.40743   0.57519
   8        3PY        -0.39913   0.13888   0.37703   0.23234  -0.32657
   9        3PZ        -0.00001   0.00084   0.00157  -0.00010   0.00022
  10        4S          5.71374  -0.11661  -0.88922   0.00276  -0.01547
  11        4PX         1.20741   0.05563  -0.18745  -0.05492   1.00598
  12        4PY         1.99143   0.07687  -0.35763   0.02411  -0.55518
  13        4PZ        -0.00247   0.00010   0.00089  -0.00003   0.00042
  14 2   H  1S          0.01482  -0.70865  -0.79933  -0.68930   0.66494
  15        2S         -0.28692   1.00739   1.19664   1.06537  -1.49030
  16        3S         -0.09919  -0.29678  -0.47660  -0.45174   0.36376
  17 3   H  1S          0.01525  -0.69912  -0.79256   0.68623  -0.68678
  18        2S         -0.25524   0.99364   1.19157  -1.06403   1.53536
  19        3S         -0.07798  -0.27504  -0.45596   0.44413  -0.35537
  20 4   C  1S         -0.09378  -0.00966   0.01167   0.00043   0.00028
  21        2S         -0.19448   0.00117   0.01122   0.00061   0.00053
  22        2PX        -0.09269   0.13802  -0.12233   0.30798   0.41370
  23        2PY        -0.16005   0.24098  -0.20662  -0.17799  -0.23842
  24        2PZ         0.00009  -0.00168   0.00183   0.00016   0.00019
  25        3S          1.50307  -0.16875   0.01988   0.00035  -0.00008
  26        3PX        -0.22668  -0.18032   0.21292  -0.39171  -0.58092
  27        3PY        -0.39745  -0.30976   0.35230   0.22337   0.33529
  28        3PZ         0.00051   0.00189  -0.00237  -0.00019  -0.00026
  29        4S         -5.67943  -0.15536   0.87775   0.01212   0.00104
  30        4PX         1.09968  -0.00872  -0.20054   0.11809  -0.84584
  31        4PY         1.98336  -0.02569  -0.31762  -0.06527   0.49945
  32        4PZ         0.00032   0.00052  -0.00041   0.00003  -0.00041
  33 5   H  1S         -0.01846  -0.78961   0.67520   0.71696   0.67224
  34        2S          0.29112   1.14726  -1.03075  -1.04008  -1.43272
  35        3S          0.05357  -0.36345   0.40343   0.52512   0.42439
  36 6   H  1S         -0.01840  -0.78309   0.69144  -0.70847  -0.67208
  37        2S          0.31553   1.13442  -1.04845   1.02449   1.42405
  38        3S          0.06499  -0.36450   0.42744  -0.52457  -0.43344
                          31        32        33        34        35
                           V         V         V         V         V
     Eigenvalues --     2.67092   2.81832   2.87678   2.95155   3.14059
   1 1   C  1S          0.00003   0.00022  -0.01336   0.00004  -0.00989
   2        2S          0.00000   0.00066  -0.04404  -0.00014  -0.03017
   3        2PX         0.00017   0.00648  -0.48100  -0.71713   0.44667
   4        2PY        -0.00024   0.01114  -0.86676   0.40604   0.77458
   5        2PZ        -0.92270  -0.94202  -0.01181  -0.00019  -0.00003
   6        3S          0.00014  -0.00550   0.38572   0.00306   0.25231
   7        3PX         0.00014  -0.01136   0.84797   0.86591  -0.42773
   8        3PY         0.00076  -0.01949   1.50274  -0.47845  -0.73782
   9        3PZ         0.93717   1.15168   0.01467   0.00022  -0.00006
  10        4S          0.00050   0.01271  -0.87882  -0.00962  -0.49298
  11        4PX        -0.00041   0.00918  -0.71989  -0.65791   0.21568
  12        4PY        -0.00095   0.01595  -1.27932   0.35379   0.36214
  13        4PZ        -0.33663  -0.62491  -0.00912  -0.00017   0.00000
  14 2   H  1S          0.00101  -0.00199   0.25750  -0.36770  -0.21045
  15        2S         -0.00113   0.00132  -0.21087   0.37619   0.15779
  16        3S         -0.00035   0.00382  -0.30485   0.28069   0.05333
  17 3   H  1S          0.00101  -0.00190   0.24873   0.36695  -0.21388
  18        2S         -0.00111   0.00113  -0.19401  -0.37145   0.16173
  19        3S         -0.00035   0.00378  -0.30629  -0.29577   0.06422
  20 4   C  1S          0.00006  -0.00023   0.01411   0.00051  -0.00683
  21        2S          0.00008  -0.00071   0.04928   0.00111  -0.02189
  22        2PX        -0.00085   0.00589  -0.40996  -0.81448  -0.50712
  23        2PY        -0.00215   0.01122  -0.72228   0.45231  -0.89931
  24        2PZ        -0.92696   0.93752   0.01385  -0.00037   0.00190
  25        3S         -0.00053   0.00610  -0.44248  -0.00791   0.19101
  26        3PX         0.00105  -0.01073   0.77423   0.96591   0.54637
  27        3PY         0.00250  -0.01985   1.35936  -0.53117   0.97702
  28        3PZ         0.94295  -1.14743  -0.01759   0.00045  -0.00235
  29        4S          0.00202  -0.01332   0.92468   0.02418  -0.36462
  30        4PX        -0.00038   0.00916  -0.71540  -0.70185  -0.33697
  31        4PY        -0.00081   0.01651  -1.24505   0.38268  -0.60433
  32        4PZ        -0.33969   0.62318   0.01138  -0.00033   0.00178
  33 5   H  1S          0.00106   0.00245  -0.29755   0.42619  -0.26680
  34        2S         -0.00137  -0.00197   0.27342  -0.44103   0.21115
  35        3S         -0.00008  -0.00346   0.27736  -0.23568   0.12869
  36 6   H  1S          0.00106   0.00241  -0.29614  -0.43616  -0.25460
  37        2S         -0.00136  -0.00200   0.27747   0.45058   0.20198
  38        3S         -0.00001  -0.00326   0.26477   0.23516   0.12077
                          36        37        38
                           V         V         V
     Eigenvalues --     3.31955  23.35132  23.70592
   1 1   C  1S         -0.00032  -1.40556  -1.46048
   2        2S         -0.00041   1.49892   1.57931
   3        2PX         0.79518  -0.00667   0.01201
   4        2PY        -0.44467  -0.01093   0.02109
   5        2PZ         0.00030  -0.00004  -0.00003
   6        3S         -0.00133  -0.29378  -0.40160
   7        3PX        -1.13861   0.02467  -0.05555
   8        3PY         0.63130   0.04100  -0.09674
   9        3PZ        -0.00043   0.00010   0.00010
  10        4S         -0.00286   0.26977   0.77137
  11        4PX         2.01050  -0.02730   0.13356
  12        4PY        -1.11283  -0.04622   0.22964
  13        4PZ         0.00077  -0.00016  -0.00036
  14 2   H  1S          0.57479   0.01363   0.00794
  15        2S         -0.89748   0.00746  -0.01527
  16        3S         -0.47643  -0.08482  -0.04017
  17 3   H  1S         -0.58524   0.01532   0.00903
  18        2S          0.91291   0.00713  -0.01515
  19        3S          0.50265  -0.08698  -0.04017
  20 4   C  1S          0.00010  -1.45567   1.41032
  21        2S         -0.00016   1.55257  -1.52526
  22        2PX        -0.69658   0.00580   0.01278
  23        2PY         0.40224   0.01050   0.02176
  24        2PZ        -0.00033  -0.00006   0.00000
  25        3S          0.00454  -0.30490   0.38856
  26        3PX         0.99055  -0.02148  -0.05685
  27        3PY        -0.58055  -0.03840  -0.09777
  28        3PZ         0.00048   0.00018   0.00001
  29        4S         -0.01789   0.28308  -0.75757
  30        4PX        -1.75838   0.02190   0.13108
  31        4PY         1.03768   0.04019   0.22753
  32        4PZ        -0.00083  -0.00029   0.00011
  33 5   H  1S          0.47311   0.01228  -0.00360
  34        2S         -0.74419   0.00876   0.01287
  35        3S         -0.41985  -0.08225   0.03632
  36 6   H  1S         -0.46634   0.01086  -0.00254
  37        2S          0.73637   0.00977   0.01259
  38        3S          0.40717  -0.08035   0.03595
     Density Matrix:
                           1         2         3         4         5
   1 1   C  1S          0.65939
   2        2S          0.56152   0.49203
   3        2PX        -0.00045  -0.00059   0.08472
   4        2PY        -0.00115  -0.00158   0.00344   0.08791
   5        2PZ         0.00001   0.00002  -0.00002  -0.00004   0.06446
   6        3S         -0.08892  -0.15385   0.00238   0.00578  -0.00004
   7        3PX         0.00091   0.00140   0.13104   0.00092  -0.00001
   8        3PY         0.00128   0.00196   0.00095   0.13140  -0.00005
   9        3PZ         0.00002   0.00003  -0.00002  -0.00006   0.10376
  10        4S         -0.07913  -0.11387  -0.01566  -0.02800   0.00009
  11        4PX         0.00029   0.00163   0.07006  -0.00450  -0.00004
  12        4PY         0.00066   0.00308  -0.00456   0.06536  -0.00005
  13        4PZ        -0.00000  -0.00001  -0.00007  -0.00012   0.09590
  14 2   H  1S         -0.02075  -0.03303   0.03513  -0.06326  -0.00006
  15        2S         -0.02300  -0.03678   0.04899  -0.08773  -0.00002
  16        3S          0.00058  -0.00071   0.02035  -0.03286   0.00002
  17 3   H  1S         -0.02123  -0.03377  -0.07310  -0.00199  -0.00010
  18        2S         -0.02331  -0.03722  -0.10037  -0.00233  -0.00008
  19        3S          0.00062  -0.00066  -0.03805   0.00097   0.00000
  20 4   C  1S          0.00608   0.00980  -0.01092  -0.01894  -0.00003
  21        2S          0.00975   0.01525  -0.01747  -0.03031  -0.00005
  22        2PX         0.01032   0.01650  -0.01239  -0.03215   0.00006
  23        2PY         0.01795   0.02870  -0.03215  -0.04968   0.00015
  24        2PZ        -0.00005  -0.00007  -0.00001   0.00001   0.06438
  25        3S         -0.02625  -0.03987   0.04904   0.08516   0.00017
  26        3PX         0.01588   0.02461  -0.01826  -0.04583   0.00008
  27        3PY         0.02761   0.04279  -0.04568  -0.07125   0.00021
  28        3PZ        -0.00008  -0.00012  -0.00003   0.00001   0.10290
  29        4S          0.00541   0.00402   0.02108   0.03704   0.00019
  30        4PX         0.00308   0.00636  -0.01314  -0.02105   0.00009
  31        4PY         0.00522   0.01086  -0.02106  -0.03744   0.00022
  32        4PZ        -0.00005  -0.00009  -0.00007  -0.00007   0.09595
  33 5   H  1S          0.00417   0.00685  -0.00167  -0.01251  -0.00004
  34        2S          0.00626   0.01040   0.00363  -0.02516   0.00002
  35        3S          0.00319   0.00466   0.00433  -0.01762   0.00002
  36 6   H  1S          0.00413   0.00677  -0.01000  -0.00768  -0.00005
  37        2S          0.00619   0.01031  -0.02358  -0.00941   0.00000
  38        3S          0.00315   0.00463  -0.01740  -0.00511   0.00000
                           6         7         8         9        10
   6        3S          0.45260
   7        3PX        -0.00194   0.20298
   8        3PY        -0.00185  -0.00500   0.19690
   9        3PZ        -0.00007  -0.00002  -0.00006   0.16705
  10        4S          0.27202  -0.02623  -0.04767   0.00013   0.18042
  11        4PX        -0.00696   0.10885  -0.01014  -0.00006  -0.01511
  12        4PY        -0.01258  -0.01027   0.09834  -0.00008  -0.02862
  13        4PZ         0.00005  -0.00009  -0.00014   0.15439   0.00022
  14 2   H  1S          0.08829   0.05659  -0.09860  -0.00010   0.06929
  15        2S          0.09844   0.07928  -0.13626  -0.00004   0.08145
  16        3S          0.00612   0.03323  -0.05045   0.00004   0.01112
  17 3   H  1S          0.09035  -0.11430  -0.00141  -0.00016   0.06930
  18        2S          0.09971  -0.15675  -0.00070  -0.00013   0.08017
  19        3S          0.00613  -0.05918   0.00332  -0.00000   0.01015
  20 4   C  1S         -0.02657  -0.01707  -0.02962  -0.00006   0.00516
  21        2S         -0.04019  -0.02654  -0.04607  -0.00009   0.00392
  22        2PX        -0.04616  -0.01756  -0.04565   0.00010  -0.01741
  23        2PY        -0.08031  -0.04565  -0.07074   0.00024  -0.03017
  24        2PZ         0.00021  -0.00002   0.00003   0.10364   0.00024
  25        3S          0.10228   0.07210   0.12540   0.00029   0.00075
  26        3PX        -0.06657  -0.02602  -0.06487   0.00013  -0.02584
  27        3PY        -0.11574  -0.06467  -0.10139   0.00034  -0.04468
  28        3PZ         0.00035  -0.00004   0.00003   0.16565   0.00040
  29        4S          0.00177   0.03196   0.05635   0.00032  -0.03255
  30        4PX        -0.02250  -0.01955  -0.02958   0.00014  -0.00650
  31        4PY        -0.03862  -0.02963  -0.05396   0.00036  -0.01056
  32        4PZ         0.00025  -0.00010  -0.00008   0.15446   0.00034
  33 5   H  1S         -0.02033  -0.00062  -0.01784  -0.00006  -0.01453
  34        2S         -0.03105   0.00873  -0.03685   0.00003  -0.01896
  35        3S         -0.01197   0.00821  -0.02645   0.00003  -0.00335
  36 6   H  1S         -0.02009  -0.01500  -0.00929  -0.00007  -0.01473
  37        2S         -0.03080  -0.03601  -0.01058   0.00001  -0.01965
  38        3S         -0.01192  -0.02683  -0.00607   0.00001  -0.00384
                          11        12        13        14        15
  11        4PX         0.05946
  12        4PY        -0.00887   0.05067
  13        4PZ        -0.00009  -0.00012   0.14269
  14 2   H  1S          0.03344  -0.05401  -0.00004   0.08171
  15        2S          0.04773  -0.07449   0.00002   0.10950   0.14878
  16        3S          0.02052  -0.02742   0.00005   0.03635   0.05161
  17 3   H  1S         -0.06295   0.00167  -0.00008  -0.01325  -0.02445
  18        2S         -0.08672   0.00392  -0.00004  -0.02437  -0.04178
  19        3S         -0.03303   0.00418   0.00002  -0.01772  -0.02657
  20 4   C  1S         -0.00318  -0.00580  -0.00006   0.00425   0.00676
  21        2S         -0.00658  -0.01183  -0.00010   0.00702   0.01130
  22        2PX        -0.01337  -0.01974   0.00011   0.00193  -0.00244
  23        2PY        -0.01980  -0.03671   0.00027   0.01128   0.02397
  24        2PZ        -0.00004  -0.00001   0.09579  -0.00005  -0.00003
  25        3S          0.02330   0.04162   0.00030  -0.02118  -0.03404
  26        3PX        -0.02066  -0.02788   0.00015   0.00112  -0.00690
  27        3PY        -0.02791  -0.05355   0.00039   0.01689   0.03604
  28        3PZ        -0.00006  -0.00002   0.15310  -0.00007  -0.00004
  29        4S          0.00815   0.01551   0.00032  -0.01799  -0.02469
  30        4PX        -0.01509  -0.01220   0.00015  -0.00169  -0.00845
  31        4PY        -0.01231  -0.02957   0.00038   0.01523   0.02712
  32        4PZ        -0.00009  -0.00008   0.14276  -0.00004   0.00001
  33 5   H  1S          0.00220  -0.01597  -0.00003   0.01120   0.02317
  34        2S          0.00953  -0.02779   0.00007   0.02389   0.04434
  35        3S          0.00771  -0.01595   0.00004   0.01679   0.02795
  36 6   H  1S         -0.01478  -0.00563  -0.00004  -0.00910  -0.01805
  37        2S         -0.02856  -0.00496   0.00005  -0.01898  -0.03430
  38        3S         -0.01745  -0.00105   0.00002  -0.01031  -0.01785
                          16        17        18        19        20
  16        3S          0.02051
  17 3   H  1S         -0.01787   0.08288
  18        2S         -0.02665   0.10976   0.14742
  19        3S         -0.01240   0.03579   0.05030   0.01976
  20 4   C  1S          0.00376   0.00432   0.00679   0.00376   0.65949
  21        2S          0.00555   0.00713   0.01131   0.00553   0.56156
  22        2PX        -0.00326   0.00884   0.02191   0.01651   0.00129
  23        2PY         0.01751   0.00743   0.00979   0.00576   0.00198
  24        2PZ        -0.00000  -0.00005  -0.00002   0.00001   0.00000
  25        3S         -0.01439  -0.02143  -0.03396  -0.01422  -0.08928
  26        3PX        -0.00669   0.01418   0.03466   0.02585  -0.00041
  27        3PY         0.02642   0.00954   0.01191   0.00720  -0.00097
  28        3PZ         0.00000  -0.00007  -0.00002   0.00001   0.00001
  29        4S         -0.00603  -0.01768  -0.02376  -0.00548  -0.08041
  30        4PX        -0.00697   0.01408   0.02766   0.01710  -0.00020
  31        4PY         0.01593   0.00649   0.00654   0.00196  -0.00018
  32        4PZ         0.00002  -0.00004   0.00001   0.00003  -0.00001
  33 5   H  1S          0.01602  -0.00903  -0.01793  -0.00924  -0.01989
  34        2S          0.02725  -0.01876  -0.03383  -0.01676  -0.02208
  35        3S          0.01462  -0.01018  -0.01756  -0.00892   0.00055
  36 6   H  1S         -0.00936   0.01120   0.02306   0.01574  -0.01959
  37        2S         -0.01710   0.02389   0.04414   0.02687  -0.02201
  38        3S         -0.00912   0.01680   0.02781   0.01444   0.00045
                          21        22        23        24        25
  21        2S          0.49203
  22        2PX         0.00187   0.08202
  23        2PY         0.00285   0.00393   0.08734
  24        2PZ         0.00000   0.00001   0.00000   0.06430
  25        3S         -0.15424  -0.00596  -0.00920   0.00001   0.45371
  26        3PX        -0.00062   0.12779   0.00218   0.00000  -0.00062
  27        3PY        -0.00146   0.00223   0.13104  -0.00002   0.00019
  28        3PZ         0.00002   0.00001   0.00000   0.10278  -0.00003
  29        4S         -0.11630   0.01378   0.02320   0.00002   0.28010
  30        4PX        -0.00147   0.07362  -0.00532   0.00005   0.00619
  31        4PY        -0.00223  -0.00524   0.06729   0.00011   0.00988
  32        4PZ        -0.00003   0.00007   0.00014   0.09584   0.00012
  33 5   H  1S         -0.03170  -0.03296   0.06328  -0.00017   0.08481
  34        2S         -0.03529  -0.04957   0.08852  -0.00015   0.09439
  35        3S         -0.00065  -0.02285   0.03369  -0.00003   0.00567
  36 6   H  1S         -0.03124   0.07056   0.00285  -0.00012   0.08356
  37        2S         -0.03519   0.10119   0.00093  -0.00009   0.09409
  38        3S         -0.00080   0.04088  -0.00319  -0.00001   0.00594
                          26        27        28        29        30
  26        3PX         0.19945
  27        3PY        -0.00221   0.19720
  28        3PZ         0.00001  -0.00002   0.16427
  29        4S          0.02566   0.04291   0.00000   0.18906
  30        4PX         0.11539  -0.01104   0.00009   0.01597   0.06790
  31        4PY        -0.01098   0.10185   0.00018   0.02546  -0.01100
  32        4PZ         0.00009   0.00018   0.15317   0.00015   0.00012
  33 5   H  1S         -0.05281   0.09935  -0.00027   0.06701  -0.03473
  34        2S         -0.07988   0.13849  -0.00025   0.07774  -0.05294
  35        3S         -0.03729   0.05202  -0.00005   0.00938  -0.02485
  36 6   H  1S          0.11174   0.00373  -0.00020   0.06731   0.06618
  37        2S          0.16007  -0.00029  -0.00015   0.07934   0.09529
  38        3S          0.06434  -0.00652  -0.00002   0.01041   0.03866
                          31        32        33        34        35
  31        4PY         0.05417
  32        4PZ         0.00027   0.14283
  33 5   H  1S          0.05604  -0.00015   0.08014
  34        2S          0.07827  -0.00009   0.10986   0.15305
  35        3S          0.02955  -0.00001   0.03833   0.05598   0.02332
  36 6   H  1S         -0.00204  -0.00011  -0.01235  -0.02613  -0.02014
  37        2S         -0.00667  -0.00004  -0.02623  -0.04898  -0.03224
  38        3S         -0.00670   0.00001  -0.02035  -0.03238  -0.01610
                          36        37        38
  36 6   H  1S          0.07918
  37        2S          0.10948   0.15377
  38        3S          0.03862   0.05677   0.02378
    Full Mulliken population analysis:
                           1         2         3         4         5
   1 1   C  1S          0.65939
   2        2S          0.49326   0.49203
   3        2PX         0.00000   0.00000   0.08472
   4        2PY         0.00000   0.00000   0.00000   0.08791
   5        2PZ         0.00000   0.00000   0.00000   0.00000   0.06446
   6        3S         -0.02927  -0.06443   0.00000   0.00000   0.00000
   7        3PX         0.00000   0.00000   0.08244   0.00000   0.00000
   8        3PY         0.00000   0.00000   0.00000   0.08267   0.00000
   9        3PZ         0.00000   0.00000   0.00000   0.00000   0.06528
  10        4S         -0.01217  -0.02131   0.00000   0.00000   0.00000
  11        4PX         0.00000   0.00000   0.01543   0.00000   0.00000
  12        4PY         0.00000   0.00000   0.00000   0.01439   0.00000
  13        4PZ         0.00000   0.00000   0.00000   0.00000   0.02112
  14 2   H  1S         -0.00024  -0.00034   0.00189   0.00572   0.00000
  15        2S         -0.00169  -0.00324   0.00438   0.01320   0.00000
  16        3S          0.00005  -0.00007   0.00069   0.00188  -0.00000
  17 3   H  1S         -0.00026  -0.00038   0.00809  -0.00000   0.00000
  18        2S         -0.00176  -0.00338   0.01781  -0.00000   0.00000
  19        3S          0.00005  -0.00006   0.00253   0.00000  -0.00000
  20 4   C  1S          0.00000   0.00000  -0.00002  -0.00006   0.00000
  21        2S          0.00000  -0.00000  -0.00002  -0.00006   0.00000
  22        2PX        -0.00002  -0.00002   0.00011   0.00086   0.00000
  23        2PY        -0.00006  -0.00005   0.00086   0.00197   0.00000
  24        2PZ        -0.00000  -0.00000  -0.00000   0.00000   0.00042
  25        3S         -0.00059  -0.00100   0.00256   0.00770  -0.00000
  26        3PX        -0.00054  -0.00099   0.00019   0.00555   0.00000
  27        3PY        -0.00162  -0.00297   0.00553   0.01070   0.00000
  28        3PZ        -0.00000  -0.00000  -0.00000   0.00000   0.00611
  29        4S          0.00034   0.00030   0.00096   0.00291  -0.00000
  30        4PX        -0.00018  -0.00045  -0.00071   0.00146   0.00000
  31        4PY        -0.00053  -0.00134   0.00146   0.00097   0.00000
  32        4PZ        -0.00000  -0.00000  -0.00000  -0.00000   0.00903
  33 5   H  1S          0.00000   0.00000  -0.00000  -0.00000   0.00000
  34        2S          0.00001   0.00002   0.00000  -0.00031  -0.00000
  35        3S          0.00007   0.00013   0.00001  -0.00070  -0.00000
  36 6   H  1S          0.00000   0.00000  -0.00000  -0.00000   0.00000
  37        2S          0.00001   0.00002  -0.00023  -0.00006  -0.00000
  38        3S          0.00007   0.00012  -0.00056  -0.00011  -0.00000
                           6         7         8         9        10
   6        3S          0.45260
   7        3PX         0.00000   0.20298
   8        3PY         0.00000   0.00000   0.19690
   9        3PZ         0.00000   0.00000   0.00000   0.16705
  10        4S          0.21073   0.00000   0.00000   0.00000   0.18042
  11        4PX         0.00000   0.07113   0.00000   0.00000   0.00000
  12        4PY         0.00000   0.00000   0.06426   0.00000   0.00000
  13        4PZ         0.00000   0.00000   0.00000   0.10089   0.00000
  14 2   H  1S          0.01640   0.01111   0.03255   0.00000   0.01841
  15        2S          0.04170   0.01984   0.05736   0.00000   0.04711
  16        3S          0.00283   0.00395   0.01008  -0.00000   0.00841
  17 3   H  1S          0.01732   0.04481  -0.00000   0.00000   0.01863
  18        2S          0.04298   0.07729  -0.00000   0.00000   0.04678
  19        3S          0.00286   0.01372   0.00000   0.00000   0.00771
  20 4   C  1S         -0.00060  -0.00058  -0.00174   0.00000   0.00033
  21        2S         -0.00100  -0.00106  -0.00320   0.00000   0.00030
  22        2PX         0.00241   0.00018   0.00552   0.00000   0.00079
  23        2PY         0.00726   0.00552   0.01062   0.00000   0.00237
  24        2PZ         0.00000  -0.00000   0.00000   0.00616   0.00000
  25        3S          0.02182   0.01352   0.04073  -0.00000   0.00029
  26        3PX         0.01248  -0.00126   0.01852   0.00000   0.00398
  27        3PY         0.03759   0.01846   0.02849   0.00000   0.01193
  28        3PZ         0.00000  -0.00000   0.00000   0.03534   0.00000
  29        4S          0.00067   0.00493   0.01505  -0.00000  -0.02044
  30        4PX         0.00632  -0.00402   0.00585   0.00000   0.00197
  31        4PY         0.01879   0.00586   0.00125   0.00000   0.00554
  32        4PZ         0.00000  -0.00000  -0.00000   0.04937   0.00000
  33 5   H  1S         -0.00005  -0.00000  -0.00018   0.00000  -0.00076
  34        2S         -0.00116   0.00006  -0.00315  -0.00000  -0.00313
  35        3S         -0.00192   0.00011  -0.00422  -0.00000  -0.00120
  36 6   H  1S         -0.00005  -0.00012  -0.00005   0.00000  -0.00076
  37        2S         -0.00112  -0.00248  -0.00050  -0.00000  -0.00320
  38        3S         -0.00189  -0.00351  -0.00055  -0.00000  -0.00136
                          11        12        13        14        15
  11        4PX         0.05946
  12        4PY         0.00000   0.05067
  13        4PZ         0.00000   0.00000   0.14269
  14 2   H  1S          0.00640   0.01739   0.00000   0.08171
  15        2S          0.01536   0.04033  -0.00000   0.07735   0.14878
  16        3S          0.00517   0.01162  -0.00000   0.01358   0.04072
  17 3   H  1S          0.02360   0.00000   0.00000  -0.00001  -0.00064
  18        2S          0.05454   0.00000   0.00000  -0.00064  -0.00523
  19        3S          0.01620   0.00000  -0.00000  -0.00198  -0.00774
  20 4   C  1S         -0.00019  -0.00058   0.00000   0.00000   0.00002
  21        2S         -0.00047  -0.00146   0.00000   0.00000   0.00003
  22        2PX        -0.00072   0.00137   0.00000  -0.00000   0.00000
  23        2PY         0.00137   0.00095   0.00000  -0.00000  -0.00037
  24        2PZ        -0.00000  -0.00000   0.00902   0.00000   0.00000
  25        3S          0.00655   0.02025  -0.00000  -0.00007  -0.00154
  26        3PX        -0.00424   0.00552   0.00000  -0.00000   0.00004
  27        3PY         0.00552   0.00124   0.00000  -0.00023  -0.00362
  28        3PZ        -0.00000  -0.00000   0.04894   0.00000   0.00000
  29        4S          0.00247   0.00814  -0.00000  -0.00107  -0.00449
  30        4PX        -0.00727   0.00309   0.00000   0.00001   0.00017
  31        4PY         0.00311  -0.00561   0.00000  -0.00245  -0.01031
  32        4PZ        -0.00000  -0.00000   0.08966   0.00000  -0.00000
  33 5   H  1S          0.00003  -0.00233   0.00000   0.00000   0.00000
  34        2S          0.00028  -0.00985  -0.00000   0.00000   0.00015
  35        3S          0.00030  -0.00733  -0.00000   0.00023   0.00146
  36 6   H  1S         -0.00175  -0.00046   0.00000  -0.00000  -0.00004
  37        2S         -0.00828  -0.00099  -0.00000  -0.00004  -0.00091
  38        3S         -0.00659  -0.00027  -0.00000  -0.00047  -0.00247
                          16        17        18        19        20
  16        3S          0.02051
  17 3   H  1S         -0.00199   0.08288
  18        2S         -0.00776   0.07753   0.14742
  19        3S         -0.00644   0.01337   0.03968   0.01976
  20 4   C  1S          0.00009   0.00000   0.00002   0.00010   0.65949
  21        2S          0.00017   0.00000   0.00003   0.00017   0.49330
  22        2PX         0.00001  -0.00000  -0.00028  -0.00058   0.00000
  23        2PY        -0.00074  -0.00000  -0.00008  -0.00013   0.00000
  24        2PZ         0.00000   0.00000   0.00000  -0.00000   0.00000
  25        3S         -0.00251  -0.00008  -0.00155  -0.00249  -0.02939
  26        3PX         0.00006  -0.00016  -0.00292  -0.00365   0.00000
  27        3PY        -0.00445  -0.00007  -0.00066  -0.00067   0.00000
  28        3PZ        -0.00000   0.00000   0.00000  -0.00000   0.00000
  29        4S         -0.00228  -0.00106  -0.00434  -0.00208  -0.01236
  30        4PX         0.00017  -0.00190  -0.00881  -0.00677   0.00000
  31        4PY        -0.00754  -0.00058  -0.00138  -0.00051   0.00000
  32        4PZ        -0.00000   0.00000  -0.00000  -0.00000   0.00000
  33 5   H  1S          0.00022  -0.00000  -0.00004  -0.00042  -0.00020
  34        2S          0.00142  -0.00004  -0.00090  -0.00232  -0.00156
  35        3S          0.00245  -0.00046  -0.00243  -0.00284   0.00004
  36 6   H  1S         -0.00042   0.00000   0.00000   0.00022  -0.00019
  37        2S         -0.00237   0.00000   0.00015   0.00139  -0.00152
  38        3S         -0.00290   0.00023   0.00144   0.00241   0.00003
                          21        22        23        24        25
  21        2S          0.49203
  22        2PX         0.00000   0.08202
  23        2PY         0.00000   0.00000   0.08734
  24        2PZ         0.00000   0.00000   0.00000   0.06430
  25        3S         -0.06460   0.00000   0.00000   0.00000   0.45371
  26        3PX         0.00000   0.08039   0.00000   0.00000   0.00000
  27        3PY         0.00000   0.00000   0.08244   0.00000   0.00000
  28        3PZ         0.00000   0.00000   0.00000   0.06466   0.00000
  29        4S         -0.02176   0.00000   0.00000   0.00000   0.21699
  30        4PX         0.00000   0.01621   0.00000   0.00000   0.00000
  31        4PY         0.00000   0.00000   0.01482   0.00000   0.00000
  32        4PZ         0.00000   0.00000   0.00000   0.02111   0.00000
  33 5   H  1S         -0.00029   0.00140   0.00550   0.00000   0.01495
  34        2S         -0.00297   0.00373   0.01360   0.00000   0.03883
  35        3S         -0.00006   0.00067   0.00202   0.00000   0.00259
  36 6   H  1S         -0.00026   0.00652   0.00002   0.00000   0.01434
  37        2S         -0.00290   0.01706   0.00001   0.00000   0.03812
  38        3S         -0.00007   0.00273  -0.00001   0.00000   0.00269
                          26        27        28        29        30
  26        3PX         0.19945
  27        3PY         0.00000   0.19720
  28        3PZ         0.00000   0.00000   0.16427
  29        4S          0.00000   0.00000   0.00000   0.18906
  30        4PX         0.07540   0.00000   0.00000   0.00000   0.06790
  31        4PY         0.00000   0.06656   0.00000   0.00000   0.00000
  32        4PZ         0.00000   0.00000   0.10009   0.00000   0.00000
  33 5   H  1S          0.00861   0.03308   0.00000   0.01746   0.00571
  34        2S          0.01700   0.06019   0.00000   0.04429   0.01470
  35        3S          0.00383   0.01091   0.00000   0.00703   0.00543
  36 6   H  1S          0.04057   0.00009   0.00000   0.01736   0.02464
  37        2S          0.07678  -0.00001   0.00000   0.04484   0.06006
  38        3S          0.01503  -0.00010   0.00000   0.00776   0.01925
                          31        32        33        34        35
  31        4PY         0.05417
  32        4PZ         0.00000   0.14283
  33 5   H  1S          0.01881   0.00000   0.08014
  34        2S          0.04437   0.00000   0.07760   0.15305
  35        3S          0.01319   0.00000   0.01432   0.04416   0.02332
  36 6   H  1S         -0.00005   0.00000  -0.00001  -0.00078  -0.00235
  37        2S         -0.00029   0.00000  -0.00078  -0.00664  -0.00976
  38        3S         -0.00023  -0.00000  -0.00238  -0.00980  -0.00858
                          36        37        38
  36 6   H  1S          0.07918
  37        2S          0.07734   0.15377
  38        3S          0.01443   0.04479   0.02378
     Gross orbital populations:
                           1
   1 1   C  1S          1.10434
   2        2S          0.88586
   3        2PX         0.22812
   4        2PY         0.23660
   5        2PZ         0.16642
   6        3S          0.79327
   7        3PX         0.56289
   8        3PY         0.55627
   9        3PZ         0.42409
  10        4S          0.50137
  11        4PX         0.25740
  12        4PY         0.21033
  13        4PZ         0.41232
  14 2   H  1S          0.27522
  15        2S          0.46570
  16        3S          0.08461
  17 3   H  1S          0.27883
  18        2S          0.46353
  19        3S          0.08149
  20 4   C  1S          1.10443
  21        2S          0.88584
  22        2PX         0.22036
  23        2PY         0.23522
  24        2PZ         0.16566
  25        3S          0.79184
  26        3PX         0.54964
  27        3PY         0.55552
  28        3PZ         0.41942
  29        4S          0.51067
  30        4PX         0.27825
  31        4PY         0.21809
  32        4PZ         0.41209
  33 5   H  1S          0.27039
  34        2S          0.47089
  35        3S          0.09046
  36 6   H  1S          0.26740
  37        2S          0.47227
  38        3S          0.09291
          Condensed to atoms (all electrons):
               1          2          3          4          5          6
     1  C    5.030134   0.388253   0.389078   0.601758  -0.035256  -0.034698
     2  H    0.388253   0.514296  -0.032437  -0.040914   0.005953  -0.009621
     3  H    0.389078  -0.032437   0.511238  -0.040439  -0.009443   0.005852
     4  C    0.601758  -0.040914  -0.040439   5.061490   0.382866   0.382277
     5  H   -0.035256   0.005953  -0.009443   0.382866   0.528688  -0.041072
     6  H   -0.034698  -0.009621   0.005852   0.382277  -0.041072   0.529837
 Mulliken charges:
               1
     1  C   -0.339271
     2  H    0.174469
     3  H    0.176150
     4  C   -0.347038
     5  H    0.168264
     6  H    0.167424
 Sum of Mulliken charges =  -0.00000
 Mulliken charges with hydrogens summed into heavy atoms:
               1
     1  C    0.011349
     4  C   -0.011349
 Electronic spatial extent (au):  <R**2>=             83.8051
 Charge=             -0.0000 electrons
 Dipole moment (field-independent basis, Debye):
    X=              0.0001    Y=              0.0178    Z=             -0.0094  Tot=              0.0202
 Quadrupole moment (field-independent basis, Debye-Ang):
   XX=            -12.2061   YY=            -12.2159   ZZ=            -15.6812
   XY=              0.0162   XZ=             -0.0009   YZ=             -0.0037
 Traceless Quadrupole moment (field-independent basis, Debye-Ang):
   XX=              1.1616   YY=              1.1519   ZZ=             -2.3135
   XY=              0.0162   XZ=             -0.0009   YZ=             -0.0037
 Octapole moment (field-independent basis, Debye-Ang**2):
  XXX=             -0.4095  YYY=             -0.0927  ZZZ=             -0.0728  XYY=              0.2032
  XXY=             -0.0554  XXZ=             -0.0299  XZZ=             -0.1169  YZZ=             -0.1233
  YYZ=             -0.0346  XYZ=             -0.0036
 Hexadecapole moment (field-independent basis, Debye-Ang**3):
 XXXX=            -34.3531 YYYY=            -55.2518 ZZZZ=            -17.8102 XXXY=             -7.2433
 XXXZ=              0.0038 YYYX=            -10.7185 YYYZ=              0.0087 ZZZX=              0.0083
 ZZZY=              0.0186 XXYY=            -16.2193 XXZZ=             -9.9507 YYZZ=            -13.6679
 XXYZ=              0.0039 YYXZ=              0.0031 ZZXY=             -3.2114
 N-N= 3.304969462104D+01 E-N=-2.478033178531D+02  KE= 7.814491743717D+01
 Orbital energies and kinetic energies (alpha):
                                 1                 2
   1         O               -10.291774         15.979640
   2         O               -10.287330         15.978914
   3         O                -0.863844          1.539458
   4         O                -0.671655          1.269908
   5         O                -0.559485          0.942582
   6         O                -0.509271          1.283037
   7         O                -0.435755          1.040314
   8         O                -0.357013          1.038606
   9         V                 0.080086          1.181926
  10         V                 0.140676          0.591748
  11         V                 0.164313          0.597260
  12         V                 0.169714          0.681394
  13         V                 0.240459          0.584484
  14         V                 0.372462          0.848372
  15         V                 0.392725          0.932695
  16         V                 0.400120          0.785002
  17         V                 0.462384          1.200916
  18         V                 0.488235          1.411292
  19         V                 0.493639          1.301182
  20         V                 0.590953          1.652383
  21         V                 0.665049          1.574159
  22         V                 0.690908          2.142926
  23         V                 0.771097          2.408038
  24         V                 0.776477          2.331153
  25         V                 0.845469          1.089409
  26         V                 0.952229          3.426972
  27         V                 2.231362          3.924128
  28         V                 2.290169          4.026513
  29         V                 2.333204          4.304396
  30         V                 2.408052          4.520213
  31         V                 2.670923          6.301074
  32         V                 2.818317          6.308653
  33         V                 2.876784          6.135731
  34         V                 2.951554          6.226605
  35         V                 3.140586          6.820974
  36         V                 3.319552          6.400261
  37         V                23.351315         60.074223
  38         V                23.705922         60.204023
 Total kinetic energy from orbitals= 7.814491743717D+01
 Calling FoFJK, ICntrl=      2127 FMM=F ISym2X=0 I1Cent= 0 IOpClX= 0 NMat=1 NMatS=1 NMatT=0.
 -------------------------------------------------------------------
 Center     Atomic                   Forces (Hartrees/Bohr)
 Number     Number              X              Y              Z
 -------------------------------------------------------------------
      1        6           0.015553657    0.012001634   -0.000292351
      2        1          -0.008812337    0.002903849    0.000164191
      3        1          -0.000441314   -0.005470423    0.000145695
      4        6           0.013034723    0.015069571   -0.000537034
      5        1           0.002859756   -0.017614228    0.000261603
      6        1          -0.022194486   -0.006890404    0.000257897
 -------------------------------------------------------------------
 Cartesian Forces:  Max     0.022194486 RMS     0.009883292

 GradGradGradGradGradGradGradGradGradGradGradGradGradGradGradGradGradGrad
 Berny optimization.
 Search for a local minimum.
 Step number   1 out of a maximum of    2
 All quantities printed in internal units (Hartrees-Bohrs-Radians)
 Second derivative matrix not updated -- first step.
 The second derivative matrix:
                          X1        Y1        Z1        X2        Y2
           X1           0.76914
           Y1           0.09399   0.86319
           Z1           0.00043   0.00039   0.17146
           X2          -0.16839   0.09917   0.00013   0.14556
           Y2           0.10503  -0.28611  -0.00050  -0.11860   0.27456
           Z2           0.00022  -0.00065  -0.05497  -0.00019   0.00051
           X3          -0.35856   0.00011  -0.00067   0.00001   0.00001
           Y3          -0.00565  -0.11153  -0.00013   0.03260   0.01938
           Z3          -0.00084  -0.00013  -0.05626   0.00011   0.00004
           X4          -0.26740  -0.17872  -0.00001   0.02282   0.01356
           Y4          -0.17904  -0.47382   0.00003  -0.01317  -0.00783
           Z4           0.00019   0.00038  -0.09480  -0.00004  -0.00006
           X5           0.02343  -0.01353   0.00008  -0.00000   0.00000
           Y5           0.01147  -0.00662   0.00011   0.00000  -0.00000
           Z5          -0.00004   0.00003   0.01763   0.00002  -0.00001
           X6           0.00177  -0.00102   0.00004  -0.00000   0.00000
           Y6          -0.02580   0.01490   0.00010   0.00000  -0.00000
           Z6           0.00005  -0.00002   0.01694  -0.00002   0.00001
                          Z2        X3        Y3        Z3        X4
           Z2           0.02851
           X3          -0.00002   0.35856
           Y3           0.00013  -0.00012   0.07666
           Z3           0.01067   0.00073   0.00008   0.02938
           X4           0.00006  -0.00001  -0.02683  -0.00005   0.69941
           Y4          -0.00002   0.00001   0.01549   0.00004   0.12601
           Z4           0.01571  -0.00004  -0.00008   0.01630  -0.00058
           X5          -0.00003  -0.00000   0.00000   0.00003  -0.14237
           Y5           0.00002   0.00000  -0.00000  -0.00002   0.08898
           Z5           0.00927   0.00002  -0.00002  -0.00944  -0.00040
           X6          -0.00003  -0.00000   0.00000   0.00003  -0.31245
           Y6           0.00001   0.00000  -0.00000  -0.00001  -0.02300
           Z6          -0.00919  -0.00002   0.00002   0.00936   0.00097
                          Y4        Z4        X5        Y5        Z5
           Y4           0.85377
           Z4          -0.00141   0.17578
           X5           0.08070  -0.00027   0.12115
           Y5          -0.28458   0.00093  -0.09937   0.27544
           Z5           0.00113  -0.05692   0.00036  -0.00100   0.02936
           X6          -0.01450   0.00074  -0.00221  -0.00108   0.00004
           Y6          -0.10303   0.00023   0.03219   0.01576  -0.00014
           Z6           0.00023  -0.05606  -0.00016  -0.00004   0.01011
                          X6        Y6        Z6
           X6           0.31289
           Y6           0.01660   0.07237
           Z6          -0.00082  -0.00019   0.02885
 ITU=  0
     Eigenvalues ---    0.03726   0.04371   0.09512   0.09755   0.13486
     Eigenvalues ---    0.17373   0.26513   0.28904   0.52631   0.69255
     Eigenvalues ---    0.97716   1.56266
 Angle between quadratic step and forces=  30.46 degrees.
 Linear search not attempted -- first point.
 B after Tr=     0.008137    0.009707   -0.000966
         Rot=    1.000000    0.000010   -0.000006   -0.000108 Ang=   0.01 deg.
 Variable       Old X    -DE/DX   Delta X   Delta X   Delta X     New X
                                 (Linear)    (Quad)   (Total)
    X1       -0.63628   0.01555   0.00000   0.02361   0.03197  -0.60431
    Y1       -1.10095   0.01200   0.00000   0.02751   0.03709  -1.06386
    Z1        0.00441  -0.00029   0.00000  -0.00183  -0.00277   0.00164
    X2        0.41882  -0.00881   0.00000  -0.03541  -0.02665   0.39216
    Y2       -2.87585   0.00290   0.00000   0.01602   0.02581  -2.85004
    Z2        0.00089   0.00016   0.00000   0.00244   0.00153   0.00242
    X3       -2.67936  -0.00044   0.00000   0.02236   0.03073  -2.64862
    Y3       -1.10006  -0.00547   0.00000  -0.01761  -0.00847  -1.10853
    Z3       -0.00009   0.00015   0.00000   0.00221   0.00130   0.00121
    X4        0.62768   0.01303   0.00000   0.01005   0.01795   0.64563
    Y4        1.08835   0.01507   0.00000   0.01269   0.02253   1.11088
    Z4        0.00310  -0.00054   0.00000  -0.00217  -0.00317  -0.00007
    X5       -0.29623   0.00286   0.00000  -0.01093  -0.00343  -0.29966
    Y5        2.97529  -0.01761   0.00000  -0.05624  -0.04660   2.92869
    Z5       -0.00441   0.00026   0.00000   0.00271   0.00169  -0.00272
    X6        2.74217  -0.02219   0.00000  -0.05846  -0.05058   2.69160
    Y6        1.23364  -0.00689   0.00000  -0.04065  -0.03036   1.20328
    Z6       -0.00307   0.00026   0.00000   0.00244   0.00142  -0.00164
         Item               Value     Threshold  Converged?
 Maximum Force            0.022194     0.000450     NO 
 RMS     Force            0.009883     0.000300     NO 
 Maximum Displacement     0.050576     0.001800     NO 
 RMS     Displacement     0.025067     0.001200     NO 
 Predicted change in Energy=-2.002580D-03
 GradGradGradGradGradGradGradGradGradGradGradGradGradGradGradGradGradGrad

 Unable to Open any file for archive entry.
 1\1\GINC-BHD0007\Force\RwB97XD\6-311G\C2H4\BWEIGHT\11-Jan-2023\0\\# WB
 97XD/6-311G SCF=XQC FORCE nosym pop=full guess=read\\MD Step 999\\0,1\
 C,-0.33670721,-0.58259757,0.00233523\H,0.22162801,-1.52183656,0.000473
 32\H,-1.41785394,-0.58212462,-0.00004599\C,0.33215431,0.57592941,0.001
 64131\H,-0.15676044,1.57445465,-0.0023339\H,1.45109471,0.65281587,-0.0
 0162217\\Version=ES64L-G16RevC.01\HF=-78.5552032\RMSD=5.143e-09\RMSF=9
 .883e-03\Dipole=0.0000401,0.0070086,-0.0037084\Quadrupole=0.8636359,0.
 8563965,-1.7200325,0.0120165,-0.0006776,-0.0027768\PG=C01 [X(C2H4)]\\@
 The archive entry for this job was punched.


 EDUCATION WITHOUT COMMON SENSE IS A LOAD OF BOOKS ON THE BACK OF AN ASS.
 Job cpu time:       0 days  0 hours  0 minutes 43.4 seconds.
 Elapsed time:       0 days  0 hours  0 minutes 16.1 seconds.
 File lengths (MBytes):  RWF=    272 Int=      0 D2E=      0 Chk=     32 Scr=     32
 Normal termination of Gaussian 16 at Wed Jan 11 16:35:50 2023.
