 Entering Gaussian System, Link 0=g16
 Initial command:
 /software/gaussian/g16-c01/avx2/g16/l1.exe "/gpfs/fs2/scratch/bweight/software/many_molecule_many_mode_NAMD/src/NAMD/TEST_NVT/TRAJ/traj-77/G16/GS_NEW/Gau-20102.inp" -scrdir="/gpfs/fs2/scratch/bweight/software/many_molecule_many_mode_NAMD/src/NAMD/TEST_NVT/TRAJ/traj-77/G16/GS_NEW/"
 Entering Link 1 = /software/gaussian/g16-c01/avx2/g16/l1.exe PID=     20103.
  
 Copyright (c) 1988-2019, Gaussian, Inc.  All Rights Reserved.
  
 This is part of the Gaussian(R) 16 program.  It is based on
 the Gaussian(R) 09 system (copyright 2009, Gaussian, Inc.),
 the Gaussian(R) 03 system (copyright 2003, Gaussian, Inc.),
 the Gaussian(R) 98 system (copyright 1998, Gaussian, Inc.),
 the Gaussian(R) 94 system (copyright 1995, Gaussian, Inc.),
 the Gaussian 92(TM) system (copyright 1992, Gaussian, Inc.),
 the Gaussian 90(TM) system (copyright 1990, Gaussian, Inc.),
 the Gaussian 88(TM) system (copyright 1988, Gaussian, Inc.),
 the Gaussian 86(TM) system (copyright 1986, Carnegie Mellon
 University), and the Gaussian 82(TM) system (copyright 1983,
 Carnegie Mellon University). Gaussian is a federally registered
 trademark of Gaussian, Inc.
  
 This software contains proprietary and confidential information,
 including trade secrets, belonging to Gaussian, Inc.
  
 This software is provided under written license and may be
 used, copied, transmitted, or stored only in accord with that
 written license.
  
 The following legend is applicable only to US Government
 contracts under FAR:
  
                    RESTRICTED RIGHTS LEGEND
  
 Use, reproduction and disclosure by the US Government is
 subject to restrictions as set forth in subparagraphs (a)
 and (c) of the Commercial Computer Software - Restricted
 Rights clause in FAR 52.227-19.
  
 Gaussian, Inc.
 340 Quinnipiac St., Bldg. 40, Wallingford CT 06492
  
  
 ---------------------------------------------------------------
 Warning -- This program may not be used in any manner that
 competes with the business of Gaussian, Inc. or will provide
 assistance to any competitor of Gaussian, Inc.  The licensee
 of this program is prohibited from giving any competitor of
 Gaussian, Inc. access to this program.  By using this program,
 the user acknowledges that Gaussian, Inc. is engaged in the
 business of creating and licensing software in the field of
 computational chemistry and represents and warrants to the
 licensee that it is not a competitor of Gaussian, Inc. and that
 it will not use this program in any manner prohibited above.
 ---------------------------------------------------------------
  

 Cite this work as:
 Gaussian 16, Revision C.01,
 M. J. Frisch, G. W. Trucks, H. B. Schlegel, G. E. Scuseria, 
 M. A. Robb, J. R. Cheeseman, G. Scalmani, V. Barone, 
 G. A. Petersson, H. Nakatsuji, X. Li, M. Caricato, A. V. Marenich, 
 J. Bloino, B. G. Janesko, R. Gomperts, B. Mennucci, H. P. Hratchian, 
 J. V. Ortiz, A. F. Izmaylov, J. L. Sonnenberg, D. Williams-Young, 
 F. Ding, F. Lipparini, F. Egidi, J. Goings, B. Peng, A. Petrone, 
 T. Henderson, D. Ranasinghe, V. G. Zakrzewski, J. Gao, N. Rega, 
 G. Zheng, W. Liang, M. Hada, M. Ehara, K. Toyota, R. Fukuda, 
 J. Hasegawa, M. Ishida, T. Nakajima, Y. Honda, O. Kitao, H. Nakai, 
 T. Vreven, K. Throssell, J. A. Montgomery, Jr., J. E. Peralta, 
 F. Ogliaro, M. J. Bearpark, J. J. Heyd, E. N. Brothers, K. N. Kudin, 
 V. N. Staroverov, T. A. Keith, R. Kobayashi, J. Normand, 
 K. Raghavachari, A. P. Rendell, J. C. Burant, S. S. Iyengar, 
 J. Tomasi, M. Cossi, J. M. Millam, M. Klene, C. Adamo, R. Cammi, 
 J. W. Ochterski, R. L. Martin, K. Morokuma, O. Farkas, 
 J. B. Foresman, and D. J. Fox, Gaussian, Inc., Wallingford CT, 2019.
 
 ******************************************
 Gaussian 16:  ES64L-G16RevC.01  3-Jul-2019
                11-Jan-2023 
 ******************************************
 %oldchk=../GS_OLD/geometry.chk
 %chk=geometry.chk
 %nprocshared=4
 Will use up to    4 processors via shared memory.
 %mem=5GB
 Copying data from "../GS_OLD/geometry.chk" to current chk file "geometry.chk"
 IOpt=  2 FromEx=T IUOpen= 4 IOptOp= 5 NList=   0 IFRang= 0 IUIn= 4 IUOut= 2.
 -------------------------------------------------------
 # WB97XD/6-311G SCF=XQC FORCE nosym pop=full guess=read
 -------------------------------------------------------
 1/10=7,30=1,38=1/1,3;
 2/12=2,15=1,17=6,18=5,40=1/2;
 3/5=4,6=6,11=2,25=1,30=1,71=1,74=-58,116=-2/1,2,3;
 4/5=1/1;
 5/5=2,8=3,13=1,38=6/2,8;
 6/7=3,28=1/1;
 7/29=1,30=1/1,2,3,16;
 1/10=7,30=1/3;
 99//99;
 ------------
 MD Step 1000
 ------------
 Symbolic Z-matrix:
 Charge =  0 Multiplicity = 1
 C                    -0.33642  -0.58356   0.00593 
 H                     0.22003  -1.53172  -0.01896 
 H                    -1.42714  -0.57379  -0.01945 
 C                     0.33396   0.57751   0.00413 
 H                    -0.16163   1.563    -0.02025 
 H                     1.43937   0.65603  -0.01984 
 

 GradGradGradGradGradGradGradGradGradGradGradGradGradGradGradGradGradGrad
 Berny optimization.
 Initialization pass.
 Trust Radius=3.00D-01 FncErr=1.00D-07 GrdErr=1.00D-07 EigMax=2.50D+02 EigMin=1.00D-04
 Number of steps in this run=      2 maximum allowed number of steps=      2.
 GradGradGradGradGradGradGradGradGradGradGradGradGradGradGradGradGradGrad

                          Input orientation:                          
 ---------------------------------------------------------------------
 Center     Atomic      Atomic             Coordinates (Angstroms)
 Number     Number       Type             X           Y           Z
 ---------------------------------------------------------------------
      1          6           0       -0.336420   -0.583562    0.005931
      2          1           0        0.220033   -1.531723   -0.018962
      3          1           0       -1.427139   -0.573786   -0.019455
      4          6           0        0.333964    0.577507    0.004130
      5          1           0       -0.161630    1.563001   -0.020247
      6          1           0        1.439374    0.656030   -0.019842
 ---------------------------------------------------------------------
                    Distance matrix (angstroms):
                    1          2          3          4          5
     1  C    0.000000
     2  H    1.099668   0.000000
     3  H    1.091058   1.905470   0.000000
     4  C    1.340709   2.112431   2.104167   0.000000
     5  H    2.153826   3.118170   2.483420   1.103361   0.000000
     6  H    2.165801   2.504607   3.119189   1.108454   1.840057
                    6
     6  H    0.000000
 Symmetry turned off by external request.
 Stoichiometry    C2H4
 Framework group  C1[X(C2H4)]
 Deg. of freedom    12
 Full point group                 C1      NOp   1
 Rotational constants (GHZ):         142.8530004          29.6244330          24.5411844
 Standard basis: 6-311G (5D, 7F)
    38 basis functions,    72 primitive gaussians,    38 cartesian basis functions
     8 alpha electrons        8 beta electrons
       nuclear repulsion energy        33.0297492137 Hartrees.
 NAtoms=    6 NActive=    6 NUniq=    6 SFac= 1.00D+00 NAtFMM=   60 NAOKFM=F Big=F
 Integral buffers will be    131072 words long.
 Raffenetti 2 integral format.
 Two-electron integral symmetry is turned off.
 Nuclear repulsion after empirical dispersion term =       33.0289048187 Hartrees.
 One-electron integrals computed using PRISM.
 NBasis=    38 RedAO= T EigKep=  6.48D-03  NBF=    38
 NBsUse=    38 1.00D-06 EigRej= -1.00D+00 NBFU=    38
 Initial guess from the checkpoint file:  "geometry.chk"
 B after Tr=    -0.000340   -0.000522   -0.000455
         Rot=    1.000000    0.000003   -0.000001    0.000006 Ang=   0.00 deg.
 Keep R1 ints in memory in canonical form, NReq=4036876.
 Requested convergence on RMS density matrix=1.00D-08 within  32 cycles.
 Requested convergence on MAX density matrix=1.00D-06.
 Requested convergence on             energy=1.00D-06.
 No special actions if energy rises.
 SCF Done:  E(RwB97XD) =  -78.5555759681     A.U. after    8 cycles
            NFock=  8  Conv=0.55D-08     -V/T= 2.0053
 QCSCF skips out because SCF is already converged.

 **********************************************************************

            Population analysis using the SCF Density.

 **********************************************************************

 Alpha  occ. eigenvalues --  -10.29017 -10.28910  -0.86322  -0.67211  -0.55937
 Alpha  occ. eigenvalues --   -0.50840  -0.43695  -0.35642
 Alpha virt. eigenvalues --    0.07935   0.14072   0.16468   0.16998   0.24061
 Alpha virt. eigenvalues --    0.37101   0.39386   0.39954   0.46460   0.48759
 Alpha virt. eigenvalues --    0.49404   0.59073   0.66573   0.69055   0.77295
 Alpha virt. eigenvalues --    0.77431   0.84400   0.94992   2.23157   2.29123
 Alpha virt. eigenvalues --    2.33148   2.40658   2.67056   2.81804   2.87778
 Alpha virt. eigenvalues --    2.95251   3.13873   3.31961  23.35230  23.70359
     Molecular Orbital Coefficients:
                           1         2         3         4         5
                           O         O         O         O         O
     Eigenvalues --   -10.29017 -10.28910  -0.86322  -0.67211  -0.55937
   1 1   C  1S          0.25253   0.50364  -0.08810   0.06708  -0.00049
   2        2S          0.20802   0.41442  -0.13926   0.10743  -0.00081
   3        2PX         0.00015  -0.00006   0.02599   0.03495   0.13617
   4        2PY         0.00027  -0.00009   0.04646   0.05806  -0.07650
   5        2PZ        -0.00000  -0.00001  -0.00104   0.00154   0.00010
   6        3S          0.00575   0.01341   0.37372  -0.29326   0.00228
   7        3PX        -0.00045   0.00058   0.03443   0.05633   0.21389
   8        3PY        -0.00077   0.00103   0.06153   0.09435  -0.12051
   9        3PZ        -0.00002  -0.00002  -0.00176   0.00274   0.00014
  10        4S         -0.00098  -0.01492   0.19219  -0.22708   0.00264
  11        4PX         0.00098  -0.00187   0.00486   0.02251   0.11095
  12        4PY         0.00169  -0.00329   0.00886   0.03927  -0.06324
  13        4PZ         0.00002   0.00006  -0.00061   0.00136   0.00006
  14 2   H  1S         -0.00006  -0.00004   0.05220  -0.08706   0.10360
  15        2S         -0.00026   0.00017   0.05373  -0.10535   0.13129
  16        3S          0.00126   0.00137  -0.00187  -0.01497   0.04230
  17 3   H  1S         -0.00006  -0.00005   0.05353  -0.08921  -0.10461
  18        2S         -0.00026   0.00018   0.05455  -0.10757  -0.13202
  19        3S          0.00128   0.00141  -0.00180  -0.01569  -0.04260
  20 4   C  1S          0.50357  -0.25270  -0.08699  -0.06815  -0.00027
  21        2S          0.41454  -0.20780  -0.13736  -0.10930  -0.00044
  22        2PX        -0.00006  -0.00016  -0.02730   0.03884   0.11921
  23        2PY        -0.00010  -0.00027  -0.04611   0.06848  -0.07102
  24        2PZ        -0.00000   0.00000  -0.00078  -0.00154   0.00009
  25        3S          0.01252  -0.00726   0.36805   0.29878   0.00129
  26        3PX         0.00001   0.00075  -0.03435   0.06259   0.18631
  27        3PY         0.00004   0.00129  -0.05764   0.11004  -0.11056
  28        3PZ        -0.00003   0.00000  -0.00133  -0.00278   0.00014
  29        4S         -0.00940   0.01144   0.18929   0.23739   0.00072
  30        4PX         0.00031  -0.00209  -0.00553   0.02741   0.10266
  31        4PY         0.00047  -0.00358  -0.00886   0.04674  -0.06003
  32        4PZ         0.00005  -0.00003  -0.00056  -0.00143   0.00007
  33 5   H  1S         -0.00007  -0.00002   0.05027   0.09387  -0.08855
  34        2S         -0.00010  -0.00030   0.05129   0.11188  -0.11162
  35        3S          0.00178  -0.00038  -0.00100   0.01685  -0.03593
  36 6   H  1S         -0.00006  -0.00003   0.04924   0.09328   0.08652
  37        2S         -0.00012  -0.00030   0.05080   0.11125   0.10911
  38        3S          0.00175  -0.00035  -0.00108   0.01646   0.03520
                           6         7         8         9        10
                           O         O         O         V         V
     Eigenvalues --    -0.50840  -0.43695  -0.35642   0.07935   0.14072
   1 1   C  1S         -0.00283   0.00001  -0.00084   0.00217  -0.03428
   2        2S         -0.00414   0.00001  -0.00137   0.00361  -0.05501
   3        2PX         0.09676  -0.11024  -0.00263   0.00119  -0.03462
   4        2PY         0.16750   0.06556  -0.00443   0.00203  -0.06382
   5        2PZ         0.00394  -0.00001   0.17942  -0.18927  -0.00229
   6        3S          0.01719   0.00023   0.00402  -0.01085   0.12020
   7        3PX         0.14096  -0.17613  -0.00372   0.00179  -0.04162
   8        3PY         0.24470   0.10536  -0.00626   0.00301  -0.07820
   9        3PZ         0.00627   0.00001   0.28831  -0.27803  -0.00358
  10        4S         -0.05732  -0.00193   0.00547  -0.01362   1.24182
  11        4PX         0.07127  -0.11031  -0.00314   0.00967  -0.20684
  12        4PY         0.12417   0.06554  -0.00530   0.01683  -0.37502
  13        4PZ         0.00360   0.00002   0.26745  -0.69377  -0.01326
  14 2   H  1S         -0.08029  -0.11401   0.00006   0.00341  -0.01741
  15        2S         -0.11184  -0.17628   0.00152   0.00558  -0.04666
  16        3S         -0.04187  -0.08149   0.00087   0.01444  -0.82433
  17 3   H  1S         -0.08054   0.11257   0.00004   0.00342  -0.01578
  18        2S         -0.11176   0.17324   0.00150   0.00551  -0.04360
  19        3S         -0.04168   0.07964   0.00087   0.01405  -0.80158
  20 4   C  1S         -0.00918  -0.00027  -0.00056  -0.00195  -0.03558
  21        2S         -0.01443  -0.00043  -0.00091  -0.00323  -0.05713
  22        2PX        -0.09586   0.12568   0.00258   0.00124   0.03739
  23        2PY        -0.16258  -0.07372   0.00466   0.00221   0.06229
  24        2PZ         0.00412   0.00010   0.17905   0.18956  -0.00195
  25        3S          0.04610   0.00117   0.00269   0.00975   0.12597
  26        3PX        -0.14185   0.20079   0.00361   0.00192   0.04524
  27        3PY        -0.23972  -0.11697   0.00655   0.00343   0.07459
  28        3PZ         0.00651   0.00015   0.28665   0.27804  -0.00300
  29        4S         -0.02356   0.00161   0.00497   0.00980   1.22549
  30        4PX        -0.07413   0.12812   0.00272   0.00993   0.24945
  31        4PY        -0.12461  -0.07495   0.00501   0.01714   0.42122
  32        4PZ         0.00375   0.00010   0.26795   0.69484  -0.01166
  33 5   H  1S         -0.07453  -0.12555   0.00019  -0.00295  -0.01232
  34        2S         -0.10169  -0.19531   0.00160  -0.00475  -0.03960
  35        3S         -0.03820  -0.09150   0.00093  -0.01253  -0.83118
  36 6   H  1S         -0.07830   0.12440   0.00017  -0.00296  -0.01371
  37        2S         -0.10698   0.19437   0.00159  -0.00493  -0.04314
  38        3S         -0.04018   0.09124   0.00091  -0.01290  -0.85437
                          11        12        13        14        15
                           V         V         V         V         V
     Eigenvalues --     0.16468   0.16998   0.24061   0.37101   0.39386
   1 1   C  1S          0.00013  -0.04524   0.00024   0.00878  -0.00027
   2        2S          0.00022  -0.07375   0.00036   0.01176  -0.00072
   3        2PX         0.09679  -0.01974   0.09961  -0.03684  -0.02133
   4        2PY        -0.05625  -0.03597  -0.05696  -0.06477   0.01471
   5        2PZ         0.00001  -0.00520   0.00002  -0.00374  -0.00010
   6        3S         -0.00049   0.16735   0.00012   0.03375   0.00795
   7        3PX         0.13864  -0.01189   0.10535  -0.04524  -0.09631
   8        3PY        -0.08085  -0.02285  -0.06092  -0.08329   0.06702
   9        3PZ         0.00001  -0.00724   0.00001  -0.00783  -0.00021
  10        4S         -0.01092   1.41426  -0.03664  -2.45832  -0.02953
  11        4PX         0.58169  -0.10875   1.15902  -1.52552  -0.50586
  12        4PY        -0.33194  -0.19978  -0.67660  -2.64082   0.18341
  13        4PZ         0.00019  -0.03371   0.00048  -0.03252  -0.00157
  14 2   H  1S         -0.02937  -0.02587   0.01392  -0.06029   0.07438
  15        2S         -0.08123  -0.02040  -0.02460  -0.67977   0.74262
  16        3S         -1.06071  -0.99134  -1.52570  -0.27941  -0.30134
  17 3   H  1S          0.02818  -0.02613  -0.01516  -0.05582  -0.07699
  18        2S          0.07935  -0.02093   0.02007  -0.63940  -0.78698
  19        3S          1.07366  -0.99416   1.56073  -0.33087   0.27842
  20 4   C  1S          0.00066   0.04290  -0.00023  -0.01976  -0.00028
  21        2S          0.00106   0.06981  -0.00037  -0.03253  -0.00062
  22        2PX         0.10148  -0.02434  -0.10080  -0.03959  -0.03148
  23        2PY        -0.05914  -0.03798   0.05790  -0.07165   0.01322
  24        2PZ         0.00009   0.00492  -0.00001   0.00244   0.00009
  25        3S         -0.00213  -0.15470   0.00026   0.04413   0.00590
  26        3PX         0.14546  -0.01945  -0.11469  -0.09110  -0.11420
  27        3PY        -0.08428  -0.02804   0.06490  -0.16674   0.04890
  28        3PZ         0.00012   0.00675   0.00000   0.00261   0.00015
  29        4S         -0.02944  -1.36347   0.02849   3.19179   0.07298
  30        4PX         0.53995  -0.13057  -1.13122  -1.10391  -0.49138
  31        4PY        -0.31664  -0.19977   0.64165  -1.94794   0.25464
  32        4PZ         0.00058   0.03209  -0.00038   0.02725   0.00053
  33 5   H  1S          0.03113   0.02460   0.00558   0.00740  -0.08318
  34        2S          0.06747   0.02001  -0.03416   0.02562  -0.84400
  35        3S          1.05677   0.94256  -1.54031   0.44050   0.46034
  36 6   H  1S         -0.03124   0.02529  -0.00499   0.00209   0.08566
  37        2S         -0.06823   0.02189   0.03511  -0.01572   0.85296
  38        3S         -1.01618   0.97337   1.51686   0.45737  -0.45895
                          16        17        18        19        20
                           V         V         V         V         V
     Eigenvalues --     0.39954   0.46460   0.48759   0.49404   0.59073
   1 1   C  1S         -0.01924   0.01160   0.04679  -0.00063  -0.00041
   2        2S         -0.03354   0.02752   0.07835  -0.00085  -0.00073
   3        2PX         0.03052  -0.06200  -0.01327   0.00110   0.00161
   4        2PY         0.05183  -0.10554  -0.01763   0.00162   0.00239
   5        2PZ         0.00041  -0.00039  -0.00506  -0.15216  -0.19231
   6        3S          0.07280  -0.33466  -0.09954  -0.00644  -0.00054
   7        3PX         0.11293  -0.24523   0.03012   0.00028   0.00532
   8        3PY         0.19378  -0.41614   0.06336  -0.00030   0.00803
   9        3PZ        -0.00233  -0.00329  -0.02253  -0.62905  -0.68389
  10        4S          2.82187   0.19053  -3.05693   0.09517   0.05164
  11        4PX         0.35994   0.25940  -0.81111   0.02979   0.01739
  12        4PY         0.59264   0.48829  -1.43559   0.05366   0.02806
  13        4PZ        -0.00203  -0.00024   0.07321   0.68655   1.23905
  14 2   H  1S         -0.02958  -0.03373   0.07531  -0.00259  -0.00133
  15        2S         -0.56107  -0.31867   0.88179  -0.02569  -0.00986
  16        3S          0.35676   0.08287  -0.65348   0.02949   0.01807
  17 3   H  1S         -0.02739  -0.03715   0.07289  -0.00254  -0.00122
  18        2S         -0.53274  -0.36299   0.86900  -0.02567  -0.00782
  19        3S          0.34265   0.08869  -0.61794   0.02848   0.01761
  20 4   C  1S          0.00069  -0.00197  -0.05092   0.00273   0.00055
  21        2S         -0.00245   0.00434  -0.08850   0.00491   0.00103
  22        2PX         0.01193   0.05398  -0.02656   0.00027   0.00157
  23        2PY         0.02014   0.09587  -0.04976   0.00054   0.00305
  24        2PZ        -0.00278  -0.00128  -0.00518  -0.15266   0.19222
  25        3S          0.07561  -0.28844   0.22650  -0.01788  -0.00203
  26        3PX        -0.03264   0.23291  -0.05237   0.00041   0.00557
  27        3PY        -0.06016   0.41386  -0.09850   0.00077   0.01052
  28        3PZ        -0.00771  -0.00533  -0.01962  -0.63134   0.68246
  29        4S         -1.04507   0.69530   3.12697  -0.11301  -0.04607
  30        4PX         1.34475  -0.32635  -0.61442   0.01807   0.01498
  31        4PY         2.35614  -0.52667  -1.02802   0.02986   0.02785
  32        4PZ        -0.02569  -0.01162  -0.02133   0.69265  -1.23700
  33 5   H  1S         -0.04220  -0.06412  -0.06439   0.00229   0.00115
  34        2S         -0.79057  -0.66105  -0.82562   0.03356   0.00422
  35        3S         -0.25152   0.26003   0.54114  -0.01260  -0.01713
  36 6   H  1S         -0.04356  -0.06130  -0.06591   0.00240   0.00123
  37        2S         -0.80368  -0.62041  -0.82541   0.03365   0.00561
  38        3S         -0.23517   0.26280   0.56709  -0.01377  -0.01733
                          21        22        23        24        25
                           V         V         V         V         V
     Eigenvalues --     0.66573   0.69055   0.77295   0.77431   0.84400
   1 1   C  1S          0.00038  -0.00017   0.04776   0.07481   0.00058
   2        2S          0.00076  -0.00048   0.10071   0.15949   0.00119
   3        2PX        -0.14038   0.19342  -0.03088   0.11064  -0.01204
   4        2PY         0.08223  -0.11419  -0.05454   0.18509   0.00816
   5        2PZ        -0.00005   0.00015   0.00033   0.00380   0.00009
   6        3S         -0.00566   0.00985  -0.66576  -1.37114  -0.00663
   7        3PX        -0.63980   0.67145  -0.19228   0.42203  -0.24358
   8        3PY         0.37296  -0.39523  -0.34021   0.70428   0.14451
   9        3PZ        -0.00024   0.00062   0.00129   0.01325   0.00046
  10        4S          0.01816  -0.07678   0.63767   2.45616  -0.13447
  11        4PX         1.08871  -0.76470   0.15024  -0.65740   4.50061
  12        4PY        -0.63640   0.42578   0.30234  -1.04500  -2.65132
  13        4PZ         0.00024   0.00005   0.00865  -0.04247   0.00137
  14 2   H  1S          0.02582  -0.05776   0.00878   0.03342  -0.02829
  15        2S          0.16975  -0.62212   0.08273   0.07414  -1.58892
  16        3S         -1.07081   1.04527  -0.02584  -1.13524  -1.22243
  17 3   H  1S         -0.02570   0.05773   0.00836   0.03420   0.02924
  18        2S         -0.17826   0.65191   0.07378   0.07825   1.61359
  19        3S          1.06430  -1.04333  -0.03760  -1.19768   1.23380
  20 4   C  1S          0.00059  -0.00068   0.08250   0.03584   0.00073
  21        2S          0.00114  -0.00130   0.17571   0.07538   0.00164
  22        2PX        -0.14423  -0.19017  -0.10140   0.04961   0.00640
  23        2PY         0.08252   0.10776  -0.17833   0.08852  -0.00332
  24        2PZ        -0.00001  -0.00016   0.00386  -0.00063  -0.00009
  25        3S         -0.00664   0.00398  -1.47338  -0.45551  -0.01639
  26        3PX        -0.66151  -0.65106  -0.37497   0.26996   0.21708
  27        3PY         0.37927   0.36802  -0.65787   0.47672  -0.11958
  28        3PZ        -0.00011  -0.00057   0.01368  -0.00247  -0.00037
  29        4S          0.00090   0.05253   2.64407   0.26887   0.11818
  30        4PX         1.28253   0.78906   0.59768  -0.30350  -4.18493
  31        4PY        -0.72583  -0.47385   1.02781  -0.59216   2.32045
  32        4PZ         0.00029   0.00022  -0.03949   0.01749  -0.00063
  33 5   H  1S         -0.02313  -0.05642   0.03412   0.00463  -0.02272
  34        2S         -0.11270  -0.56483   0.08727   0.05808  -1.40616
  35        3S          1.08584   1.04725  -1.14980   0.21951  -1.10251
  36 6   H  1S          0.02326   0.05572   0.03393   0.00548   0.02403
  37        2S          0.11269   0.53850   0.07486   0.04496   1.40434
  38        3S         -1.08806  -1.03383  -1.13952   0.19557   1.10011
                          26        27        28        29        30
                           V         V         V         V         V
     Eigenvalues --     0.94992   2.23157   2.29123   2.33148   2.40658
   1 1   C  1S          0.09593  -0.00954  -0.01432   0.00017  -0.00029
   2        2S          0.19934   0.00248  -0.01370   0.00058  -0.00017
   3        2PX        -0.09044  -0.07718  -0.13524   0.35225  -0.40060
   4        2PY        -0.15697  -0.13835  -0.22866  -0.20408   0.23505
   5        2PZ         0.00023  -0.01056  -0.01458  -0.00013  -0.00033
   6        3S         -1.54770  -0.18792  -0.04257  -0.00282  -0.00373
   7        3PX        -0.22749   0.07455   0.21486  -0.42605   0.55905
   8        3PY        -0.39031   0.14262   0.37387   0.24878  -0.33187
   9        3PZ        -0.00175   0.01072   0.01813   0.00020   0.00041
  10        4S          5.71101  -0.08716  -0.87357  -0.00067  -0.04141
  11        4PX         1.17000   0.05376  -0.20411  -0.06584   0.97062
  12        4PY         2.00005   0.06787  -0.35383   0.03340  -0.56509
  13        4PZ        -0.01557   0.00216   0.00620  -0.00016   0.00061
  14 2   H  1S          0.01586  -0.69366  -0.80228  -0.72099   0.64300
  15        2S         -0.28074   0.98100   1.20110   1.12143  -1.44967
  16        3S         -0.09115  -0.29649  -0.47588  -0.47506   0.35639
  17 3   H  1S          0.01569  -0.69259  -0.80800   0.70380  -0.65722
  18        2S         -0.26856   0.98353   1.20739  -1.10002   1.47874
  19        3S         -0.09277  -0.28182  -0.47526   0.46189  -0.35428
  20 4   C  1S         -0.09383  -0.01079   0.01232   0.00025   0.00016
  21        2S         -0.19456  -0.00058   0.01260   0.00040   0.00015
  22        2PX        -0.09173   0.13639  -0.11918   0.29861   0.42271
  23        2PY        -0.15811   0.24036  -0.20329  -0.17162  -0.23644
  24        2PZ         0.00031  -0.01100   0.01301   0.00011   0.00011
  25        3S          1.50547  -0.16651   0.01628  -0.00073   0.00020
  26        3PX        -0.22416  -0.17292   0.20406  -0.36951  -0.59253
  27        3PY        -0.38926  -0.30256   0.34470   0.21128   0.32928
  28        3PZ         0.00286   0.01174  -0.01668  -0.00014  -0.00018
  29        4S         -5.68970  -0.18723   0.88883   0.01054   0.02904
  30        4PX         1.12436  -0.01594  -0.18385   0.12324  -0.86836
  31        4PY         1.95966  -0.03160  -0.32153  -0.07223   0.48442
  32        4PZ         0.00880   0.00362  -0.00470  -0.00006  -0.00037
  33 5   H  1S         -0.01769  -0.80025   0.66410   0.69181   0.69918
  34        2S          0.29847   1.16445  -1.01289  -0.99642  -1.47589
  35        3S          0.07517  -0.36049   0.39931   0.50334   0.43662
  36 6   H  1S         -0.01780  -0.79161   0.68389  -0.68190  -0.69718
  37        2S          0.30617   1.15080  -1.04419   0.97907   1.47046
  38        3S          0.06749  -0.35794   0.41400  -0.49928  -0.43664
                          31        32        33        34        35
                           V         V         V         V         V
     Eigenvalues --     2.67056   2.81804   2.87778   2.95251   3.13873
   1 1   C  1S          0.00041  -0.00199  -0.01366   0.00007  -0.00984
   2        2S          0.00036  -0.00564  -0.04426   0.00002  -0.02997
   3        2PX         0.00416  -0.05744  -0.48791  -0.72685   0.43684
   4        2PY         0.00679  -0.09923  -0.85722   0.40183   0.77688
   5        2PZ        -0.92545   0.93288  -0.10790  -0.00075   0.00488
   6        3S         -0.00172   0.04613   0.38452   0.00080   0.25071
   7        3PX        -0.00346   0.09848   0.85236   0.87172  -0.41207
   8        3PY        -0.00575   0.16961   1.48379  -0.47402  -0.73788
   9        3PZ         0.94131  -1.14017   0.13508   0.00102  -0.00636
  10        4S          0.01122  -0.10832  -0.87428  -0.00767  -0.49262
  11        4PX        -0.00099  -0.07883  -0.72144  -0.66840   0.19767
  12        4PY        -0.00121  -0.13585  -1.26256   0.36117   0.36164
  13        4PZ        -0.33898   0.61773  -0.08527  -0.00082   0.00375
  14 2   H  1S          0.00957   0.01447   0.25967  -0.37403  -0.21432
  15        2S         -0.01100  -0.00844  -0.21498   0.39103   0.16372
  16        3S         -0.00208  -0.03122  -0.29584   0.27197   0.05718
  17 3   H  1S          0.00957   0.01367   0.24856   0.37894  -0.20548
  18        2S         -0.01106  -0.00714  -0.19557  -0.39186   0.15467
  19        3S         -0.00246  -0.03224  -0.30197  -0.28545   0.05305
  20 4   C  1S          0.00036   0.00189   0.01363   0.00044  -0.00745
  21        2S          0.00031   0.00590   0.04789   0.00110  -0.02265
  22        2PX        -0.00543  -0.04895  -0.39875  -0.80495  -0.51430
  23        2PY        -0.00965  -0.08814  -0.72189   0.45803  -0.89698
  24        2PZ        -0.92392  -0.93416   0.10919   0.00029   0.01028
  25        3S         -0.00159  -0.05056  -0.42948  -0.00923   0.19210
  26        3PX         0.00529   0.08977   0.75875   0.96309   0.55775
  27        3PY         0.00929   0.15995   1.35597  -0.53962   0.97621
  28        3PZ         0.93955   1.14130  -0.13772  -0.00038  -0.01293
  29        4S          0.01058   0.10931   0.89541   0.02305  -0.36297
  30        4PX        -0.00021  -0.07660  -0.70275  -0.69767  -0.34570
  31        4PY        -0.00060  -0.13578  -1.23989   0.38113  -0.60487
  32        4PZ        -0.33802  -0.61776   0.08787   0.00025   0.01013
  33 5   H  1S          0.00869  -0.02118  -0.29088   0.42342  -0.26285
  34        2S         -0.01068   0.01736   0.26430  -0.43065   0.20601
  35        3S         -0.00112   0.02971   0.28477  -0.24723   0.12654
  36 6   H  1S          0.00883  -0.02182  -0.29246  -0.42657  -0.26198
  37        2S         -0.01105   0.01839   0.27219   0.43388   0.20630
  38        3S         -0.00090   0.02788   0.26822   0.24902   0.12885
                          36        37        38
                           V         V         V
     Eigenvalues --     3.31961  23.35230  23.70359
   1 1   C  1S         -0.00052  -1.41797  -1.44837
   2        2S         -0.00090   1.51231   1.56618
   3        2PX         0.78518  -0.00646   0.01215
   4        2PY        -0.44788  -0.01068   0.02149
   5        2PZ         0.00040  -0.00043  -0.00020
   6        3S          0.00463  -0.29739  -0.39796
   7        3PX        -1.11712   0.02337  -0.05522
   8        3PY         0.63891   0.03912  -0.09659
   9        3PZ        -0.00060   0.00121   0.00062
  10        4S         -0.04063   0.27744   0.76427
  11        4PX         1.95793  -0.02471   0.13094
  12        4PY        -1.13385  -0.04160   0.23002
  13        4PZ         0.00097  -0.00207  -0.00247
  14 2   H  1S          0.56405   0.01282   0.00670
  15        2S         -0.88155   0.00800  -0.01379
  16        3S         -0.46730  -0.08426  -0.03876
  17 3   H  1S         -0.57255   0.01405   0.00796
  18        2S          0.89288   0.00742  -0.01506
  19        3S          0.47838  -0.08550  -0.04034
  20 4   C  1S          0.00025  -1.44363   1.42266
  21        2S          0.00028   1.53967  -1.53837
  22        2PX        -0.70939   0.00634   0.01271
  23        2PY         0.39835   0.01128   0.02153
  24        2PZ        -0.00022  -0.00042   0.00009
  25        3S         -0.00103  -0.30195   0.39049
  26        3PX         1.01279  -0.02295  -0.05622
  27        3PY        -0.57141  -0.04055  -0.09627
  28        3PZ         0.00033   0.00120  -0.00021
  29        4S          0.01970   0.27625  -0.75809
  30        4PX        -1.79361   0.02452   0.13181
  31        4PY         1.00771   0.04470   0.22430
  32        4PZ        -0.00052  -0.00190   0.00157
  33 5   H  1S          0.48199   0.01342  -0.00497
  34        2S         -0.75266   0.00801   0.01430
  35        3S         -0.42684  -0.08285   0.03854
  36 6   H  1S         -0.48079   0.01262  -0.00394
  37        2S          0.75243   0.00918   0.01299
  38        3S          0.42811  -0.08215   0.03668
     Density Matrix:
                           1         2         3         4         5
   1 1   C  1S          0.65940
   2        2S          0.56147   0.49193
   3        2PX        -0.00055  -0.00073   0.08393
   4        2PY        -0.00122  -0.00168   0.00362   0.08751
   5        2PZ         0.00006   0.00009  -0.00010  -0.00020   0.06442
   6        3S         -0.08889  -0.15375   0.00280   0.00608  -0.00010
   7        3PX         0.00084   0.00130   0.13011   0.00117  -0.00008
   8        3PY         0.00121   0.00185   0.00113   0.13095  -0.00018
   9        3PZ         0.00013   0.00021  -0.00017  -0.00032   0.10352
  10        4S         -0.07955  -0.11464  -0.01586  -0.02842   0.00041
  11        4PX         0.00026   0.00158   0.07017  -0.00447  -0.00048
  12        4PY         0.00061   0.00303  -0.00441   0.06530  -0.00083
  13        4PZ        -0.00011  -0.00024  -0.00063  -0.00107   0.09601
  14 2   H  1S         -0.02060  -0.03281   0.03444  -0.06296  -0.00097
  15        2S         -0.02306  -0.03686   0.04840  -0.08792  -0.00075
  16        3S          0.00053  -0.00077   0.02024  -0.03310  -0.00005
  17 3   H  1S         -0.02092  -0.03331  -0.07235  -0.00160  -0.00103
  18        2S         -0.02324  -0.03713  -0.10047  -0.00196  -0.00082
  19        3S          0.00055  -0.00076  -0.03842   0.00100  -0.00007
  20 4   C  1S          0.00603   0.00972  -0.01089  -0.01875  -0.00030
  21        2S          0.00968   0.01513  -0.01744  -0.03001  -0.00049
  22        2PX         0.01026   0.01639  -0.01251  -0.03192   0.00037
  23        2PY         0.01797   0.02873  -0.03218  -0.04964   0.00068
  24        2PZ        -0.00039  -0.00064  -0.00029  -0.00046   0.06428
  25        3S         -0.02602  -0.03952   0.04902   0.08427   0.00148
  26        3PX         0.01583   0.02451  -0.01841  -0.04566   0.00047
  27        3PY         0.02769   0.04293  -0.04605  -0.07136   0.00090
  28        3PZ        -0.00067  -0.00107  -0.00051  -0.00081   0.10291
  29        4S          0.00540   0.00404   0.02168   0.03731   0.00193
  30        4PX         0.00302   0.00627  -0.01302  -0.02110   0.00051
  31        4PY         0.00522   0.01085  -0.02116  -0.03783   0.00097
  32        4PZ        -0.00057  -0.00092  -0.00082  -0.00133   0.09618
  33 5   H  1S          0.00419   0.00688  -0.00168  -0.01231  -0.00035
  34        2S          0.00630   0.01047   0.00346  -0.02485  -0.00001
  35        3S          0.00320   0.00469   0.00412  -0.01744   0.00008
  36 6   H  1S          0.00414   0.00679  -0.00994  -0.00775  -0.00036
  37        2S          0.00611   0.01017  -0.02343  -0.00942  -0.00002
  38        3S          0.00312   0.00454  -0.01722  -0.00508   0.00007
                           6         7         8         9        10
   6        3S          0.45239
   7        3PX        -0.00158   0.20203
   8        3PY        -0.00147  -0.00477   0.19646
   9        3PZ        -0.00039  -0.00014  -0.00027   0.16635
  10        4S          0.27451  -0.02676  -0.04839   0.00051   0.18411
  11        4PX        -0.00673   0.10930  -0.01023  -0.00078  -0.01550
  12        4PY        -0.01251  -0.01007   0.09838  -0.00133  -0.02921
  13        4PZ         0.00102  -0.00085  -0.00142   0.15428   0.00166
  14 2   H  1S          0.08773   0.05563  -0.09829  -0.00161   0.06980
  15        2S          0.09864   0.07855  -0.13681  -0.00126   0.08270
  16        3S          0.00616   0.03317  -0.05092  -0.00009   0.01139
  17 3   H  1S          0.08913  -0.11347  -0.00073  -0.00169   0.06934
  18        2S          0.09951  -0.15738   0.00003  -0.00135   0.08128
  19        3S          0.00632  -0.05993   0.00346  -0.00011   0.01064
  20 4   C  1S         -0.02636  -0.01702  -0.02934  -0.00051   0.00511
  21        2S         -0.03988  -0.02649  -0.04563  -0.00083   0.00387
  22        2PX        -0.04587  -0.01782  -0.04522   0.00063  -0.01697
  23        2PY        -0.08055  -0.04574  -0.07079   0.00117  -0.03022
  24        2PZ         0.00191  -0.00040  -0.00061   0.10329   0.00189
  25        3S          0.10142   0.07210   0.12410   0.00247   0.00072
  26        3PX        -0.06627  -0.02636  -0.06448   0.00082  -0.02514
  27        3PY        -0.11633  -0.06529  -0.10172   0.00155  -0.04475
  28        3PZ         0.00316  -0.00070  -0.00109   0.16536   0.00314
  29        4S          0.00168   0.03286   0.05670   0.00321  -0.03262
  30        4PX        -0.02227  -0.01943  -0.02957   0.00084  -0.00594
  31        4PY        -0.03867  -0.02979  -0.05465   0.00160  -0.01021
  32        4PZ         0.00270  -0.00114  -0.00185   0.15455   0.00293
  33 5   H  1S         -0.02050  -0.00063  -0.01769  -0.00051  -0.01474
  34        2S         -0.03137   0.00851  -0.03662   0.00005  -0.01925
  35        3S         -0.01213   0.00791  -0.02627   0.00014  -0.00347
  36 6   H  1S         -0.02014  -0.01499  -0.00930  -0.00052  -0.01448
  37        2S         -0.03037  -0.03593  -0.01047   0.00004  -0.01888
  38        3S         -0.01162  -0.02664  -0.00596   0.00012  -0.00343
                          11        12        13        14        15
  11        4PX         0.06020
  12        4PY        -0.00889   0.05075
  13        4PZ        -0.00110  -0.00185   0.14309
  14 2   H  1S          0.03328  -0.05390  -0.00084   0.08096
  15        2S          0.04785  -0.07483  -0.00033   0.10931   0.14961
  16        3S          0.02070  -0.02765   0.00013   0.03648   0.05216
  17 3   H  1S         -0.06302   0.00193  -0.00088  -0.01329  -0.02459
  18        2S         -0.08777   0.00415  -0.00037  -0.02448  -0.04221
  19        3S         -0.03370   0.00420   0.00012  -0.01775  -0.02683
  20 4   C  1S         -0.00329  -0.00580  -0.00046   0.00422   0.00674
  21        2S         -0.00672  -0.01182  -0.00073   0.00698   0.01124
  22        2PX        -0.01347  -0.01987   0.00085   0.00182  -0.00268
  23        2PY        -0.02006  -0.03654   0.00155   0.01147   0.02434
  24        2PZ        -0.00062  -0.00101   0.09580  -0.00046  -0.00015
  25        3S          0.02366   0.04149   0.00214  -0.02100  -0.03379
  26        3PX        -0.02071  -0.02821   0.00116   0.00111  -0.00701
  27        3PY        -0.02855  -0.05334   0.00213   0.01708   0.03647
  28        3PZ        -0.00101  -0.00166   0.15337  -0.00067  -0.00016
  29        4S          0.00888   0.01611   0.00291  -0.01801  -0.02476
  30        4PX        -0.01488  -0.01256   0.00102  -0.00139  -0.00799
  31        4PY        -0.01255  -0.02969   0.00191   0.01560   0.02775
  32        4PZ        -0.00122  -0.00203   0.14335  -0.00039   0.00020
  33 5   H  1S          0.00214  -0.01551  -0.00025   0.01115   0.02331
  34        2S          0.00935  -0.02706   0.00035   0.02361   0.04424
  35        3S          0.00752  -0.01563   0.00026   0.01652   0.02771
  36 6   H  1S         -0.01473  -0.00588  -0.00026  -0.00897  -0.01799
  37        2S         -0.02842  -0.00527   0.00034  -0.01860  -0.03392
  38        3S         -0.01731  -0.00120   0.00025  -0.01004  -0.01752
                          16        17        18        19        20
  16        3S          0.02083
  17 3   H  1S         -0.01798   0.08185
  18        2S         -0.02702   0.10966   0.14896
  19        3S         -0.01261   0.03616   0.05134   0.02030
  20 4   C  1S          0.00373   0.00428   0.00685   0.00377   0.65948
  21        2S          0.00550   0.00709   0.01143   0.00557   0.56158
  22        2PX        -0.00343   0.00894   0.02217   0.01674   0.00110
  23        2PY         0.01775   0.00730   0.00980   0.00589   0.00179
  24        2PZ         0.00001  -0.00045  -0.00013   0.00003   0.00007
  25        3S         -0.01425  -0.02134  -0.03436  -0.01445  -0.08933
  26        3PX        -0.00682   0.01423   0.03488   0.02610  -0.00053
  27        3PY         0.02672   0.00961   0.01231   0.00755  -0.00107
  28        3PZ         0.00003  -0.00067  -0.00013   0.00006   0.00014
  29        4S         -0.00603  -0.01808  -0.02476  -0.00595  -0.08011
  30        4PX        -0.00679   0.01382   0.02736   0.01700  -0.00018
  31        4PY         0.01620   0.00647   0.00673   0.00213  -0.00020
  32        4PZ         0.00019  -0.00038   0.00023   0.00021  -0.00002
  33 5   H  1S          0.01621  -0.00910  -0.01817  -0.00936  -0.02012
  34        2S          0.02736  -0.01871  -0.03394  -0.01681  -0.02209
  35        3S          0.01458  -0.01004  -0.01741  -0.00885   0.00063
  36 6   H  1S         -0.00938   0.01115   0.02306   0.01586  -0.02001
  37        2S         -0.01701   0.02375   0.04406   0.02691  -0.02217
  38        3S         -0.00901   0.01660   0.02764   0.01437   0.00055
                          21        22        23        24        25
  21        2S          0.49209
  22        2PX         0.00157   0.08292
  23        2PY         0.00254   0.00357   0.08750
  24        2PZ         0.00010   0.00010   0.00016   0.06416
  25        3S         -0.15436  -0.00511  -0.00834  -0.00015   0.45414
  26        3PX        -0.00080   0.12884   0.00183   0.00006  -0.00000
  27        3PY        -0.00162   0.00193   0.13135   0.00007   0.00068
  28        3PZ         0.00024   0.00016   0.00026   0.10271  -0.00050
  29        4S         -0.11577   0.01322   0.02242   0.00056   0.27865
  30        4PX        -0.00142   0.07334  -0.00508   0.00033   0.00609
  31        4PY        -0.00221  -0.00512   0.06736   0.00061   0.00968
  32        4PZ        -0.00008   0.00062   0.00111   0.09599   0.00052
  33 5   H  1S         -0.03205  -0.03383   0.06355  -0.00095   0.08570
  34        2S         -0.03531  -0.05031   0.08833  -0.00075   0.09450
  35        3S         -0.00057  -0.02288   0.03343  -0.00006   0.00556
  36 6   H  1S         -0.03188   0.07147   0.00307  -0.00091   0.08528
  37        2S         -0.03543   0.10126   0.00120  -0.00068   0.09476
  38        3S         -0.00066   0.04037  -0.00303  -0.00003   0.00570
                          26        27        28        29        30
  26        3PX         0.20052
  27        3PY        -0.00238   0.19769
  28        3PZ         0.00008   0.00011   0.16444
  29        4S          0.02436   0.04128   0.00072   0.18597
  30        4PX         0.11456  -0.01043   0.00053   0.01495   0.06649
  31        4PY        -0.01062   0.10191   0.00097   0.02434  -0.01035
  32        4PZ         0.00079   0.00142   0.15368   0.00159   0.00087
  33 5   H  1S         -0.05397   0.09955  -0.00158   0.06658  -0.03471
  34        2S         -0.08068   0.13786  -0.00125   0.07655  -0.05231
  35        3S         -0.03711   0.05150  -0.00009   0.00904  -0.02422
  36 6   H  1S          0.11270   0.00416  -0.00151   0.06715   0.06582
  37        2S          0.15951   0.00034  -0.00115   0.07789   0.09362
  38        3S          0.06330  -0.00611  -0.00005   0.00961   0.03749
                          31        32        33        34        35
  31        4PY         0.05410
  32        4PZ         0.00160   0.14363
  33 5   H  1S          0.05591  -0.00082   0.08099
  34        2S          0.07759  -0.00033   0.11013   0.15220
  35        3S          0.02916   0.00014   0.03810   0.05521   0.02282
  36 6   H  1S         -0.00167  -0.00078  -0.01242  -0.02606  -0.01996
  37        2S         -0.00606  -0.00028  -0.02619  -0.04842  -0.03159
  38        3S         -0.00632   0.00016  -0.02018  -0.03176  -0.01559
                          36        37        38
  36 6   H  1S          0.08043
  37        2S          0.10975   0.15218
  38        3S          0.03805   0.05530   0.02291
    Full Mulliken population analysis:
                           1         2         3         4         5
   1 1   C  1S          0.65940
   2        2S          0.49322   0.49193
   3        2PX         0.00000   0.00000   0.08393
   4        2PY         0.00000   0.00000   0.00000   0.08751
   5        2PZ         0.00000   0.00000   0.00000   0.00000   0.06442
   6        3S         -0.02926  -0.06439   0.00000   0.00000   0.00000
   7        3PX         0.00000   0.00000   0.08186   0.00000   0.00000
   8        3PY         0.00000   0.00000   0.00000   0.08239   0.00000
   9        3PZ         0.00000   0.00000   0.00000   0.00000   0.06513
  10        4S         -0.01223  -0.02145   0.00000   0.00000   0.00000
  11        4PX         0.00000   0.00000   0.01545   0.00000   0.00000
  12        4PY         0.00000   0.00000   0.00000   0.01438   0.00000
  13        4PZ         0.00000   0.00000   0.00000   0.00000   0.02114
  14 2   H  1S         -0.00023  -0.00032   0.00178   0.00554   0.00000
  15        2S         -0.00167  -0.00320   0.00425   0.01316   0.00000
  16        3S          0.00004  -0.00007   0.00068   0.00191   0.00000
  17 3   H  1S         -0.00024  -0.00035   0.00767  -0.00000   0.00000
  18        2S         -0.00172  -0.00329   0.01762  -0.00000   0.00000
  19        3S          0.00004  -0.00007   0.00256   0.00000   0.00000
  20 4   C  1S          0.00000   0.00000  -0.00002  -0.00006   0.00000
  21        2S          0.00000  -0.00000  -0.00002  -0.00005   0.00000
  22        2PX        -0.00002  -0.00002   0.00011   0.00084   0.00000
  23        2PY        -0.00006  -0.00005   0.00084   0.00194   0.00000
  24        2PZ        -0.00000  -0.00000  -0.00000  -0.00000   0.00041
  25        3S         -0.00058  -0.00097   0.00254   0.00756  -0.00000
  26        3PX        -0.00053  -0.00097   0.00020   0.00549   0.00000
  27        3PY        -0.00161  -0.00295   0.00554   0.01067   0.00000
  28        3PZ        -0.00000  -0.00000  -0.00000  -0.00000   0.00605
  29        4S          0.00034   0.00030   0.00098   0.00293  -0.00000
  30        4PX        -0.00018  -0.00044  -0.00070   0.00146   0.00000
  31        4PY        -0.00053  -0.00133   0.00147   0.00100   0.00000
  32        4PZ        -0.00000  -0.00000  -0.00000  -0.00000   0.00902
  33 5   H  1S          0.00000   0.00000  -0.00000  -0.00000   0.00000
  34        2S          0.00001   0.00002   0.00000  -0.00031   0.00000
  35        3S          0.00007   0.00013   0.00001  -0.00070  -0.00000
  36 6   H  1S          0.00000   0.00000  -0.00000  -0.00000   0.00000
  37        2S          0.00001   0.00002  -0.00023  -0.00007   0.00000
  38        3S          0.00007   0.00012  -0.00056  -0.00012  -0.00000
                           6         7         8         9        10
   6        3S          0.45239
   7        3PX         0.00000   0.20203
   8        3PY         0.00000   0.00000   0.19646
   9        3PZ         0.00000   0.00000   0.00000   0.16635
  10        4S          0.21266   0.00000   0.00000   0.00000   0.18411
  11        4PX         0.00000   0.07142   0.00000   0.00000   0.00000
  12        4PY         0.00000   0.00000   0.06429   0.00000   0.00000
  13        4PZ         0.00000   0.00000   0.00000   0.10081   0.00000
  14 2   H  1S          0.01599   0.01067   0.03214   0.00001   0.01841
  15        2S          0.04134   0.01938   0.05752   0.00001   0.04757
  16        3S          0.00283   0.00391   0.01023   0.00000   0.00858
  17 3   H  1S          0.01663   0.04369  -0.00000   0.00002   0.01845
  18        2S          0.04226   0.07713   0.00000   0.00002   0.04707
  19        3S          0.00292   0.01392   0.00001   0.00000   0.00805
  20 4   C  1S         -0.00059  -0.00057  -0.00170   0.00000   0.00032
  21        2S         -0.00098  -0.00105  -0.00313   0.00000   0.00029
  22        2PX         0.00238   0.00019   0.00544   0.00000   0.00077
  23        2PY         0.00723   0.00550   0.01058   0.00000   0.00237
  24        2PZ         0.00000  -0.00000  -0.00000   0.00607   0.00000
  25        3S          0.02149   0.01346   0.04012  -0.00000   0.00027
  26        3PX         0.01237  -0.00125   0.01836   0.00000   0.00387
  27        3PY         0.03761   0.01859   0.02861   0.00000   0.01194
  28        3PZ         0.00000  -0.00000  -0.00000   0.03504   0.00000
  29        4S          0.00064   0.00506   0.01513  -0.00000  -0.02045
  30        4PX         0.00625  -0.00397   0.00586   0.00000   0.00180
  31        4PY         0.01880   0.00590   0.00135   0.00000   0.00536
  32        4PZ         0.00000  -0.00000  -0.00000   0.04925   0.00000
  33 5   H  1S         -0.00005  -0.00000  -0.00019   0.00000  -0.00079
  34        2S         -0.00121   0.00006  -0.00321  -0.00000  -0.00323
  35        3S         -0.00198   0.00010  -0.00423  -0.00000  -0.00125
  36 6   H  1S         -0.00005  -0.00012  -0.00005   0.00000  -0.00076
  37        2S         -0.00113  -0.00252  -0.00051  -0.00000  -0.00311
  38        3S         -0.00186  -0.00349  -0.00055  -0.00000  -0.00122
                          11        12        13        14        15
  11        4PX         0.06020
  12        4PY         0.00000   0.05075
  13        4PZ         0.00000   0.00000   0.14309
  14 2   H  1S          0.00630   0.01739   0.00001   0.08096
  15        2S          0.01526   0.04067   0.00000   0.07721   0.14961
  16        3S          0.00518   0.01179  -0.00000   0.01363   0.04115
  17 3   H  1S          0.02360   0.00001   0.00001  -0.00001  -0.00061
  18        2S          0.05525   0.00002   0.00001  -0.00061  -0.00511
  19        3S          0.01659   0.00002  -0.00000  -0.00194  -0.00769
  20 4   C  1S         -0.00019  -0.00058   0.00000   0.00000   0.00002
  21        2S         -0.00048  -0.00145   0.00000   0.00000   0.00003
  22        2PX        -0.00072   0.00138   0.00000  -0.00000   0.00000
  23        2PY         0.00139   0.00096   0.00000  -0.00000  -0.00036
  24        2PZ        -0.00000  -0.00000   0.00898   0.00000   0.00000
  25        3S          0.00664   0.02017  -0.00000  -0.00007  -0.00148
  26        3PX        -0.00423   0.00559   0.00000  -0.00000   0.00004
  27        3PY         0.00566   0.00131   0.00000  -0.00022  -0.00356
  28        3PZ        -0.00000  -0.00000   0.04887   0.00000   0.00000
  29        4S          0.00269   0.00845  -0.00000  -0.00105  -0.00443
  30        4PX        -0.00715   0.00319   0.00000   0.00001   0.00016
  31        4PY         0.00318  -0.00557   0.00000  -0.00247  -0.01042
  32        4PZ        -0.00000  -0.00000   0.08984   0.00000  -0.00000
  33 5   H  1S          0.00003  -0.00230   0.00000   0.00000   0.00000
  34        2S          0.00027  -0.00971  -0.00000   0.00000   0.00015
  35        3S          0.00028  -0.00722  -0.00000   0.00023   0.00145
  36 6   H  1S         -0.00176  -0.00049   0.00000  -0.00000  -0.00004
  37        2S         -0.00828  -0.00107  -0.00000  -0.00004  -0.00088
  38        3S         -0.00654  -0.00032  -0.00000  -0.00045  -0.00240
                          16        17        18        19        20
  16        3S          0.02083
  17 3   H  1S         -0.00196   0.08185
  18        2S         -0.00774   0.07746   0.14896
  19        3S         -0.00648   0.01351   0.04050   0.02030
  20 4   C  1S          0.00009   0.00000   0.00002   0.00009   0.65948
  21        2S          0.00016   0.00000   0.00003   0.00017   0.49332
  22        2PX         0.00001  -0.00000  -0.00028  -0.00059   0.00000
  23        2PY        -0.00074  -0.00000  -0.00008  -0.00014   0.00000
  24        2PZ        -0.00000   0.00000   0.00000  -0.00000   0.00000
  25        3S         -0.00245  -0.00007  -0.00154  -0.00251  -0.02940
  26        3PX         0.00006  -0.00016  -0.00291  -0.00368   0.00000
  27        3PY        -0.00446  -0.00007  -0.00067  -0.00069   0.00000
  28        3PZ        -0.00000   0.00000   0.00000  -0.00000   0.00000
  29        4S         -0.00226  -0.00107  -0.00448  -0.00225  -0.01232
  30        4PX         0.00017  -0.00185  -0.00869  -0.00674   0.00000
  31        4PY        -0.00763  -0.00057  -0.00140  -0.00055   0.00000
  32        4PZ        -0.00000   0.00000  -0.00000  -0.00000   0.00000
  33 5   H  1S          0.00023  -0.00000  -0.00004  -0.00043  -0.00022
  34        2S          0.00143  -0.00005  -0.00094  -0.00237  -0.00159
  35        3S          0.00245  -0.00046  -0.00246  -0.00285   0.00005
  36 6   H  1S         -0.00042   0.00000   0.00000   0.00022  -0.00021
  37        2S         -0.00233   0.00000   0.00015   0.00141  -0.00157
  38        3S         -0.00285   0.00023   0.00145   0.00241   0.00004
                          21        22        23        24        25
  21        2S          0.49209
  22        2PX         0.00000   0.08292
  23        2PY         0.00000   0.00000   0.08750
  24        2PZ         0.00000   0.00000   0.00000   0.06416
  25        3S         -0.06465   0.00000   0.00000   0.00000   0.45414
  26        3PX         0.00000   0.08106   0.00000   0.00000   0.00000
  27        3PY         0.00000   0.00000   0.08263   0.00000   0.00000
  28        3PZ         0.00000   0.00000   0.00000   0.06462   0.00000
  29        4S         -0.02167   0.00000   0.00000   0.00000   0.21587
  30        4PX         0.00000   0.01615   0.00000   0.00000   0.00000
  31        4PY         0.00000   0.00000   0.01484   0.00000   0.00000
  32        4PZ         0.00000   0.00000   0.00000   0.02114   0.00000
  33 5   H  1S         -0.00031   0.00153   0.00570   0.00000   0.01546
  34        2S         -0.00304   0.00391   0.01364   0.00000   0.03938
  35        3S         -0.00005   0.00069   0.00199   0.00000   0.00255
  36 6   H  1S         -0.00030   0.00700   0.00002   0.00000   0.01518
  37        2S         -0.00301   0.01735   0.00001   0.00000   0.03918
  38        3S         -0.00006   0.00269  -0.00001   0.00000   0.00260
                          26        27        28        29        30
  26        3PX         0.20052
  27        3PY         0.00000   0.19769
  28        3PZ         0.00000   0.00000   0.16444
  29        4S          0.00000   0.00000   0.00000   0.18597
  30        4PX         0.07486   0.00000   0.00000   0.00000   0.06649
  31        4PY         0.00000   0.06660   0.00000   0.00000   0.00000
  32        4PZ         0.00000   0.00000   0.10042   0.00000   0.00000
  33 5   H  1S          0.00913   0.03349   0.00001   0.01749   0.00583
  34        2S          0.01763   0.05991   0.00001   0.04390   0.01482
  35        3S          0.00389   0.01072   0.00000   0.00680   0.00539
  36 6   H  1S          0.04193   0.00011   0.00001   0.01755   0.02454
  37        2S          0.07715   0.00001   0.00001   0.04449   0.05892
  38        3S          0.01473  -0.00010   0.00000   0.00722   0.01856
                          31        32        33        34        35
  31        4PY         0.05410
  32        4PZ         0.00000   0.14363
  33 5   H  1S          0.01868   0.00001   0.08099
  34        2S          0.04371   0.00000   0.07779   0.15220
  35        3S          0.01290  -0.00000   0.01424   0.04355   0.02282
  36 6   H  1S         -0.00004   0.00001  -0.00001  -0.00081  -0.00237
  37        2S         -0.00027   0.00000  -0.00082  -0.00675  -0.00969
  38        3S         -0.00022  -0.00000  -0.00239  -0.00974  -0.00838
                          36        37        38
  36 6   H  1S          0.08043
  37        2S          0.07753   0.15218
  38        3S          0.01422   0.04363   0.02291
     Gross orbital populations:
                           1
   1 1   C  1S          1.10437
   2        2S          0.88585
   3        2PX         0.22596
   4        2PY         0.23545
   5        2PZ         0.16618
   6        3S          0.79229
   7        3PX         0.55992
   8        3PY         0.55489
   9        3PZ         0.42271
  10        4S          0.50741
  11        4PX         0.26007
  12        4PY         0.21167
  13        4PZ         0.41276
  14 2   H  1S          0.27290
  15        2S          0.46718
  16        3S          0.08596
  17 3   H  1S          0.27565
  18        2S          0.46599
  19        3S          0.08376
  20 4   C  1S          1.10441
  21        2S          0.88584
  22        2PX         0.22275
  23        2PY         0.23571
  24        2PZ         0.16539
  25        3S          0.79289
  26        3PX         0.55314
  27        3PY         0.55676
  28        3PZ         0.41949
  29        4S          0.50585
  30        4PX         0.27475
  31        4PY         0.21687
  32        4PZ         0.41331
  33 5   H  1S          0.27306
  34        2S          0.46945
  35        3S          0.08868
  36 6   H  1S          0.27131
  37        2S          0.46976
  38        3S          0.08961
          Condensed to atoms (all electrons):
               1          2          3          4          5          6
     1  C    5.033410   0.387100   0.387899   0.601093  -0.035382  -0.034593
     2  H    0.387100   0.515395  -0.032145  -0.040833   0.005948  -0.009416
     3  H    0.387899  -0.032145   0.514062  -0.040681  -0.009614   0.005872
     4  C    0.601093  -0.040833  -0.040681   5.060054   0.384025   0.383506
     5  H   -0.035382   0.005948  -0.009614   0.384025   0.527186  -0.040971
     6  H   -0.034593  -0.009416   0.005872   0.383506  -0.040971   0.526276
 Mulliken charges:
               1
     1  C   -0.339527
     2  H    0.173952
     3  H    0.174606
     4  C   -0.347164
     5  H    0.168808
     6  H    0.169325
 Sum of Mulliken charges =  -0.00000
 Mulliken charges with hydrogens summed into heavy atoms:
               1
     1  C    0.009031
     4  C   -0.009031
 Electronic spatial extent (au):  <R**2>=             83.8361
 Charge=              0.0000 electrons
 Dipole moment (field-independent basis, Debye):
    X=              0.0074    Y=              0.0295    Z=             -0.0820  Tot=              0.0875
 Quadrupole moment (field-independent basis, Debye-Ang):
   XX=            -12.2004   YY=            -12.2226   ZZ=            -15.6848
   XY=              0.0002   XZ=              0.0011   YZ=              0.0000
 Traceless Quadrupole moment (field-independent basis, Debye-Ang):
   XX=              1.1688   YY=              1.1467   ZZ=             -2.3155
   XY=              0.0002   XZ=              0.0011   YZ=              0.0000
 Octapole moment (field-independent basis, Debye-Ang**2):
  XXX=             -0.3318  YYY=             -0.0523  ZZZ=             -0.0616  XYY=              0.2645
  XXY=              0.0162  XXZ=             -0.1131  XZZ=             -0.0715  YZZ=             -0.0744
  YYZ=             -0.1475  XYZ=             -0.0300
 Hexadecapole moment (field-independent basis, Debye-Ang**3):
 XXXX=            -34.3203 YYYY=            -55.3151 ZZZZ=            -17.8367 XXXY=             -7.2663
 XXXZ=              0.0186 YYYX=            -10.7457 YYYZ=              0.0246 ZZZX=              0.0174
 ZZZY=              0.0316 XXYY=            -16.2294 XXZZ=             -9.9440 YYZZ=            -13.6738
 XXYZ=              0.0074 YYXZ=             -0.0014 ZZXY=             -3.2088
 N-N= 3.302890481873D+01 E-N=-2.477601513293D+02  KE= 7.814160642372D+01
 Orbital energies and kinetic energies (alpha):
                                 1                 2
   1         O               -10.290170         15.976863
   2         O               -10.289095         15.981941
   3         O                -0.863221          1.535494
   4         O                -0.672112          1.271485
   5         O                -0.559367          0.940469
   6         O                -0.508402          1.283422
   7         O                -0.436945          1.043453
   8         O                -0.356420          1.037675
   9         V                 0.079349          1.182605
  10         V                 0.140717          0.590210
  11         V                 0.164683          0.594172
  12         V                 0.169982          0.681784
  13         V                 0.240612          0.583464
  14         V                 0.371008          0.849546
  15         V                 0.393861          0.934749
  16         V                 0.399543          0.787923
  17         V                 0.464596          1.191338
  18         V                 0.487591          1.421724
  19         V                 0.494040          1.303067
  20         V                 0.590730          1.650936
  21         V                 0.665726          1.573273
  22         V                 0.690547          2.146986
  23         V                 0.772953          2.412451
  24         V                 0.774308          2.334476
  25         V                 0.843999          1.085743
  26         V                 0.949917          3.410626
  27         V                 2.231572          3.926825
  28         V                 2.291228          4.024280
  29         V                 2.331476          4.305595
  30         V                 2.406581          4.515816
  31         V                 2.670561          6.300040
  32         V                 2.818041          6.307182
  33         V                 2.877785          6.139085
  34         V                 2.952506          6.225409
  35         V                 3.138731          6.820242
  36         V                 3.319605          6.403720
  37         V                23.352304         60.075189
  38         V                23.703590         60.202165
 Total kinetic energy from orbitals= 7.814160642372D+01
 Calling FoFJK, ICntrl=      2127 FMM=F ISym2X=0 I1Cent= 0 IOpClX= 0 NMat=1 NMatS=1 NMatT=0.
 -------------------------------------------------------------------
 Center     Atomic                   Forces (Hartrees/Bohr)
 Number     Number              X              Y              Z
 -------------------------------------------------------------------
      1        6           0.012576366    0.011365004   -0.003530028
      2        1          -0.010916911    0.006893025    0.001718810
      3        1           0.005994361   -0.006157523    0.001613039
      4        6           0.005912806    0.007157934   -0.003343317
      5        1           0.001340007   -0.012817488    0.001739858
      6        1          -0.014906629   -0.006440952    0.001801638
 -------------------------------------------------------------------
 Cartesian Forces:  Max     0.014906629 RMS     0.007743495

 GradGradGradGradGradGradGradGradGradGradGradGradGradGradGradGradGradGrad
 Berny optimization.
 Search for a local minimum.
 Step number   1 out of a maximum of    2
 All quantities printed in internal units (Hartrees-Bohrs-Radians)
 Second derivative matrix not updated -- first step.
 The second derivative matrix:
                          X1        Y1        Z1        X2        Y2
           X1           0.75093
           Y1           0.09276   0.85054
           Z1           0.00472   0.00740   0.16806
           X2          -0.16438   0.09575   0.00178   0.14143
           Y2           0.10134  -0.28079  -0.00638  -0.11482   0.26963
           Z2           0.00284  -0.00804  -0.05439  -0.00258   0.00660
           X3          -0.34673   0.00216  -0.00682   0.00026   0.00016
           Y3          -0.00319  -0.10939  -0.00163   0.03217   0.01884
           Z3          -0.00878  -0.00154  -0.05465   0.00132   0.00050
           X4          -0.26512  -0.17607  -0.00051   0.02270   0.01331
           Y4          -0.17664  -0.46861  -0.00083  -0.01311  -0.00769
           Z4           0.00120   0.00215  -0.09331  -0.00051  -0.00071
           X5           0.02344  -0.01353   0.00051  -0.00000   0.00000
           Y5           0.01178  -0.00680   0.00068   0.00000  -0.00000
           Z5          -0.00044   0.00028   0.01707   0.00022  -0.00011
           X6           0.00186  -0.00107   0.00032  -0.00000   0.00000
           Y6          -0.02604   0.01504   0.00076   0.00000  -0.00000
           Z6           0.00047  -0.00024   0.01723  -0.00022   0.00011
                          Z2        X3        Y3        Z3        X4
           Z2           0.02817
           X3          -0.00023   0.34671
           Y3           0.00141  -0.00246   0.07523
           Z3           0.01049   0.00742   0.00105   0.02859
           X4           0.00038  -0.00023  -0.02652  -0.00036   0.71542
           Y4          -0.00020   0.00013   0.01531   0.00023   0.12032
           Z4           0.01578  -0.00037  -0.00083   0.01554  -0.00439
           X5          -0.00020  -0.00000   0.00000   0.00020  -0.14703
           Y5           0.00013   0.00000  -0.00000  -0.00013   0.09352
           Z5           0.00912   0.00021  -0.00014  -0.00918  -0.00253
           X6          -0.00021  -0.00000   0.00000   0.00021  -0.32574
           Y6           0.00010   0.00000  -0.00000  -0.00011  -0.02456
           Z6          -0.00915  -0.00021   0.00014   0.00922   0.00742
                          Y4        Z4        X5        Y5        Z5
           Y4           0.85675
           Z4          -0.00821   0.17574
           X5           0.08504  -0.00168   0.12594
           Y5          -0.29018   0.00599  -0.10414   0.28060
           Z5           0.00741  -0.05670   0.00225  -0.00638   0.02941
           X6          -0.01574   0.00575  -0.00234  -0.00117   0.00030
           Y6          -0.10558   0.00161   0.03262   0.01638  -0.00106
           Z6           0.00160  -0.05704  -0.00108  -0.00029   0.01029
                          X6        Y6        Z6
           X6           0.32623
           Y6           0.01798   0.07417
           Z6          -0.00637  -0.00131   0.02947
 ITU=  0
     Eigenvalues ---    0.03671   0.04369   0.09250   0.09932   0.13460
     Eigenvalues ---    0.17471   0.26156   0.28942   0.52648   0.70112
     Eigenvalues ---    0.97156   1.54990
 Angle between quadratic step and forces=  30.81 degrees.
 Linear search not attempted -- first point.
 B after Tr=     0.005573    0.008685   -0.008467
         Rot=    1.000000   -0.000073    0.000040   -0.000096 Ang=  -0.01 deg.
 Variable       Old X    -DE/DX   Delta X   Delta X   Delta X     New X
                                 (Linear)    (Quad)   (Total)
    X1       -0.63574   0.01258   0.00000   0.01947   0.02525  -0.61049
    Y1       -1.10277   0.01137   0.00000   0.02788   0.03644  -1.06633
    Z1        0.01121  -0.00353   0.00000  -0.01855  -0.02722  -0.01602
    X2        0.41580  -0.01092   0.00000  -0.04040  -0.03428   0.38152
    Y2       -2.89454   0.00689   0.00000   0.03124   0.04000  -2.85454
    Z2       -0.03583   0.00172   0.00000   0.02239   0.01353  -0.02230
    X3       -2.69690   0.00599   0.00000   0.03554   0.04132  -2.65558
    Y3       -1.08430  -0.00616   0.00000  -0.03157  -0.02339  -1.10769
    Z3       -0.03676   0.00161   0.00000   0.02207   0.01323  -0.02354
    X4        0.63110   0.00591   0.00000   0.00358   0.00895   0.64005
    Y4        1.09133   0.00716   0.00000   0.00809   0.01690   1.10823
    Z4        0.00780  -0.00334   0.00000  -0.01648  -0.02473  -0.01693
    X5       -0.30544   0.00134   0.00000  -0.01295  -0.00793  -0.31337
    Y5        2.95364  -0.01282   0.00000  -0.03992  -0.03130   2.92234
    Z5       -0.03826   0.00174   0.00000   0.02082   0.01275  -0.02551
    X6        2.72002  -0.01491   0.00000  -0.03865  -0.03331   2.68671
    Y6        1.23972  -0.00644   0.00000  -0.04786  -0.03866   1.20106
    Z6       -0.03750   0.00180   0.00000   0.02053   0.01245  -0.02505
         Item               Value     Threshold  Converged?
 Maximum Force            0.014907     0.000450     NO 
 RMS     Force            0.007743     0.000300     NO 
 Maximum Displacement     0.041325     0.001800     NO 
 RMS     Displacement     0.026911     0.001200     NO 
 Predicted change in Energy=-1.675596D-03
 GradGradGradGradGradGradGradGradGradGradGradGradGradGradGradGradGradGrad

 Unable to Open any file for archive entry.
 1\1\GINC-BHD0016\Force\RwB97XD\6-311G\C2H4\BWEIGHT\11-Jan-2023\0\\# WB
 97XD/6-311G SCF=XQC FORCE nosym pop=full guess=read\\MD Step 1000\\0,1
 \C,-0.3364198,-0.58356176,0.00593057\H,0.22003261,-1.53172316,-0.01896
 166\H,-1.4271389,-0.57378649,-0.01945454\C,0.33396424,0.57750731,0.004
 12966\H,-0.16162982,1.56300094,-0.02024686\H,1.43937357,0.65602999,-0.
 0198416\\Version=ES64L-G16RevC.01\HF=-78.555576\RMSD=5.532e-09\RMSF=7.
 743e-03\Dipole=0.0028978,0.0116019,-0.0322635\Quadrupole=0.8689925,0.8
 52529,-1.7215215,0.0001292,0.0008076,0.0000176\PG=C01 [X(C2H4)]\\@
 The archive entry for this job was punched.


 THE MOST INCOMPREHENSIBLE THING ABOUT THE WORLD
 IS THAT IT IS COMPREHENSIBLE. -- A. EINSTEIN
 Job cpu time:       0 days  0 hours  0 minutes 28.4 seconds.
 Elapsed time:       0 days  0 hours  0 minutes 10.1 seconds.
 File lengths (MBytes):  RWF=    272 Int=      0 D2E=      0 Chk=     32 Scr=     32
 Normal termination of Gaussian 16 at Wed Jan 11 18:47:33 2023.
