6
MD Step 0
C  -0.33763715 -0.58748864 0.00000000
H  0.19552659 -1.51519357 0.00000000
H  -1.40763715 -0.58748864 0.00000000
C  0.33763715 0.58748865 0.00000000
H  -0.19552659 1.51519357 0.00000000
H  1.40763715 0.58748865 0.00000000
6
MD Step 1
C  -0.33800537 -0.58783551 -0.00039469
H  0.19788382 -1.51299035 0.00235255
H  -1.40541622 -0.58520951 0.00235080
C  0.33721616 0.58704700 -0.00039476
H  -0.19318509 1.51768608 0.00235276
H  1.41012184 0.58990960 0.00235101
6
MD Step 2
C  -0.33831688 -0.58808522 -0.00078887
H  0.20026121 -1.51109881 0.00470200
H  -1.40351855 -0.58308242 0.00469859
C  0.33674820 0.58651407 -0.00078897
H  -0.19086298 1.52044321 0.00470230
H  1.41281282 0.59245994 0.00469871
6
MD Step 3
C  -0.33856354 -0.58823232 -0.00117784
H  0.20262964 -1.50955713 0.00702032
H  -1.40201650 -0.58114221 0.00701562
C  0.33624303 0.58589853 -0.00117786
H  -0.18858086 1.52340700 0.00702025
H  1.41561898 0.59510188 0.00701447
6
MD Step 4
C  -0.33874457 -0.58827907 -0.00156351
H  0.20499588 -1.50835686 0.00931875
H  -1.40093319 -0.57938345 0.00931354
C  0.33570406 0.58520344 -0.00156321
H  -0.18631804 1.52655353 0.00931727
H  1.41848622 0.59783601 0.00930854
6
MD Step 5
C  -0.33885896 -0.58822768 -0.00194664
H  0.20735667 -1.50748914 0.01160165
H  -1.40028761 -0.57780656 0.01159730
C  0.33513600 0.58443388 -0.00194560
H  -0.18405899 1.52984754 0.01159698
H  1.42135279 0.60065521 0.01158406
6
MD Step 6
C  -0.33889777 -0.58807260 -0.00231911
H  0.20965282 -1.50699091 0.01382052
H  -1.40013988 -0.57646378 0.01381913
C  0.33455254 0.58360454 -0.00231672
H  -0.18183980 1.53319744 0.01381002
H  1.42410485 0.60349881 0.01379105
6
MD Step 7
C  -0.33887297 -0.58782916 -0.00269263
H  0.21194033 -1.50677424 0.01604483
H  -1.40041884 -0.57528823 0.01604915
C  0.33394741 0.58271095 -0.00268805
H  -0.17957798 1.53662751 0.01602483
H  1.42674970 0.60642362 0.01599747
6
MD Step 8
C  -0.33878035 -0.58749645 -0.00306170
H  0.21417052 -1.50684765 0.01824173
H  -1.40114396 -0.57431437 0.01825526
C  0.33333149 0.58176639 -0.00305387
H  -0.17729311 1.54005807 0.01820753
H  1.42919537 0.60938354 0.01816879
6
MD Step 9
C  -0.33861667 -0.58707441 -0.00342074
H  0.21629238 -1.50721477 0.02037789
H  -1.40232310 -0.57357597 0.02040494
C  0.33271553 0.58078459 -0.00340843
H  -0.17500546 1.54340870 0.02032374
H  1.43135433 0.61233172 0.02027003
6
MD Step 10
C  -0.33839578 -0.58657982 -0.00378021
H  0.21834891 -1.50777908 0.02251543
H  -1.40385669 -0.57301025 0.02256065
C  0.33209399 0.57976358 -0.00376193
H  -0.17264077 1.54669536 0.02243442
H  1.43324083 0.61531656 0.02236193
6
MD Step 11
C  -0.33811549 -0.58601321 -0.00413358
H  0.22028138 -1.50854159 0.02461552
H  -1.40573668 -0.57265421 0.02468412
C  0.33147803 0.57871849 -0.00410772
H  -0.17022678 1.54983447 0.02449979
H  1.43477427 0.61828538 0.02440419
6
MD Step 12
C  -0.33777877 -0.58537997 -0.00447860
H  0.22205635 -1.50947510 0.02666481
H  -1.40792070 -0.57251816 0.02676238
C  0.33087419 0.57766026 -0.00444342
H  -0.16776728 1.55277058 0.02650561
H  1.43590683 0.62121104 0.02638228
6
MD Step 13
C  -0.33738733 -0.58468399 -0.00481092
H  0.22362851 -1.51056277 0.02863783
H  -1.41037112 -0.57262332 0.02877018
C  0.33029068 0.57660178 -0.00476470
H  -0.16528013 1.55543958 0.02842570
H  1.43658664 0.62405445 0.02826969
6
MD Step 14
C  -0.33694621 -0.58393219 -0.00512887
H  0.22496916 -1.51177098 0.03052484
H  -1.41302838 -0.57297381 0.03069777
C  0.32973261 0.57555310 -0.00506986
H  -0.16276963 1.55779751 0.03024975
H  1.43678637 0.62679275 0.03005605
6
MD Step 15
C  -0.33646419 -0.58313493 -0.00543392
H  0.22606976 -1.51304716 0.03233502
H  -1.41580980 -0.57355367 0.03255380
C  0.32920147 0.57452082 -0.00536041
H  -0.16022376 1.55982426 0.03198644
H  1.43650664 0.62942247 0.03175031
6
MD Step 16
C  -0.33595037 -0.58230269 -0.00572748
H  0.22692319 -1.51434000 0.03407715
H  -1.41863088 -0.57434599 0.03434630
C  0.32869833 0.57351124 -0.00563781
H  -0.15763350 1.56150478 0.03364423
H  1.43575668 0.63194037 0.03336145
6
MD Step 17
C  -0.33541563 -0.58144755 -0.00601254
H  0.22753388 -1.51559062 0.03576940
H  -1.42139782 -0.57532345 0.03609223
C  0.32822224 0.57252863 -0.00590510
H  -0.15498328 1.56283903 0.03524105
H  1.43456380 0.63435318 0.03490826
6
MD Step 18
C  -0.33486686 -0.58057744 -0.00628796
H  0.22788453 -1.51676706 0.03740558
H  -1.42404321 -0.57648190 0.03778442
C  0.32777590 0.57158086 -0.00616133
H  -0.15228454 1.56380850 0.03677082
H  1.43293932 0.63664396 0.03638530
6
MD Step 19
C  -0.33430867 -0.57969784 -0.00655033
H  0.22794737 -1.51785391 0.03896617
H  -1.42651651 -0.57782944 0.03940252
C  0.32736378 0.57067745 -0.00640340
H  -0.14956480 1.56438748 0.03821441
H  1.43088948 0.63878315 0.03777392
6
MD Step 20
C  -0.33374475 -0.57881320 -0.00679541
H  0.22769314 -1.51884403 0.04042701
H  -1.42877639 -0.57937779 0.04092175
C  0.32699065 0.56982801 -0.00662754
H  -0.14685891 1.56455204 0.03954841
H  1.42842422 0.64073749 0.03905102
6
MD Step 21
C  -0.33318814 -0.57793727 -0.00702883
H  0.22715328 -1.51967697 0.04182173
H  -1.43072958 -0.58108050 0.04237344
C  0.32665112 0.56903188 -0.00683940
H  -0.14414733 1.56434217 0.04080665
H  1.42561898 0.64253218 0.04025238
6
MD Step 22
C  -0.33264641 -0.57707826 -0.00725105
H  0.22633227 -1.52032723 0.04315352
H  -1.43232023 -0.58292066 0.04375918
C  0.32634442 0.56829270 -0.00703969
H  -0.14144335 1.56377382 0.04199301
H  1.42252611 0.64416303 0.04138324
6
MD Step 23
C  -0.33211901 -0.57623607 -0.00745458
H  0.22519190 -1.52082039 0.04437924
H  -1.43354657 -0.58492675 0.04503573
C  0.32607714 0.56762108 -0.00722167
H  -0.13880863 1.56282297 0.04306580
H  1.41915839 0.64558058 0.04240190
6
MD Step 24
C  -0.33160773 -0.57541292 -0.00763485
H  0.22371466 -1.52116984 0.04547306
H  -1.43439764 -0.58710948 0.04617693
C  0.32585252 0.56702393 -0.00738147
H  -0.13628997 1.56148901 0.04400067
H  1.41555224 0.64675375 0.04328429
6
MD Step 25
C  -0.33112675 -0.57462346 -0.00780078
H  0.22196392 -1.52131653 0.04648720
H  -1.43479318 -0.58940195 0.04723169
C  0.32566026 0.56649436 -0.00752778
H  -0.13385930 1.55985478 0.04485031
H  1.41182735 0.64773030 0.04408629
6
MD Step 26
C  -0.33067525 -0.57386715 -0.00794633
H  0.21992029 -1.52129287 0.04738722
H  -1.43474839 -0.59182278 0.04816564
C  0.32550427 0.56603908 -0.00765537
H  -0.13157596 1.55792240 0.04558210
H  1.40802157 0.64847276 0.04477536
6
MD Step 27
C  -0.33025649 -0.57314751 -0.00807043
H  0.21759613 -1.52110795 0.04816744
H  -1.43425915 -0.59436204 0.04897227
C  0.32538330 0.56565921 -0.00776370
H  -0.12947241 1.55572743 0.04619191
H  1.40420451 0.64897338 0.04534835
6
MD Step 28
C  -0.32987634 -0.57247069 -0.00817553
H  0.21502672 -1.52075617 0.04884219
H  -1.43331077 -0.59698998 0.04966423
C  0.32529251 0.56535180 -0.00785535
H  -0.12756253 1.55332965 0.04669534
H  1.40046762 0.64924535 0.04582271
6
MD Step 29
C  -0.32953055 -0.57183256 -0.00825415
H  0.21219372 -1.52029336 0.04936893
H  -1.43195454 -0.59973322 0.05020012
C  0.32523646 0.56512263 -0.00792393
H  -0.12591701 1.55073589 0.04705204
H  1.39684628 0.64924636 0.04615734
6
MD Step 30
C  -0.32922338 -0.57123764 -0.00830861
H  0.20913710 -1.51972422 0.04976123
H  -1.43019491 -0.60256299 0.05059225
C  0.32521017 0.56496748 -0.00797191
H  -0.12455141 1.54801163 0.04727696
H  1.39343075 0.64899093 0.04636868
6
MD Step 31
C  -0.32895394 -0.57068522 -0.00833654
H  0.20587245 -1.51908438 0.05000575
H  -1.42807185 -0.60547742 0.05082753
C  0.32521317 0.56488601 -0.00799751
H  -0.12350754 1.54519751 0.04735851
H  1.39028201 0.64846783 0.04644523
6
MD Step 32
C  -0.32872426 -0.57017761 -0.00833944
H  0.20243926 -1.51839128 0.05011121
H  -1.42561173 -0.60845304 0.05091415
C  0.32524141 0.56487371 -0.00800243
H  -0.12280448 1.54235700 0.04730686
H  1.38747870 0.64768875 0.04639796
6
MD Step 33
C  -0.32853690 -0.56971774 -0.00832019
H  0.19888631 -1.51765794 0.05009400
H  -1.42284133 -0.61145924 0.05086779
C  0.32528971 0.56492441 -0.00798951
H  -0.12245218 1.53956080 0.04713968
H  1.38510075 0.64667385 0.04624539
6
MD Step 34
C  -0.32839279 -0.56930701 -0.00828071
H  0.19525814 -1.51690557 0.04996499
H  -1.41980058 -0.61447133 0.05069921
C  0.32535421 0.56503260 -0.00796070
H  -0.12246377 1.53687237 0.04686906
H  1.38321413 0.64543853 0.04599996
6
MD Step 35
C  -0.32829314 -0.56894727 -0.00822403
H  0.19160593 -1.51615157 0.04974095
H  -1.41653075 -0.61745946 0.05042494
C  0.32543046 0.56519171 -0.00791880
H  -0.12284359 1.53435780 0.04651277
H  1.38188019 0.64400463 0.04567972
6
MD Step 36
C  -0.32823447 -0.56863587 -0.00814894
H  0.18795752 -1.51543848 0.04941481
H  -1.41310339 -0.62041822 0.05003915
C  0.32551860 0.56539915 -0.00786278
H  -0.12361600 1.53205477 0.04606467
H  1.38112423 0.64237073 0.04527747
6
MD Step 37
C  -0.32821579 -0.56837287 -0.00805755
H  0.18435909 -1.51479075 0.04899812
H  -1.40957681 -0.62332443 0.04955408
C  0.32561622 0.56564939 -0.00779452
H  -0.12478256 1.53001373 0.04553690
H  1.38097683 0.64055447 0.04480466
6
MD Step 38
C  -0.32824091 -0.56816342 -0.00795778
H  0.18088817 -1.51420040 0.04853458
H  -1.40598156 -0.62612365 0.04901292
C  0.32571615 0.56593178 -0.00772082
H  -0.12630795 1.52831021 0.04497345
H  1.38148637 0.63860607 0.04430573
6
MD Step 39
C  -0.32830019 -0.56799946 -0.00784378
H  0.17754423 -1.51373545 0.04799081
H  -1.40242874 -0.62883939 0.04838532
C  0.32582487 0.56624900 -0.00763634
H  -0.12822827 1.52693436 0.04434097
H  1.38260878 0.63649906 0.04374446
6
MD Step 40
C  -0.32838989 -0.56787914 -0.00771648
H  0.17436249 -1.51342418 0.04737110
H  -1.39899323 -0.63145841 0.04767714
C  0.32594310 0.56659786 -0.00754155
H  -0.13053639 1.52590521 0.04364350
H  1.38432320 0.63424514 0.04312335
6
MD Step 41
C  -0.32850091 -0.56779546 -0.00757137
H  0.17134577 -1.51332197 0.04664963
H  -1.39577964 -0.63399852 0.04686543
C  0.32607715 0.56698072 -0.00743218
H  -0.13324948 1.52520251 0.04285447
H  1.38656494 0.63182645 0.04241315
6
MD Step 42
C  -0.32863178 -0.56774928 -0.00741221
H  0.16854006 -1.51343389 0.04584661
H  -1.39284350 -0.63643196 0.04597167
C  0.32622597 0.56739266 -0.00731115
H  -0.13633268 1.52484319 0.04199347
H  1.38930374 0.62927208 0.04163234
6
MD Step 43
C  -0.32877764 -0.56773820 -0.00723921
H  0.16596795 -1.51378039 0.04496215
H  -1.39025593 -0.63875177 0.04499783
C  0.32639219 0.56783264 -0.00717819
H  -0.13976547 1.52481507 0.04105969
H  1.39247858 0.62659181 0.04077849
6
MD Step 44
C  -0.32892533 -0.56775170 -0.00704356
H  0.16359848 -1.51442650 0.04394666
H  -1.38813143 -0.64100174 0.04389760
C  0.32658691 0.56830847 -0.00702517
H  -0.14357200 1.52504735 0.04000174
H  1.39596961 0.62374635 0.03979730
6
MD Step 45
C  -0.32907641 -0.56779382 -0.00683167
H  0.16148147 -1.51534566 0.04283520
H  -1.38648971 -0.64314047 0.04270672
C  0.32680699 0.56881398 -0.00685736
H  -0.14768601 1.52554725 0.03885406
H  1.39973671 0.62078261 0.03872284
6
MD Step 46
C  -0.32922760 -0.56786373 -0.00660436
H  0.15963127 -1.51653622 0.04163167
H  -1.38537116 -0.64515824 0.04143040
C  0.32705439 0.56934856 -0.00667512
H  -0.15206815 1.52628394 0.03761959
H  1.40370404 0.61771720 0.03755707
6
MD Step 47
C  -0.32937322 -0.56795806 -0.00635931
H  0.15804053 -1.51800731 0.04032285
H  -1.38482150 -0.64706300 0.04005686
C  0.32733375 0.56991478 -0.00647615
H  -0.15669258 1.52720358 0.03628376
H  1.40777601 0.61455045 0.03628435
6
MD Step 48
C  -0.32951745 -0.56808287 -0.00610387
H  0.15675133 -1.51970735 0.03894909
H  -1.38481904 -0.64880840 0.03862653
C  0.32764037 0.57050616 -0.00626668
H  -0.16147597 1.52830219 0.03488700
H  1.41191109 0.61133755 0.03494527
6
MD Step 49
C  -0.32965594 -0.56823554 -0.00583573
H  0.15574774 -1.52163272 0.03749742
H  -1.38538294 -0.65040254 0.03712720
C  0.32797816 0.57112545 -0.00604451
H  -0.16638676 1.52951835 0.03341533
H  1.41601442 0.60808067 0.03352530
6
MD Step 50
C  -0.32978718 -0.56841585 -0.00555480
H  0.15502208 -1.52376163 0.03596732
H  -1.38650639 -0.65184114 0.03555852
C  0.32834855 0.57177322 -0.00580945
H  -0.17137928 1.53080117 0.03186764
H  1.42000641 0.60479504 0.03202325
6
MD Step 51
C  -0.32991016 -0.56862365 -0.00526075
H  0.15456161 -1.52606844 0.03435721
H  -1.38817053 -0.65312136 0.03391881
C  0.32875263 0.57245015 -0.00556122
H  -0.17640834 1.53209779 0.03024187
H  1.42381042 0.60149525 0.03043711
6
MD Step 52
C  -0.33002923 -0.56886358 -0.00495822
H  0.15437749 -1.52849549 0.03269284
H  -1.39031633 -0.65421281 0.03223317
C  0.32918640 0.57315201 -0.00530393
H  -0.18140097 1.53338357 0.02856434
H  1.42738309 0.59822374 0.02879378
6
MD Step 53
C  -0.33014052 -0.56913175 -0.00464257
H  0.15442606 -1.53103380 0.03094889
H  -1.39292584 -0.65513781 0.03047588
C  0.32965395 0.57388309 -0.00503355
H  -0.18633729 1.53458322 0.02680890
H  1.43063497 0.59497139 0.02706727
6
MD Step 54
C  -0.33024374 -0.56942732 -0.00431240
H  0.15467906 -1.53365356 0.02911814
H  -1.39595290 -0.65590089 0.02863894
C  0.33015581 0.57464424 -0.00474899
H  -0.19118071 1.53564229 0.02496809
H  1.43350231 0.59174719 0.02525060
6
MD Step 55
C  -0.33034490 -0.56975513 -0.00397240
H  0.15513993 -1.53628904 0.02722720
H  -1.39930874 -0.65647276 0.02674783
C  0.33068623 0.57543013 -0.00445462
H  -0.19586242 1.53654417 0.02306947
H  1.43596391 0.58859409 0.02337208
6
MD Step 56
C  -0.33044903 -0.57011860 -0.00362597
H  0.15580291 -1.53888140 0.02529535
H  -1.40290604 -0.65683248 0.02482078
C  0.33124021 0.57623623 -0.00415363
H  -0.20032395 1.53726883 0.02113327
H  1.43799940 0.58554719 0.02145265
6
MD Step 57
C  -0.33055124 -0.57051107 -0.00326602
H  0.15660214 -1.54143148 0.02328381
H  -1.40671282 -0.65701971 0.02281815
C  0.33182205 0.57706757 -0.00383993
H  -0.20456969 1.53774160 0.01911969
H  1.43953736 0.58258212 0.01945298
6
MD Step 58
C  -0.33065400 -0.57093270 -0.00289302
H  0.15751345 -1.54389842 0.02119601
H  -1.41065173 -0.65703213 0.02074237
C  0.33242846 0.57792144 -0.00351417
H  -0.20856482 1.53793603 0.01703250
H  1.44055864 0.57971645 0.01737746
6
MD Step 59
C  -0.33076257 -0.57138604 -0.00251043
H  0.15852859 -1.54622684 0.01905158
H  -1.41462817 -0.65685209 0.01861209
C  0.33305291 0.57879184 -0.00317965
H  -0.21226221 1.53784791 0.01489223
H  1.44107003 0.57698325 0.01524726
6
MD Step 60
C  -0.33087743 -0.57186866 -0.00211684
H  0.15961231 -1.54839133 0.01684342
H  -1.41857605 -0.65649063 0.01641946
C  0.33369298 0.57967686 -0.00283534
H  -0.21564662 1.53745169 0.01269175
H  1.44106021 0.57438755 0.01305576
6
MD Step 61
C  -0.33100278 -0.57238155 -0.00171500
H  0.16075278 -1.55034670 0.01458726
H  -1.42240882 -0.65593691 0.01417949
C  0.33434197 0.58057019 -0.00248388
H  -0.21868432 1.53675125 0.01044739
H  1.44055046 0.57195629 0.01081976
6
MD Step 62
C  -0.33113997 -0.57292267 -0.00130499
H  0.16192424 -1.55206661 0.01228418
H  -1.42605904 -0.65519649 0.01189274
C  0.33499530 0.58146754 -0.00212551
H  -0.22136146 1.53574183 0.00816031
H  1.43955613 0.56970038 0.00854077
6
MD Step 63
C  -0.33128894 -0.57348845 -0.00088585
H  0.16309590 -1.55353537 0.00992920
H  -1.42947090 -0.65428264 0.00955390
C  0.33564906 0.58236523 -0.00175950
H  -0.22367554 1.53441877 0.00582523
H  1.43809517 0.56762324 0.00621372
6
MD Step 64
C  -0.33145789 -0.57408332 -0.00046559
H  0.16428933 -1.55469085 0.00756772
H  -1.43254373 -0.65315857 0.00720805
C  0.33629060 0.58325051 -0.00139322
H  -0.22557778 1.53283500 0.00348860
H  1.43624549 0.56577784 0.00388531
6
MD Step 65
C  -0.33164447 -0.57470122 -0.00004181
H  0.16546870 -1.55553561 0.00518655
H  -1.43524395 -0.65184876 0.00484199
C  0.33691692 0.58412029 -0.00102453
H  -0.22708426 1.53098999 0.00113649
H  1.43403287 0.56415644 0.00154154
6
MD Step 66
C  -0.33184791 -0.57533766 0.00038573
H  0.16661250 -1.55606518 0.00278469
H  -1.43753366 -0.65036657 0.00245480
C  0.33752281 0.58496906 -0.00065322
H  -0.22820377 1.52890156 -0.00123269
H  1.43150266 0.56276208 -0.00081931
6
MD Step 67
C  -0.33207169 -0.57599224 0.00081242
H  0.16772890 -1.55625278 0.00038844
H  -1.43935568 -0.64869882 0.00007297
C  0.33809840 0.58578633 -0.00028351
H  -0.22892224 1.52662103 -0.00359270
H  1.42873449 0.56162387 -0.00317123
6
MD Step 68
C  -0.33231667 -0.57666208 0.00123578
H  0.16881627 -1.55608934 -0.00198793
H  -1.44067407 -0.64684575 -0.00228893
C  0.33863584 0.58656345 0.00008241
H  -0.22924266 1.52419283 -0.00592984
H  1.42580100 0.56075721 -0.00550090
6
MD Step 69
C  -0.33258031 -0.57734096 0.00165633
H  0.16985834 -1.55558849 -0.00434720
H  -1.44147942 -0.64482598 -0.00463328
C  0.33913026 0.58729449 0.00044513
H  -0.22918985 1.52164906 -0.00824795
H  1.42276150 0.56015878 -0.00781264
6
MD Step 70
C  -0.33285896 -0.57802168 0.00207520
H  0.17083770 -1.55477282 -0.00669577
H  -1.44177534 -0.64266270 -0.00696602
C  0.33957761 0.58797405 0.00080589
H  -0.22879646 1.51902256 -0.01055471
H  1.41967446 0.55982016 -0.01011472
6
MD Step 71
C  -0.33314901 -0.57869721 0.00249302
H  0.17174250 -1.55366692 -0.00903710
H  -1.44157157 -0.64037685 -0.00929013
C  0.33997361 0.58859617 0.00116548
H  -0.22809595 1.51635298 -0.01285498
H  1.41660291 0.55973449 -0.01241258
6
MD Step 72
C  -0.33345352 -0.57936729 0.00290319
H  0.17260505 -1.55225818 -0.01133325
H  -1.44084497 -0.63794797 -0.01156710
C  0.34030740 0.58914789 0.00151788
H  -0.22708315 1.51372495 -0.01511153
H  1.41365195 0.55993531 -0.01466976
6
MD Step 73
C  -0.33376968 -0.58002609 0.00330464
H  0.17342830 -1.55057053 -0.01357803
H  -1.43961366 -0.63538822 -0.01379020
C  0.34057401 0.58962179 0.00186233
H  -0.22578768 1.51119311 -0.01731954
H  1.41089242 0.56042299 -0.01688209
6
MD Step 74
C  -0.33408963 -0.58066303 0.00370103
H  0.17419017 -1.54865950 -0.01579252
H  -1.43793234 -0.63273782 -0.01598021
C  0.34077368 0.59001535 0.00220260
H  -0.22426876 1.50878556 -0.01950205
H  1.40836352 0.56116925 -0.01907306
6
MD Step 75
C  -0.33441453 -0.58127680 0.00408651
H  0.17492624 -1.54652845 -0.01794272
H  -1.43580844 -0.62998131 -0.01810252
C  0.34089810 0.59031702 0.00253329
H  -0.22253115 1.50658608 -0.02162607
H  1.40615488 0.56220023 -0.02121038
6
MD Step 76
C  -0.33473232 -0.58185339 0.00446820
H  0.17559809 -1.54426002 -0.02007032
H  -1.43333386 -0.62717988 -0.02019899
C  0.34095252 0.59052860 0.00286164
H  -0.22065652 1.50460080 -0.02373548
H  1.40427212 0.56346501 -0.02333778
6
MD Step 77
C  -0.33504484 -0.58239292 0.00483906
H  0.17625257 -1.54185514 -0.02213385
H  -1.43052365 -0.62431049 -0.02222764
C  0.34092907 0.59063836 0.00318093
H  -0.21864217 1.50291735 -0.02578972
H  1.40279662 0.56499546 -0.02541522
6
MD Step 78
C  -0.33535070 -0.58289280 0.00519508
H  0.17692043 -1.53933404 -0.02410940
H  -1.42741729 -0.62136763 -0.02416422
C  0.34082374 0.59063824 0.00348730
H  -0.21650181 1.50160180 -0.02776589
H  1.40178174 0.56680498 -0.02742002
6
MD Step 79
C  -0.33564064 -0.58334309 0.00553986
H  0.17758828 -1.53676342 -0.02601818
H  -1.42410586 -0.61839106 -0.02603051
C  0.34064117 0.59052872 0.00378450
H  -0.21429247 1.50066943 -0.02968658
H  1.40122351 0.56886088 -0.02937404
6
MD Step 80
C  -0.33590318 -0.58373222 0.00587900
H  0.17823121 -1.53422237 -0.02789360
H  -1.42069742 -0.61543244 -0.02786117
C  0.34038898 0.59031332 0.00407833
H  -0.21208054 1.50011678 -0.03158654
H  1.40109374 0.57111743 -0.03131054
6
MD Step 81
C  -0.33613818 -0.58406031 0.00620704
H  0.17889122 -1.53172206 -0.02970267
H  -1.41723579 -0.61247575 -0.02962319
C  0.34006455 0.58998535 0.00436319
H  -0.20986180 1.49999997 -0.03343290
H  1.40141970 0.57359493 -0.03319637
6
MD Step 82
C  -0.33633797 -0.58432056 0.00652598
H  0.17956514 -1.52931720 -0.03145720
H  -1.41381158 -0.60954955 -0.03132969
C  0.33967363 0.58954691 0.00464107
H  -0.20767298 1.50032145 -0.03523785
H  1.40217159 0.57626789 -0.03504212
6
MD Step 83
C  -0.33649984 -0.58451153 0.00683321
H  0.18027730 -1.52703168 -0.03314092
H  -1.41048689 -0.60665334 -0.03296507
C  0.33921808 0.58899659 0.00490904
H  -0.20551780 1.50110280 -0.03698473
H  1.40333677 0.57913822 -0.03683018
6
MD Step 84
C  -0.33661388 -0.58462512 0.00713333
H  0.18100650 -1.52493077 -0.03478185
H  -1.40736655 -0.60383053 -0.03455970
C  0.33870789 0.58834176 0.00517182
H  -0.20343970 1.50231124 -0.03870125
H  1.40484745 0.58216248 -0.03858567
6
MD Step 85
C  -0.33668244 -0.58466574 0.00741968
H  0.18179968 -1.52300567 -0.03633840
H  -1.40448124 -0.60105364 -0.03607204
C  0.33814195 0.58757937 0.00542185
H  -0.20140712 1.50397423 -0.04034436
H  1.40669711 0.58536615 -0.04026534
6
MD Step 86
C  -0.33669726 -0.58462759 0.00769624
H  0.18263586 -1.52130936 -0.03783483
H  -1.40192245 -0.59836079 -0.03752896
C  0.33753072 0.58671885 0.00566312
H  -0.19944988 1.50604307 -0.04193709
H  1.40880489 0.58870761 -0.04188957
6
MD Step 87
C  -0.33666040 -0.58451538 0.00795783
H  0.18354876 -1.51983248 -0.03923842
H  -1.39971682 -0.59573203 -0.03889809
C  0.33687548 0.58576128 0.00588942
H  -0.19753604 1.50851701 -0.04344456
H  1.41114117 0.59220138 -0.04342320
6
MD Step 88
C  -0.33656907 -0.58432912 0.00820465
H  0.18453626 -1.51859384 -0.04054970
H  -1.39791572 -0.59318026 -0.04018159
C  0.33618342 0.58471462 0.00610041
H  -0.19566306 1.51135299 -0.04486509
H  1.41363797 0.59582745 -0.04486314
6
MD Step 89
C  -0.33641813 -0.58406655 0.00843979
H  0.18557443 -1.51762585 -0.04178827
H  -1.39657942 -0.59073692 -0.04140157
C  0.33546512 0.58359123 0.00629917
H  -0.19384403 1.51448104 -0.04621584
H  1.41620512 0.59954566 -0.04622423
6
MD Step 90
C  -0.33621394 -0.58373687 0.00865659
H  0.18669904 -1.51689242 -0.04291112
H  -1.39569368 -0.58837006 -0.04251443
C  0.33472076 0.58239394 0.00647748
H  -0.19202674 1.51788735 -0.04745088
H  1.41881415 0.60337747 -0.04746159
6
MD Step 91
C  -0.33595432 -0.58334059 0.00885723
H  0.18788634 -1.51640892 -0.04393201
H  -1.39528940 -0.58610423 -0.04353574
C  0.33396013 0.58113606 0.00663733
H  -0.19021382 1.52149580 -0.04858113
H  1.42137969 0.60728652 -0.04858467
6
MD Step 92
C  -0.33563919 -0.58288021 0.00904280
H  0.18911647 -1.51617871 -0.04485810
H  -1.39537831 -0.58395679 -0.04447386
C  0.33319183 0.57983056 0.00677955
H  -0.18840015 1.52523300 -0.04961078
H  1.42382477 0.61124215 -0.04959683
6
MD Step 93
C  -0.33526802 -0.58235749 0.00921575
H  0.19035800 -1.51620909 -0.04570564
H  -1.39596845 -0.58195371 -0.04534647
C  0.33242588 0.57849250 0.00690669
H  -0.18658929 1.52901417 -0.05055312
H  1.42606677 0.61520394 -0.05051026
6
MD Step 94
C  -0.33484404 -0.58177767 0.00937599
H  0.19159324 -1.51648634 -0.04647481
H  -1.39703902 -0.58010429 -0.04615405
C  0.33166939 0.57713465 0.00701844
H  -0.18476915 1.53276993 -0.05140549
H  1.42804412 0.61914708 -0.05132223
6
MD Step 95
C  -0.33437627 -0.58115152 0.00951903
H  0.19283145 -1.51696347 -0.04713676
H  -1.39852830 -0.57838841 -0.04686621
C  0.33092433 0.57576516 0.00710924
H  -0.18289986 1.53646052 -0.05213671
H  1.42973015 0.62307546 -0.05200331
6
MD Step 96
C  -0.33387148 -0.58048726 0.00964322
H  0.19406190 -1.51760848 -0.04768126
H  -1.40038300 -0.57680394 -0.04747166
C  0.33019548 0.57439534 0.00717694
H  -0.18096170 1.54002956 -0.05273445
H  1.43108616 0.62697424 -0.05254222
6
MD Step 97
C  -0.33333160 -0.57978793 0.00975190
H  0.19523943 -1.51841997 -0.04813174
H  -1.40257470 -0.57538150 -0.04799421
C  0.32949292 0.57304205 0.00722569
H  -0.17897024 1.54339039 -0.05321987
H  1.43204724 0.63079524 -0.05295964
6
MD Step 98
C  -0.33276438 -0.57906224 0.00984369
H  0.19634956 -1.51936297 -0.04848023
H  -1.40503642 -0.57411987 -0.04842438
C  0.32882108 0.57171659 0.00725392
H  -0.17691243 1.54649195 -0.05358355
H  1.43258778 0.63452188 -0.05324748
6
MD Step 99
C  -0.33217616 -0.57831718 0.00991894
H  0.19736611 -1.52041254 -0.04873052
H  -1.40770731 -0.57302861 -0.04876481
C  0.32818587 0.57043180 0.00726232
H  -0.17478952 1.54927689 -0.05382802
H  1.43267913 0.63812662 -0.05340910
6
MD Step 100
C  -0.33157529 -0.57756165 0.00997646
H  0.19827366 -1.52153253 -0.04887607
H  -1.41051251 -0.57210618 -0.04900716
C  0.32759094 0.56919823 0.00724976
H  -0.17259544 1.55170440 -0.05394611
H  1.43231191 0.64159305 -0.05343877
6
MD Step 101
C  -0.33097236 -0.57680669 0.01001326
H  0.19907004 -1.52267429 -0.04889785
H  -1.41336304 -0.57133788 -0.04912989
C  0.32703732 0.56802365 0.00721283
H  -0.17031500 1.55375285 -0.05391898
H  1.43149815 0.64491825 -0.05331980
6
MD Step 102
C  -0.33037208 -0.57605720 0.01003165
H  0.19971867 -1.52382552 -0.04881312
H  -1.41620596 -0.57074363 -0.04914927
C  0.32653150 0.56692096 0.00715490
H  -0.16797156 1.55537230 -0.05376347
H  1.43022333 0.64806464 -0.05306964
6
MD Step 103
C  -0.32978233 -0.57532129 0.01003105
H  0.20020457 -1.52495520 -0.04861913
H  -1.41897010 -0.57032260 -0.04906068
C  0.32607602 0.56589879 0.00707572
H  -0.16557196 1.55654053 -0.05347743
H  1.42850203 0.65101600 -0.05268759
6
MD Step 104
C  -0.32920954 -0.57460549 0.01001198
H  0.20050736 -1.52604146 -0.04832082
H  -1.42159475 -0.57008037 -0.04886758
C  0.32567398 0.56496599 0.00697651
H  -0.16313355 1.55723615 -0.05306644
H  1.42635070 0.65375024 -0.05218046
6
MD Step 105
C  -0.32866315 -0.57391942 0.00997200
H  0.20062939 -1.52704435 -0.04790267
H  -1.42400320 -0.57000134 -0.04855228
C  0.32532439 0.56412687 0.00685476
H  -0.16065666 1.55746650 -0.05251678
H  1.42381519 0.65626745 -0.05153645
6
MD Step 106
C  -0.32815079 -0.57327079 0.00990995
H  0.20056736 -1.52793496 -0.04735773
H  -1.42613263 -0.57007713 -0.04810612
C  0.32502695 0.56338592 0.00670961
H  -0.15815277 1.55723921 -0.05182333
H  1.42094178 0.65856121 -0.05075200
6
MD Step 107
C  -0.32768027 -0.57266750 0.00982406
H  0.20032532 -1.52868311 -0.04667466
H  -1.42792248 -0.57029399 -0.04751612
C  0.32477994 0.56274562 0.00653940
H  -0.15563175 1.55657493 -0.05097710
H  1.41778934 0.66063155 -0.04981967
6
MD Step 108
C  -0.32725872 -0.57211682 0.00971268
H  0.19991041 -1.52926225 -0.04584223
H  -1.42931978 -0.57063731 -0.04676952
C  0.32458093 0.56220718 0.00634250
H  -0.15310612 1.55550265 -0.04996964
H  1.41442416 0.66248045 -0.04873256
6
MD Step 109
C  -0.32688052 -0.57161281 0.00958505
H  0.19925886 -1.52972332 -0.04492460
H  -1.43035365 -0.57116450 -0.04593134
C  0.32443948 0.56178268 0.00613111
H  -0.15066353 1.55398615 -0.04886461
H  1.41084579 0.66403783 -0.04755359
6
MD Step 110
C  -0.32655759 -0.57116767 0.00943398
H  0.19842194 -1.53000972 -0.04387258
H  -1.43094957 -0.57182186 -0.04495035
C  0.32434547 0.56146439 0.00589671
H  -0.14828377 1.55210838 -0.04761762
H  1.40717113 0.66534769 -0.04624050
6
MD Step 111
C  -0.32628890 -0.57078019 0.00926343
H  0.19737929 -1.53014332 -0.04271309
H  -1.43111636 -0.57262851 -0.04385357
C  0.32430092 0.56125562 0.00564469
H  -0.14602200 1.54988568 -0.04625709
H  1.40344785 0.66638123 -0.04482185
6
MD Step 112
C  -0.32607727 -0.57045320 0.00907316
H  0.19614231 -1.53012153 -0.04144425
H  -1.43084310 -0.57357468 -0.04263871
C  0.32430250 0.56115363 0.00537513
H  -0.14390674 1.54736982 -0.04478408
H  1.39975581 0.66714033 -0.04329924
6
MD Step 113
C  -0.32592157 -0.57018541 0.00886586
H  0.19470591 -1.52996517 -0.04008423
H  -1.43014715 -0.57466904 -0.04132416
C  0.32434974 0.56115768 0.00509180
H  -0.14198671 1.54459959 -0.04321870
H  1.39615793 0.66760927 -0.04169278
6
MD Step 114
C  -0.32582884 -0.56998403 0.00863605
H  0.19312304 -1.52964411 -0.03859544
H  -1.42899966 -0.57586537 -0.03987179
C  0.32443249 0.56125681 0.00478833
H  -0.14025703 1.54167392 -0.04152796
H  1.39277260 0.66782930 -0.03997014
6
MD Step 115
C  -0.32579619 -0.56984608 0.00838670
H  0.19139371 -1.52918748 -0.03699704
H  -1.42743649 -0.57717183 -0.03830131
C  0.32454988 0.56144824 0.00446853
H  -0.13876759 1.53864070 -0.03973297
H  1.38966142 0.66778760 -0.03815196
6
MD Step 116
C  -0.32581854 -0.56976643 0.00812203
H  0.18951222 -1.52863623 -0.03531680
H  -1.42551052 -0.57860423 -0.03664139
C  0.32470236 0.56172964 0.00413773
H  -0.13757572 1.53554256 -0.03786287
H  1.38687451 0.66746448 -0.03626658
6
MD Step 117
C  -0.32589825 -0.56974765 0.00783877
H  0.18752514 -1.52798473 -0.03353198
H  -1.42323293 -0.58012875 -0.03486963
C  0.32488193 0.56208976 0.00379213
H  -0.13668829 1.53247344 -0.03589833
H  1.38450653 0.66689165 -0.03429430
6
MD Step 118
C  -0.32603084 -0.56978546 0.00753928
H  0.18544422 -1.52726677 -0.03165731
H  -1.42065957 -0.58174748 -0.03300172
C  0.32508701 0.56252284 0.00343460
H  -0.13614621 1.52949073 -0.03385566
H  1.38260835 0.66606514 -0.03225037
6
MD Step 119
C  -0.32621335 -0.56987725 0.00722389
H  0.18329629 -1.52650523 -0.02969410
H  -1.41784028 -0.58344911 -0.03103994
C  0.32531401 0.56302058 0.00306552
H  -0.13597434 1.52666338 -0.03173799
H  1.38123495 0.66499532 -0.03013689
6
MD Step 120
C  -0.32644090 -0.57001863 0.00689414
H  0.18110194 -1.52573223 -0.02765140
H  -1.41483890 -0.58522956 -0.02899441
C  0.32556101 0.56357576 0.00268659
H  -0.13620116 1.52404941 -0.02955556
H  1.38042292 0.66368587 -0.02796286
6
MD Step 121
C  -0.32670970 -0.57020650 0.00655000
H  0.17889279 -1.52497103 -0.02552807
H  -1.41171470 -0.58707461 -0.02686506
C  0.32582483 0.56417955 0.00229764
H  -0.13684059 1.52171168 -0.02730846
H  1.38020664 0.66215135 -0.02572719
6
MD Step 122
C  -0.32701033 -0.57043222 0.00619630
H  0.17666992 -1.52427625 -0.02335437
H  -1.40856227 -0.58900064 -0.02468348
C  0.32610800 0.56482848 0.00190398
H  -0.13793180 1.51967530 -0.02502676
H  1.38057628 0.66037589 -0.02345852
6
MD Step 123
C  -0.32733993 -0.57069398 0.00583127
H  0.17447632 -1.52366038 -0.02111824
H  -1.40543696 -0.59098244 -0.02243856
C  0.32640648 0.56551254 0.00150342
H  -0.13946645 1.51799875 -0.02269915
H  1.38155010 0.65838627 -0.02114451
6
MD Step 124
C  -0.32770037 -0.57099496 0.00544838
H  0.17238488 -1.52310470 -0.01877694
H  -1.40236516 -0.59296475 -0.02008821
C  0.32671157 0.56621722 0.00108841
H  -0.14139951 1.51676100 -0.02028419
H  1.38316246 0.65624019 -0.01874315
6
MD Step 125
C  -0.32807371 -0.57131834 0.00505981
H  0.17034909 -1.52270727 -0.01640729
H  -1.39949220 -0.59500999 -0.01771066
C  0.32703513 0.56694845 0.00067217
H  -0.14379613 1.51591178 -0.01785660
H  1.38531499 0.65387722 -0.01632782
6