 Entering Gaussian System, Link 0=g16
 Initial command:
 /software/gaussian/g16-c01/avx2/g16/l1.exe "/gpfs/fs2/scratch/bweight/software/many_molecule_many_mode_NAMD/src/NAMD/TEST_NVT/TRAJ/traj-80/G16/GS_NEW/Gau-31655.inp" -scrdir="/gpfs/fs2/scratch/bweight/software/many_molecule_many_mode_NAMD/src/NAMD/TEST_NVT/TRAJ/traj-80/G16/GS_NEW/"
 Entering Link 1 = /software/gaussian/g16-c01/avx2/g16/l1.exe PID=     31656.
  
 Copyright (c) 1988-2019, Gaussian, Inc.  All Rights Reserved.
  
 This is part of the Gaussian(R) 16 program.  It is based on
 the Gaussian(R) 09 system (copyright 2009, Gaussian, Inc.),
 the Gaussian(R) 03 system (copyright 2003, Gaussian, Inc.),
 the Gaussian(R) 98 system (copyright 1998, Gaussian, Inc.),
 the Gaussian(R) 94 system (copyright 1995, Gaussian, Inc.),
 the Gaussian 92(TM) system (copyright 1992, Gaussian, Inc.),
 the Gaussian 90(TM) system (copyright 1990, Gaussian, Inc.),
 the Gaussian 88(TM) system (copyright 1988, Gaussian, Inc.),
 the Gaussian 86(TM) system (copyright 1986, Carnegie Mellon
 University), and the Gaussian 82(TM) system (copyright 1983,
 Carnegie Mellon University). Gaussian is a federally registered
 trademark of Gaussian, Inc.
  
 This software contains proprietary and confidential information,
 including trade secrets, belonging to Gaussian, Inc.
  
 This software is provided under written license and may be
 used, copied, transmitted, or stored only in accord with that
 written license.
  
 The following legend is applicable only to US Government
 contracts under FAR:
  
                    RESTRICTED RIGHTS LEGEND
  
 Use, reproduction and disclosure by the US Government is
 subject to restrictions as set forth in subparagraphs (a)
 and (c) of the Commercial Computer Software - Restricted
 Rights clause in FAR 52.227-19.
  
 Gaussian, Inc.
 340 Quinnipiac St., Bldg. 40, Wallingford CT 06492
  
  
 ---------------------------------------------------------------
 Warning -- This program may not be used in any manner that
 competes with the business of Gaussian, Inc. or will provide
 assistance to any competitor of Gaussian, Inc.  The licensee
 of this program is prohibited from giving any competitor of
 Gaussian, Inc. access to this program.  By using this program,
 the user acknowledges that Gaussian, Inc. is engaged in the
 business of creating and licensing software in the field of
 computational chemistry and represents and warrants to the
 licensee that it is not a competitor of Gaussian, Inc. and that
 it will not use this program in any manner prohibited above.
 ---------------------------------------------------------------
  

 Cite this work as:
 Gaussian 16, Revision C.01,
 M. J. Frisch, G. W. Trucks, H. B. Schlegel, G. E. Scuseria, 
 M. A. Robb, J. R. Cheeseman, G. Scalmani, V. Barone, 
 G. A. Petersson, H. Nakatsuji, X. Li, M. Caricato, A. V. Marenich, 
 J. Bloino, B. G. Janesko, R. Gomperts, B. Mennucci, H. P. Hratchian, 
 J. V. Ortiz, A. F. Izmaylov, J. L. Sonnenberg, D. Williams-Young, 
 F. Ding, F. Lipparini, F. Egidi, J. Goings, B. Peng, A. Petrone, 
 T. Henderson, D. Ranasinghe, V. G. Zakrzewski, J. Gao, N. Rega, 
 G. Zheng, W. Liang, M. Hada, M. Ehara, K. Toyota, R. Fukuda, 
 J. Hasegawa, M. Ishida, T. Nakajima, Y. Honda, O. Kitao, H. Nakai, 
 T. Vreven, K. Throssell, J. A. Montgomery, Jr., J. E. Peralta, 
 F. Ogliaro, M. J. Bearpark, J. J. Heyd, E. N. Brothers, K. N. Kudin, 
 V. N. Staroverov, T. A. Keith, R. Kobayashi, J. Normand, 
 K. Raghavachari, A. P. Rendell, J. C. Burant, S. S. Iyengar, 
 J. Tomasi, M. Cossi, J. M. Millam, M. Klene, C. Adamo, R. Cammi, 
 J. W. Ochterski, R. L. Martin, K. Morokuma, O. Farkas, 
 J. B. Foresman, and D. J. Fox, Gaussian, Inc., Wallingford CT, 2019.
 
 ******************************************
 Gaussian 16:  ES64L-G16RevC.01  3-Jul-2019
                11-Jan-2023 
 ******************************************
 %oldchk=../GS_OLD/geometry.chk
 %chk=geometry.chk
 %nprocshared=4
 Will use up to    4 processors via shared memory.
 %mem=5GB
 Copying data from "../GS_OLD/geometry.chk" to current chk file "geometry.chk"
 IOpt=  2 FromEx=T IUOpen= 4 IOptOp= 5 NList=   0 IFRang= 0 IUIn= 4 IUOut= 2.
 -------------------------------------------------------
 # WB97XD/6-311G SCF=XQC FORCE nosym pop=full guess=read
 -------------------------------------------------------
 1/10=7,30=1,38=1/1,3;
 2/12=2,15=1,17=6,18=5,40=1/2;
 3/5=4,6=6,11=2,25=1,30=1,71=1,74=-58,116=-2/1,2,3;
 4/5=1/1;
 5/5=2,8=3,13=1,38=6/2,8;
 6/7=3,28=1/1;
 7/29=1,30=1/1,2,3,16;
 1/10=7,30=1/3;
 99//99;
 ------------
 MD Step 1000
 ------------
 Symbolic Z-matrix:
 Charge =  0 Multiplicity = 1
 C                    -0.33601  -0.58176   0.0074 
 H                     0.21341  -1.53563  -0.02842 
 H                    -1.42482  -0.58905  -0.029 
 C                     0.33416   0.57874   0.00623 
 H                    -0.1662    1.55955  -0.03135 
 H                     1.4426    0.64405  -0.0307 
 

 GradGradGradGradGradGradGradGradGradGradGradGradGradGradGradGradGradGrad
 Berny optimization.
 Initialization pass.
 Trust Radius=3.00D-01 FncErr=1.00D-07 GrdErr=1.00D-07 EigMax=2.50D+02 EigMin=1.00D-04
 Number of steps in this run=      2 maximum allowed number of steps=      2.
 GradGradGradGradGradGradGradGradGradGradGradGradGradGradGradGradGradGrad

                          Input orientation:                          
 ---------------------------------------------------------------------
 Center     Atomic      Atomic             Coordinates (Angstroms)
 Number     Number       Type             X           Y           Z
 ---------------------------------------------------------------------
      1          6           0       -0.336014   -0.581762    0.007397
      2          1           0        0.213413   -1.535628   -0.028421
      3          1           0       -1.424819   -0.589047   -0.028998
      4          6           0        0.334164    0.578743    0.006234
      5          1           0       -0.166201    1.559551   -0.031352
      6          1           0        1.442596    0.644053   -0.030705
 ---------------------------------------------------------------------
                    Distance matrix (angstroms):
                    1          2          3          4          5
     1  C    0.000000
     2  H    1.101368   0.000000
     3  H    1.089438   1.892041   0.000000
     4  C    1.340117   2.118100   2.111634   0.000000
     5  H    2.148386   3.118373   2.490100   1.101709   0.000000
     6  H    2.160446   2.502380   3.121315   1.110969   1.851044
                    6
     6  H    0.000000
 Symmetry turned off by external request.
 Stoichiometry    C2H4
 Framework group  C1[X(C2H4)]
 Deg. of freedom    12
 Full point group                 C1      NOp   1
 Rotational constants (GHZ):         142.9578490          29.6197522          24.5471255
 Standard basis: 6-311G (5D, 7F)
    38 basis functions,    72 primitive gaussians,    38 cartesian basis functions
     8 alpha electrons        8 beta electrons
       nuclear repulsion energy        33.0314887047 Hartrees.
 NAtoms=    6 NActive=    6 NUniq=    6 SFac= 1.00D+00 NAtFMM=   60 NAOKFM=F Big=F
 Integral buffers will be    131072 words long.
 Raffenetti 2 integral format.
 Two-electron integral symmetry is turned off.
 Nuclear repulsion after empirical dispersion term =       33.0306457246 Hartrees.
 One-electron integrals computed using PRISM.
 NBasis=    38 RedAO= T EigKep=  6.48D-03  NBF=    38
 NBsUse=    38 1.00D-06 EigRej= -1.00D+00 NBFU=    38
 Initial guess from the checkpoint file:  "geometry.chk"
 B after Tr=    -0.000464   -0.000638   -0.000534
         Rot=    1.000000    0.000000    0.000002    0.000007 Ang=   0.00 deg.
 Keep R1 ints in memory in canonical form, NReq=4036876.
 Requested convergence on RMS density matrix=1.00D-08 within  32 cycles.
 Requested convergence on MAX density matrix=1.00D-06.
 Requested convergence on             energy=1.00D-06.
 No special actions if energy rises.
 SCF Done:  E(RwB97XD) =  -78.5557776768     A.U. after    8 cycles
            NFock=  8  Conv=0.61D-08     -V/T= 2.0053
 QCSCF skips out because SCF is already converged.

 **********************************************************************

            Population analysis using the SCF Density.

 **********************************************************************

 Alpha  occ. eigenvalues --  -10.29036 -10.28893  -0.86325  -0.67211  -0.55887
 Alpha  occ. eigenvalues --   -0.50895  -0.43687  -0.35652
 Alpha virt. eigenvalues --    0.07925   0.14079   0.16459   0.16999   0.24072
 Alpha virt. eigenvalues --    0.37420   0.39308   0.39755   0.46460   0.48735
 Alpha virt. eigenvalues --    0.49398   0.59078   0.66554   0.69003   0.77289
 Alpha virt. eigenvalues --    0.77465   0.84092   0.95052   2.23208   2.29013
 Alpha virt. eigenvalues --    2.33175   2.40553   2.67077   2.81733   2.87951
 Alpha virt. eigenvalues --    2.95200   3.13853   3.31727  23.35214  23.70399
     Molecular Orbital Coefficients:
                           1         2         3         4         5
                           O         O         O         O         O
     Eigenvalues --   -10.29036 -10.28893  -0.86325  -0.67211  -0.55887
   1 1   C  1S          0.18069   0.53365  -0.08809   0.06709  -0.00047
   2        2S          0.14890   0.43914  -0.13923   0.10746  -0.00076
   3        2PX         0.00016  -0.00004   0.02589   0.03640   0.13586
   4        2PY         0.00027  -0.00006   0.04644   0.05981  -0.07347
   5        2PZ        -0.00000  -0.00001  -0.00143   0.00221   0.00020
   6        3S          0.00384   0.01407   0.37355  -0.29335   0.00215
   7        3PX        -0.00054   0.00051   0.03408   0.05839   0.21296
   8        3PY        -0.00091   0.00091   0.06094   0.09701  -0.11590
   9        3PZ        -0.00002  -0.00003  -0.00241   0.00395   0.00029
  10        4S          0.00112  -0.01492   0.19191  -0.22840   0.00188
  11        4PX         0.00124  -0.00173   0.00481   0.02332   0.11099
  12        4PY         0.00214  -0.00300   0.00878   0.04036  -0.06136
  13        4PZ         0.00002   0.00009  -0.00087   0.00199   0.00014
  14 2   H  1S         -0.00005  -0.00005   0.05186  -0.08752   0.10088
  15        2S         -0.00028   0.00014   0.05332  -0.10565   0.12807
  16        3S          0.00105   0.00153  -0.00171  -0.01515   0.04143
  17 3   H  1S         -0.00006  -0.00006   0.05340  -0.09077  -0.10365
  18        2S         -0.00028   0.00013   0.05428  -0.10885  -0.13070
  19        3S          0.00107   0.00157  -0.00171  -0.01607  -0.04226
  20 4   C  1S          0.53360  -0.18087  -0.08704  -0.06815  -0.00030
  21        2S          0.43923  -0.14866  -0.13747  -0.10928  -0.00049
  22        2PX        -0.00004  -0.00016  -0.02751   0.03736   0.11977
  23        2PY        -0.00007  -0.00028  -0.04620   0.06690  -0.07411
  24        2PZ        -0.00000   0.00000  -0.00126  -0.00237   0.00020
  25        3S          0.01341  -0.00547   0.36843   0.29864   0.00137
  26        3PX        -0.00010   0.00075  -0.03479   0.06051   0.18763
  27        3PY        -0.00014   0.00128  -0.05821   0.10770  -0.11517
  28        3PZ        -0.00004   0.00000  -0.00217  -0.00425   0.00031
  29        4S         -0.01093   0.01003   0.18959   0.23690   0.00044
  30        4PX         0.00060  -0.00202  -0.00544   0.02640   0.10276
  31        4PY         0.00098  -0.00349  -0.00888   0.04536  -0.06212
  32        4PZ         0.00008  -0.00003  -0.00087  -0.00218   0.00015
  33 5   H  1S         -0.00007  -0.00003   0.05057   0.09352  -0.09130
  34        2S         -0.00006  -0.00031   0.05158   0.11158  -0.11524
  35        3S          0.00182  -0.00012  -0.00113   0.01679  -0.03711
  36 6   H  1S         -0.00006  -0.00003   0.04920   0.09166   0.08753
  37        2S         -0.00007  -0.00031   0.05082   0.10985   0.11091
  38        3S          0.00178  -0.00011  -0.00121   0.01617   0.03596
                           6         7         8         9        10
                           O         O         O         V         V
     Eigenvalues --    -0.50895  -0.43687  -0.35652   0.07925   0.14079
   1 1   C  1S         -0.00388   0.00015  -0.00111   0.00311  -0.03394
   2        2S         -0.00584   0.00025  -0.00180   0.00515  -0.05445
   3        2PX         0.09478  -0.11213  -0.00389   0.00168  -0.03228
   4        2PY         0.16764   0.06671  -0.00665   0.00289  -0.06465
   5        2PZ         0.00589   0.00002   0.17930  -0.18912  -0.00298
   6        3S          0.02192  -0.00048   0.00526  -0.01559   0.11883
   7        3PX         0.13794  -0.17895  -0.00549   0.00254  -0.03810
   8        3PY         0.24539   0.10711  -0.00939   0.00432  -0.07958
   9        3PZ         0.00933   0.00007   0.28807  -0.27785  -0.00471
  10        4S         -0.05159  -0.00308   0.00797  -0.01772   1.22859
  11        4PX         0.06969  -0.11167  -0.00444   0.01423  -0.19920
  12        4PY         0.12497   0.06707  -0.00764   0.02453  -0.38683
  13        4PZ         0.00531   0.00009   0.26738  -0.69334  -0.01716
  14 2   H  1S         -0.08043  -0.11591   0.00018   0.00481  -0.01717
  15        2S         -0.11156  -0.17960   0.00228   0.00768  -0.04739
  16        3S         -0.04180  -0.08319   0.00137   0.02039  -0.83717
  17 3   H  1S         -0.07911   0.11377   0.00011   0.00482  -0.01378
  18        2S         -0.10912   0.17536   0.00220   0.00769  -0.03957
  19        3S         -0.04059   0.08088   0.00133   0.01994  -0.78291
  20 4   C  1S         -0.00817  -0.00043  -0.00097  -0.00304  -0.03580
  21        2S         -0.01278  -0.00070  -0.00158  -0.00503  -0.05748
  22        2PX        -0.09774   0.12372   0.00380   0.00193   0.03993
  23        2PY        -0.16237  -0.07282   0.00689   0.00340   0.06137
  24        2PZ         0.00608   0.00019   0.17906   0.18940  -0.00331
  25        3S          0.04148   0.00197   0.00467   0.01509   0.12672
  26        3PX        -0.14469   0.19799   0.00533   0.00294   0.04900
  27        3PY        -0.23879  -0.11563   0.00969   0.00522   0.07313
  28        3PZ         0.00962   0.00028   0.28675   0.27777  -0.00505
  29        4S         -0.02959   0.00289   0.00751   0.01735   1.23650
  30        4PX        -0.07546   0.12600   0.00416   0.01488   0.25747
  31        4PY        -0.12331  -0.07324   0.00768   0.02590   0.40921
  32        4PZ         0.00558   0.00016   0.26766   0.69417  -0.01981
  33 5   H  1S         -0.07454  -0.12392   0.00024  -0.00464  -0.01226
  34        2S         -0.10187  -0.19279   0.00244  -0.00765  -0.03810
  35        3S         -0.03811  -0.09022   0.00136  -0.01970  -0.81811
  36 6   H  1S         -0.07989   0.12332   0.00017  -0.00465  -0.01544
  37        2S         -0.10958   0.19294   0.00233  -0.00779  -0.04601
  38        3S         -0.04112   0.09044   0.00128  -0.02023  -0.87309
                          11        12        13        14        15
                           V         V         V         V         V
     Eigenvalues --     0.16459   0.16999   0.24072   0.37420   0.39308
   1 1   C  1S          0.00115  -0.04513   0.00016   0.01079   0.00130
   2        2S          0.00186  -0.07354   0.00024   0.01519   0.00205
   3        2PX         0.09790  -0.01912   0.09999  -0.03786  -0.02455
   4        2PY        -0.05470  -0.03741  -0.05721  -0.06819   0.01027
   5        2PZ         0.00014  -0.00757   0.00000  -0.00536  -0.00020
   6        3S         -0.00405   0.16614   0.00020   0.02811   0.00007
   7        3PX         0.14005  -0.01078   0.10659  -0.05014  -0.10637
   8        3PY        -0.07934  -0.02505  -0.06197  -0.09525   0.04932
   9        3PZ         0.00019  -0.01046  -0.00004  -0.01063  -0.00008
  10        4S         -0.05029   1.42021  -0.03034  -2.72063  -0.23723
  11        4PX         0.57986  -0.10854   1.15714  -1.57865  -0.54023
  12        4PY        -0.31534  -0.20603  -0.66776  -2.74384   0.13605
  13        4PZ         0.00103  -0.04936   0.00061  -0.04974  -0.00269
  14 2   H  1S         -0.02959  -0.02574   0.01245  -0.05559   0.07732
  15        2S         -0.07964  -0.01941  -0.02492  -0.63727   0.79125
  16        3S         -1.02709  -1.00139  -1.52929  -0.32394  -0.35188
  17 3   H  1S          0.02899  -0.02527  -0.01436  -0.04885  -0.07593
  18        2S          0.07853  -0.02064   0.01923  -0.58134  -0.75679
  19        3S          1.09284  -0.99088   1.56445  -0.39634   0.26741
  20 4   C  1S          0.00090   0.04291  -0.00018  -0.01983  -0.00010
  21        2S          0.00143   0.06985  -0.00031  -0.03235   0.00000
  22        2PX         0.10077  -0.02316  -0.10052  -0.04137  -0.03123
  23        2PY        -0.06006  -0.03749   0.05765  -0.07436   0.01154
  24        2PZ         0.00013   0.00748  -0.00000   0.00408   0.00050
  25        3S         -0.00274  -0.15534   0.00033   0.03763  -0.00271
  26        3PX         0.14478  -0.01792  -0.11360  -0.09138  -0.10932
  27        3PY        -0.08550  -0.02703   0.06385  -0.16711   0.05474
  28        3PZ         0.00017   0.01032   0.00003   0.00530   0.00115
  29        4S         -0.04637  -1.35791   0.02389   3.34379   0.16554
  30        4PX         0.54123  -0.12036  -1.12891  -1.22193  -0.58362
  31        4PY        -0.32773  -0.19874   0.64804  -2.15678   0.06504
  32        4PZ         0.00088   0.04856  -0.00062   0.04001   0.00375
  33 5   H  1S          0.03085   0.02483   0.00699   0.01262  -0.07820
  34        2S          0.06915   0.02137  -0.03147   0.09451  -0.76501
  35        3S          1.07152   0.95090  -1.53586   0.46026   0.45725
  36 6   H  1S         -0.03142   0.02528  -0.00568   0.00692   0.08816
  37        2S         -0.07037   0.02043   0.03326   0.04543   0.90348
  38        3S         -1.00989   0.95662   1.51081   0.47332  -0.43190
                          16        17        18        19        20
                           V         V         V         V         V
     Eigenvalues --     0.39755   0.46460   0.48735   0.49398   0.59078
   1 1   C  1S         -0.01768   0.01080   0.04741   0.00032  -0.00065
   2        2S         -0.03127   0.02616   0.07965   0.00084  -0.00118
   3        2PX         0.02424  -0.06136  -0.01511   0.00122   0.00245
   4        2PY         0.04570  -0.10556  -0.02000   0.00183   0.00369
   5        2PZ         0.00008  -0.00063  -0.00344  -0.15212  -0.19237
   6        3S          0.07685  -0.33316  -0.11013  -0.01193  -0.00014
   7        3PX         0.09658  -0.24481   0.02150   0.00115   0.00814
   8        3PY         0.18675  -0.41924   0.04960   0.00113   0.01250
   9        3PZ        -0.00481  -0.00500  -0.01669  -0.62913  -0.68406
  10        4S          2.45996   0.18715  -3.10348   0.05538   0.07573
  11        4PX         0.13838   0.24953  -0.79330   0.02013   0.02482
  12        4PY         0.29848   0.47337  -1.38884   0.03690   0.04105
  13        4PZ        -0.00257  -0.00063   0.08851   0.68681   1.23911
  14 2   H  1S         -0.02696  -0.03650   0.07566  -0.00182  -0.00192
  15        2S         -0.54219  -0.34573   0.89797  -0.01453  -0.01375
  16        3S          0.27877   0.09551  -0.64863   0.02455   0.02641
  17 3   H  1S         -0.03729  -0.03966   0.07302  -0.00179  -0.00179
  18        2S         -0.63990  -0.38501   0.87360  -0.01460  -0.01120
  19        3S          0.30616   0.09856  -0.60946   0.02386   0.02571
  20 4   C  1S         -0.00204  -0.00097  -0.05078   0.00269   0.00075
  21        2S         -0.00689   0.00612  -0.08797   0.00492   0.00140
  22        2PX         0.00627   0.05536  -0.02527  -0.00038   0.00225
  23        2PY         0.01471   0.09664  -0.04763  -0.00068   0.00440
  24        2PZ        -0.00405  -0.00177  -0.00370  -0.15267   0.19222
  25        3S          0.07956  -0.29371   0.21689  -0.02064  -0.00226
  26        3PX        -0.04921   0.23624  -0.04505  -0.00093   0.00794
  27        3PY        -0.06936   0.41550  -0.08429  -0.00191   0.01513
  28        3PZ        -0.01181  -0.00745  -0.01258  -0.63129   0.68246
  29        4S         -0.63520   0.68298   3.11488  -0.07953  -0.06894
  30        4PX         1.14650  -0.34624  -0.64458   0.00842   0.02323
  31        4PY         2.10612  -0.56407  -1.08537   0.01333   0.04160
  32        4PZ        -0.03554  -0.01759  -0.05232   0.69334  -1.23719
  33 5   H  1S         -0.05088  -0.06157  -0.06548   0.00170   0.00177
  34        2S         -0.86496  -0.62662  -0.82415   0.02799   0.00702
  35        3S         -0.14961   0.24916   0.55477  -0.00267  -0.02570
  36 6   H  1S         -0.03962  -0.05937  -0.06646   0.00178   0.00186
  37        2S         -0.74236  -0.59519  -0.82323   0.02793   0.00856
  38        3S         -0.18846   0.26118   0.58320  -0.00396  -0.02615
                          21        22        23        24        25
                           V         V         V         V         V
     Eigenvalues --     0.66554   0.69003   0.77289   0.77465   0.84092
   1 1   C  1S          0.00076  -0.00028   0.05201   0.07227   0.00074
   2        2S          0.00156  -0.00071   0.10977   0.15413   0.00165
   3        2PX        -0.13659   0.19489  -0.02549   0.11415  -0.01049
   4        2PY         0.07993  -0.11675  -0.04406   0.18707   0.01223
   5        2PZ        -0.00004   0.00019   0.00071   0.00556   0.00019
   6        3S         -0.01201   0.01287  -0.74364  -1.33506  -0.01570
   7        3PX        -0.62929   0.67693  -0.17354   0.44293  -0.23389
   8        3PY         0.36503  -0.40541  -0.30100   0.71910   0.15934
   9        3PZ        -0.00026   0.00074   0.00261   0.01950   0.00081
  10        4S          0.02171  -0.08122   0.77047   2.43943  -0.07929
  11        4PX         1.10868  -0.74787   0.15949  -0.73160   4.45086
  12        4PY        -0.64623   0.44069   0.22908  -1.03251  -2.58508
  13        4PZ         0.00012   0.00103   0.01026  -0.06256   0.00228
  14 2   H  1S          0.02439  -0.05837   0.01089   0.03246  -0.02609
  15        2S          0.14303  -0.62544   0.07395   0.08209  -1.54473
  16        3S         -1.05712   1.07073  -0.09546  -1.10567  -1.20998
  17 3   H  1S         -0.02382   0.05815   0.01061   0.03333   0.02859
  18        2S         -0.15509   0.66125   0.09004   0.06397   1.58114
  19        3S          1.04762  -1.04787  -0.08662  -1.22678   1.21478
  20 4   C  1S          0.00097  -0.00048   0.08419   0.03089   0.00065
  21        2S          0.00195  -0.00089   0.17925   0.06489   0.00137
  22        2PX        -0.14787  -0.18847  -0.09652   0.05376   0.01148
  23        2PY         0.08450   0.10497  -0.17373   0.09800  -0.00126
  24        2PZ        -0.00003  -0.00021   0.00575  -0.00118  -0.00019
  25        3S         -0.01359  -0.00060  -1.49469  -0.36785  -0.00932
  26        3PX        -0.67127  -0.64040  -0.35022   0.28261   0.23986
  27        3PY         0.38595   0.35494  -0.63401   0.51139  -0.11068
  28        3PZ        -0.00024  -0.00078   0.02031  -0.00444  -0.00072
  29        4S          0.01138   0.05907   2.64882   0.11463   0.06262
  30        4PX         1.26132   0.73582   0.53085  -0.27110  -4.21429
  31        4PY        -0.71868  -0.41850   1.01376  -0.66200   2.36678
  32        4PZ         0.00045  -0.00070  -0.05899   0.02892  -0.00168
  33 5   H  1S         -0.02453  -0.05612   0.03458   0.00242  -0.02322
  34        2S         -0.13796  -0.58590   0.08218   0.06945  -1.42683
  35        3S          1.09927   1.00365  -1.16081   0.29475  -1.11364
  36 6   H  1S          0.02501   0.05580   0.03414   0.00323   0.02344
  37        2S          0.13267   0.55150   0.07961   0.02700   1.41339
  38        3S         -1.10248  -1.01160  -1.10002   0.23397   1.11889
                          26        27        28        29        30
                           V         V         V         V         V
     Eigenvalues --     0.95052   2.23208   2.29013   2.33175   2.40553
   1 1   C  1S          0.09562  -0.00993  -0.01413   0.00030  -0.00043
   2        2S          0.19865   0.00175  -0.01389   0.00079  -0.00042
   3        2PX        -0.09076  -0.08413  -0.13361   0.34351  -0.40542
   4        2PY        -0.15738  -0.15456  -0.22866  -0.19731   0.23333
   5        2PZ         0.00010  -0.01528  -0.02072  -0.00021  -0.00063
   6        3S         -1.54128  -0.18463  -0.03649  -0.00236  -0.00452
   7        3PX        -0.22975   0.08437   0.21156  -0.41479   0.56569
   8        3PY        -0.39114   0.16724   0.37597   0.24081  -0.32875
   9        3PZ        -0.00305   0.01544   0.02599   0.00035   0.00071
  10        4S          5.71251  -0.10645  -0.88258  -0.00134  -0.03176
  11        4PX         1.18967   0.05141  -0.19362  -0.03502   0.95200
  12        4PY         1.98342   0.06292  -0.35467   0.01197  -0.53766
  13        4PZ        -0.02011   0.00335   0.00884  -0.00026   0.00125
  14 2   H  1S          0.01596  -0.71304  -0.78422  -0.71347   0.65147
  15        2S         -0.29228   1.01382   1.17650   1.09430  -1.44688
  16        3S         -0.09338  -0.30862  -0.46960  -0.47896   0.37466
  17 3   H  1S          0.01611  -0.70844  -0.78674   0.69775  -0.67111
  18        2S         -0.26611   1.01015   1.18234  -1.07518   1.48804
  19        3S         -0.08167  -0.28891  -0.45972   0.46483  -0.36837
  20 4   C  1S         -0.09411  -0.01048   0.01245   0.00045   0.00028
  21        2S         -0.19523   0.00011   0.01254   0.00067   0.00044
  22        2PX        -0.09180   0.12916  -0.12481   0.30707   0.41756
  23        2PY        -0.15824   0.22617  -0.20924  -0.17758  -0.23692
  24        2PZ         0.00022  -0.01692   0.02005   0.00027   0.00022
  25        3S          1.51141  -0.17004   0.01952  -0.00036   0.00034
  26        3PX        -0.22402  -0.16297   0.21334  -0.38096  -0.58512
  27        3PY        -0.39170  -0.28032   0.35161   0.21814   0.33090
  28        3PZ         0.00381   0.01805  -0.02554  -0.00028  -0.00031
  29        4S         -5.69534  -0.16881   0.88786   0.01594   0.01855
  30        4PX         1.11010  -0.01579  -0.19714   0.09802  -0.86360
  31        4PY         1.98118  -0.03732  -0.32394  -0.05665   0.49670
  32        4PZ         0.01622   0.00534  -0.00762  -0.00020  -0.00104
  33 5   H  1S         -0.01764  -0.78589   0.68202   0.70148   0.68918
  34        2S          0.28918   1.13997  -1.03960  -1.02271  -1.46600
  35        3S          0.06972  -0.35053   0.40562   0.50332   0.42511
  36 6   H  1S         -0.01769  -0.77742   0.70607  -0.68788  -0.68633
  37        2S          0.31001   1.12531  -1.07248   0.99902   1.45472
  38        3S          0.07323  -0.35136   0.43121  -0.49921  -0.43074
                          31        32        33        34        35
                           V         V         V         V         V
     Eigenvalues --     2.67077   2.81733   2.87951   2.95200   3.13853
   1 1   C  1S          0.00056   0.00285  -0.01341   0.00007  -0.00952
   2        2S          0.00043   0.00825  -0.04433  -0.00010  -0.02902
   3        2PX         0.00594   0.08111  -0.46603  -0.73764   0.45212
   4        2PY         0.00977   0.14222  -0.83565   0.41050   0.79430
   5        2PZ        -0.92457  -0.92671  -0.15638  -0.00115   0.00824
   6        3S         -0.00172  -0.06826   0.38828   0.00268   0.24341
   7        3PX        -0.00446  -0.14103   0.82865   0.88681  -0.43946
   8        3PY        -0.00749  -0.24530   1.46139  -0.48120  -0.77209
   9        3PZ         0.94021   1.13217   0.19650   0.00161  -0.01041
  10        4S          0.01472   0.15753  -0.86886  -0.01030  -0.47419
  11        4PX        -0.00213   0.11377  -0.71053  -0.67215   0.22524
  12        4PY        -0.00265   0.19830  -1.25799   0.35719   0.39493
  13        4PZ        -0.33860  -0.61203  -0.12495  -0.00131   0.00644
  14 2   H  1S          0.01384  -0.02319   0.26768  -0.38070  -0.21853
  15        2S         -0.01596   0.01522  -0.22752   0.39432   0.16631
  16        3S         -0.00299   0.04501  -0.29331   0.26664   0.06485
  17 3   H  1S          0.01395  -0.02209   0.25513   0.38400  -0.21602
  18        2S         -0.01628   0.01309  -0.20567  -0.39307   0.16353
  19        3S         -0.00359   0.04611  -0.29754  -0.28386   0.06881
  20 4   C  1S          0.00059  -0.00280   0.01354   0.00057  -0.00771
  21        2S          0.00057  -0.00857   0.04720   0.00134  -0.02365
  22        2PX        -0.00834   0.07328  -0.40987  -0.79803  -0.50028
  23        2PY        -0.01475   0.13117  -0.73600   0.44492  -0.88265
  24        2PZ        -0.92463   0.92596   0.15955   0.00067   0.01436
  25        3S         -0.00318   0.07295  -0.42214  -0.01042   0.20130
  26        3PX         0.00860  -0.13264   0.76812   0.95351   0.53153
  27        3PY         0.01494  -0.23550   1.36670  -0.52335   0.94530
  28        3PZ         0.94042  -1.13128  -0.20074  -0.00079  -0.01824
  29        4S          0.01780  -0.15962   0.88825   0.02811  -0.38276
  30        4PX        -0.00079   0.11212  -0.70413  -0.69556  -0.31937
  31        4PY        -0.00174   0.19759  -1.23719   0.37444  -0.57083
  32        4PZ        -0.33871   0.61131   0.12819   0.00049   0.01411
  33 5   H  1S          0.01328   0.02907  -0.28878   0.41505  -0.25818
  34        2S         -0.01625  -0.02280   0.25901  -0.42440   0.20150
  35        3S         -0.00185  -0.04372   0.28664  -0.24917   0.11924
  36 6   H  1S          0.01349   0.02971  -0.28812  -0.42396  -0.24990
  37        2S         -0.01690  -0.02431   0.26555   0.43326   0.19548
  38        3S         -0.00132  -0.04096   0.26855   0.25004   0.11492
                          36        37        38
                           V         V         V
     Eigenvalues --     3.31727  23.35214  23.70399
   1 1   C  1S         -0.00048  -1.41948  -1.44689
   2        2S         -0.00073   1.51389   1.56458
   3        2PX         0.77849  -0.00660   0.01214
   4        2PY        -0.43793  -0.01078   0.02144
   5        2PZ         0.00078  -0.00062  -0.00025
   6        3S          0.00164  -0.29741  -0.39761
   7        3PX        -1.11005   0.02387  -0.05531
   8        3PY         0.62217   0.03957  -0.09660
   9        3PZ        -0.00121   0.00176   0.00075
  10        4S         -0.02348   0.27599   0.76503
  11        4PX         1.93747  -0.02552   0.13182
  12        4PY        -1.09275  -0.04289   0.22895
  13        4PZ         0.00194  -0.00293  -0.00329
  14 2   H  1S          0.55089   0.01275   0.00640
  15        2S         -0.85667   0.00797  -0.01419
  16        3S         -0.45479  -0.08376  -0.03896
  17 3   H  1S         -0.56232   0.01447   0.00776
  18        2S          0.87247   0.00740  -0.01481
  19        3S          0.47600  -0.08573  -0.03983
  20 4   C  1S          0.00023  -1.44214   1.42419
  21        2S          0.00012   1.53810  -1.54007
  22        2PX        -0.71836   0.00615   0.01271
  23        2PY         0.40871   0.01114   0.02150
  24        2PZ        -0.00059  -0.00063   0.00018
  25        3S          0.00192  -0.30184   0.39129
  26        3PX         1.02227  -0.02245  -0.05634
  27        3PY        -0.58847  -0.04018  -0.09647
  28        3PZ         0.00091   0.00181  -0.00048
  29        4S          0.00199   0.27781  -0.75927
  30        4PX        -1.79424   0.02370   0.13145
  31        4PY         1.03506   0.04383   0.22577
  32        4PZ        -0.00150  -0.00297   0.00274
  33 5   H  1S          0.49363   0.01356  -0.00524
  34        2S         -0.76744   0.00785   0.01411
  35        3S         -0.43221  -0.08352   0.03827
  36 6   H  1S         -0.48872   0.01216  -0.00394
  37        2S          0.76214   0.00915   0.01319
  38        3S          0.42406  -0.08181   0.03700
     Density Matrix:
                           1         2         3         4         5
   1 1   C  1S          0.65941
   2        2S          0.56149   0.49197
   3        2PX        -0.00055  -0.00073   0.08405
   4        2PY        -0.00132  -0.00184   0.00366   0.08746
   5        2PZ         0.00010   0.00015  -0.00014  -0.00031   0.06438
   6        3S         -0.08895  -0.15384   0.00279   0.00650  -0.00022
   7        3PX         0.00087   0.00134   0.13020   0.00131  -0.00011
   8        3PY         0.00117   0.00181   0.00129   0.13098  -0.00027
   9        3PZ         0.00020   0.00034  -0.00025  -0.00049   0.10344
  10        4S         -0.07959  -0.11473  -0.01533  -0.02759   0.00069
  11        4PX         0.00022   0.00150   0.07039  -0.00455  -0.00064
  12        4PY         0.00057   0.00293  -0.00457   0.06561  -0.00114
  13        4PZ        -0.00011  -0.00027  -0.00096  -0.00163   0.09596
  14 2   H  1S         -0.02045  -0.03258   0.03447  -0.06291  -0.00138
  15        2S         -0.02283  -0.03651   0.04898  -0.08790  -0.00107
  16        3S          0.00053  -0.00075   0.02079  -0.03319  -0.00005
  17 3   H  1S         -0.02093  -0.03331  -0.07251  -0.00202  -0.00148
  18        2S         -0.02311  -0.03692  -0.10065  -0.00199  -0.00118
  19        3S          0.00058  -0.00071  -0.03858   0.00129  -0.00008
  20 4   C  1S          0.00605   0.00975  -0.01081  -0.01866  -0.00049
  21        2S          0.00972   0.01518  -0.01731  -0.02987  -0.00080
  22        2PX         0.01035   0.01654  -0.01247  -0.03200   0.00051
  23        2PY         0.01809   0.02893  -0.03216  -0.04965   0.00096
  24        2PZ        -0.00054  -0.00087  -0.00047  -0.00075   0.06428
  25        3S         -0.02617  -0.03973   0.04858   0.08386   0.00242
  26        3PX         0.01600   0.02480  -0.01829  -0.04573   0.00066
  27        3PY         0.02793   0.04331  -0.04587  -0.07122   0.00126
  28        3PZ        -0.00091  -0.00147  -0.00081  -0.00131   0.10293
  29        4S          0.00535   0.00399   0.02086   0.03624   0.00285
  30        4PX         0.00308   0.00637  -0.01303  -0.02099   0.00078
  31        4PY         0.00525   0.01091  -0.02104  -0.03748   0.00150
  32        4PZ        -0.00078  -0.00126  -0.00122  -0.00203   0.09605
  33 5   H  1S          0.00421   0.00692  -0.00172  -0.01223  -0.00056
  34        2S          0.00637   0.01059   0.00339  -0.02484  -0.00004
  35        3S          0.00328   0.00481   0.00408  -0.01748   0.00010
  36 6   H  1S          0.00415   0.00681  -0.00980  -0.00766  -0.00058
  37        2S          0.00622   0.01036  -0.02330  -0.00947  -0.00006
  38        3S          0.00321   0.00471  -0.01720  -0.00520   0.00007
                           6         7         8         9        10
   6        3S          0.45265
   7        3PX        -0.00171   0.20201
   8        3PY        -0.00131  -0.00441   0.19667
   9        3PZ        -0.00068  -0.00020  -0.00041   0.16619
  10        4S          0.27480  -0.02603  -0.04752   0.00090   0.18392
  11        4PX        -0.00654   0.10956  -0.01026  -0.00105  -0.01491
  12        4PY        -0.01212  -0.01027   0.09896  -0.00182  -0.02863
  13        4PZ         0.00123  -0.00127  -0.00215   0.15417   0.00247
  14 2   H  1S          0.08711   0.05558  -0.09835  -0.00230   0.06928
  15        2S          0.09768   0.07932  -0.13696  -0.00181   0.08186
  16        3S          0.00610   0.03399  -0.05111  -0.00009   0.01122
  17 3   H  1S          0.08913  -0.11365  -0.00153  -0.00243   0.06904
  18        2S          0.09892  -0.15757  -0.00023  -0.00194   0.08027
  19        3S          0.00618  -0.06015   0.00385  -0.00012   0.01019
  20 4   C  1S         -0.02640  -0.01687  -0.02914  -0.00084   0.00515
  21        2S         -0.03997  -0.02622  -0.04531  -0.00136   0.00388
  22        2PX        -0.04633  -0.01779  -0.04541   0.00088  -0.01779
  23        2PY        -0.08107  -0.04570  -0.07089   0.00164  -0.03125
  24        2PZ         0.00260  -0.00063  -0.00100   0.10327   0.00282
  25        3S          0.10186   0.07124   0.12319   0.00405   0.00097
  26        3PX        -0.06714  -0.02623  -0.06469   0.00115  -0.02652
  27        3PY        -0.11739  -0.06504  -0.10165   0.00218  -0.04650
  28        3PZ         0.00431  -0.00111  -0.00176   0.16536   0.00469
  29        4S          0.00163   0.03152   0.05496   0.00473  -0.03262
  30        4PX        -0.02255  -0.01948  -0.02949   0.00130  -0.00662
  31        4PY        -0.03886  -0.02966  -0.05424   0.00248  -0.01096
  32        4PZ         0.00369  -0.00171  -0.00282   0.15430   0.00435
  33 5   H  1S         -0.02063  -0.00073  -0.01766  -0.00083  -0.01519
  34        2S         -0.03169   0.00833  -0.03669   0.00004  -0.01986
  35        3S         -0.01241   0.00784  -0.02634   0.00018  -0.00372
  36 6   H  1S         -0.02026  -0.01484  -0.00930  -0.00084  -0.01517
  37        2S         -0.03097  -0.03578  -0.01069   0.00001  -0.02009
  38        3S         -0.01210  -0.02661  -0.00618   0.00014  -0.00400
                          11        12        13        14        15
  11        4PX         0.06047
  12        4PY        -0.00913   0.05131
  13        4PZ        -0.00154  -0.00262   0.14305
  14 2   H  1S          0.03349  -0.05419  -0.00119   0.08086
  15        2S          0.04856  -0.07532  -0.00047   0.10945   0.15023
  16        3S          0.02121  -0.02797   0.00023   0.03684   0.05285
  17 3   H  1S         -0.06316   0.00182  -0.00124  -0.01313  -0.02488
  18        2S         -0.08796   0.00442  -0.00052  -0.02479  -0.04332
  19        3S         -0.03388   0.00454   0.00022  -0.01811  -0.02760
  20 4   C  1S         -0.00317  -0.00571  -0.00074   0.00421   0.00666
  21        2S         -0.00653  -0.01167  -0.00119   0.00696   0.01111
  22        2PX        -0.01322  -0.02006   0.00125   0.00182  -0.00277
  23        2PY        -0.02020  -0.03677   0.00228   0.01155   0.02437
  24        2PZ        -0.00086  -0.00143   0.09581  -0.00063  -0.00019
  25        3S          0.02312   0.04106   0.00349  -0.02091  -0.03341
  26        3PX        -0.02030  -0.02844   0.00170   0.00104  -0.00725
  27        3PY        -0.02865  -0.05355   0.00313   0.01710   0.03640
  28        3PZ        -0.00142  -0.00236   0.15343  -0.00093  -0.00019
  29        4S          0.00807   0.01517   0.00432  -0.01762  -0.02412
  30        4PX        -0.01470  -0.01258   0.00159  -0.00152  -0.00824
  31        4PY        -0.01264  -0.02961   0.00296   0.01542   0.02741
  32        4PZ        -0.00171  -0.00289   0.14319  -0.00052   0.00033
  33 5   H  1S          0.00186  -0.01562  -0.00042   0.01117   0.02339
  34        2S          0.00896  -0.02730   0.00051   0.02365   0.04440
  35        3S          0.00737  -0.01575   0.00037   0.01650   0.02775
  36 6   H  1S         -0.01450  -0.00591  -0.00043  -0.00902  -0.01817
  37        2S         -0.02815  -0.00539   0.00050  -0.01868  -0.03423
  38        3S         -0.01721  -0.00129   0.00034  -0.01005  -0.01764
                          16        17        18        19        20
  16        3S          0.02124
  17 3   H  1S         -0.01833   0.08207
  18        2S         -0.02776   0.10982   0.14908
  19        3S         -0.01306   0.03632   0.05159   0.02048
  20 4   C  1S          0.00366   0.00429   0.00674   0.00368   0.65947
  21        2S          0.00539   0.00708   0.01124   0.00542   0.56156
  22        2PX        -0.00352   0.00907   0.02231   0.01673   0.00112
  23        2PY         0.01770   0.00740   0.00972   0.00569   0.00170
  24        2PZ         0.00004  -0.00062  -0.00015   0.00008   0.00009
  25        3S         -0.01397  -0.02127  -0.03373  -0.01399  -0.08924
  26        3PX        -0.00699   0.01435   0.03504   0.02610  -0.00050
  27        3PY         0.02663   0.00958   0.01194   0.00718  -0.00111
  28        3PZ         0.00010  -0.00092  -0.00013   0.00014   0.00020
  29        4S         -0.00577  -0.01751  -0.02359  -0.00540  -0.08012
  30        4PX        -0.00692   0.01394   0.02748   0.01700  -0.00023
  31        4PY         0.01602   0.00654   0.00666   0.00200  -0.00023
  32        4PZ         0.00032  -0.00051   0.00036   0.00035  -0.00007
  33 5   H  1S          0.01628  -0.00905  -0.01820  -0.00945  -0.02024
  34        2S          0.02749  -0.01861  -0.03394  -0.01693  -0.02225
  35        3S          0.01463  -0.00997  -0.01740  -0.00889   0.00062
  36 6   H  1S         -0.00953   0.01117   0.02319   0.01592  -0.01996
  37        2S         -0.01725   0.02373   0.04420   0.02703  -0.02223
  38        3S         -0.00911   0.01657   0.02765   0.01442   0.00051
                          21        22        23        24        25
  21        2S          0.49205
  22        2PX         0.00160   0.08275
  23        2PY         0.00241   0.00356   0.08763
  24        2PZ         0.00014   0.00016   0.00024   0.06422
  25        3S         -0.15423  -0.00522  -0.00798  -0.00017   0.45376
  26        3PX        -0.00075   0.12870   0.00172   0.00010  -0.00016
  27        3PY        -0.00170   0.00180   0.13137   0.00011   0.00092
  28        3PZ         0.00034   0.00024   0.00038   0.10284  -0.00066
  29        4S         -0.11575   0.01393   0.02340   0.00073   0.27842
  30        4PX        -0.00151   0.07285  -0.00498   0.00055   0.00636
  31        4PY        -0.00228  -0.00496   0.06691   0.00101   0.01000
  32        4PZ        -0.00020   0.00091   0.00162   0.09594   0.00103
  33 5   H  1S         -0.03223  -0.03376   0.06363  -0.00148   0.08619
  34        2S         -0.03555  -0.04988   0.08843  -0.00115   0.09515
  35        3S         -0.00059  -0.02244   0.03339  -0.00010   0.00564
  36 6   H  1S         -0.03182   0.07124   0.00273  -0.00139   0.08510
  37        2S         -0.03554   0.10116   0.00108  -0.00103   0.09505
  38        3S         -0.00072   0.04032  -0.00286  -0.00007   0.00587
                          26        27        28        29        30
  26        3PX         0.20048
  27        3PY        -0.00271   0.19748
  28        3PZ         0.00013   0.00017   0.16468
  29        4S          0.02545   0.04249   0.00090   0.18646
  30        4PX         0.11391  -0.01037   0.00087   0.01574   0.06576
  31        4PY        -0.01044   0.10108   0.00161   0.02497  -0.01004
  32        4PZ         0.00116   0.00209   0.15364   0.00233   0.00135
  33 5   H  1S         -0.05396   0.09955  -0.00243   0.06710  -0.03435
  34        2S         -0.08016   0.13785  -0.00191   0.07727  -0.05154
  35        3S         -0.03650   0.05139  -0.00016   0.00921  -0.02370
  36 6   H  1S          0.11246   0.00349  -0.00231   0.06761   0.06543
  37        2S          0.15951  -0.00005  -0.00175   0.07904   0.09322
  38        3S          0.06326  -0.00591  -0.00012   0.01017   0.03727
                          31        32        33        34        35
  31        4PY         0.05327
  32        4PZ         0.00251   0.14336
  33 5   H  1S          0.05547  -0.00126   0.08110
  34        2S          0.07692  -0.00050   0.11010   0.15188
  35        3S          0.02879   0.00019   0.03785   0.05474   0.02252
  36 6   H  1S         -0.00179  -0.00122  -0.01252  -0.02591  -0.01969
  37        2S         -0.00592  -0.00044  -0.02605  -0.04786  -0.03111
  38        3S         -0.00606   0.00020  -0.01995  -0.03129  -0.01530
                          36        37        38
  36 6   H  1S          0.08014
  37        2S          0.10965   0.15238
  38        3S          0.03802   0.05532   0.02286
    Full Mulliken population analysis:
                           1         2         3         4         5
   1 1   C  1S          0.65941
   2        2S          0.49324   0.49197
   3        2PX         0.00000   0.00000   0.08405
   4        2PY         0.00000   0.00000   0.00000   0.08746
   5        2PZ         0.00000   0.00000   0.00000   0.00000   0.06438
   6        3S         -0.02928  -0.06443   0.00000   0.00000   0.00000
   7        3PX         0.00000   0.00000   0.08191   0.00000   0.00000
   8        3PY         0.00000   0.00000   0.00000   0.08240   0.00000
   9        3PZ         0.00000   0.00000   0.00000   0.00000   0.06508
  10        4S         -0.01224  -0.02147   0.00000   0.00000   0.00000
  11        4PX         0.00000   0.00000   0.01550   0.00000   0.00000
  12        4PY         0.00000   0.00000   0.00000   0.01445   0.00000
  13        4PZ         0.00000   0.00000   0.00000   0.00000   0.02113
  14 2   H  1S         -0.00022  -0.00032   0.00174   0.00552   0.00000
  15        2S         -0.00165  -0.00315   0.00423   0.01319   0.00001
  16        3S          0.00004  -0.00007   0.00069   0.00192   0.00000
  17 3   H  1S         -0.00025  -0.00036   0.00774   0.00000   0.00001
  18        2S         -0.00172  -0.00328   0.01768   0.00000   0.00001
  19        3S          0.00005  -0.00007   0.00257  -0.00000   0.00000
  20 4   C  1S          0.00000   0.00000  -0.00002  -0.00006   0.00000
  21        2S          0.00000  -0.00000  -0.00002  -0.00005   0.00000
  22        2PX        -0.00002  -0.00002   0.00011   0.00084   0.00000
  23        2PY        -0.00006  -0.00005   0.00084   0.00194   0.00000
  24        2PZ        -0.00000  -0.00000  -0.00000  -0.00000   0.00041
  25        3S         -0.00058  -0.00098   0.00252   0.00753  -0.00000
  26        3PX        -0.00054  -0.00099   0.00019   0.00551   0.00000
  27        3PY        -0.00162  -0.00298   0.00552   0.01066   0.00000
  28        3PZ        -0.00000  -0.00000  -0.00000  -0.00000   0.00607
  29        4S          0.00034   0.00030   0.00095   0.00285  -0.00000
  30        4PX        -0.00018  -0.00045  -0.00070   0.00146   0.00000
  31        4PY        -0.00053  -0.00134   0.00146   0.00098   0.00000
  32        4PZ        -0.00000  -0.00000  -0.00000  -0.00000   0.00901
  33 5   H  1S          0.00000   0.00000  -0.00000  -0.00000   0.00000
  34        2S          0.00001   0.00002   0.00000  -0.00032   0.00000
  35        3S          0.00008   0.00013   0.00001  -0.00070  -0.00000
  36 6   H  1S          0.00000   0.00000  -0.00000  -0.00000   0.00000
  37        2S          0.00001   0.00002  -0.00024  -0.00007   0.00000
  38        3S          0.00007   0.00013  -0.00057  -0.00012  -0.00000
                           6         7         8         9        10
   6        3S          0.45265
   7        3PX         0.00000   0.20201
   8        3PY         0.00000   0.00000   0.19667
   9        3PZ         0.00000   0.00000   0.00000   0.16619
  10        4S          0.21289   0.00000   0.00000   0.00000   0.18392
  11        4PX         0.00000   0.07159   0.00000   0.00000   0.00000
  12        4PY         0.00000   0.00000   0.06466   0.00000   0.00000
  13        4PZ         0.00000   0.00000   0.00000   0.10074   0.00000
  14 2   H  1S          0.01581   0.01048   0.03220   0.00003   0.01824
  15        2S          0.04084   0.01928   0.05778   0.00003   0.04702
  16        3S          0.00280   0.00395   0.01032   0.00000   0.00845
  17 3   H  1S          0.01671   0.04388   0.00000   0.00003   0.01840
  18        2S          0.04211   0.07727   0.00000   0.00003   0.04654
  19        3S          0.00286   0.01397  -0.00001   0.00000   0.00772
  20 4   C  1S         -0.00059  -0.00057  -0.00170   0.00000   0.00032
  21        2S         -0.00099  -0.00104  -0.00312   0.00000   0.00029
  22        2PX         0.00240   0.00019   0.00547   0.00000   0.00081
  23        2PY         0.00728   0.00550   0.01061   0.00000   0.00245
  24        2PZ         0.00000  -0.00000  -0.00000   0.00608   0.00000
  25        3S          0.02161   0.01331   0.03986  -0.00000   0.00037
  26        3PX         0.01254  -0.00125   0.01843   0.00000   0.00409
  27        3PY         0.03798   0.01853   0.02858   0.00000   0.01241
  28        3PZ         0.00000  -0.00000  -0.00000   0.03509   0.00000
  29        4S          0.00062   0.00486   0.01466  -0.00000  -0.02045
  30        4PX         0.00633  -0.00398   0.00584   0.00000   0.00201
  31        4PY         0.01889   0.00588   0.00132   0.00000   0.00575
  32        4PZ         0.00000  -0.00000  -0.00000   0.04920   0.00000
  33 5   H  1S         -0.00006  -0.00000  -0.00019   0.00000  -0.00082
  34        2S         -0.00124   0.00006  -0.00326  -0.00000  -0.00336
  35        3S         -0.00204   0.00010  -0.00426  -0.00000  -0.00135
  36 6   H  1S         -0.00005  -0.00013  -0.00005   0.00000  -0.00080
  37        2S         -0.00117  -0.00255  -0.00053  -0.00000  -0.00333
  38        3S         -0.00195  -0.00352  -0.00056  -0.00000  -0.00143
                          11        12        13        14        15
  11        4PX         0.06047
  12        4PY         0.00000   0.05131
  13        4PZ         0.00000   0.00000   0.14305
  14 2   H  1S          0.00625   0.01756   0.00001   0.08086
  15        2S          0.01527   0.04113   0.00001   0.07731   0.15023
  16        3S          0.00524   0.01199  -0.00000   0.01377   0.04169
  17 3   H  1S          0.02365  -0.00000   0.00002  -0.00001  -0.00065
  18        2S          0.05535  -0.00002   0.00001  -0.00065  -0.00540
  19        3S          0.01667  -0.00001  -0.00000  -0.00201  -0.00802
  20 4   C  1S         -0.00018  -0.00057   0.00000   0.00000   0.00002
  21        2S         -0.00046  -0.00143   0.00000   0.00000   0.00003
  22        2PX        -0.00071   0.00139   0.00000  -0.00000   0.00000
  23        2PY         0.00140   0.00096   0.00000  -0.00000  -0.00035
  24        2PZ        -0.00000  -0.00000   0.00899   0.00000   0.00000
  25        3S          0.00649   0.01996  -0.00000  -0.00007  -0.00144
  26        3PX        -0.00415   0.00564   0.00000  -0.00000   0.00004
  27        3PY         0.00568   0.00130   0.00000  -0.00022  -0.00350
  28        3PZ        -0.00000  -0.00000   0.04892   0.00000   0.00000
  29        4S          0.00244   0.00796  -0.00000  -0.00101  -0.00427
  30        4PX        -0.00706   0.00319   0.00000   0.00001   0.00018
  31        4PY         0.00321  -0.00557   0.00000  -0.00242  -0.01023
  32        4PZ        -0.00000  -0.00000   0.08978   0.00000  -0.00000
  33 5   H  1S          0.00002  -0.00233   0.00000   0.00000   0.00000
  34        2S          0.00026  -0.00986  -0.00000   0.00000   0.00015
  35        3S          0.00027  -0.00729  -0.00000   0.00023   0.00145
  36 6   H  1S         -0.00176  -0.00049   0.00000  -0.00000  -0.00004
  37        2S         -0.00828  -0.00109  -0.00000  -0.00004  -0.00090
  38        3S         -0.00654  -0.00034  -0.00000  -0.00045  -0.00243
                          16        17        18        19        20
  16        3S          0.02124
  17 3   H  1S         -0.00204   0.08207
  18        2S         -0.00807   0.07757   0.14908
  19        3S         -0.00677   0.01357   0.04070   0.02048
  20 4   C  1S          0.00009   0.00000   0.00002   0.00009   0.65947
  21        2S          0.00016   0.00000   0.00003   0.00016   0.49330
  22        2PX         0.00001  -0.00000  -0.00027  -0.00058   0.00000
  23        2PY        -0.00074  -0.00000  -0.00008  -0.00013   0.00000
  24        2PZ        -0.00000   0.00000   0.00000  -0.00000   0.00000
  25        3S         -0.00238  -0.00007  -0.00148  -0.00241  -0.02938
  26        3PX         0.00007  -0.00016  -0.00286  -0.00364   0.00000
  27        3PY        -0.00442  -0.00007  -0.00065  -0.00066   0.00000
  28        3PZ        -0.00000   0.00000   0.00000  -0.00000   0.00000
  29        4S         -0.00215  -0.00102  -0.00422  -0.00202  -0.01232
  30        4PX         0.00019  -0.00184  -0.00862  -0.00668   0.00000
  31        4PY        -0.00752  -0.00057  -0.00139  -0.00052   0.00000
  32        4PZ        -0.00000   0.00000  -0.00000  -0.00000   0.00000
  33 5   H  1S          0.00023  -0.00000  -0.00004  -0.00043  -0.00022
  34        2S          0.00144  -0.00004  -0.00092  -0.00237  -0.00160
  35        3S          0.00246  -0.00046  -0.00243  -0.00285   0.00005
  36 6   H  1S         -0.00043   0.00000   0.00000   0.00022  -0.00021
  37        2S         -0.00237   0.00000   0.00015   0.00141  -0.00157
  38        3S         -0.00289   0.00023   0.00144   0.00241   0.00004
                          21        22        23        24        25
  21        2S          0.49205
  22        2PX         0.00000   0.08275
  23        2PY         0.00000   0.00000   0.08763
  24        2PZ         0.00000   0.00000   0.00000   0.06422
  25        3S         -0.06459   0.00000   0.00000   0.00000   0.45376
  26        3PX         0.00000   0.08097   0.00000   0.00000   0.00000
  27        3PY         0.00000   0.00000   0.08265   0.00000   0.00000
  28        3PZ         0.00000   0.00000   0.00000   0.06470   0.00000
  29        4S         -0.02166   0.00000   0.00000   0.00000   0.21569
  30        4PX         0.00000   0.01604   0.00000   0.00000   0.00000
  31        4PY         0.00000   0.00000   0.01474   0.00000   0.00000
  32        4PZ         0.00000   0.00000   0.00000   0.02113   0.00000
  33 5   H  1S         -0.00031   0.00155   0.00573   0.00001   0.01563
  34        2S         -0.00307   0.00392   0.01363   0.00001   0.03976
  35        3S         -0.00006   0.00068   0.00198   0.00000   0.00259
  36 6   H  1S         -0.00029   0.00690   0.00002   0.00000   0.01504
  37        2S         -0.00300   0.01728   0.00001   0.00001   0.03915
  38        3S         -0.00007   0.00269  -0.00001   0.00000   0.00268
                          26        27        28        29        30
  26        3PX         0.20048
  27        3PY         0.00000   0.19748
  28        3PZ         0.00000   0.00000   0.16468
  29        4S          0.00000   0.00000   0.00000   0.18646
  30        4PX         0.07443   0.00000   0.00000   0.00000   0.06576
  31        4PY         0.00000   0.06605   0.00000   0.00000   0.00000
  32        4PZ         0.00000   0.00000   0.10039   0.00000   0.00000
  33 5   H  1S          0.00926   0.03348   0.00003   0.01766   0.00584
  34        2S          0.01773   0.05977   0.00003   0.04437   0.01476
  35        3S          0.00386   0.01066   0.00000   0.00693   0.00533
  36 6   H  1S          0.04166   0.00008   0.00003   0.01763   0.02440
  37        2S          0.07706  -0.00000   0.00003   0.04506   0.05871
  38        3S          0.01474  -0.00008   0.00000   0.00762   0.01848
                          31        32        33        34        35
  31        4PY         0.05327
  32        4PZ         0.00000   0.14336
  33 5   H  1S          0.01848   0.00002   0.08110
  34        2S          0.04318   0.00001   0.07777   0.15188
  35        3S          0.01269  -0.00000   0.01414   0.04319   0.02252
  36 6   H  1S         -0.00004   0.00002  -0.00001  -0.00078  -0.00231
  37        2S         -0.00022   0.00001  -0.00078  -0.00652  -0.00944
  38        3S         -0.00018  -0.00000  -0.00234  -0.00949  -0.00816
                          36        37        38
  36 6   H  1S          0.08014
  37        2S          0.07745   0.15238
  38        3S          0.01421   0.04365   0.02286
     Gross orbital populations:
                           1
   1 1   C  1S          1.10437
   2        2S          0.88585
   3        2PX         0.22619
   4        2PY         0.23539
   5        2PZ         0.16610
   6        3S          0.79253
   7        3PX         0.55972
   8        3PY         0.55512
   9        3PZ         0.42250
  10        4S          0.50642
  11        4PX         0.26062
  12        4PY         0.21249
  13        4PZ         0.41264
  14 2   H  1S          0.27262
  15        2S          0.46786
  16        3S          0.08687
  17 3   H  1S          0.27635
  18        2S          0.46591
  19        3S          0.08367
  20 4   C  1S          1.10441
  21        2S          0.88584
  22        2PX         0.22240
  23        2PY         0.23597
  24        2PZ         0.16555
  25        3S          0.79258
  26        3PX         0.55313
  27        3PY         0.55662
  28        3PZ         0.41997
  29        4S          0.50726
  30        4PX         0.27343
  31        4PY         0.21537
  32        4PZ         0.41291
  33 5   H  1S          0.27339
  34        2S          0.46913
  35        3S          0.08801
  36 6   H  1S          0.27041
  37        2S          0.47028
  38        3S          0.09012
          Condensed to atoms (all electrons):
               1          2          3          4          5          6
     1  C    5.035902   0.386612   0.387558   0.601354  -0.036125  -0.035354
     2  H    0.386612   0.517881  -0.033617  -0.039942   0.005964  -0.009543
     3  H    0.387558  -0.033617   0.515318  -0.039650  -0.009551   0.005868
     4  C    0.601354  -0.039942  -0.039650   5.055642   0.384362   0.383667
     5  H   -0.036125   0.005964  -0.009551   0.384362   0.525698  -0.039824
     6  H   -0.035354  -0.009543   0.005868   0.383667  -0.039824   0.526002
 Mulliken charges:
               1
     1  C   -0.339946
     2  H    0.172645
     3  H    0.174074
     4  C   -0.345433
     5  H    0.169476
     6  H    0.169184
 Sum of Mulliken charges =  -0.00000
 Mulliken charges with hydrogens summed into heavy atoms:
               1
     1  C    0.006773
     4  C   -0.006773
 Electronic spatial extent (au):  <R**2>=             83.8414
 Charge=             -0.0000 electrons
 Dipole moment (field-independent basis, Debye):
    X=              0.0000    Y=              0.0209    Z=             -0.1216  Tot=              0.1234
 Quadrupole moment (field-independent basis, Debye-Ang):
   XX=            -12.2036   YY=            -12.2217   ZZ=            -15.6794
   XY=              0.0094   XZ=             -0.0010   YZ=             -0.0035
 Traceless Quadrupole moment (field-independent basis, Debye-Ang):
   XX=              1.1646   YY=              1.1466   ZZ=             -2.3112
   XY=              0.0094   XZ=             -0.0010   YZ=             -0.0035
 Octapole moment (field-independent basis, Debye-Ang**2):
  XXX=             -0.2887  YYY=             -0.0430  ZZZ=             -0.0599  XYY=              0.1625
  XXY=             -0.0093  XXZ=             -0.1596  XZZ=             -0.0786  YZZ=             -0.0613
  YYZ=             -0.2114  XYZ=             -0.0448
 Hexadecapole moment (field-independent basis, Debye-Ang**3):
 XXXX=            -34.3296 YYYY=            -55.3096 ZZZZ=            -17.8388 XXXY=             -7.2579
 XXXZ=              0.0131 YYYX=            -10.7491 YYYZ=              0.0164 ZZZX=              0.0191
 ZZZY=              0.0321 XXYY=            -16.2303 XXZZ=             -9.9434 YYZZ=            -13.6681
 XXYZ=              0.0050 YYXZ=             -0.0015 ZZXY=             -3.2113
 N-N= 3.303064572464D+01 E-N=-2.477639282526D+02  KE= 7.814179791534D+01
 Orbital energies and kinetic energies (alpha):
                                 1                 2
   1         O               -10.290356         15.977592
   2         O               -10.288933         15.981180
   3         O                -0.863253          1.536311
   4         O                -0.672113          1.271384
   5         O                -0.558874          0.940503
   6         O                -0.508950          1.282588
   7         O                -0.436871          1.043211
   8         O                -0.356521          1.038129
   9         V                 0.079249          1.182580
  10         V                 0.140788          0.589799
  11         V                 0.164585          0.595120
  12         V                 0.169993          0.681176
  13         V                 0.240718          0.583555
  14         V                 0.374199          0.857348
  15         V                 0.393080          0.932657
  16         V                 0.397546          0.778559
  17         V                 0.464596          1.190251
  18         V                 0.487352          1.426260
  19         V                 0.493985          1.302722
  20         V                 0.590781          1.651747
  21         V                 0.665538          1.572411
  22         V                 0.690027          2.146944
  23         V                 0.772894          2.432671
  24         V                 0.774647          2.312967
  25         V                 0.840924          1.082806
  26         V                 0.950519          3.413085
  27         V                 2.232085          3.924095
  28         V                 2.290131          4.028609
  29         V                 2.331754          4.303056
  30         V                 2.405530          4.513944
  31         V                 2.670765          6.300085
  32         V                 2.817327          6.304635
  33         V                 2.879509          6.139260
  34         V                 2.951997          6.225212
  35         V                 3.138529          6.821566
  36         V                 3.317269          6.403590
  37         V                23.352138         60.074993
  38         V                23.703992         60.202528
 Total kinetic energy from orbitals= 7.814179791534D+01
 Calling FoFJK, ICntrl=      2127 FMM=F ISym2X=0 I1Cent= 0 IOpClX= 0 NMat=1 NMatS=1 NMatT=0.
 -------------------------------------------------------------------
 Center     Atomic                   Forces (Hartrees/Bohr)
 Number     Number              X              Y              Z
 -------------------------------------------------------------------
      1        6           0.012587495    0.007295879   -0.004924824
      2        1          -0.009833381    0.008411044    0.002523832
      3        1           0.004810260   -0.004043962    0.002304884
      4        6           0.006923557    0.004683833   -0.005355652
      5        1           0.002183374   -0.011518488    0.002650130
      6        1          -0.016671305   -0.004828307    0.002801630
 -------------------------------------------------------------------
 Cartesian Forces:  Max     0.016671305 RMS     0.007478343

 GradGradGradGradGradGradGradGradGradGradGradGradGradGradGradGradGradGrad
 Berny optimization.
 Search for a local minimum.
 Step number   1 out of a maximum of    2
 All quantities printed in internal units (Hartrees-Bohrs-Radians)
 Second derivative matrix not updated -- first step.
 The second derivative matrix:
                          X1        Y1        Z1        X2        Y2
           X1           0.75037
           Y1           0.09866   0.85154
           Z1           0.00706   0.01105   0.16986
           X2          -0.16136   0.09387   0.00254   0.13887
           Y2           0.10005  -0.28081  -0.00907  -0.11301   0.26986
           Z2           0.00400  -0.01138  -0.05471  -0.00364   0.00942
           X3          -0.34831  -0.00153  -0.00978  -0.00028  -0.00015
           Y3          -0.00750  -0.10925  -0.00238   0.03229   0.01852
           Z3          -0.01252  -0.00230  -0.05565   0.00184   0.00067
           X4          -0.26566  -0.17659  -0.00108   0.02279   0.01310
           Y4          -0.17711  -0.46962  -0.00182  -0.01316  -0.00757
           Z4           0.00145   0.00261  -0.09328  -0.00074  -0.00102
           X5           0.02342  -0.01352   0.00078  -0.00001   0.00001
           Y5           0.01192  -0.00688   0.00105   0.00001  -0.00000
           Z5          -0.00061   0.00037   0.01706   0.00031  -0.00017
           X6           0.00155  -0.00090   0.00049  -0.00001   0.00001
           Y6          -0.02601   0.01502   0.00118   0.00001  -0.00000
           Z6           0.00062  -0.00034   0.01673  -0.00030   0.00017
                          Z2        X3        Y3        Z3        X4
           Z2           0.02845
           X3          -0.00036   0.34841
           Y3           0.00195   0.00177   0.07539
           Z3           0.01047   0.01067   0.00162   0.02922
           X4           0.00063   0.00020  -0.02657  -0.00063   0.71508
           Y4          -0.00035  -0.00012   0.01534   0.00038   0.11663
           Z4           0.01576  -0.00053  -0.00119   0.01600  -0.00636
           X5          -0.00031  -0.00001   0.00001   0.00032  -0.14906
           Y5           0.00019   0.00001  -0.00000  -0.00019   0.09468
           Z5           0.00914   0.00031  -0.00019  -0.00927  -0.00400
           X6          -0.00031  -0.00001   0.00001   0.00032  -0.32334
           Y6           0.00017   0.00001  -0.00000  -0.00017  -0.02125
           Z6          -0.00910  -0.00031   0.00019   0.00924   0.01143
                          Y4        Z4        X5        Y5        Z5
           Y4           0.85703
           Z4          -0.01214   0.17465
           X5           0.08664  -0.00263   0.12763
           Y5          -0.29030   0.00932  -0.10562   0.28068
           Z5           0.01156  -0.05677   0.00354  -0.00989   0.02959
           X6          -0.01289   0.00881  -0.00197  -0.00099   0.00044
           Y6          -0.10489   0.00242   0.03249   0.01651  -0.00168
           Z6           0.00237  -0.05636  -0.00170  -0.00047   0.01025
                          X6        Y6        Z6
           X6           0.32378
           Y6           0.01476   0.07337
           Z6          -0.00974  -0.00192   0.02925
 ITU=  0
     Eigenvalues ---    0.03681   0.04371   0.09095   0.10084   0.13470
     Eigenvalues ---    0.17444   0.26134   0.28896   0.52721   0.70059
     Eigenvalues ---    0.96993   1.55259
 Angle between quadratic step and forces=  33.24 degrees.
 Linear search not attempted -- first point.
 B after Tr=     0.005278    0.005826   -0.012528
         Rot=    1.000000   -0.000032    0.000016   -0.000109 Ang=  -0.01 deg.
 Variable       Old X    -DE/DX   Delta X   Delta X   Delta X     New X
                                 (Linear)    (Quad)   (Total)
    X1       -0.63497   0.01259   0.00000   0.01889   0.02441  -0.61057
    Y1       -1.09937   0.00730   0.00000   0.02148   0.02717  -1.07220
    Z1        0.01398  -0.00492   0.00000  -0.02631  -0.03892  -0.02495
    X2        0.40329  -0.00983   0.00000  -0.03302  -0.02712   0.37617
    Y2       -2.90192   0.00841   0.00000   0.03163   0.03754  -2.86438
    Z2       -0.05371   0.00252   0.00000   0.03245   0.01975  -0.03396
    X3       -2.69252   0.00481   0.00000   0.03115   0.03667  -2.65585
    Y3       -1.11314  -0.00404   0.00000  -0.01725  -0.01200  -1.12514
    Z3       -0.05480   0.00230   0.00000   0.03173   0.01904  -0.03575
    X4        0.63148   0.00692   0.00000   0.00294   0.00798   0.63946
    Y4        1.09367   0.00468   0.00000   0.00266   0.00862   1.10229
    Z4        0.01178  -0.00536   0.00000  -0.02554  -0.03798  -0.02620
    X5       -0.31407   0.00218   0.00000  -0.00623  -0.00158  -0.31566
    Y5        2.94712  -0.01152   0.00000  -0.03785  -0.03209   2.91503
    Z5       -0.05925   0.00265   0.00000   0.03176   0.01941  -0.03984
    X6        2.72611  -0.01667   0.00000  -0.04538  -0.04036   2.68576
    Y6        1.21708  -0.00483   0.00000  -0.03565  -0.02924   1.18784
    Z6       -0.05802   0.00280   0.00000   0.03107   0.01871  -0.03932
         Item               Value     Threshold  Converged?
 Maximum Force            0.016671     0.000450     NO 
 RMS     Force            0.007478     0.000300     NO 
 Maximum Displacement     0.040356     0.001800     NO 
 RMS     Displacement     0.026934     0.001200     NO 
 Predicted change in Energy=-1.590616D-03
 GradGradGradGradGradGradGradGradGradGradGradGradGradGradGradGradGradGrad

 Unable to Open any file for archive entry.
 1\1\GINC-BHD0015\Force\RwB97XD\6-311G\C2H4\BWEIGHT\11-Jan-2023\0\\# WB
 97XD/6-311G SCF=XQC FORCE nosym pop=full guess=read\\MD Step 1000\\0,1
 \C,-0.33601379,-0.58176237,0.00739691\H,0.21341302,-1.53562766,-0.0284
 2113\H,-1.42481906,-0.58904701,-0.02899786\C,0.33416407,0.5787432,0.00
 623434\H,-0.16620053,1.5595512,-0.03135172\H,1.44259645,0.64405274,-0.
 03070454\\Version=ES64L-G16RevC.01\HF=-78.5557777\RMSD=6.103e-09\RMSF=
 7.478e-03\Dipole=0.000009,0.0082262,-0.0478564\Quadrupole=0.8658631,0.
 8524435,-1.7183066,0.0069738,-0.0007094,-0.0026347\PG=C01 [X(C2H4)]\\@
 The archive entry for this job was punched.


 DO YOU KNOW THAT THE LETTERS IN "EPISCOPAL", WHEN
 REARRANGED, SPELL "PEPSI COLA"?
 Job cpu time:       0 days  0 hours  0 minutes 11.4 seconds.
 Elapsed time:       0 days  0 hours  0 minutes  3.3 seconds.
 File lengths (MBytes):  RWF=    272 Int=      0 D2E=      0 Chk=     32 Scr=     32
 Normal termination of Gaussian 16 at Wed Jan 11 19:42:29 2023.
