 Entering Gaussian System, Link 0=g16
 Initial command:
 /software/gaussian/g16-c01/avx2/g16/l1.exe "/gpfs/fs2/scratch/bweight/software/many_molecule_many_mode_NAMD/src/NAMD/TEST_NVT/TRAJ/traj-75/G16/GS_NEW/Gau-10199.inp" -scrdir="/gpfs/fs2/scratch/bweight/software/many_molecule_many_mode_NAMD/src/NAMD/TEST_NVT/TRAJ/traj-75/G16/GS_NEW/"
 Entering Link 1 = /software/gaussian/g16-c01/avx2/g16/l1.exe PID=     10203.
  
 Copyright (c) 1988-2019, Gaussian, Inc.  All Rights Reserved.
  
 This is part of the Gaussian(R) 16 program.  It is based on
 the Gaussian(R) 09 system (copyright 2009, Gaussian, Inc.),
 the Gaussian(R) 03 system (copyright 2003, Gaussian, Inc.),
 the Gaussian(R) 98 system (copyright 1998, Gaussian, Inc.),
 the Gaussian(R) 94 system (copyright 1995, Gaussian, Inc.),
 the Gaussian 92(TM) system (copyright 1992, Gaussian, Inc.),
 the Gaussian 90(TM) system (copyright 1990, Gaussian, Inc.),
 the Gaussian 88(TM) system (copyright 1988, Gaussian, Inc.),
 the Gaussian 86(TM) system (copyright 1986, Carnegie Mellon
 University), and the Gaussian 82(TM) system (copyright 1983,
 Carnegie Mellon University). Gaussian is a federally registered
 trademark of Gaussian, Inc.
  
 This software contains proprietary and confidential information,
 including trade secrets, belonging to Gaussian, Inc.
  
 This software is provided under written license and may be
 used, copied, transmitted, or stored only in accord with that
 written license.
  
 The following legend is applicable only to US Government
 contracts under FAR:
  
                    RESTRICTED RIGHTS LEGEND
  
 Use, reproduction and disclosure by the US Government is
 subject to restrictions as set forth in subparagraphs (a)
 and (c) of the Commercial Computer Software - Restricted
 Rights clause in FAR 52.227-19.
  
 Gaussian, Inc.
 340 Quinnipiac St., Bldg. 40, Wallingford CT 06492
  
  
 ---------------------------------------------------------------
 Warning -- This program may not be used in any manner that
 competes with the business of Gaussian, Inc. or will provide
 assistance to any competitor of Gaussian, Inc.  The licensee
 of this program is prohibited from giving any competitor of
 Gaussian, Inc. access to this program.  By using this program,
 the user acknowledges that Gaussian, Inc. is engaged in the
 business of creating and licensing software in the field of
 computational chemistry and represents and warrants to the
 licensee that it is not a competitor of Gaussian, Inc. and that
 it will not use this program in any manner prohibited above.
 ---------------------------------------------------------------
  

 Cite this work as:
 Gaussian 16, Revision C.01,
 M. J. Frisch, G. W. Trucks, H. B. Schlegel, G. E. Scuseria, 
 M. A. Robb, J. R. Cheeseman, G. Scalmani, V. Barone, 
 G. A. Petersson, H. Nakatsuji, X. Li, M. Caricato, A. V. Marenich, 
 J. Bloino, B. G. Janesko, R. Gomperts, B. Mennucci, H. P. Hratchian, 
 J. V. Ortiz, A. F. Izmaylov, J. L. Sonnenberg, D. Williams-Young, 
 F. Ding, F. Lipparini, F. Egidi, J. Goings, B. Peng, A. Petrone, 
 T. Henderson, D. Ranasinghe, V. G. Zakrzewski, J. Gao, N. Rega, 
 G. Zheng, W. Liang, M. Hada, M. Ehara, K. Toyota, R. Fukuda, 
 J. Hasegawa, M. Ishida, T. Nakajima, Y. Honda, O. Kitao, H. Nakai, 
 T. Vreven, K. Throssell, J. A. Montgomery, Jr., J. E. Peralta, 
 F. Ogliaro, M. J. Bearpark, J. J. Heyd, E. N. Brothers, K. N. Kudin, 
 V. N. Staroverov, T. A. Keith, R. Kobayashi, J. Normand, 
 K. Raghavachari, A. P. Rendell, J. C. Burant, S. S. Iyengar, 
 J. Tomasi, M. Cossi, J. M. Millam, M. Klene, C. Adamo, R. Cammi, 
 J. W. Ochterski, R. L. Martin, K. Morokuma, O. Farkas, 
 J. B. Foresman, and D. J. Fox, Gaussian, Inc., Wallingford CT, 2019.
 
 ******************************************
 Gaussian 16:  ES64L-G16RevC.01  3-Jul-2019
                11-Jan-2023 
 ******************************************
 %oldchk=../GS_OLD/geometry.chk
 %chk=geometry.chk
 %nprocshared=4
 Will use up to    4 processors via shared memory.
 %mem=5GB
 Copying data from "../GS_OLD/geometry.chk" to current chk file "geometry.chk"
 IOpt=  2 FromEx=T IUOpen= 4 IOptOp= 5 NList=   0 IFRang= 0 IUIn= 4 IUOut= 2.
 -------------------------------------------------------
 # WB97XD/6-311G SCF=XQC FORCE nosym pop=full guess=read
 -------------------------------------------------------
 1/10=7,30=1,38=1/1,3;
 2/12=2,15=1,17=6,18=5,40=1/2;
 3/5=4,6=6,11=2,25=1,30=1,71=1,74=-58,116=-2/1,2,3;
 4/5=1/1;
 5/5=2,8=3,13=1,38=6/2,8;
 6/7=3,28=1/1;
 7/29=1,30=1/1,2,3,16;
 1/10=7,30=1/3;
 99//99;
 ------------
 MD Step 1000
 ------------
 Symbolic Z-matrix:
 Charge =  0 Multiplicity = 1
 C                    -0.33751  -0.58405   0.00762 
 H                     0.22875  -1.51788  -0.02547 
 H                    -1.42017  -0.57498  -0.02666 
 C                     0.3324    0.57613   0.00489 
 H                    -0.1498    1.57099  -0.02912 
 H                     1.44212   0.65628  -0.02782 
 

 GradGradGradGradGradGradGradGradGradGradGradGradGradGradGradGradGradGrad
 Berny optimization.
 Initialization pass.
 Trust Radius=3.00D-01 FncErr=1.00D-07 GrdErr=1.00D-07 EigMax=2.50D+02 EigMin=1.00D-04
 Number of steps in this run=      2 maximum allowed number of steps=      2.
 GradGradGradGradGradGradGradGradGradGradGradGradGradGradGradGradGradGrad

                          Input orientation:                          
 ---------------------------------------------------------------------
 Center     Atomic      Atomic             Coordinates (Angstroms)
 Number     Number       Type             X           Y           Z
 ---------------------------------------------------------------------
      1          6           0       -0.337512   -0.584052    0.007618
      2          1           0        0.228747   -1.517881   -0.025465
      3          1           0       -1.420174   -0.574978   -0.026658
      4          6           0        0.332401    0.576127    0.004890
      5          1           0       -0.149803    1.570991   -0.029122
      6          1           0        1.442116    0.656283   -0.027819
 ---------------------------------------------------------------------
                    Distance matrix (angstroms):
                    1          2          3          4          5
     1  C    0.000000
     2  H    1.092603   0.000000
     3  H    1.083242   1.899476   0.000000
     4  C    1.339705   2.096792   2.097036   0.000000
     5  H    2.163514   3.111984   2.493798   1.106088   0.000000
     6  H    2.169508   2.489832   3.115880   1.113087   1.836001
                    6
     6  H    0.000000
 Symmetry turned off by external request.
 Stoichiometry    C2H4
 Framework group  C1[X(C2H4)]
 Deg. of freedom    12
 Full point group                 C1      NOp   1
 Rotational constants (GHZ):         143.5449921          29.6637919          24.5928064
 Standard basis: 6-311G (5D, 7F)
    38 basis functions,    72 primitive gaussians,    38 cartesian basis functions
     8 alpha electrons        8 beta electrons
       nuclear repulsion energy        33.0706786193 Hartrees.
 NAtoms=    6 NActive=    6 NUniq=    6 SFac= 1.00D+00 NAtFMM=   60 NAOKFM=F Big=F
 Integral buffers will be    131072 words long.
 Raffenetti 2 integral format.
 Two-electron integral symmetry is turned off.
 Nuclear repulsion after empirical dispersion term =       33.0698361668 Hartrees.
 One-electron integrals computed using PRISM.
 NBasis=    38 RedAO= T EigKep=  6.45D-03  NBF=    38
 NBsUse=    38 1.00D-06 EigRej= -1.00D+00 NBFU=    38
 Initial guess from the checkpoint file:  "geometry.chk"
 B after Tr=    -0.000212   -0.000284   -0.000349
         Rot=    1.000000   -0.000002    0.000002    0.000006 Ang=  -0.00 deg.
 Keep R1 ints in memory in canonical form, NReq=4036876.
 Requested convergence on RMS density matrix=1.00D-08 within  32 cycles.
 Requested convergence on MAX density matrix=1.00D-06.
 Requested convergence on             energy=1.00D-06.
 No special actions if energy rises.
 SCF Done:  E(RwB97XD) =  -78.5550841422     A.U. after    8 cycles
            NFock=  8  Conv=0.59D-08     -V/T= 2.0051
 QCSCF skips out because SCF is already converged.

 **********************************************************************

            Population analysis using the SCF Density.

 **********************************************************************

 Alpha  occ. eigenvalues --  -10.29046 -10.28776  -0.86378  -0.67261  -0.56021
 Alpha  occ. eigenvalues --   -0.50879  -0.43662  -0.35660
 Alpha virt. eigenvalues --    0.07942   0.14095   0.16503   0.17033   0.24069
 Alpha virt. eigenvalues --    0.37013   0.39409   0.40163   0.46415   0.48954
 Alpha virt. eigenvalues --    0.49399   0.59092   0.66592   0.69224   0.77237
 Alpha virt. eigenvalues --    0.77587   0.84153   0.95063   2.23062   2.29145
 Alpha virt. eigenvalues --    2.33305   2.40694   2.67096   2.81763   2.87779
 Alpha virt. eigenvalues --    2.95151   3.14050   3.32059  23.35307  23.70500
     Molecular Orbital Coefficients:
                           1         2         3         4         5
                           O         O         O         O         O
     Eigenvalues --   -10.29046 -10.28776  -0.86378  -0.67261  -0.56021
   1 1   C  1S          0.09180   0.55586  -0.08857   0.06657  -0.00023
   2        2S          0.07575   0.45746  -0.14002   0.10658  -0.00038
   3        2PX         0.00016  -0.00000   0.02594   0.03524   0.14024
   4        2PY         0.00028  -0.00000   0.04588   0.05842  -0.07585
   5        2PZ        -0.00000  -0.00001  -0.00146   0.00209   0.00022
   6        3S          0.00153   0.01458   0.37568  -0.29080   0.00104
   7        3PX        -0.00061   0.00042   0.03476   0.05658   0.21989
   8        3PY        -0.00104   0.00075   0.06105   0.09469  -0.11965
   9        3PZ        -0.00001  -0.00004  -0.00245   0.00370   0.00033
  10        4S          0.00346  -0.01464   0.19236  -0.22366   0.00047
  11        4PX         0.00151  -0.00154   0.00484   0.02279   0.11278
  12        4PY         0.00260  -0.00263   0.00851   0.03899  -0.06200
  13        4PZ         0.00000   0.00009  -0.00083   0.00183   0.00016
  14 2   H  1S         -0.00004  -0.00007   0.05356  -0.08679   0.10565
  15        2S         -0.00030   0.00010   0.05468  -0.10464   0.13335
  16        3S          0.00081   0.00172  -0.00186  -0.01489   0.04295
  17 3   H  1S         -0.00005  -0.00008   0.05452  -0.08976  -0.10836
  18        2S         -0.00030   0.00008   0.05530  -0.10746  -0.13591
  19        3S          0.00083   0.00174  -0.00191  -0.01561  -0.04375
  20 4   C  1S          0.55587  -0.09199  -0.08655  -0.06864  -0.00009
  21        2S          0.45752  -0.07551  -0.13664  -0.11010  -0.00013
  22        2PX        -0.00001  -0.00017  -0.02736   0.03855   0.11514
  23        2PY        -0.00001  -0.00029  -0.04661   0.06827  -0.07153
  24        2PZ        -0.00000   0.00000  -0.00103  -0.00212   0.00022
  25        3S          0.01409  -0.00322   0.36600   0.30099   0.00032
  26        3PX        -0.00022   0.00072  -0.03402   0.06235   0.18003
  27        3PY        -0.00035   0.00125  -0.05793   0.10995  -0.11095
  28        3PZ        -0.00003  -0.00001  -0.00179  -0.00382   0.00034
  29        4S         -0.01234   0.00817   0.18839   0.23907  -0.00065
  30        4PX         0.00089  -0.00188  -0.00540   0.02733   0.09983
  31        4PY         0.00152  -0.00329  -0.00926   0.04733  -0.06106
  32        4PZ         0.00007  -0.00001  -0.00077  -0.00198   0.00018
  33 5   H  1S         -0.00006  -0.00004   0.04928   0.09450  -0.08644
  34        2S         -0.00002  -0.00032   0.05048   0.11247  -0.10863
  35        3S          0.00179   0.00017  -0.00096   0.01687  -0.03470
  36 6   H  1S         -0.00005  -0.00004   0.04847   0.09293   0.08265
  37        2S         -0.00002  -0.00033   0.04998   0.11111   0.10429
  38        3S          0.00175   0.00016  -0.00100   0.01645   0.03363
                           6         7         8         9        10
                           O         O         O         V         V
     Eigenvalues --    -0.50879  -0.43662  -0.35660   0.07942   0.14095
   1 1   C  1S         -0.00252   0.00016  -0.00115   0.00291  -0.03283
   2        2S         -0.00365   0.00029  -0.00187   0.00482  -0.05266
   3        2PX         0.09482  -0.10809  -0.00355   0.00157  -0.03185
   4        2PY         0.16885   0.06418  -0.00602   0.00255  -0.06376
   5        2PZ         0.00533  -0.00000   0.17936  -0.18896  -0.00270
   6        3S          0.01569  -0.00068   0.00548  -0.01459   0.11420
   7        3PX         0.13762  -0.17237  -0.00502   0.00236  -0.03788
   8        3PY         0.24641   0.10259  -0.00850   0.00380  -0.07899
   9        3PZ         0.00846   0.00002   0.28866  -0.27805  -0.00429
  10        4S         -0.05796  -0.00276   0.00739  -0.01710   1.21881
  11        4PX         0.06917  -0.10734  -0.00423   0.01333  -0.18894
  12        4PY         0.12482   0.06451  -0.00720   0.02208  -0.37054
  13        4PZ         0.00483   0.00006   0.26726  -0.69342  -0.01581
  14 2   H  1S         -0.08120  -0.11261   0.00011   0.00459  -0.01706
  15        2S         -0.11271  -0.17304   0.00210   0.00725  -0.04734
  16        3S         -0.04219  -0.07966   0.00124   0.01867  -0.81798
  17 3   H  1S         -0.07981   0.11032   0.00004   0.00461  -0.01392
  18        2S         -0.11022   0.16896   0.00202   0.00738  -0.03955
  19        3S         -0.04095   0.07765   0.00120   0.01854  -0.76464
  20 4   C  1S         -0.00958  -0.00043  -0.00076  -0.00267  -0.03682
  21        2S         -0.01507  -0.00072  -0.00124  -0.00442  -0.05915
  22        2PX        -0.09761   0.12761   0.00349   0.00172   0.04036
  23        2PY        -0.16148  -0.07533   0.00640   0.00320   0.06177
  24        2PZ         0.00566   0.00023   0.17898   0.18953  -0.00303
  25        3S          0.04793   0.00209   0.00366   0.01329   0.13096
  26        3PX        -0.14476   0.20392   0.00486   0.00267   0.04921
  27        3PY        -0.23808  -0.11985   0.00898   0.00497   0.07312
  28        3PZ         0.00893   0.00034   0.28631   0.27788  -0.00461
  29        4S         -0.02241   0.00258   0.00676   0.01391   1.24944
  30        4PX        -0.07601   0.13148   0.00363   0.01336   0.26793
  31        4PY        -0.12387  -0.07649   0.00688   0.02419   0.42531
  32        4PZ         0.00517   0.00021   0.26770   0.69502  -0.01804
  33 5   H  1S         -0.07391  -0.12679   0.00029  -0.00403  -0.01209
  34        2S         -0.10065  -0.19777   0.00226  -0.00672  -0.03844
  35        3S         -0.03766  -0.09313   0.00128  -0.01761  -0.83788
  36 6   H  1S         -0.07894   0.12637   0.00021  -0.00403  -0.01508
  37        2S         -0.10791   0.19786   0.00214  -0.00671  -0.04590
  38        3S         -0.04054   0.09317   0.00120  -0.01777  -0.89155
                          11        12        13        14        15
                           V         V         V         V         V
     Eigenvalues --     0.16503   0.17033   0.24069   0.37013   0.39409
   1 1   C  1S          0.00110  -0.04601  -0.00001   0.00811   0.00041
   2        2S          0.00178  -0.07500  -0.00002   0.01055   0.00062
   3        2PX         0.09595  -0.01954   0.09971  -0.03484  -0.02174
   4        2PY        -0.05297  -0.03666  -0.05715  -0.06306   0.01004
   5        2PZ         0.00016  -0.00702   0.00004  -0.00492  -0.00016
   6        3S         -0.00389   0.16991   0.00025   0.03724  -0.00022
   7        3PX         0.13709  -0.01062   0.10442  -0.04117  -0.10288
   8        3PY        -0.07669  -0.02310  -0.06051  -0.07762   0.05205
   9        3PZ         0.00022  -0.00978  -0.00000  -0.01044  -0.00034
  10        4S         -0.04836   1.45644  -0.00883  -2.34368  -0.09249
  11        4PX         0.58984  -0.11571   1.17652  -1.49850  -0.51943
  12        4PY        -0.31886  -0.20504  -0.67012  -2.61295   0.18670
  13        4PZ         0.00111  -0.04591   0.00095  -0.04382  -0.00212
  14 2   H  1S         -0.02832  -0.02557   0.01529  -0.06231   0.07334
  15        2S         -0.08217  -0.01774  -0.02272  -0.69241   0.74486
  16        3S         -1.03939  -1.02037  -1.55527  -0.27089  -0.27469
  17 3   H  1S          0.02809  -0.02508  -0.01706  -0.05706  -0.07545
  18        2S          0.08188  -0.02018   0.01764  -0.65271  -0.76285
  19        3S          1.10196  -1.02069   1.57443  -0.32806   0.23182
  20 4   C  1S          0.00093   0.04176  -0.00004  -0.02013   0.00006
  21        2S          0.00149   0.06795  -0.00009  -0.03335   0.00020
  22        2PX         0.10225  -0.02272  -0.10044  -0.04004  -0.03177
  23        2PY        -0.06157  -0.03810   0.05755  -0.07070   0.01588
  24        2PZ         0.00017   0.00659  -0.00005   0.00320   0.00019
  25        3S         -0.00288  -0.15006   0.00033   0.05108  -0.00306
  26        3PX         0.14654  -0.01792  -0.11528  -0.09383  -0.10933
  27        3PY        -0.08739  -0.02859   0.06515  -0.16717   0.05987
  28        3PZ         0.00024   0.00905  -0.00003   0.00336   0.00030
  29        4S         -0.04647  -1.32659   0.00379   3.13896   0.10495
  30        4PX         0.53497  -0.11259  -1.11593  -1.06683  -0.52353
  31        4PY        -0.32713  -0.19770   0.64950  -1.85980   0.18058
  32        4PZ         0.00102   0.04308  -0.00100   0.03609   0.00149
  33 5   H  1S          0.03130   0.02464   0.00436   0.00397  -0.08375
  34        2S          0.06536   0.02218  -0.03788  -0.00796  -0.83214
  35        3S          1.07043   0.93429  -1.51884   0.43965   0.49378
  36 6   H  1S         -0.03153   0.02511  -0.00325   0.00078   0.08765
  37        2S         -0.06590   0.02020   0.03854  -0.03468   0.88441
  38        3S         -1.00846   0.93057   1.50885   0.44859  -0.48659
                          16        17        18        19        20
                           V         V         V         V         V
     Eigenvalues --     0.40163   0.46415   0.48954   0.49399   0.59092
   1 1   C  1S         -0.01970   0.01418  -0.04524  -0.00203  -0.00054
   2        2S         -0.03421   0.03175  -0.07519  -0.00309  -0.00096
   3        2PX         0.03117  -0.06141   0.00862   0.00156   0.00209
   4        2PY         0.05601  -0.10709   0.01097   0.00217   0.00320
   5        2PZ         0.00078  -0.00047   0.01105  -0.15140  -0.19245
   6        3S          0.07087  -0.33844   0.07158  -0.00763  -0.00129
   7        3PX         0.11141  -0.23726  -0.04880  -0.00159   0.00694
   8        3PY         0.20383  -0.41250  -0.09281  -0.00436   0.01062
   9        3PZ        -0.00286  -0.00468   0.04757  -0.62647  -0.68506
  10        4S          3.01026   0.06694   3.06208   0.20949   0.07416
  11        4PX         0.41553   0.22152   0.83536   0.06285   0.02215
  12        4PY         0.72904   0.40548   1.43977   0.11037   0.04018
  13        4PZ        -0.00186   0.00366  -0.11950   0.68015   1.24040
  14 2   H  1S         -0.02449  -0.02972  -0.07598  -0.00566  -0.00177
  15        2S         -0.51525  -0.28619  -0.91128  -0.06105  -0.01371
  16        3S          0.36147   0.03799   0.63416   0.05630   0.02456
  17 3   H  1S         -0.02855  -0.03122  -0.07446  -0.00554  -0.00173
  18        2S         -0.54563  -0.30189  -0.88666  -0.05965  -0.01304
  19        3S          0.36539   0.04025   0.61319   0.05482   0.02416
  20 4   C  1S          0.00179  -0.00511   0.05089   0.00511   0.00078
  21        2S         -0.00067  -0.00113   0.08908   0.00915   0.00147
  22        2PX         0.01227   0.05345   0.03025   0.00132   0.00222
  23        2PY         0.02186   0.09171   0.05332   0.00213   0.00420
  24        2PZ        -0.00402  -0.00210   0.01104  -0.15260   0.19209
  25        3S          0.07613  -0.27322  -0.25001  -0.03218  -0.00334
  26        3PX        -0.03541   0.23199   0.07089   0.00325   0.00776
  27        3PY        -0.05638   0.40184   0.12235   0.00464   0.01467
  28        3PZ        -0.01091  -0.00829   0.04321  -0.63099   0.68167
  29        4S         -1.24424   0.85125  -3.05698  -0.23167  -0.06326
  30        4PX         1.40317  -0.33079   0.56546   0.03657   0.02304
  31        4PY         2.48971  -0.55839   0.96514   0.06233   0.03771
  32        4PZ        -0.03651  -0.01865   0.00981   0.69599  -1.23641
  33 5   H  1S         -0.04245  -0.06771   0.06175   0.00480   0.00163
  34        2S         -0.81353  -0.70312   0.79185   0.06690   0.00609
  35        3S         -0.27178   0.29185  -0.52588  -0.03058  -0.02366
  36 6   H  1S         -0.03873  -0.06722   0.06112   0.00477   0.00163
  37        2S         -0.76477  -0.69630   0.78316   0.06599   0.00598
  38        3S         -0.27636   0.30716  -0.53503  -0.03167  -0.02380
                          21        22        23        24        25
                           V         V         V         V         V
     Eigenvalues --     0.66592   0.69224   0.77237   0.77587   0.84153
   1 1   C  1S          0.00064  -0.00055   0.04125   0.07878   0.00096
   2        2S          0.00135  -0.00119   0.08680   0.16786   0.00221
   3        2PX        -0.12920   0.20105  -0.04059   0.10870  -0.00783
   4        2PY         0.07503  -0.11983  -0.06835   0.17850   0.01233
   5        2PZ        -0.00009   0.00016   0.00008   0.00516   0.00011
   6        3S         -0.01115   0.01351  -0.54489  -1.42529  -0.02422
   7        3PX        -0.60314   0.71193  -0.23132   0.41332  -0.21967
   8        3PY         0.34722  -0.42450  -0.39074   0.66820   0.15738
   9        3PZ        -0.00048   0.00061   0.00056   0.01797   0.00033
  10        4S          0.01882  -0.04550   0.39758   2.49186   0.01773
  11        4PX         1.05296  -0.82148   0.25758  -0.71993   4.57364
  12        4PY        -0.60617   0.50381   0.32959  -0.97727  -2.59768
  13        4PZ         0.00050   0.00088   0.01656  -0.05610   0.00443
  14 2   H  1S          0.02319  -0.05917   0.00550   0.03392  -0.02782
  15        2S          0.13463  -0.64579   0.06407   0.10769  -1.61273
  16        3S         -1.02507   1.13263   0.04130  -1.11426  -1.24978
  17 3   H  1S         -0.02250   0.05860   0.00551   0.03436   0.03122
  18        2S         -0.14619   0.66708   0.09241   0.07520   1.64641
  19        3S          1.01724  -1.09599   0.07574  -1.24020   1.24671
  20 4   C  1S          0.00086  -0.00026   0.07928   0.04234   0.00059
  21        2S          0.00176  -0.00051   0.16891   0.08937   0.00116
  22        2PX        -0.15471  -0.18166  -0.10366   0.04024   0.00814
  23        2PY         0.08890   0.10143  -0.18580   0.07366   0.00208
  24        2PZ        -0.00011  -0.00017   0.00535  -0.00048  -0.00013
  25        3S         -0.01309  -0.00054  -1.43191  -0.57683  -0.00401
  26        3PX        -0.69549  -0.61275  -0.38819   0.23329   0.22603
  27        3PY         0.40198   0.33954  -0.70099   0.42481  -0.09649
  28        3PZ        -0.00056  -0.00058   0.01901  -0.00210  -0.00027
  29        4S          0.01011   0.02326   2.64473   0.50398  -0.03221
  30        4PX         1.31524   0.76643   0.55552  -0.19681  -4.09535
  31        4PY        -0.75744  -0.41347   1.10317  -0.55905   2.35274
  32        4PZ         0.00105  -0.00063  -0.05629   0.01960  -0.00382
  33 5   H  1S         -0.02589  -0.05406   0.03376   0.00770  -0.02253
  34        2S         -0.14592  -0.53129   0.06319   0.08184  -1.38675
  35        3S          1.13406   0.96905  -1.18681   0.14915  -1.07261
  36 6   H  1S          0.02647   0.05413   0.03335   0.00806   0.02228
  37        2S          0.14099   0.51021   0.07558   0.02863   1.37597
  38        3S         -1.13612  -0.99052  -1.11673   0.08935   1.08507
                          26        27        28        29        30
                           V         V         V         V         V
     Eigenvalues --     0.95063   2.23062   2.29145   2.33305   2.40694
   1 1   C  1S          0.09620  -0.01009  -0.01500   0.00028  -0.00039
   2        2S          0.19995   0.00167  -0.01494   0.00061  -0.00047
   3        2PX        -0.09071  -0.06875  -0.13090   0.35270  -0.40725
   4        2PY        -0.15708  -0.13061  -0.22927  -0.20023   0.22925
   5        2PZ         0.00035  -0.01420  -0.01956   0.00013  -0.00076
   6        3S         -1.55108  -0.18794  -0.04077  -0.00055  -0.00389
   7        3PX        -0.23060   0.06009   0.20605  -0.42040   0.56823
   8        3PY        -0.39353   0.12679   0.37180   0.24033  -0.32104
   9        3PZ        -0.00233   0.01415   0.02417  -0.00005   0.00087
  10        4S          5.71442  -0.10058  -0.88384  -0.00149  -0.00979
  11        4PX         1.19726   0.05446  -0.18947  -0.08136   1.00180
  12        4PY         1.99257   0.07796  -0.35797   0.03787  -0.55361
  13        4PZ        -0.02148   0.00312   0.00901  -0.00026   0.00159
  14 2   H  1S          0.01475  -0.69611  -0.81059  -0.70489   0.65041
  15        2S         -0.28211   0.98650   1.21102   1.10245  -1.46886
  16        3S         -0.10490  -0.29079  -0.48094  -0.45705   0.35357
  17 3   H  1S          0.01513  -0.68495  -0.80948   0.69879  -0.67019
  18        2S         -0.25694   0.97028   1.21410  -1.09586   1.50886
  19        3S         -0.08637  -0.27078  -0.46589   0.44805  -0.34686
  20 4   C  1S         -0.09361  -0.01049   0.01209   0.00038   0.00021
  21        2S         -0.19406  -0.00036   0.01209   0.00046   0.00046
  22        2PX        -0.09204   0.14280  -0.11971   0.29784   0.41663
  23        2PY        -0.15895   0.24850  -0.19939  -0.17301  -0.24083
  24        2PZ         0.00046  -0.01501   0.01807   0.00045   0.00034
  25        3S          1.50014  -0.16405   0.01678   0.00092  -0.00070
  26        3PX        -0.22469  -0.18452   0.20626  -0.37361  -0.58362
  27        3PY        -0.39212  -0.31759   0.33973   0.21491   0.33841
  28        3PZ         0.00400   0.01624  -0.02311  -0.00049  -0.00049
  29        4S         -5.68215  -0.18270   0.88932   0.01416  -0.00446
  30        4PX         1.10101  -0.01292  -0.19373   0.13064  -0.83907
  31        4PY         1.96708  -0.02791  -0.30840  -0.07467   0.49440
  32        4PZ         0.01144   0.00497  -0.00635  -0.00002  -0.00134
  33 5   H  1S         -0.01806  -0.79866   0.66009   0.70635   0.68857
  34        2S          0.29592   1.16446  -1.01187  -1.01637  -1.45239
  35        3S          0.06184  -0.36370   0.39101   0.51736   0.43527
  36 6   H  1S         -0.01806  -0.79465   0.67903  -0.69158  -0.68917
  37        2S          0.31453   1.15674  -1.03431   0.99242   1.44725
  38        3S          0.07117  -0.36406   0.41564  -0.51261  -0.44219
                          31        32        33        34        35
                           V         V         V         V         V
     Eigenvalues --     2.67096   2.81763   2.87779   2.95151   3.14050
   1 1   C  1S          0.00055   0.00268  -0.01327  -0.00007  -0.01021
   2        2S          0.00047   0.00755  -0.04312  -0.00040  -0.03089
   3        2PX         0.00530   0.07722  -0.48050  -0.71485   0.43717
   4        2PY         0.00793   0.13644  -0.87104   0.40065   0.76094
   5        2PZ        -0.92401  -0.92919  -0.14542  -0.00130   0.00596
   6        3S         -0.00205  -0.06160   0.37508   0.00502   0.25715
   7        3PX        -0.00397  -0.13241   0.84024   0.86316  -0.40986
   8        3PY        -0.00577  -0.23201   1.49693  -0.47057  -0.71148
   9        3PZ         0.93929   1.13526   0.18216   0.00174  -0.00787
  10        4S          0.01440   0.14619  -0.86317  -0.01414  -0.50642
  11        4PX        -0.00207   0.10523  -0.71045  -0.66610   0.19731
  12        4PY        -0.00293   0.18533  -1.26611   0.35298   0.33624
  13        4PZ        -0.33808  -0.61415  -0.11501  -0.00137   0.00430
  14 2   H  1S          0.01273  -0.01803   0.25215  -0.36630  -0.20624
  15        2S         -0.01428   0.00946  -0.20309   0.37941   0.15533
  16        3S         -0.00348   0.04401  -0.30511   0.28156   0.04536
  17 3   H  1S          0.01295  -0.01756   0.24328   0.36792  -0.20755
  18        2S         -0.01483   0.00813  -0.18818  -0.37722   0.15686
  19        3S         -0.00383   0.04374  -0.30221  -0.29691   0.05453
  20 4   C  1S          0.00051  -0.00257   0.01360   0.00046  -0.00705
  21        2S          0.00047  -0.00806   0.04818   0.00110  -0.02173
  22        2PX        -0.00765   0.06596  -0.39410  -0.81980  -0.51336
  23        2PY        -0.01428   0.11744  -0.69980   0.45334  -0.91071
  24        2PZ        -0.92530   0.92718   0.14843   0.00029   0.01477
  25        3S         -0.00263   0.06941  -0.43393  -0.00842   0.18608
  26        3PX         0.00785  -0.12154   0.75416   0.97805   0.56042
  27        3PY         0.01447  -0.21458   1.32877  -0.53301   1.00168
  28        3PZ         0.94118  -1.13302  -0.18726  -0.00037  -0.01860
  29        4S          0.01549  -0.14942   0.90002   0.02503  -0.35274
  30        4PX        -0.00074   0.10480  -0.70319  -0.70623  -0.35134
  31        4PY        -0.00215   0.18312  -1.22858   0.37983  -0.63132
  32        4PZ        -0.33904   0.61268   0.11961   0.00024   0.01484
  33 5   H  1S          0.01176   0.02992  -0.29732   0.42536  -0.27368
  34        2S         -0.01461  -0.02506   0.27541  -0.43574   0.21689
  35        3S         -0.00117  -0.03908   0.27693  -0.24020   0.13740
  36 6   H  1S          0.01190   0.02983  -0.29237  -0.43686  -0.26168
  37        2S         -0.01514  -0.02560   0.27405   0.44635   0.20719
  38        3S         -0.00087  -0.03774   0.26586   0.24319   0.12954
                          36        37        38
                           V         V         V
     Eigenvalues --     3.32059  23.35307  23.70500
   1 1   C  1S         -0.00025  -1.40930  -1.45687
   2        2S         -0.00034   1.50304   1.57536
   3        2PX         0.79885  -0.00656   0.01213
   4        2PY        -0.44608  -0.01086   0.02119
   5        2PZ         0.00104  -0.00059  -0.00029
   6        3S         -0.00112  -0.29542  -0.40027
   7        3PX        -1.14222   0.02394  -0.05542
   8        3PY         0.63388   0.04007  -0.09627
   9        3PZ        -0.00158   0.00165   0.00089
  10        4S          0.00010   0.27445   0.76773
  11        4PX         2.00090  -0.02558   0.13335
  12        4PY        -1.10858  -0.04384   0.22892
  13        4PZ         0.00270  -0.00281  -0.00345
  14 2   H  1S          0.57632   0.01360   0.00814
  15        2S         -0.89472   0.00722  -0.01531
  16        3S         -0.47606  -0.08489  -0.04039
  17 3   H  1S         -0.58545   0.01496   0.00890
  18        2S          0.90823   0.00716  -0.01501
  19        3S          0.49918  -0.08662  -0.04012
  20 4   C  1S          0.00000  -1.45210   1.41399
  21        2S         -0.00027   1.54878  -1.52911
  22        2PX        -0.69507   0.00618   0.01268
  23        2PY         0.39965   0.01102   0.02168
  24        2PZ        -0.00084  -0.00057   0.00012
  25        3S          0.00462  -0.30410   0.38858
  26        3PX         0.99058  -0.02242  -0.05624
  27        3PY        -0.57772  -0.03968  -0.09687
  28        3PZ         0.00128   0.00163  -0.00025
  29        4S         -0.02197   0.28015  -0.75660
  30        4PX        -1.74259   0.02358   0.12983
  31        4PY         1.02543   0.04269   0.22556
  32        4PZ        -0.00226  -0.00260   0.00207
  33 5   H  1S          0.46954   0.01314  -0.00422
  34        2S         -0.73128   0.00837   0.01347
  35        3S         -0.42411  -0.08264   0.03698
  36 6   H  1S         -0.46573   0.01210  -0.00345
  37        2S          0.72711   0.00916   0.01333
  38        3S          0.41480  -0.08112   0.03686
     Density Matrix:
                           1         2         3         4         5
   1 1   C  1S          0.65939
   2        2S          0.56149   0.49198
   3        2PX        -0.00045  -0.00058   0.08454
   4        2PY        -0.00108  -0.00147   0.00341   0.08787
   5        2PZ         0.00009   0.00014  -0.00013  -0.00028   0.06441
   6        3S         -0.08887  -0.15376   0.00237   0.00548  -0.00018
   7        3PX         0.00089   0.00136   0.13086   0.00085  -0.00010
   8        3PY         0.00129   0.00199   0.00090   0.13130  -0.00026
   9        3PZ         0.00018   0.00030  -0.00022  -0.00045   0.10366
  10        4S         -0.07921  -0.11402  -0.01610  -0.02857   0.00054
  11        4PX         0.00032   0.00169   0.06984  -0.00437  -0.00065
  12        4PY         0.00067   0.00312  -0.00442   0.06526  -0.00114
  13        4PZ        -0.00015  -0.00033  -0.00086  -0.00146   0.09593
  14 2   H  1S         -0.02080  -0.03312   0.03524  -0.06313  -0.00130
  15        2S         -0.02311  -0.03695   0.04888  -0.08774  -0.00099
  16        3S          0.00057  -0.00073   0.02011  -0.03291  -0.00004
  17 3   H  1S         -0.02121  -0.03375  -0.07287  -0.00184  -0.00142
  18        2S         -0.02340  -0.03737  -0.10027  -0.00242  -0.00112
  19        3S          0.00059  -0.00070  -0.03803   0.00076  -0.00009
  20 4   C  1S          0.00603   0.00973  -0.01089  -0.01892  -0.00041
  21        2S          0.00968   0.01514  -0.01743  -0.03030  -0.00066
  22        2PX         0.01027   0.01641  -0.01253  -0.03210   0.00050
  23        2PY         0.01783   0.02850  -0.03205  -0.04973   0.00096
  24        2PZ        -0.00054  -0.00087  -0.00039  -0.00059   0.06426
  25        3S         -0.02601  -0.03952   0.04891   0.08512   0.00201
  26        3PX         0.01580   0.02447  -0.01845  -0.04591   0.00064
  27        3PY         0.02742   0.04247  -0.04568  -0.07153   0.00126
  28        3PZ        -0.00091  -0.00146  -0.00068  -0.00105   0.10279
  29        4S          0.00537   0.00394   0.02158   0.03800   0.00263
  30        4PX         0.00304   0.00629  -0.01322  -0.02128   0.00067
  31        4PY         0.00518   0.01078  -0.02127  -0.03779   0.00135
  32        4PZ        -0.00077  -0.00125  -0.00109  -0.00178   0.09608
  33 5   H  1S          0.00416   0.00682  -0.00164  -0.01256  -0.00047
  34        2S          0.00617   0.01024   0.00372  -0.02515   0.00001
  35        3S          0.00311   0.00454   0.00439  -0.01754   0.00011
  36 6   H  1S          0.00413   0.00677  -0.01005  -0.00767  -0.00048
  37        2S          0.00613   0.01020  -0.02358  -0.00932  -0.00002
  38        3S          0.00309   0.00452  -0.01730  -0.00502   0.00009
                           6         7         8         9        10
   6        3S          0.45239
   7        3PX        -0.00182   0.20287
   8        3PY        -0.00193  -0.00512   0.19665
   9        3PZ        -0.00056  -0.00018  -0.00041   0.16683
  10        4S          0.27247  -0.02682  -0.04827   0.00069   0.18135
  11        4PX        -0.00715   0.10859  -0.00995  -0.00106  -0.01566
  12        4PY        -0.01273  -0.01008   0.09812  -0.00183  -0.02906
  13        4PZ         0.00140  -0.00115  -0.00195   0.15439   0.00225
  14 2   H  1S          0.08854   0.05683  -0.09830  -0.00215   0.06957
  15        2S          0.09894   0.07922  -0.13614  -0.00166   0.08202
  16        3S          0.00620   0.03291  -0.05048  -0.00007   0.01129
  17 3   H  1S          0.09029  -0.11402  -0.00111  -0.00233   0.06967
  18        2S          0.10011  -0.15669  -0.00076  -0.00185   0.08109
  19        3S          0.00623  -0.05919   0.00301  -0.00013   0.01050
  20 4   C  1S         -0.02640  -0.01706  -0.02964  -0.00069   0.00505
  21        2S         -0.03992  -0.02653  -0.04613  -0.00112   0.00379
  22        2PX        -0.04594  -0.01780  -0.04558   0.00086  -0.01700
  23        2PY        -0.07978  -0.04551  -0.07079   0.00165  -0.02930
  24        2PZ         0.00260  -0.00053  -0.00079   0.10342   0.00254
  25        3S          0.10143   0.07206   0.12557   0.00336   0.00085
  26        3PX        -0.06619  -0.02633  -0.06501   0.00111  -0.02510
  27        3PY        -0.11488  -0.06468  -0.10177   0.00217  -0.04322
  28        3PZ         0.00430  -0.00095  -0.00142   0.16542   0.00422
  29        4S          0.00207   0.03276   0.05784   0.00437  -0.03210
  30        4PX        -0.02232  -0.01967  -0.02992   0.00111  -0.00601
  31        4PY        -0.03841  -0.02994  -0.05442   0.00223  -0.00980
  32        4PZ         0.00367  -0.00154  -0.00247   0.15462   0.00395
  33 5   H  1S         -0.02026  -0.00053  -0.01784  -0.00069  -0.01412
  34        2S         -0.03059   0.00891  -0.03676   0.00011  -0.01819
  35        3S         -0.01164   0.00831  -0.02631   0.00020  -0.00304
  36 6   H  1S         -0.02010  -0.01506  -0.00924  -0.00070  -0.01438
  37        2S         -0.03049  -0.03602  -0.01044   0.00006  -0.01891
  38        3S         -0.01163  -0.02671  -0.00594   0.00016  -0.00350
                          11        12        13        14        15
  11        4PX         0.05918
  12        4PY        -0.00863   0.05049
  13        4PZ        -0.00149  -0.00253   0.14291
  14 2   H  1S          0.03333  -0.05376  -0.00111   0.08167
  15        2S          0.04737  -0.07426  -0.00041   0.10948   0.14875
  16        3S          0.02024  -0.02735   0.00021   0.03625   0.05145
  17 3   H  1S         -0.06273   0.00168  -0.00119  -0.01336  -0.02434
  18        2S         -0.08656   0.00367  -0.00050  -0.02429  -0.04133
  19        3S         -0.03295   0.00395   0.00019  -0.01758  -0.02625
  20 4   C  1S         -0.00325  -0.00588  -0.00062   0.00424   0.00683
  21        2S         -0.00668  -0.01196  -0.00100   0.00703   0.01142
  22        2PX        -0.01346  -0.01969   0.00116   0.00182  -0.00250
  23        2PY        -0.01969  -0.03672   0.00216   0.01123   0.02404
  24        2PZ        -0.00084  -0.00135   0.09572  -0.00063  -0.00021
  25        3S          0.02354   0.04193   0.00292  -0.02123  -0.03440
  26        3PX        -0.02073  -0.02794   0.00157   0.00116  -0.00667
  27        3PY        -0.02787  -0.05369   0.00295   0.01692   0.03625
  28        3PZ        -0.00138  -0.00222   0.15311  -0.00092  -0.00023
  29        4S          0.00880   0.01646   0.00396  -0.01839  -0.02541
  30        4PX        -0.01505  -0.01239   0.00137  -0.00150  -0.00804
  31        4PY        -0.01246  -0.02976   0.00264   0.01524   0.02722
  32        4PZ        -0.00165  -0.00273   0.14313  -0.00053   0.00027
  33 5   H  1S          0.00228  -0.01589  -0.00034   0.01117   0.02310
  34        2S          0.00962  -0.02758   0.00051   0.02382   0.04415
  35        3S          0.00771  -0.01583   0.00036   0.01673   0.02783
  36 6   H  1S         -0.01470  -0.00558  -0.00035  -0.00912  -0.01804
  37        2S         -0.02835  -0.00486   0.00048  -0.01893  -0.03411
  38        3S         -0.01729  -0.00101   0.00034  -0.01025  -0.01768
                          16        17        18        19        20
  16        3S          0.02040
  17 3   H  1S         -0.01768   0.08262
  18        2S         -0.02629   0.10965   0.14756
  19        3S         -0.01219   0.03574   0.05031   0.01975
  20 4   C  1S          0.00382   0.00430   0.00682   0.00380   0.65949
  21        2S          0.00564   0.00711   0.01137   0.00559   0.56159
  22        2PX        -0.00324   0.00888   0.02205   0.01664   0.00120
  23        2PY         0.01764   0.00732   0.00978   0.00585   0.00191
  24        2PZ         0.00002  -0.00062  -0.00017   0.00005   0.00009
  25        3S         -0.01466  -0.02138  -0.03415  -0.01441  -0.08935
  26        3PX        -0.00652   0.01418   0.03474   0.02597  -0.00049
  27        3PY         0.02662   0.00955   0.01214   0.00741  -0.00101
  28        3PZ         0.00005  -0.00091  -0.00016   0.00010   0.00019
  29        4S         -0.00637  -0.01809  -0.02452  -0.00587  -0.08024
  30        4PX        -0.00675   0.01401   0.02759   0.01708  -0.00016
  31        4PY         0.01603   0.00662   0.00688   0.00217  -0.00016
  32        4PZ         0.00027  -0.00052   0.00030   0.00030  -0.00002
  33 5   H  1S          0.01601  -0.00904  -0.01792  -0.00921  -0.02002
  34        2S          0.02713  -0.01871  -0.03369  -0.01666  -0.02202
  35        3S          0.01454  -0.01015  -0.01746  -0.00886   0.00061
  36 6   H  1S         -0.00932   0.01118   0.02303   0.01577  -0.01981
  37        2S         -0.01695   0.02378   0.04396   0.02678  -0.02199
  38        3S         -0.00901   0.01668   0.02763   0.01434   0.00052
                          21        22        23        24        25
  21        2S          0.49209
  22        2PX         0.00173   0.08264
  23        2PY         0.00272   0.00369   0.08748
  24        2PZ         0.00013   0.00015   0.00021   0.06415
  25        3S         -0.15438  -0.00555  -0.00881  -0.00018   0.45415
  26        3PX        -0.00073   0.12847   0.00202   0.00008  -0.00025
  27        3PY        -0.00153   0.00205   0.13134   0.00007   0.00044
  28        3PZ         0.00032   0.00022   0.00033   0.10261  -0.00066
  29        4S         -0.11600   0.01305   0.02210   0.00076   0.27933
  30        4PX        -0.00137   0.07381  -0.00526   0.00044   0.00589
  31        4PY        -0.00216  -0.00520   0.06768   0.00082   0.00959
  32        4PZ        -0.00011   0.00084   0.00150   0.09590   0.00070
  33 5   H  1S         -0.03189  -0.03325   0.06365  -0.00133   0.08529
  34        2S         -0.03519  -0.04992   0.08852  -0.00105   0.09413
  35        3S         -0.00057  -0.02305   0.03357  -0.00010   0.00549
  36 6   H  1S         -0.03157   0.07121   0.00281  -0.00122   0.08444
  37        2S         -0.03516   0.10143   0.00066  -0.00089   0.09404
  38        3S         -0.00069   0.04077  -0.00340  -0.00004   0.00575
                          26        27        28        29        30
  26        3PX         0.20004
  27        3PY        -0.00215   0.19777
  28        3PZ         0.00011   0.00010   0.16414
  29        4S          0.02438   0.04109   0.00097   0.18684
  30        4PX         0.11538  -0.01078   0.00069   0.01498   0.06764
  31        4PY        -0.01072   0.10246   0.00130   0.02438  -0.01072
  32        4PZ         0.00106   0.00191   0.15340   0.00215   0.00115
  33 5   H  1S         -0.05300   0.09984  -0.00220   0.06653  -0.03473
  34        2S         -0.08001   0.13836  -0.00176   0.07646  -0.05277
  35        3S         -0.03739   0.05180  -0.00015   0.00893  -0.02475
  36 6   H  1S          0.11245   0.00378  -0.00203   0.06678   0.06629
  37        2S          0.15997  -0.00050  -0.00152   0.07770   0.09480
  38        3S          0.06398  -0.00673  -0.00007   0.00972   0.03830
                          31        32        33        34        35
  31        4PY         0.05462
  32        4PZ         0.00218   0.14339
  33 5   H  1S          0.05630  -0.00114   0.08074
  34        2S          0.07820  -0.00047   0.11004   0.15249
  35        3S          0.02945   0.00018   0.03828   0.05566   0.02317
  36 6   H  1S         -0.00197  -0.00106  -0.01232  -0.02625  -0.02029
  37        2S         -0.00665  -0.00037  -0.02632  -0.04914  -0.03231
  38        3S         -0.00672   0.00021  -0.02044  -0.03239  -0.01607
                          36        37        38
  36 6   H  1S          0.08004
  37        2S          0.10978   0.15304
  38        3S          0.03847   0.05619   0.02346
    Full Mulliken population analysis:
                           1         2         3         4         5
   1 1   C  1S          0.65939
   2        2S          0.49324   0.49198
   3        2PX         0.00000   0.00000   0.08454
   4        2PY         0.00000   0.00000   0.00000   0.08787
   5        2PZ         0.00000   0.00000   0.00000   0.00000   0.06441
   6        3S         -0.02926  -0.06440   0.00000   0.00000   0.00000
   7        3PX         0.00000   0.00000   0.08233   0.00000   0.00000
   8        3PY         0.00000   0.00000   0.00000   0.08260   0.00000
   9        3PZ         0.00000   0.00000   0.00000   0.00000   0.06522
  10        4S         -0.01218  -0.02134   0.00000   0.00000   0.00000
  11        4PX         0.00000   0.00000   0.01538   0.00000   0.00000
  12        4PY         0.00000   0.00000   0.00000   0.01437   0.00000
  13        4PZ         0.00000   0.00000   0.00000   0.00000   0.02113
  14 2   H  1S         -0.00024  -0.00035   0.00192   0.00568   0.00000
  15        2S         -0.00170  -0.00326   0.00444   0.01313   0.00001
  16        3S          0.00004  -0.00007   0.00070   0.00188   0.00000
  17 3   H  1S         -0.00026  -0.00038   0.00799  -0.00000   0.00000
  18        2S         -0.00176  -0.00337   0.01774  -0.00000   0.00001
  19        3S          0.00005  -0.00007   0.00253   0.00000   0.00000
  20 4   C  1S          0.00000   0.00000  -0.00002  -0.00006   0.00000
  21        2S          0.00000  -0.00000  -0.00002  -0.00005   0.00000
  22        2PX        -0.00002  -0.00002   0.00011   0.00084   0.00000
  23        2PY        -0.00006  -0.00005   0.00084   0.00195   0.00000
  24        2PZ        -0.00000  -0.00000  -0.00000  -0.00000   0.00041
  25        3S         -0.00058  -0.00098   0.00254   0.00766  -0.00000
  26        3PX        -0.00053  -0.00097   0.00020   0.00553   0.00000
  27        3PY        -0.00160  -0.00293   0.00551   0.01071   0.00000
  28        3PZ        -0.00000  -0.00000  -0.00000  -0.00000   0.00607
  29        4S          0.00034   0.00030   0.00098   0.00298  -0.00000
  30        4PX        -0.00018  -0.00045  -0.00071   0.00148   0.00000
  31        4PY        -0.00052  -0.00133   0.00147   0.00099   0.00000
  32        4PZ        -0.00000  -0.00000  -0.00000  -0.00000   0.00902
  33 5   H  1S          0.00000   0.00000  -0.00000  -0.00000   0.00000
  34        2S          0.00001   0.00002   0.00000  -0.00031  -0.00000
  35        3S          0.00007   0.00012   0.00002  -0.00070  -0.00000
  36 6   H  1S          0.00000   0.00000  -0.00000  -0.00000   0.00000
  37        2S          0.00001   0.00002  -0.00023  -0.00006   0.00000
  38        3S          0.00007   0.00012  -0.00056  -0.00011  -0.00000
                           6         7         8         9        10
   6        3S          0.45239
   7        3PX         0.00000   0.20287
   8        3PY         0.00000   0.00000   0.19665
   9        3PZ         0.00000   0.00000   0.00000   0.16683
  10        4S          0.21108   0.00000   0.00000   0.00000   0.18135
  11        4PX         0.00000   0.07096   0.00000   0.00000   0.00000
  12        4PY         0.00000   0.00000   0.06412   0.00000   0.00000
  13        4PZ         0.00000   0.00000   0.00000   0.10089   0.00000
  14 2   H  1S          0.01645   0.01131   0.03227   0.00003   0.01848
  15        2S          0.04192   0.02011   0.05699   0.00002   0.04744
  16        3S          0.00286   0.00397   0.01003   0.00000   0.00854
  17 3   H  1S          0.01721   0.04451  -0.00000   0.00003   0.01868
  18        2S          0.04302   0.07713  -0.00000   0.00003   0.04725
  19        3S          0.00289   0.01372   0.00001   0.00000   0.00797
  20 4   C  1S         -0.00059  -0.00057  -0.00173   0.00000   0.00032
  21        2S         -0.00099  -0.00106  -0.00318   0.00000   0.00029
  22        2PX         0.00239   0.00019   0.00549   0.00000   0.00077
  23        2PY         0.00718   0.00549   0.01060   0.00000   0.00230
  24        2PZ         0.00000  -0.00000  -0.00000   0.00610   0.00000
  25        3S          0.02154   0.01347   0.04066  -0.00000   0.00032
  26        3PX         0.01238  -0.00126   0.01853   0.00000   0.00387
  27        3PY         0.03720   0.01843   0.02861   0.00000   0.01153
  28        3PZ         0.00000  -0.00000  -0.00000   0.03513   0.00000
  29        4S          0.00078   0.00505   0.01543  -0.00000  -0.02013
  30        4PX         0.00627  -0.00402   0.00593   0.00000   0.00182
  31        4PY         0.01868   0.00593   0.00131   0.00000   0.00514
  32        4PZ         0.00000  -0.00000  -0.00000   0.04932   0.00000
  33 5   H  1S         -0.00005  -0.00000  -0.00018   0.00000  -0.00074
  34        2S         -0.00115   0.00007  -0.00315  -0.00000  -0.00301
  35        3S         -0.00187   0.00012  -0.00420  -0.00000  -0.00109
  36 6   H  1S         -0.00005  -0.00012  -0.00005   0.00000  -0.00075
  37        2S         -0.00112  -0.00250  -0.00050  -0.00000  -0.00310
  38        3S         -0.00186  -0.00349  -0.00054  -0.00000  -0.00124
                          11        12        13        14        15
  11        4PX         0.05918
  12        4PY         0.00000   0.05049
  13        4PZ         0.00000   0.00000   0.14291
  14 2   H  1S          0.00647   0.01721   0.00001   0.08167
  15        2S          0.01546   0.03998   0.00001   0.07733   0.14875
  16        3S          0.00517   0.01152  -0.00000   0.01355   0.04059
  17 3   H  1S          0.02350   0.00001   0.00001  -0.00001  -0.00062
  18        2S          0.05442   0.00002   0.00001  -0.00062  -0.00507
  19        3S          0.01616   0.00002  -0.00000  -0.00194  -0.00757
  20 4   C  1S         -0.00019  -0.00059   0.00000   0.00000   0.00002
  21        2S         -0.00047  -0.00147   0.00000   0.00000   0.00003
  22        2PX        -0.00073   0.00136   0.00000  -0.00000   0.00000
  23        2PY         0.00137   0.00096   0.00000  -0.00000  -0.00037
  24        2PZ        -0.00000  -0.00000   0.00899   0.00000   0.00000
  25        3S          0.00661   0.02039  -0.00000  -0.00008  -0.00157
  26        3PX        -0.00424   0.00554   0.00000  -0.00000   0.00003
  27        3PY         0.00552   0.00130   0.00000  -0.00024  -0.00367
  28        3PZ        -0.00000  -0.00000   0.04884   0.00000   0.00000
  29        4S          0.00267   0.00864  -0.00000  -0.00110  -0.00465
  30        4PX        -0.00724   0.00314   0.00000   0.00001   0.00015
  31        4PY         0.00316  -0.00560   0.00000  -0.00246  -0.01040
  32        4PZ        -0.00000  -0.00000   0.08977   0.00000  -0.00000
  33 5   H  1S          0.00003  -0.00232   0.00000   0.00000   0.00000
  34        2S          0.00030  -0.00979  -0.00000   0.00000   0.00016
  35        3S          0.00031  -0.00727  -0.00000   0.00024   0.00147
  36 6   H  1S         -0.00175  -0.00046   0.00000  -0.00000  -0.00004
  37        2S         -0.00823  -0.00098  -0.00000  -0.00004  -0.00093
  38        3S         -0.00652  -0.00027  -0.00000  -0.00047  -0.00248
                          16        17        18        19        20
  16        3S          0.02040
  17 3   H  1S         -0.00195   0.08262
  18        2S         -0.00758   0.07745   0.14756
  19        3S         -0.00629   0.01336   0.03969   0.01975
  20 4   C  1S          0.00010   0.00000   0.00002   0.00010   0.65949
  21        2S          0.00017   0.00000   0.00003   0.00017   0.49332
  22        2PX         0.00001  -0.00000  -0.00029  -0.00059   0.00000
  23        2PY        -0.00075  -0.00000  -0.00008  -0.00014   0.00000
  24        2PZ        -0.00000   0.00000   0.00000  -0.00000   0.00000
  25        3S         -0.00257  -0.00008  -0.00156  -0.00252  -0.02941
  26        3PX         0.00005  -0.00017  -0.00294  -0.00367   0.00000
  27        3PY        -0.00450  -0.00007  -0.00068  -0.00069   0.00000
  28        3PZ        -0.00000   0.00000   0.00000  -0.00000   0.00000
  29        4S         -0.00242  -0.00108  -0.00449  -0.00223  -0.01234
  30        4PX         0.00016  -0.00190  -0.00882  -0.00678   0.00000
  31        4PY        -0.00760  -0.00059  -0.00144  -0.00057   0.00000
  32        4PZ        -0.00000   0.00000  -0.00000  -0.00000   0.00000
  33 5   H  1S          0.00023  -0.00000  -0.00004  -0.00042  -0.00021
  34        2S          0.00144  -0.00004  -0.00090  -0.00232  -0.00157
  35        3S          0.00246  -0.00046  -0.00243  -0.00283   0.00005
  36 6   H  1S         -0.00043   0.00000   0.00000   0.00022  -0.00020
  37        2S         -0.00237   0.00000   0.00015   0.00141  -0.00154
  38        3S         -0.00289   0.00023   0.00145   0.00242   0.00004
                          21        22        23        24        25
  21        2S          0.49209
  22        2PX         0.00000   0.08264
  23        2PY         0.00000   0.00000   0.08748
  24        2PZ         0.00000   0.00000   0.00000   0.06415
  25        3S         -0.06465   0.00000   0.00000   0.00000   0.45415
  26        3PX         0.00000   0.08082   0.00000   0.00000   0.00000
  27        3PY         0.00000   0.00000   0.08263   0.00000   0.00000
  28        3PZ         0.00000   0.00000   0.00000   0.06455   0.00000
  29        4S         -0.02171   0.00000   0.00000   0.00000   0.21640
  30        4PX         0.00000   0.01626   0.00000   0.00000   0.00000
  31        4PY         0.00000   0.00000   0.01490   0.00000   0.00000
  32        4PZ         0.00000   0.00000   0.00000   0.02112   0.00000
  33 5   H  1S         -0.00030   0.00144   0.00568   0.00000   0.01528
  34        2S         -0.00301   0.00375   0.01372   0.00001   0.03907
  35        3S         -0.00005   0.00067   0.00202   0.00000   0.00251
  36 6   H  1S         -0.00028   0.00683   0.00002   0.00000   0.01484
  37        2S         -0.00295   0.01727   0.00001   0.00000   0.03861
  38        3S         -0.00006   0.00272  -0.00002   0.00000   0.00262
                          26        27        28        29        30
  26        3PX         0.20004
  27        3PY         0.00000   0.19777
  28        3PZ         0.00000   0.00000   0.16414
  29        4S          0.00000   0.00000   0.00000   0.18684
  30        4PX         0.07539   0.00000   0.00000   0.00000   0.06764
  31        4PY         0.00000   0.06695   0.00000   0.00000   0.00000
  32        4PZ         0.00000   0.00000   0.10024   0.00000   0.00000
  33 5   H  1S          0.00866   0.03365   0.00003   0.01743   0.00566
  34        2S          0.01694   0.06044   0.00003   0.04375   0.01451
  35        3S          0.00380   0.01087   0.00000   0.00671   0.00535
  36 6   H  1S          0.04146   0.00010   0.00002   0.01737   0.02469
  37        2S          0.07711  -0.00002   0.00002   0.04422   0.05967
  38        3S          0.01490  -0.00011   0.00000   0.00728   0.01899
                          31        32        33        34        35
  31        4PY         0.05462
  32        4PZ         0.00000   0.14339
  33 5   H  1S          0.01894   0.00001   0.08074
  34        2S          0.04438   0.00001   0.07773   0.15249
  35        3S          0.01314  -0.00000   0.01430   0.04391   0.02317
  36 6   H  1S         -0.00005   0.00001  -0.00001  -0.00083  -0.00242
  37        2S         -0.00030   0.00001  -0.00083  -0.00691  -0.00995
  38        3S         -0.00024  -0.00000  -0.00244  -0.00998  -0.00866
                          36        37        38
  36 6   H  1S          0.08004
  37        2S          0.07755   0.15304
  38        3S          0.01437   0.04434   0.02346
     Gross orbital populations:
                           1
   1 1   C  1S          1.10434
   2        2S          0.88586
   3        2PX         0.22768
   4        2PY         0.23638
   5        2PZ         0.16627
   6        3S          0.79291
   7        3PX         0.56262
   8        3PY         0.55569
   9        3PZ         0.42360
  10        4S          0.50359
  11        4PX         0.25731
  12        4PY         0.21029
  13        4PZ         0.41255
  14 2   H  1S          0.27511
  15        2S          0.46571
  16        3S          0.08444
  17 3   H  1S          0.27801
  18        2S          0.46389
  19        3S          0.08183
  20 4   C  1S          1.10442
  21        2S          0.88584
  22        2PX         0.22192
  23        2PY         0.23567
  24        2PZ         0.16534
  25        3S          0.79264
  26        3PX         0.55147
  27        3PY         0.55673
  28        3PZ         0.41907
  29        4S          0.50701
  30        4PX         0.27704
  31        4PY         0.21851
  32        4PZ         0.41289
  33 5   H  1S          0.27226
  34        2S          0.46977
  35        3S          0.08937
  36 6   H  1S          0.27008
  37        2S          0.47084
  38        3S          0.09107
          Condensed to atoms (all electrons):
               1          2          3          4          5          6
     1  C    5.029153   0.388430   0.389067   0.601483  -0.034750  -0.034294
     2  H    0.388430   0.513769  -0.031633  -0.041656   0.005994  -0.009648
     3  H    0.389067  -0.031633   0.510917  -0.041059  -0.009452   0.005890
     4  C    0.601483  -0.041656  -0.041059   5.063391   0.383348   0.383027
     5  H   -0.034750   0.005994  -0.009452   0.383348   0.528299  -0.042036
     6  H   -0.034294  -0.009648   0.005890   0.383027  -0.042036   0.529049
 Mulliken charges:
               1
     1  C   -0.339088
     2  H    0.174743
     3  H    0.176269
     4  C   -0.348534
     5  H    0.168597
     6  H    0.168012
 Sum of Mulliken charges =   0.00000
 Mulliken charges with hydrogens summed into heavy atoms:
               1
     1  C    0.011924
     4  C   -0.011924
 Electronic spatial extent (au):  <R**2>=             83.7084
 Charge=              0.0000 electrons
 Dipole moment (field-independent basis, Debye):
    X=              0.0092    Y=              0.0280    Z=             -0.1116  Tot=              0.1154
 Quadrupole moment (field-independent basis, Debye-Ang):
   XX=            -12.2021   YY=            -12.2244   ZZ=            -15.6703
   XY=              0.0083   XZ=              0.0009   YZ=             -0.0021
 Traceless Quadrupole moment (field-independent basis, Debye-Ang):
   XX=              1.1635   YY=              1.1412   ZZ=             -2.3047
   XY=              0.0083   XZ=              0.0009   YZ=             -0.0021
 Octapole moment (field-independent basis, Debye-Ang**2):
  XXX=             -0.4266  YYY=             -0.0287  ZZZ=             -0.0566  XYY=              0.2835
  XXY=             -0.0383  XXZ=             -0.1460  XZZ=             -0.0985  YZZ=             -0.1058
  YYZ=             -0.1934  XYZ=             -0.0411
 Hexadecapole moment (field-independent basis, Debye-Ang**3):
 XXXX=            -34.2872 YYYY=            -55.2290 ZZZZ=            -17.8207 XXXY=             -7.2770
 XXXZ=              0.0289 YYYX=            -10.7044 YYYZ=              0.0351 ZZZX=              0.0300
 ZZZY=              0.0564 XXYY=            -16.1849 XXZZ=             -9.9229 YYZZ=            -13.6398
 XXYZ=              0.0140 YYXZ=             -0.0006 ZZXY=             -3.2080
 N-N= 3.306983616675D+01 E-N=-2.478509105360D+02  KE= 7.815541466101D+01
 Orbital energies and kinetic energies (alpha):
                                 1                 2
   1         O               -10.290455         15.978787
   2         O               -10.287759         15.979565
   3         O                -0.863776          1.536470
   4         O                -0.672610          1.272049
   5         O                -0.560207          0.943396
   6         O                -0.508789          1.285219
   7         O                -0.436622          1.044193
   8         O                -0.356602          1.038027
   9         V                 0.079416          1.182446
  10         V                 0.140946          0.589019
  11         V                 0.165026          0.593006
  12         V                 0.170335          0.678961
  13         V                 0.240688          0.583021
  14         V                 0.370132          0.847022
  15         V                 0.394090          0.934750
  16         V                 0.401632          0.792053
  17         V                 0.464151          1.197526
  18         V                 0.489538          1.412201
  19         V                 0.493988          1.303173
  20         V                 0.590925          1.651648
  21         V                 0.665924          1.573829
  22         V                 0.692238          2.146483
  23         V                 0.772373          2.375028
  24         V                 0.775871          2.370563
  25         V                 0.841526          1.084276
  26         V                 0.950626          3.416965
  27         V                 2.230620          3.930026
  28         V                 2.291453          4.024626
  29         V                 2.333049          4.307558
  30         V                 2.406938          4.518375
  31         V                 2.670964          6.300454
  32         V                 2.817630          6.305460
  33         V                 2.877795          6.142303
  34         V                 2.951513          6.225683
  35         V                 3.140501          6.819503
  36         V                 3.320593          6.402507
  37         V                23.353074         60.075143
  38         V                23.705000         60.202909
 Total kinetic energy from orbitals= 7.815541466101D+01
 Calling FoFJK, ICntrl=      2127 FMM=F ISym2X=0 I1Cent= 0 IOpClX= 0 NMat=1 NMatS=1 NMatT=0.
 -------------------------------------------------------------------
 Center     Atomic                   Forces (Hartrees/Bohr)
 Number     Number              X              Y              Z
 -------------------------------------------------------------------
      1        6           0.016107055    0.015372079   -0.004513767
      2        1          -0.009914224    0.002168958    0.002199679
      3        1           0.000986006   -0.006648659    0.002034906
      4        6           0.009548030    0.011346405   -0.004709341
      5        1           0.000445931   -0.014795539    0.002452068
      6        1          -0.017172798   -0.007443244    0.002536455
 -------------------------------------------------------------------
 Cartesian Forces:  Max     0.017172798 RMS     0.009120210

 GradGradGradGradGradGradGradGradGradGradGradGradGradGradGradGradGradGrad
 Berny optimization.
 Search for a local minimum.
 Step number   1 out of a maximum of    2
 All quantities printed in internal units (Hartrees-Bohrs-Radians)
 Second derivative matrix not updated -- first step.
 The second derivative matrix:
                          X1        Y1        Z1        X2        Y2
           X1           0.76656
           Y1           0.08923   0.85698
           Z1           0.00654   0.01013   0.16929
           X2          -0.17041   0.10047   0.00251   0.14755
           Y2           0.10581  -0.28382  -0.00877  -0.11969   0.27224
           Z2           0.00398  -0.01102  -0.05449  -0.00364   0.00901
           X3          -0.35569   0.00212  -0.00953   0.00021   0.00014
           Y3          -0.00319  -0.11121  -0.00229   0.03230   0.01952
           Z3          -0.01223  -0.00218  -0.05569   0.00181   0.00072
           X4          -0.26591  -0.17712  -0.00065   0.02267   0.01373
           Y4          -0.17731  -0.47035  -0.00104  -0.01309  -0.00793
           Z4           0.00167   0.00302  -0.09372  -0.00069  -0.00096
           X5           0.02357  -0.01361   0.00070  -0.00001   0.00000
           Y5           0.01140  -0.00658   0.00094   0.00001  -0.00000
           Z5          -0.00060   0.00039   0.01762   0.00029  -0.00015
           X6           0.00189  -0.00109   0.00043  -0.00001   0.00000
           Y6          -0.02595   0.01499   0.00104   0.00000  -0.00000
           Z6           0.00064  -0.00033   0.01699  -0.00029   0.00015
                          Z2        X3        Y3        Z3        X4
           Z2           0.02845
           X3          -0.00032   0.35571
           Y3           0.00196  -0.00239   0.07626
           Z3           0.01062   0.01036   0.00146   0.02924
           X4           0.00054  -0.00021  -0.02673  -0.00051   0.70732
           Y4          -0.00027   0.00012   0.01543   0.00033   0.12423
           Z4           0.01536  -0.00051  -0.00113   0.01588  -0.00591
           X5          -0.00028  -0.00001   0.00001   0.00028  -0.14319
           Y5           0.00018   0.00001  -0.00000  -0.00018   0.09052
           Z5           0.00920   0.00029  -0.00019  -0.00935  -0.00340
           X6          -0.00028  -0.00001   0.00001   0.00028  -0.32068
           Y6           0.00014   0.00000  -0.00000  -0.00014  -0.02462
           Z6          -0.00915  -0.00029   0.00019   0.00929   0.00993
                          Y4        Z4        X5        Y5        Z5
           Y4           0.85733
           Z4          -0.01131   0.17678
           X5           0.08176  -0.00225   0.12204
           Y5          -0.29020   0.00823  -0.10078   0.28103
           Z5           0.01017  -0.05752   0.00301  -0.00881   0.02984
           X6          -0.01572   0.00768  -0.00240  -0.00115   0.00040
           Y6          -0.10429   0.00215   0.03262   0.01576  -0.00141
           Z6           0.00213  -0.05678  -0.00147  -0.00036   0.01020
                          X6        Y6        Z6
           X6           0.32121
           Y6           0.01795   0.07354
           Z6          -0.00852  -0.00178   0.02944
 ITU=  0
     Eigenvalues ---    0.03705   0.04386   0.09168   0.10091   0.13510
     Eigenvalues ---    0.17491   0.26269   0.29199   0.53001   0.70147
     Eigenvalues ---    0.98095   1.55637
 Angle between quadratic step and forces=  36.32 degrees.
 Linear search not attempted -- first point.
 B after Tr=     0.008238    0.010553   -0.011518
         Rot=    1.000000   -0.000092    0.000052   -0.000113 Ang=  -0.02 deg.
 Variable       Old X    -DE/DX   Delta X   Delta X   Delta X     New X
                                 (Linear)    (Quad)   (Total)
    X1       -0.63781   0.01611   0.00000   0.02469   0.03317  -0.60464
    Y1       -1.10370   0.01537   0.00000   0.03057   0.04099  -1.06271
    Z1        0.01440  -0.00451   0.00000  -0.02511  -0.03689  -0.02249
    X2        0.43227  -0.00991   0.00000  -0.04513  -0.03624   0.39602
    Y2       -2.86838   0.00217   0.00000   0.01019   0.02084  -2.84754
    Z2       -0.04812   0.00220   0.00000   0.03050   0.01849  -0.02963
    X3       -2.68374   0.00099   0.00000   0.02558   0.03407  -2.64967
    Y3       -1.08655  -0.00665   0.00000  -0.02607  -0.01611  -1.10266
    Z3       -0.05038   0.00203   0.00000   0.02985   0.01785  -0.03253
    X4        0.62815   0.00955   0.00000   0.00939   0.01739   0.64553
    Y4        1.08872   0.01135   0.00000   0.01315   0.02385   1.11257
    Z4        0.00924  -0.00471   0.00000  -0.02253  -0.03378  -0.02454
    X5       -0.28309   0.00045   0.00000  -0.02385  -0.01627  -0.29936
    Y5        2.96874  -0.01480   0.00000  -0.04694  -0.03645   2.93229
    Z5       -0.05503   0.00245   0.00000   0.02853   0.01752  -0.03751
    X6        2.72521  -0.01717   0.00000  -0.04008  -0.03211   2.69310
    Y6        1.24019  -0.00744   0.00000  -0.04428  -0.03311   1.20708
    Z6       -0.05257   0.00254   0.00000   0.02783   0.01681  -0.03576
         Item               Value     Threshold  Converged?
 Maximum Force            0.017173     0.000450     NO 
 RMS     Force            0.009120     0.000300     NO 
 Maximum Displacement     0.040988     0.001800     NO 
 RMS     Displacement     0.028178     0.001200     NO 
 Predicted change in Energy=-1.981957D-03
 GradGradGradGradGradGradGradGradGradGradGradGradGradGradGradGradGradGrad

 Unable to Open any file for archive entry.
 1\1\GINC-BHD0016\Force\RwB97XD\6-311G\C2H4\BWEIGHT\11-Jan-2023\0\\# WB
 97XD/6-311G SCF=XQC FORCE nosym pop=full guess=read\\MD Step 1000\\0,1
 \C,-0.33751241,-0.58405219,0.00761807\H,0.22874671,-1.5178815,-0.02546
 536\H,-1.42017398,-0.57497792,-0.0266576\C,0.33240148,0.57612732,0.004
 88989\H,-0.14980333,1.57099054,-0.02912221\H,1.44211646,0.65628255,-0.
 02781884\\Version=ES64L-G16RevC.01\HF=-78.5550841\RMSD=5.869e-09\RMSF=
 9.120e-03\Dipole=0.0036042,0.0110317,-0.0438975\Quadrupole=0.8650395,0
 .8484383,-1.7134778,0.0061686,0.0006881,-0.0015827\PG=C01 [X(C2H4)]\\@
 The archive entry for this job was punched.


 CLIMB THE MOUNTAINS AND GET THEIR GOOD TIDINGS.
 NATURE'S PEACE WILL FLOW INTO YOU AS SUNSHINE FLOWS INTO TREES.
 THE WINDS WILL BLOW THEIR OWN FRESHNESS INTO YOU, 
 AND CARES WILL DROP OFF LIKE AUTUMN LEAVES.

                                         -- JOHN MUIR
 Job cpu time:       0 days  0 hours  0 minutes 52.7 seconds.
 Elapsed time:       0 days  0 hours  0 minutes 22.2 seconds.
 File lengths (MBytes):  RWF=    272 Int=      0 D2E=      0 Chk=     32 Scr=     32
 Normal termination of Gaussian 16 at Wed Jan 11 18:36:53 2023.
