2
MD Step 0
Li  0.00000000 0.00000000 0.00000000
F  0.00000000 0.00000000 1.50000000
2
MD Step 1
Li  0.00208256 0.00208271 0.00214895
F  0.00125890 0.00125870 1.50123463
2
MD Step 2
Li  0.00416505 0.00416534 0.00442912
F  0.00251783 0.00251742 1.50242131
2
MD Step 3
Li  0.00624740 0.00624784 0.00683892
F  0.00377682 0.00377620 1.50356064
2
MD Step 4
Li  0.00832955 0.00833013 0.00937649
F  0.00503587 0.00503505 1.50465329
2
MD Step 5
Li  0.01041142 0.01041214 0.01203967
F  0.00629503 0.00629400 1.50570005
2
MD Step 6
Li  0.01249295 0.01249382 0.01482605
F  0.00755431 0.00755307 1.50670179
2
MD Step 7
Li  0.01457409 0.01457511 0.01773291
F  0.00881373 0.00881229 1.50765952
2
MD Step 8
Li  0.01665478 0.01665595 0.02075722
F  0.01007332 0.01007167 1.50857434
2
MD Step 9
Li  0.01873498 0.01873629 0.02389568
F  0.01133309 0.01133123 1.50944746
2
MD Step 10
Li  0.02081463 0.02081608 0.02714465
F  0.01259305 0.01259100 1.51028020
2
MD Step 11
Li  0.02289370 0.02289530 0.03050019
F  0.01385324 0.01385097 1.51107400
2
MD Step 12
Li  0.02497215 0.02497389 0.03395801
F  0.01511364 0.01511117 1.51183044
2
MD Step 13
Li  0.02704996 0.02705185 0.03751351
F  0.01637428 0.01637161 1.51255119
2
MD Step 14
Li  0.02912711 0.02912914 0.04116175
F  0.01763516 0.01763228 1.51323806
2
MD Step 15
Li  0.03120358 0.03120576 0.04489743
F  0.01889629 0.01889321 1.51389298
2
MD Step 16
Li  0.03327938 0.03328170 0.04871490
F  0.02015767 0.02015438 1.51451802
2
MD Step 17
Li  0.03535451 0.03535697 0.05260817
F  0.02141929 0.02141579 1.51511537
2
MD Step 18
Li  0.03742898 0.03743158 0.05657085
F  0.02268115 0.02267745 1.51568736
2
MD Step 19
Li  0.03950283 0.03950557 0.06059622
F  0.02394323 0.02393933 1.51623644
2
MD Step 20
Li  0.04157609 0.04157897 0.06467719
F  0.02520554 0.02520143 1.51676521
2
MD Step 21
Li  0.04364881 0.04365184 0.06880628
F  0.02646803 0.02646372 1.51727641
2
MD Step 22
Li  0.04572106 0.04572423 0.07297566
F  0.02773071 0.02772619 1.51777287
2
MD Step 23
Li  0.04779292 0.04779622 0.07717716
F  0.02899352 0.02898880 1.51825761
2
MD Step 24
Li  0.04986446 0.04986791 0.08140224
F  0.03025645 0.03025152 1.51873373
2
MD Step 25
Li  0.05193581 0.05193940 0.08564203
F  0.03151945 0.03151432 1.51920448
2
MD Step 26
Li  0.05400707 0.05401080 0.08988733
F  0.03278248 0.03277715 1.51967322
2
MD Step 27
Li  0.05607839 0.05608226 0.09412866
F  0.03404550 0.03403996 1.52014340
2
MD Step 28
Li  0.05814992 0.05815393 0.09835626
F  0.03530843 0.03530269 1.52061860
2
MD Step 29
Li  0.06022182 0.06022597 0.10256012
F  0.03657123 0.03656528 1.52110248
2
MD Step 30
Li  0.06229427 0.06229856 0.10673002
F  0.03783383 0.03782768 1.52159876
2
MD Step 31
Li  0.06436747 0.06437191 0.11085558
F  0.03909615 0.03908980 1.52211124
2
MD Step 32
Li  0.06644164 0.06644622 0.11492629
F  0.04035812 0.04035156 1.52264376
2
MD Step 33
Li  0.06851700 0.06852172 0.11893157
F  0.04161966 0.04161289 1.52320018
2
MD Step 34
Li  0.07059380 0.07059866 0.12286084
F  0.04288067 0.04287370 1.52378438
2
MD Step 35
Li  0.07267228 0.07267729 0.12670357
F  0.04414106 0.04413389 1.52440019
2
MD Step 36
Li  0.07475271 0.07475786 0.13044932
F  0.04540075 0.04539336 1.52505143
2
MD Step 37
Li  0.07683537 0.07684067 0.13408788
F  0.04665961 0.04665202 1.52574184
2
MD Step 38
Li  0.07892054 0.07892598 0.13760927
F  0.04791757 0.04790977 1.52647505
2
MD Step 39
Li  0.08100850 0.08101409 0.14100389
F  0.04917450 0.04916649 1.52725458
2
MD Step 40
Li  0.08309955 0.08310529 0.14426253
F  0.05043030 0.05042209 1.52808378
2
MD Step 41
Li  0.08519397 0.08519986 0.14737651
F  0.05168487 0.05167645 1.52896584
2
MD Step 42
Li  0.08729205 0.08729810 0.15033771
F  0.05293811 0.05292948 1.52990372
2
MD Step 43
Li  0.08939408 0.08940028 0.15313869
F  0.05418990 0.05418106 1.53090013
2
MD Step 44
Li  0.09150033 0.09150669 0.15577272
F  0.05544015 0.05543110 1.53195754
2
MD Step 45
Li  0.09361106 0.09361757 0.15823391
F  0.05668876 0.05667950 1.53307809
2
MD Step 46
Li  0.09572652 0.09573319 0.16051719
F  0.05793565 0.05792618 1.53426364
2
MD Step 47
Li  0.09784693 0.09785377 0.16261844
F  0.05918072 0.05917104 1.53551570
2
MD Step 48
Li  0.09997251 0.09997951 0.16453449
F  0.06042391 0.06041402 1.53683542
2
MD Step 49
Li  0.10210343 0.10211060 0.16626316
F  0.06166514 0.06165504 1.53822359
2
MD Step 50
Li  0.10423986 0.10424720 0.16780332
F  0.06290437 0.06289405 1.53968064
2
MD Step 51
Li  0.10638191 0.10638942 0.16915485
F  0.06414154 0.06413100 1.54120660
2
MD Step 52
Li  0.10852969 0.10853737 0.17031868
F  0.06537662 0.06536586 1.54280114
2
MD Step 53
Li  0.11068325 0.11069110 0.17129674
F  0.06660958 0.06659861 1.54446355
2
MD Step 54
Li  0.11284262 0.11285065 0.17209201
F  0.06784043 0.06782924 1.54619274
2
MD Step 55
Li  0.11500779 0.11501600 0.17270840
F  0.06906915 0.06905774 1.54798729
2
MD Step 56
Li  0.11717871 0.11718711 0.17315077
F  0.07029577 0.07028414 1.54984541
2
MD Step 57
Li  0.11935531 0.11936390 0.17342484
F  0.07152032 0.07150847 1.55176501
2
MD Step 58
Li  0.12153746 0.12154624 0.17353717
F  0.07274284 0.07273077 1.55374372
2
MD Step 59
Li  0.12372502 0.12373399 0.17349504
F  0.07396338 0.07395109 1.55577885
2
MD Step 60
Li  0.12591780 0.12592696 0.17330643
F  0.07518202 0.07516950 1.55786750
2
MD Step 61
Li  0.12811558 0.12812493 0.17297989
F  0.07639883 0.07638609 1.56000653
2
MD Step 62
Li  0.13031810 0.13032766 0.17252453
F  0.07761390 0.07760094 1.56219264
2
MD Step 63
Li  0.13252510 0.13253486 0.17194986
F  0.07882734 0.07881415 1.56442234
2
MD Step 64
Li  0.13473627 0.13474623 0.17126577
F  0.08003926 0.08002585 1.56669200
2
MD Step 65
Li  0.13695128 0.13696144 0.17048243
F  0.08124978 0.08123613 1.56899793
2
MD Step 66
Li  0.13916979 0.13918015 0.16961022
F  0.08245901 0.08244514 1.57133633
2
MD Step 67
Li  0.14139142 0.14140199 0.16865964
F  0.08366711 0.08365301 1.57370337
2
MD Step 68
Li  0.14361580 0.14362657 0.16764126
F  0.08487420 0.08485987 1.57609517
2
MD Step 69
Li  0.14584253 0.14585351 0.16656565
F  0.08608044 0.08606588 1.57850788
2
MD Step 70
Li  0.14807119 0.14808238 0.16544333
F  0.08728596 0.08727117 1.58093765
2
MD Step 71
Li  0.15030139 0.15031279 0.16428470
F  0.08849093 0.08847591 1.58338069
2
MD Step 72
Li  0.15253269 0.15254430 0.16309999
F  0.08969549 0.08968024 1.58583326
2
MD Step 73
Li  0.15476468 0.15477650 0.16189925
F  0.09089980 0.09088433 1.58829169
2
MD Step 74
Li  0.15699692 0.15700895 0.16069229
F  0.09210402 0.09208832 1.59075239
2
MD Step 75
Li  0.15922900 0.15924124 0.15948864
F  0.09330830 0.09329237 1.59321188
2
MD Step 76
Li  0.16146048 0.16147293 0.15829753
F  0.09451280 0.09449663 1.59566678
2
MD Step 77
Li  0.16369095 0.16370361 0.15712791
F  0.09571766 0.09570127 1.59811384
2
MD Step 78
Li  0.16592000 0.16593287 0.15598835
F  0.09692305 0.09690643 1.60054992
2
MD Step 79
Li  0.16814721 0.16816029 0.15488710
F  0.09812910 0.09811225 1.60297199
2
MD Step 80
Li  0.17037219 0.17038547 0.15383206
F  0.09933598 0.09931890 1.60537719
2
MD Step 81
Li  0.17259454 0.17260803 0.15283075
F  0.10054381 0.10052650 1.60776275
2
MD Step 82
Li  0.17481388 0.17482758 0.15189034
F  0.10175274 0.10173521 1.61012607
2
MD Step 83
Li  0.17702984 0.17704374 0.15101762
F  0.10296291 0.10294515 1.61246465
2
MD Step 84
Li  0.17924206 0.17925616 0.15021903
F  0.10417445 0.10415646 1.61477615
2
MD Step 85
Li  0.18145017 0.18146448 0.14950064
F  0.10538748 0.10536926 1.61705836
2
MD Step 86
Li  0.18365386 0.18366836 0.14886815
F  0.10660213 0.10658369 1.61930917
2
MD Step 87
Li  0.18585278 0.18586747 0.14832693
F  0.10781852 0.10779986 1.62152665
2
MD Step 88
Li  0.18804662 0.18806151 0.14788198
F  0.10903677 0.10901788 1.62370895
2
MD Step 89
Li  0.19023508 0.19025016 0.14753796
F  0.11025699 0.11023788 1.62585437
2
MD Step 90
Li  0.19241787 0.19243314 0.14729922
F  0.11147927 0.11145994 1.62796134
2
MD Step 91
Li  0.19459472 0.19461017 0.14716976
F  0.11270373 0.11268418 1.63002837
2
MD Step 92
Li  0.19676535 0.19678099 0.14715327
F  0.11393046 0.11391068 1.63205414
2
MD Step 93
Li  0.19892952 0.19894534 0.14725312
F  0.11515954 0.11513955 1.63403740
2
MD Step 94
Li  0.20108700 0.20110300 0.14747239
F  0.11639108 0.11637087 1.63597703
2
MD Step 95
Li  0.20323755 0.20325373 0.14781384
F  0.11762514 0.11760472 1.63787202
2
MD Step 96
Li  0.20538098 0.20539732 0.14827995
F  0.11886181 0.11884117 1.63972147
2
MD Step 97
Li  0.20751707 0.20753359 0.14887293
F  0.12010116 0.12008030 1.64152457
2
MD Step 98
Li  0.20964566 0.20966234 0.14959468
F  0.12134325 0.12132218 1.64328062
2
MD Step 99
Li  0.21176657 0.21178341 0.15044685
F  0.12258814 0.12256686 1.64498902
2
MD Step 100
Li  0.21387965 0.21389665 0.15143080
F  0.12383589 0.12381440 1.64664928
2
MD Step 101
Li  0.21598476 0.21600192 0.15254764
F  0.12508656 0.12506486 1.64826099
2
MD Step 102
Li  0.21808177 0.21809909 0.15379819
F  0.12634018 0.12631827 1.64982384
2
MD Step 103
Li  0.22017059 0.22018805 0.15518304
F  0.12759680 0.12757469 1.65133763
2
MD Step 104
Li  0.22225110 0.22226871 0.15670251
F  0.12885646 0.12883413 1.65280224
2
MD Step 105
Li  0.22432324 0.22434099 0.15835664
F  0.13011917 0.13009664 1.65421765
2
MD Step 106
Li  0.22638694 0.22640483 0.16014524
F  0.13138496 0.13136223 1.65558393
2
MD Step 107
Li  0.22844216 0.22846018 0.16206784
F  0.13265386 0.13263092 1.65690125
2
MD Step 108
Li  0.23048886 0.23050701 0.16412372
F  0.13392586 0.13390273 1.65816988
2
MD Step 109
Li  0.23252704 0.23254532 0.16631189
F  0.13520098 0.13517765 1.65939018
2
MD Step 110
Li  0.23455671 0.23457511 0.16863110
F  0.13647921 0.13645568 1.66056261
