56
MD Step 0
C  5.00758906 -0.65379476 0.53551475
C  4.13049906 0.38860524 0.35547475
C  2.84571906 0.20286524 -0.21844525
C  2.50898906 -1.13132476 -0.56544525
C  3.37641906 -2.19835476 -0.39494525
C  4.65777906 -1.98787476 0.15730475
C  1.88090906 1.23798524 -0.41817525
C  0.33630906 -0.47165476 -1.25194525
C  0.63139906 0.90006524 -0.94565525
C  -0.42269094 1.83393524 -1.21544525
H  -0.24133094 2.88652524 -1.03392525
C  -1.64045094 1.43303524 -1.66930525
C  -1.93414094 0.04013524 -1.90676525
C  -0.87921094 -0.89466476 -1.71978525
H  5.97095906 -0.45228476 0.98590475
H  4.42173906 1.38437524 0.66948475
H  3.02535906 -3.18085476 -0.67969525
H  -2.41438094 2.17235524 -1.82023525
H  -1.02908094 -1.95407476 -1.86757525
N  -3.14942094 -0.34827476 -2.31952525
N  5.53186906 -3.02461476 0.33588475
P  -3.91690094 -0.67050476 1.35645475
C  2.19872906 2.64221524 -0.04131525
C  1.47229906 3.28191524 0.97675475
C  3.22673906 3.34471524 -0.69110525
C  1.77337906 4.59529524 1.33734475
H  0.68153906 2.74325524 1.49099475
C  3.51545906 4.66195524 -0.33550525
H  3.78618906 2.86175524 -1.48759525
C  2.79209906 5.28868524 0.68124475
H  1.20854906 5.07510524 2.13145475
H  4.30468906 5.19852524 -0.85479525
H  3.02090906 6.31341524 0.96022475
F  -2.70965094 -1.49495476 0.57668475
F  -2.90373094 -0.36288476 2.58644475
F  -3.40704094 0.71609524 0.60136475
F  -5.10762094 0.16383524 2.07179475
F  -4.40893094 -2.05028476 2.04869475
F  -4.89507094 -0.96469476 0.05771475
C  -4.25812094 0.61222524 -2.38645525
H  -5.16151094 0.07830524 -2.67440525
H  -4.41905094 1.05822524 -1.40351525
H  -4.05491094 1.38319524 -3.13861525
C  -3.45660094 -1.77667476 -2.44635525
H  -4.49267094 -1.88555476 -2.76122525
H  -2.81172094 -2.24018476 -3.20204525
H  -3.33128094 -2.26530476 -1.47762525
C  5.12942906 -4.38319476 -0.00692525
H  5.95831906 -5.06313476 0.19110475
H  4.26573906 -4.71219476 0.58605475
H  4.86959906 -4.46440476 -1.06982525
C  6.83155906 -2.79936476 0.95728475
H  6.73456906 -2.43050476 1.98700475
H  7.37929906 -3.74162476 0.98545475
H  7.42952906 -2.07907476 0.38553475
O  1.28851906 -1.43420476 -1.07825525
56
MD Step 1
C  5.01404926 -0.64810243 0.54070951
C  4.13697116 0.39450772 0.36069219
C  2.85202790 0.20882412 -0.21286633
C  2.51508051 -1.12543817 -0.55953975
C  3.38231771 -2.19264545 -0.38911675
C  4.66386456 -1.98212553 0.16278926
C  1.88739304 1.24404822 -0.41250283
C  0.34223960 -0.46548397 -1.24561425
C  0.63753655 0.90616419 -0.93966711
C  -0.41630215 1.84017614 -1.20929030
H  -0.21913532 2.90937737 -1.01229768
C  -1.63446120 1.43928922 -1.66284093
C  -1.92817126 0.04647471 -1.89991272
C  -0.87351503 -0.88856960 -1.71310241
H  5.99407199 -0.43084521 1.00681385
H  4.44429451 1.40680905 0.69032601
H  3.04617902 -3.16063184 -0.65839317
H  -2.39350225 2.19507570 -1.79833736
H  -1.00812676 -1.93355695 -1.84528539
N  -3.14430773 -0.34240369 -2.31284735
N  5.53743425 -3.01952159 0.34086146
P  -3.91271039 -0.66577177 1.36153933
C  2.20540422 2.64813109 -0.03603650
C  1.47928009 3.28818575 0.98218983
C  3.23342304 3.35044768 -0.68624644
C  1.78065701 4.60164989 1.34248604
H  0.70332577 2.76467155 1.51277286
C  3.52243414 4.66777851 -0.33092936
H  3.80867692 2.88229653 -1.46808620
C  2.79937573 5.29483203 0.68596182
H  1.23099648 5.09772353 2.15305433
H  4.32798309 5.22024119 -0.83555141
H  3.04416818 6.33619626 0.98052235
F  -2.70453851 -1.48953198 0.58258866
F  -2.89796371 -0.35695125 2.59242793
F  -3.40169301 0.72187927 0.60706513
F  -5.10216996 0.17005252 2.07819332
F  -4.40371793 -2.04442784 2.05529762
F  -4.89027135 -0.95899114 0.06402770
C  -4.25236457 0.61877353 -2.37915338
H  -5.14133017 0.09994719 -2.65155025
H  -4.39755095 1.08095505 -1.37963387
H  -4.03348261 1.40596081 -3.11675470
C  -3.45117044 -1.77033379 -2.43884592
H  -4.47288991 -1.86376526 -2.73824091
H  -2.79030367 -2.21903619 -3.17987359
H  -3.30996541 -2.24373872 -1.45345578
C  5.13514245 -4.37764246 -0.00115012
H  5.98036650 -5.04287697 0.21251332
H  4.28609548 -4.69124044 0.60824353
H  4.89020876 -4.44357453 -1.04955976
C  6.83779160 -2.79383697 0.96237454
H  6.75656045 -2.40881817 2.00869231
H  7.40153270 -3.72164871 1.00614771
H  7.45189185 -2.05736468 0.40528329
O  1.29348997 -1.42928050 -1.07289649
56
MD Step 2
C  5.02119955 -0.64228936 0.54622900
C  4.14363557 0.40110487 0.36613707
C  2.85834946 0.21495181 -0.20726443
C  2.52127631 -1.11955525 -0.55360956
C  3.38841520 -2.18652007 -0.38314447
C  4.67000498 -1.97623046 0.16830356
C  1.89403784 1.25024180 -0.40675704
C  0.34813798 -0.45906213 -1.23928302
C  0.64353503 0.91229659 -0.93373130
C  -0.40952380 1.84699414 -1.20293396
H  -0.19848004 2.92807356 -0.99186245
C  -1.62860310 1.44561219 -1.65639782
C  -1.92205130 0.05294713 -1.89304292
C  -0.86782101 -0.88208300 -1.70638150
H  6.01261185 -0.41099779 1.02536287
H  4.46480758 1.42471232 0.70932898
H  3.06322686 -3.14966917 -0.64003018
H  -2.37545515 2.21881857 -1.77736563
H  -0.98916086 -1.92180244 -1.82458968
N  -3.13935454 -0.33648990 -2.30626032
N  5.54323984 -3.01438181 0.34591888
P  -3.90851893 -0.66102068 1.36668566
C  2.21202617 2.65383967 -0.03083132
C  1.48631181 3.29462025 0.98768494
C  3.24017976 3.35632105 -0.68135650
C  1.78779357 4.60832154 1.34796515
H  0.72086823 2.78244513 1.53666374
C  3.52975891 4.67395060 -0.32648371
H  3.83323237 2.89965852 -1.45260369
C  2.80682822 5.30166475 0.69087754
H  1.25332280 5.11897702 2.17373065
H  4.35013048 5.24040153 -0.81630619
H  3.06620277 6.35465931 0.99944269
F  -2.69914458 -1.48430862 0.58831522
F  -2.89197279 -0.35095273 2.59867030
F  -3.39623199 0.72797752 0.61260377
F  -5.09699421 0.17645981 2.08474833
F  -4.39862212 -2.03890049 2.06205614
F  -4.88570544 -0.95336211 0.07004055
C  -4.24607580 0.62606392 -2.37127328
H  -5.12991137 0.11702079 -2.63175533
H  -4.37613812 1.10170129 -1.35856037
H  -4.01258827 1.42884125 -3.09640225
C  -3.44523632 -1.76395977 -2.43079434
H  -4.46131386 -1.84426022 -2.71821874
H  -2.76738947 -2.20062145 -3.16107141
H  -3.28939441 -2.22275206 -1.43015862
C  5.14132745 -4.37211987 0.00511008
H  6.00198079 -5.02395117 0.23322285
H  4.30253222 -4.67264855 0.63169802
H  4.90822449 -4.42464781 -1.03689124
C  6.84428223 -2.78779173 0.96786993
H  6.77760843 -2.38852192 2.02768558
H  7.42478755 -3.70523876 1.02627744
H  7.47305201 -2.03662261 0.42444209
O  1.29841191 -1.42472458 -1.06761640
56
MD Step 3
C  5.02934956 -0.63620692 0.55224695
C  4.15065468 0.40869577 0.37195578
C  2.86469978 0.22127763 -0.20163367
C  2.52754254 -1.11369657 -0.54767455
C  3.39485430 -2.17967537 -0.37692196
C  4.67626986 -1.97014151 0.17387650
C  1.90082486 1.25654961 -0.40094318
C  0.35400859 -0.45236639 -1.23295757
C  0.64943121 0.91846518 -0.92784415
C  -0.40223835 1.85466749 -1.19628010
H  -0.18094161 2.93824348 -0.97389145
C  -1.62281548 1.45217461 -1.64992257
C  -1.91587943 0.05955367 -1.88620031
C  -0.86203477 -0.87494859 -1.69956093
H  6.02221839 -0.39439530 1.03922990
H  4.48127002 1.43373407 0.72465699
H  3.07473577 -3.15180613 -0.62588270
H  -2.36059492 2.24223809 -1.75771510
H  -0.97329399 -1.92204084 -1.80617184
N  -3.13450585 -0.33042834 -2.29974539
N  5.54942588 -3.00907100 0.35112562
P  -3.90431405 -0.65623037 1.37191742
C  2.21859002 2.65934916 -0.02571115
C  1.49345933 3.30134598 0.99326820
C  3.24704341 3.36245162 -0.67638654
C  1.79477956 4.61551907 1.35394453
H  0.73316751 2.79523008 1.56270472
C  3.53759732 4.68068835 -0.32217443
H  3.85977766 2.91265344 -1.44195205
C  2.81455268 5.30949473 0.69609416
H  1.27633078 5.13669075 2.19114006
H  4.36869355 5.25662946 -0.79629004
H  3.08566249 6.36429515 1.01547918
F  -2.69347266 -1.47928553 0.59386503
F  -2.88577627 -0.34489730 2.60514757
F  -3.39066198 0.73437622 0.61798736
F  -5.09208585 0.18304770 2.09145092
F  -4.39364378 -2.03370214 2.06896543
F  -4.88137523 -0.94781126 0.07575296
C  -4.23882578 0.63459548 -2.36242834
H  -5.13112400 0.12770824 -2.61643450
H  -4.35494515 1.11817827 -1.34380191
H  -3.99322938 1.44999285 -3.07723205
C  -3.43841641 -1.75748203 -2.42181114
H  -4.46108349 -1.82850358 -2.70249561
H  -2.74371306 -2.18589544 -3.14635808
H  -3.27060978 -2.20209622 -1.41040735
C  5.14830550 -4.36660391 0.01222362
H  6.02101918 -5.00605440 0.25213738
H  4.31427074 -4.65742330 0.65570397
H  4.92238736 -4.40892847 -1.03466551
C  6.85123584 -2.78086875 0.97404663
H  6.79673872 -2.37141362 2.04036428
H  7.44815292 -3.69273893 1.04517016
H  7.49071755 -2.01911404 0.44330614
O  1.30331351 -1.42050874 -1.06239470
56
MD Step 4
C  5.03854161 -0.62975124 0.55881374
C  4.15811683 0.41731270 0.37821115
C  2.87110723 0.22782205 -0.19596405
C  2.53383416 -1.10787548 -0.54175765
C  3.40161225 -2.17229122 -0.37047547
C  4.68273118 -1.96381517 0.17953850
C  1.90772748 1.26294546 -0.39507154
C  0.35986597 -0.44539688 -1.22664272
C  0.65526933 0.92468155 -0.92199732
C  -0.39440894 1.86323668 -1.18928870
H  -0.16746795 2.93837393 -0.95909747
C  -1.61706274 1.45918024 -1.64336435
C  -1.90975165 0.06629974 -1.87942500
C  -0.85612514 -0.86733798 -1.69263557
H  6.02152011 -0.38199883 1.04750616
H  4.49264058 1.43250512 0.73545696
H  3.08093050 -3.16506941 -0.61563478
H  -2.34865249 2.26355306 -1.73965876
H  -0.96085204 -1.93232970 -1.79004702
N  -3.12971019 -0.32413070 -2.29328844
N  5.55610105 -3.00348986 0.35653598
P  -3.90008362 -0.65138105 1.37725578
C  2.22509764 2.66468638 -0.02068047
C  1.50063537 3.30837623 0.99906909
C  3.25414278 3.36886639 -0.67141739
C  1.80166788 4.62337850 1.36048844
H  0.74118908 2.80311128 1.58960563
C  3.54600585 4.68812115 -0.31794487
H  3.88698784 2.92123179 -1.43521854
C  2.82258730 5.31838464 0.70164523
H  1.30011061 5.14946113 2.20401539
H  4.38243447 5.26748541 -0.77547000
H  3.10185204 6.36345647 1.02791065
F  -2.68753184 -1.47445958 0.59924226
F  -2.87939526 -0.33879388 2.61183234
F  -3.38498921 0.74105638 0.62322485
F  -5.08743251 0.18980365 2.09828988
F  -4.38878102 -2.02882601 2.07601791
F  -4.87727791 -0.94234027 0.08117055
C  -4.23062905 0.64449813 -2.35253668
H  -5.14343271 0.13328262 -2.60535159
H  -4.33441105 1.12916636 -1.33672171
H  -3.97629926 1.46785478 -3.05907044
C  -3.43067939 -1.75089494 -2.41181053
H  -4.47045510 -1.81736226 -2.69096587
H  -2.72090771 -2.17505005 -3.13532766
H  -3.25445016 -2.18196364 -1.39581376
C  5.15616173 -4.36109928 0.02027174
H  6.03594721 -4.98920089 0.26836077
H  4.32186193 -4.64597644 0.67869589
H  4.93248061 -4.39732256 -1.04156239
C  6.85886099 -2.77293682 0.98106617
H  6.81296619 -2.35854763 2.04507695
H  7.47015117 -3.68330708 1.06217039
H  7.50339401 -2.00625826 0.46164267
O  1.30822312 -1.41659458 -1.05720973
56
MD Step 5
C  5.04854918 -0.62287826 0.56584955
C  4.16602250 0.42672089 0.38487291
C  2.87761208 0.23459419 -0.19024194
C  2.54010189 -1.10209703 -0.53588179
C  3.40853862 -2.16493017 -0.36392768
C  4.68945903 -1.95721711 0.18531949
C  1.91471442 1.26939546 -0.38915608
C  0.36573221 -0.43817910 -1.22034265
C  0.66109749 0.93096354 -0.91617943
C  -0.38608795 1.87249800 -1.18198385
H  -0.15826291 2.92994886 -0.94751882
C  -1.61130753 1.46681875 -1.63667261
C  -1.90374925 0.07319823 -1.87274863
C  -0.85011055 -0.85975030 -1.68563644
H  6.01220157 -0.37396571 1.05078923
H  4.49895018 1.42270393 0.74195933
H  3.08359566 -3.18282288 -0.60780236
H  -2.33911235 2.28101530 -1.72340075
H  -0.95157450 -1.94669698 -1.77581307
N  -3.12492189 -0.31753214 -2.28688272
N  5.56333405 -2.99756903 0.36218590
P  -3.89581520 -0.64645500 1.38271854
C  2.23155793 2.66990216 -0.01573522
C  1.50765231 3.31564024 1.00528725
C  3.26166844 3.37552718 -0.66661077
C  1.80857449 4.63193596 1.36753937
H  0.74729253 2.80726874 1.61506241
C  3.55491294 4.69626499 -0.31367722
H  3.91262856 2.92620737 -1.43030866
C  2.83090474 5.32814478 0.70748913
H  1.32396607 5.15689361 2.21246951
H  4.39159411 5.27270189 -0.75459231
H  3.11483968 6.35344697 1.03690548
F  -2.68133716 -1.46982353 0.60445463
F  -2.87285332 -0.33265192 2.61869515
F  -3.37922223 0.74799417 0.62832705
F  -5.08301789 0.19671240 2.10525195
F  -4.38403004 -2.02425930 2.08320346
F  -4.87340613 -0.93694885 0.08630456
C  -4.22189312 0.65554703 -2.34178319
H  -5.16078140 0.13742755 -2.59698349
H  -4.31518660 1.13464711 -1.33639183
H  -3.96241605 1.48152190 -3.04212200
C  -3.42231261 -1.74422831 -2.40098608
H  -4.48367152 -1.81114163 -2.68236448
H  -2.70112788 -2.16768575 -3.12677595
H  -3.24141827 -2.16303829 -1.38658219
C  5.16476216 -4.35560585 0.02905685
H  6.04621201 -4.97388314 0.28135653
H  4.32679583 -4.63823248 0.69861266
H  4.93918719 -4.39034393 -1.05267899
C  6.86731484 -2.76408002 0.98896914
H  6.82539382 -2.35013341 2.04227294
H  7.48909967 -3.67545205 1.07668244
H  7.51063186 -1.99836746 0.47862147
O  1.31316806 -1.41293465 -1.05203918
56
MD Step 6
C  5.05889639 -0.61561476 0.57314738
C  4.17427778 0.43643852 0.39181560
C  2.88426257 0.24158874 -0.18445217
C  2.54630304 -1.09636314 -0.53006646
C  3.41545241 -2.15822917 -0.35741718
C  4.69651366 -1.95032802 0.19124471
C  1.92175341 1.27586229 -0.38321265
C  0.37162957 -0.43076405 -1.21406299
C  0.66696500 0.93733182 -0.91037732
C  -0.37741449 1.88202093 -1.17445457
H  -0.15275468 2.91730139 -0.93847825
C  -1.60548977 1.47521717 -1.62979822
C  -1.89792746 0.08026783 -1.86619175
C  -0.84403344 -0.85274662 -1.67860045
H  5.99885940 -0.36959976 1.05116960
H  4.50132246 1.40892111 0.74549876
H  3.08494349 -3.19734784 -0.60067073
H  -2.33157440 2.29338158 -1.70910900
H  -0.94496711 -1.95821778 -1.76300764
N  -3.12010148 -0.31059289 -2.28052850
N  5.57115303 -2.99126895 0.36809242
P  -3.89149589 -0.64143714 1.38831973
C  2.23798658 2.67507557 -0.01086139
C  1.51431842 3.32304012 1.01211931
C  3.26980403 3.38237250 -0.66212635
C  1.81566305 4.64111900 1.37492176
H  0.75413634 2.80929262 1.63656186
C  3.56412487 4.70501704 -0.30920858
H  3.93431377 2.92873849 -1.42489729
C  2.83941063 5.33835122 0.71350928
H  1.34652432 5.15963418 2.21799511
H  4.39787166 5.27319277 -0.73506149
H  3.12550190 6.33838803 1.04355348
F  -2.67490960 -1.46536612 0.60951339
F  -2.86617600 -0.32648113 2.62570529
F  -3.37337190 0.75516164 0.63330619
F  -5.07882231 0.20375633 2.11232209
F  -4.37938530 -2.01998340 2.09050955
F  -4.86974832 -0.93163481 0.09117130
C  -4.21315317 0.66731259 -2.33052714
H  -5.17590680 0.14425368 -2.58946945
H  -4.29803709 1.13579428 -1.33971157
H  -3.95184066 1.49090416 -3.02700158
C  -3.41373298 -1.73751210 -2.38970199
H  -4.49385850 -1.80971079 -2.67503489
H  -2.68645186 -2.16310621 -3.11922666
H  -3.23162368 -2.14640828 -1.38150206
C  5.17383789 -4.35009738 0.03824482
H  6.05233308 -4.96105219 0.29101594
H  4.33086718 -4.63381575 0.71347450
H  4.94361536 -4.38814228 -1.06186599
C  6.87665216 -2.75454831 0.99766764
H  6.83330277 -2.34551453 2.03443166
H  7.50358503 -3.66770331 1.08825169
H  7.51307379 -1.99460383 0.49289855
O  1.31817413 -1.40947339 -1.04686057
56
MD Step 7
C  5.06892815 -0.60805503 0.58040195
C  4.18270616 0.44580521 0.39883501
C  2.89110749 0.24878283 -0.17858174
C  2.55241231 -1.09067922 -0.52432430
C  3.42221495 -2.15265058 -0.35104127
C  4.70393673 -1.94314877 0.19733010
C  1.92881483 1.28231115 -0.37725678
C  0.37757267 -0.42322479 -1.20781309
C  0.67292137 0.94380644 -0.90457700
C  -0.36859530 1.89121395 -1.16684257
H  -0.14971421 2.90689716 -0.93068803
C  -1.59952142 1.48440560 -1.62269836
C  -1.89230669 0.08752879 -1.85976250
C  -0.83794304 -0.84673089 -1.67155253
H  5.98829321 -0.36746383 1.05192650
H  4.50178980 1.39798092 0.74832741
H  3.08675569 -3.20274220 -0.59296145
H  -2.32597325 2.30022495 -1.69692043
H  -0.94055702 -1.96156478 -1.75131916
N  -3.11521482 -0.30329586 -2.27423005
N  5.57955184 -2.98457669 0.37425631
P  -3.88711267 -0.63631565 1.39406969
C  2.24440528 2.68031454 -0.00603448
C  1.52051988 3.33049787 1.01968821
C  3.27866050 3.38935110 -0.65805220
C  1.82311578 4.65075991 1.38237475
H  0.76372830 2.81057507 1.65217042
C  3.57336107 4.71417441 -0.30435973
H  3.95023654 2.92986963 -1.41724934
C  2.84795460 5.34840709 0.71952852
H  1.36600943 5.15917747 2.22313611
H  4.40406901 5.27081321 -0.71866760
H  3.13542547 6.32460879 1.04973552
F  -2.66827553 -1.46107240 0.61443301
F  -2.85939023 -0.32029129 2.63283137
F  -3.36745099 0.76252758 0.63817587
F  -5.07482308 0.21091578 2.11948373
F  -4.37483966 -2.01597426 2.09792140
F  -4.86628918 -0.92639430 0.09579166
C  -4.20484865 0.67930596 -2.31921249
H  -5.18307955 0.15675201 -2.58132572
H  -4.28372331 1.13477046 -1.34190691
H  -3.94447758 1.49668244 -3.01460201
C  -3.40531813 -1.73075636 -2.37837402
H  -4.49556275 -1.81261270 -2.66756800
H  -2.67833849 -2.16059177 -3.11141289
H  -3.22480362 -2.13336579 -1.37826159
C  5.18308004 -4.34452148 0.04750739
H  6.05571455 -4.95193961 0.29762891
H  4.33560051 -4.63222341 0.72191044
H  4.94686375 -4.39051722 -1.06394958
C  6.88679789 -2.74469535 1.00694551
H  6.83623092 -2.34323949 2.02575811
H  7.51283878 -3.65912699 1.09664616
H  7.51230354 -1.99314811 0.50283304
O  1.32326522 -1.40614855 -1.04165174
56
MD Step 8
C  5.07799549 -0.60032393 0.58729899
C  4.19110177 0.45416352 0.40570858
C  2.89818626 0.25613329 -0.17262437
C  2.55842890 -1.08505871 -0.51865885
C  3.42875853 -2.14837726 -0.34483592
C  4.71174339 -1.93570484 0.20357799
C  1.93587502 1.28871650 -0.37130160
C  0.38356301 -0.41565084 -1.20160726
C  0.67901618 0.95040306 -0.89876397
C  -0.35985887 1.89949311 -1.15930350
H  -0.14766910 2.90541053 -0.92266666
C  -1.59329778 1.49430393 -1.61534341
C  -1.88686821 0.09499847 -1.85345649
C  -0.83188766 -0.84184900 -1.66450089
H  5.98745461 -0.36587463 1.05651806
H  4.50263614 1.39694674 0.75292181
H  3.09003552 -3.19615544 -0.58407025
H  -2.32262020 2.30201868 -1.68692828
H  -0.93801711 -1.95420042 -1.74064411
N  -3.11023213 -0.29564312 -2.26799162
N  5.58849956 -2.97750185 0.38066577
P  -3.88265309 -0.63108243 1.39997551
C  2.25084044 2.68575153 -0.00122037
C  1.52626357 3.33797903 1.02800062
C  3.28823603 3.39643815 -0.65436901
C  1.83108852 4.66063559 1.38962219
H  0.77690475 2.81195268 1.66102132
C  3.58232985 4.72348383 -0.29897974
H  3.95962208 2.93025704 -1.40667686
C  2.85637146 5.35770131 0.72535764
H  1.38070697 5.15739961 2.23073237
H  4.41326849 5.26779193 -0.70712224
H  3.14645376 6.31890272 1.05759040
F  -2.66146581 -1.45692435 0.61923101
F  -2.85252378 -0.31409199 2.64004166
F  -3.36147366 0.77005848 0.64295112
F  -5.07099497 0.21816952 2.12671890
F  -4.37038447 -2.01220280 2.10542211
F  -4.86301009 -0.92122200 0.10019073
C  -4.19723213 0.69109161 -2.30826103
H  -5.17925879 0.17619814 -2.57172842
H  -4.27283362 1.13415016 -1.33780033
H  -3.93994043 1.50009106 -3.00583985
C  -3.39732423 -1.72395272 -2.36736215
H  -4.48597675 -1.81915657 -2.65911245
H  -2.67728271 -2.15958547 -3.10259656
H  -3.22042854 -2.12508916 -1.37412576
C  5.19222263 -4.33881961 0.05660018
H  6.05818621 -4.94772963 0.30176225
H  4.34187861 -4.63294710 0.72349117
H  4.94977886 -4.39694257 -1.05591245
C  6.89755689 -2.73489495 1.01649336
H  6.83404877 -2.34135201 2.02132996
H  7.51692098 -3.64959355 1.10190553
H  7.51044298 -1.99164687 0.50687097
O  1.32846308 -1.40289318 -1.03639135
56
MD Step 9
C  5.08574925 -0.59250817 0.59366411
C  4.19932240 0.46115204 0.41230059
C  2.90551904 0.26357547 -0.16658479
C  2.56437821 -1.07952409 -0.51306392
C  3.43509320 -2.14529208 -0.33877403
C  4.71991683 -1.92804963 0.20997400
C  1.94291917 1.29506772 -0.36535591
C  0.38958724 -0.40814247 -1.19546470
C  0.68529913 0.95712868 -0.89292367
C  -0.35138774 1.90654653 -1.15194199
H  -0.14557846 2.91666411 -0.91347055
C  -1.58672132 1.50473256 -1.60772361
C  -1.88155507 0.10268748 -1.84725792
C  -0.82590981 -0.83796389 -1.65743804
H  6.00010477 -0.36376131 1.06686347
H  4.50528017 1.40979800 0.76076023
H  3.09491774 -3.17806620 -0.57409397
H  -2.32207367 2.29998477 -1.67916191
H  -0.93722200 -1.93670525 -1.73107670
N  -3.10512910 -0.28765311 -2.26181412
N  5.59794935 -2.97007338 0.38729955
P  -3.87810634 -0.62573346 1.40604148
C  2.25732146 2.69153403 0.00362247
C  1.53168597 3.34549860 1.03693377
C  3.29840363 3.40363855 -0.65094438
C  1.83965483 4.67052805 1.39647360
H  0.79317739 2.81356089 1.66349411
C  3.59083861 4.73271533 -0.29300199
H  3.96288827 2.93005470 -1.39367153
C  2.86455769 5.36586777 0.73088313
H  1.38956668 5.15587792 2.24280013
H  4.42760013 5.26590260 -0.70145034
H  3.15980918 6.32557780 1.06850869
F  -2.65451462 -1.45290146 0.62392762
F  -2.84560479 -0.30789250 2.64730444
F  -3.35545475 0.77771956 0.64764865
F  -5.06731050 0.22549508 2.13400852
F  -4.36600958 -2.00863542 2.11299290
F  -4.85988950 -0.91611138 0.10439776
C  -4.19035287 0.70240152 -2.29792057
H  -5.16434563 0.20207748 -2.56057875
H  -4.26558958 1.13596027 -1.32390691
H  -3.93766246 1.50257023 -3.00133267
C  -3.38985337 -1.71709223 -2.35687044
H  -4.46527856 -1.82851424 -2.64947838
H  -2.68268367 -2.15978920 -3.09271578
H  -3.21787695 -2.12224247 -1.36690636
C  5.20111378 -4.33295895 0.06539678
H  6.06135445 -4.94912842 0.30407394
H  4.34978050 -4.63554609 0.71885355
H  4.95285189 -4.40661932 -1.03727167
C  6.90865962 -2.72542411 1.02600084
H  6.82705738 -2.33801137 2.02544175
H  7.51671197 -3.63981211 1.10434455
H  7.50949782 -1.98795785 0.50409871
O  1.33378692 -1.39963821 -1.03105940
56
MD Step 10
C  5.09234458 -0.58461066 0.59956981
C  4.20735507 0.46692007 0.41864144
C  2.91310148 0.27102578 -0.16048024
C  2.57030834 -1.07410413 -0.50752438
C  3.44130930 -2.14298689 -0.33276838
C  4.72840753 -1.92026351 0.21648675
C  1.94994323 1.30137231 -0.35942303
C  0.39561947 -0.40080526 -1.18940775
C  0.69181826 0.96397812 -0.88704237
C  -0.34327092 1.91252764 -1.14476097
H  -0.14330354 2.93936349 -0.90326983
C  -1.57973207 1.51544693 -1.59985325
C  -1.87627815 0.11059747 -1.84114154
C  -0.82004078 -0.83466638 -1.65034303
H  6.02445901 -0.36123895 1.08209498
H  4.50948881 1.43496063 0.77139435
H  3.10063727 -3.15223689 -0.56380585
H  -2.32485811 2.29573395 -1.67356369
H  -0.93827548 -1.91271205 -1.72288110
N  -3.09989048 -0.27935901 -2.25569391
N  5.60784399 -2.96233777 0.39412858
P  -3.87346414 -0.62026907 1.41226945
C  2.26387862 2.69781132 0.00853947
C  1.53703688 3.35311670 1.04624751
C  3.30892429 3.41098315 -0.64754999
C  1.84876249 4.68027872 1.40291309
H  0.81084903 2.81484565 1.66113996
C  3.59888984 4.74172614 -0.28648722
H  3.96155171 2.92892774 -1.37978276
C  2.87253885 5.37299180 0.73614338
H  1.39269679 5.15531182 2.25952774
H  4.44714951 5.26577105 -0.70149734
H  3.17530095 6.34405234 1.08223678
F  -2.64745839 -1.44898127 0.62854546
F  -2.83866114 -0.30170156 2.65458833
F  -3.34940915 0.78547571 0.65228697
F  -5.06374041 0.23286932 2.14133268
F  -4.36170351 -2.00523472 2.12061343
F  -4.85690317 -0.91105482 0.10844606
C  -4.18405189 0.71323273 -2.28813305
H  -5.14121573 0.23215383 -2.54851960
H  -4.26172110 1.14084119 -1.30031382
H  -3.93702327 1.50537418 -3.00109518
C  -3.38283467 -1.71018501 -2.34687293
H  -4.43660378 -1.83983412 -2.63915579
H  -2.69290509 -2.16117950 -3.08237180
H  -3.21660705 -2.12463394 -1.35585214
C  5.20976565 -4.32696085 0.07390963
H  6.06600373 -4.95597590 0.30513779
H  4.35860602 -4.63967856 0.70963918
H  4.95617494 -4.41856228 -1.01010249
C  6.91982267 -2.71634653 1.03527755
H  6.81612669 -2.33226090 2.03963597
H  7.51372837 -3.63113762 1.10451078
H  7.51066481 -1.98097123 0.49480919
O  1.33925313 -1.39631524 -1.02563791
56
MD Step 11
C  5.09834559 -0.57657931 0.60528892
C  4.21528535 0.47204621 0.42489887
C  2.92090710 0.27838894 -0.15433792
C  2.57628238 -1.06882758 -0.50201821
C  3.44757200 -2.14080978 -0.32668097
C  4.73713923 -1.91244582 0.22307176
C  1.95695491 1.30765565 -0.35350037
C  0.40162772 -0.39374420 -1.18345855
C  0.69861520 0.97093359 -0.88110890
C  -0.33551549 1.91798810 -1.13767299
H  -0.14141739 2.96782607 -0.89320460
C  -1.57233739 1.52618905 -1.59177103
C  -1.87092615 0.11872128 -1.83507525
C  -0.81429698 -0.83133259 -1.64318576
H  6.05426756 -0.35927195 1.09908844
H  4.51374710 1.46621458 0.78277903
H  3.10559842 -3.12523621 -0.55455618
H  -2.33109289 2.29078912 -1.66996495
H  -0.94149052 -1.88831147 -1.71644099
N  -3.09451419 -0.27080730 -2.24962337
N  5.61811762 -2.95435758 0.40111688
P  -3.86872136 -0.61469384 1.41865887
C  2.27054059 2.70471979 0.01357594
C  1.54263699 3.36092268 1.05562321
C  3.31948714 3.41851691 -0.64390196
C  1.85823298 4.68980443 1.40911616
H  0.82741851 2.81476607 1.65632753
C  3.60669412 4.75047361 -0.27962194
H  3.95785989 2.92622107 -1.36722564
C  2.88046275 5.37956574 0.74131947
H  1.39142366 5.15543396 2.27907064
H  4.46978694 5.26680897 -0.70589235
H  3.19138403 6.36929437 1.09695527
F  -2.64033476 -1.44513983 0.63310911
F  -2.83172000 -0.29552722 2.66186274
F  -3.34335140 0.79329227 0.65688597
F  -5.06025405 0.24026880 2.14867100
F  -4.35745357 -2.00196026 2.12826227
F  -4.85402441 -0.90604367 0.11237276
C  -4.17796314 0.72385841 -2.27854562
H  -5.11553374 0.26269022 -2.53689179
H  -4.26051398 1.14801294 -1.27076933
H  -3.93745437 1.50926614 -3.00437035
C  -3.37602820 -1.70326703 -2.33711185
H  -4.40564358 -1.85236201 -2.62923748
H  -2.70553791 -2.16393205 -3.07264238
H  -3.21623046 -2.13113235 -1.34193156
C  5.21835726 -4.32090881 0.08229930
H  6.07186484 -4.96710700 0.30536646
H  4.36709709 -4.64508129 0.69824307
H  4.95944021 -4.43171975 -0.97881183
C  6.93079644 -2.70748281 1.04431236
H  6.80279619 -2.32440922 2.06180061
H  7.50976978 -3.62512353 1.10310507
H  7.51399259 -1.97104745 0.48075463
O  1.34487501 -1.39285939 -1.02011136
56
MD Step 12
C  5.10443072 -0.56837407 0.61114510
C  4.22320873 0.47724420 0.43127380
C  2.92889536 0.28556825 -0.14818954
C  2.58236792 -1.06371424 -0.49651932
C  3.45408397 -2.13801421 -0.32035404
C  4.74602034 -1.90470097 0.22967867
C  1.96397327 1.31395745 -0.34757991
C  0.40758354 -0.38705619 -1.17763439
C  0.70571792 0.97796761 -0.87511683
C  -0.32809520 1.92361393 -1.13055917
H  -0.14060265 2.99496338 -0.88468824
C  -1.56463092 1.53673724 -1.58353704
C  -1.86537845 0.12704590 -1.82902268
C  -0.80868684 -0.82727898 -1.63593692
H  6.08216016 -0.35884500 1.11418402
H  4.51634375 1.49600501 0.79248297
H  3.10781707 -3.10477758 -0.54792391
H  -2.34017142 2.28617420 -1.66806712
H  -0.94723890 -1.87032794 -1.71214583
N  -3.08901239 -0.26205570 -2.24359238
N  5.62869524 -2.94620977 0.40822258
P  -3.86387615 -0.60901624 1.42520650
C  2.27733219 2.71236894 0.01877286
C  1.54880468 3.36899939 1.06473202
C  3.32977640 3.42627324 -0.63972634
C  1.86781020 4.69907156 1.41537852
H  0.84033869 2.81226835 1.65156346
C  3.61458615 4.75897511 -0.27266697
H  3.95413333 2.92133419 -1.35818774
C  2.88852450 5.38623471 0.74664798
H  1.38784669 5.15544751 2.29832399
H  4.49207739 5.26779498 -0.71252280
H  3.20600168 6.39463322 1.11024787
F  -2.63318185 -1.44135209 0.63764452
F  -2.82480727 -0.28937674 2.66909859
F  -3.33729545 0.80113541 0.66146624
F  -5.05682000 0.24767025 2.15600318
F  -4.35324614 -1.99876949 2.13591747
F  -4.85122431 -0.90106830 0.11621827
C  -4.17158606 0.73471573 -2.26868161
H  -5.09464154 0.28916804 -2.52744655
H  -4.26101253 1.15601613 -1.24086585
H  -3.93849267 1.51442033 -3.00969005
C  -3.36909567 -1.69639690 -2.32719727
H  -4.37937252 -1.86548528 -2.62111460
H  -2.71788163 -2.16823301 -3.06470671
H  -3.21646390 -2.13992146 -1.32731547
C  5.22717047 -4.31493208 0.09084430
H  6.07788416 -4.98057042 0.30505932
H  4.37387177 -4.65147709 0.68736240
H  4.96204653 -4.44509168 -0.94936057
C  6.94139143 -2.69851657 1.05321842
H  6.78916626 -2.31569705 2.08718441
H  7.50644535 -3.62285753 1.10088482
H  7.51861755 -1.95976496 0.46484814
O  1.35066256 -1.38921215 -1.01446732
56
MD Step 13
C  5.11114769 -0.56000736 0.61739004
C  4.23116844 0.48310646 0.43791483
C  2.93702038 0.29247540 -0.14206574
C  2.58862604 -1.05876578 -0.49100072
C  3.46099659 -2.13404404 -0.31367322
C  4.75495713 -1.89712285 0.23625954
C  1.97102715 1.32032628 -0.34164940
C  0.41347293 -0.38082062 -1.17194271
C  0.71313333 0.98504778 -0.86906642
C  -0.32098767 1.92998285 -1.12332242
H  -0.14119444 3.01499123 -0.87878160
C  -1.55678886 1.54693267 -1.57522719
C  -1.85951926 0.13555690 -1.82294590
C  -0.80323568 -0.82202451 -1.62858591
H  6.10237258 -0.36041187 1.12458492
H  4.51618244 1.51826592 0.79868647
H  3.10595327 -3.09646503 -0.54500010
H  -2.35067447 2.28226533 -1.66744235
H  -0.95559665 -1.86334028 -1.71018818
N  -3.08340623 -0.25317004 -2.23758898
N  5.63949178 -2.93798366 0.41539964
P  -3.85892963 -0.60324766 1.43190579
C  2.28427264 2.72082995 0.02416331
C  1.55576486 3.37736958 1.07331805
C  3.33954888 3.43423643 -0.63483666
C  1.87723229 4.70805749 1.42200490
H  0.84799468 2.80697438 1.64863046
C  3.62290196 4.76725420 -0.26588500
H  3.95197993 2.91424102 -1.35398255
C  2.89689052 5.39354989 0.75233260
H  1.38416846 5.15462576 2.31412401
H  4.51060464 5.26762495 -0.71921118
H  3.21743414 6.41444446 1.12007581
F  -2.62603768 -1.43759236 0.64217832
F  -2.81794712 -0.28325656 2.67626899
F  -3.33125476 0.80897227 0.66604841
F  -5.05340673 0.25505094 2.16330951
F  -4.34906698 -1.99561877 2.14355718
F  -4.84847203 -0.89611816 0.12002553
C  -4.16450746 0.74620063 -2.25816213
H  -5.08474411 0.30781190 -2.52160557
H  -4.26224712 1.16353819 -1.21584006
H  -3.93977712 1.52055467 -3.01516203
C  -3.36176826 -1.68966478 -2.31678276
H  -4.36356255 -1.87855442 -2.61584042
H  -2.72757377 -2.17399773 -3.05934457
H  -3.21702945 -2.14895865 -1.31441900
C  5.23646888 -4.30918240 0.09983721
H  6.08280849 -4.99410328 0.30451294
H  4.37799929 -4.65841560 0.67941172
H  4.96341417 -4.45775133 -0.92755569
C  6.95149123 -2.68917189 1.06212485
H  6.77754256 -2.30757776 2.11046266
H  7.50474327 -3.62431520 1.09858141
H  7.52336789 -1.94916813 0.45043909
O  1.35662211 -1.38532412 -1.00869689
56
MD Step 14
C  5.11879996 -0.55154631 0.62414984
C  4.23914154 0.48997957 0.44488382
C  2.94523707 0.29903787 -0.13599227
C  2.59510304 -1.05396048 -0.48543707
C  3.46831206 -2.12880937 -0.30663255
C  4.76386504 -1.88978242 0.24277569
C  1.97815248 1.32681350 -0.33569400
C  0.41930399 -0.37508984 -1.16637753
C  0.72084212 0.99214174 -0.86296577
C  -0.31418688 1.93743854 -1.11591265
H  -0.14303413 3.02477076 -0.87590673