 Entering Gaussian System, Link 0=g16
 Initial command:
 /software/gaussian/g16-c01/avx2/g16/l1.exe "/gpfs/fs2/scratch/bweight/software/many_molecule_many_mode_NAMD/src/NAMD/TEST_NVT/TRAJ/traj-71/G16/GS_NEW/Gau-9351.inp" -scrdir="/gpfs/fs2/scratch/bweight/software/many_molecule_many_mode_NAMD/src/NAMD/TEST_NVT/TRAJ/traj-71/G16/GS_NEW/"
 Entering Link 1 = /software/gaussian/g16-c01/avx2/g16/l1.exe PID=      9352.
  
 Copyright (c) 1988-2019, Gaussian, Inc.  All Rights Reserved.
  
 This is part of the Gaussian(R) 16 program.  It is based on
 the Gaussian(R) 09 system (copyright 2009, Gaussian, Inc.),
 the Gaussian(R) 03 system (copyright 2003, Gaussian, Inc.),
 the Gaussian(R) 98 system (copyright 1998, Gaussian, Inc.),
 the Gaussian(R) 94 system (copyright 1995, Gaussian, Inc.),
 the Gaussian 92(TM) system (copyright 1992, Gaussian, Inc.),
 the Gaussian 90(TM) system (copyright 1990, Gaussian, Inc.),
 the Gaussian 88(TM) system (copyright 1988, Gaussian, Inc.),
 the Gaussian 86(TM) system (copyright 1986, Carnegie Mellon
 University), and the Gaussian 82(TM) system (copyright 1983,
 Carnegie Mellon University). Gaussian is a federally registered
 trademark of Gaussian, Inc.
  
 This software contains proprietary and confidential information,
 including trade secrets, belonging to Gaussian, Inc.
  
 This software is provided under written license and may be
 used, copied, transmitted, or stored only in accord with that
 written license.
  
 The following legend is applicable only to US Government
 contracts under FAR:
  
                    RESTRICTED RIGHTS LEGEND
  
 Use, reproduction and disclosure by the US Government is
 subject to restrictions as set forth in subparagraphs (a)
 and (c) of the Commercial Computer Software - Restricted
 Rights clause in FAR 52.227-19.
  
 Gaussian, Inc.
 340 Quinnipiac St., Bldg. 40, Wallingford CT 06492
  
  
 ---------------------------------------------------------------
 Warning -- This program may not be used in any manner that
 competes with the business of Gaussian, Inc. or will provide
 assistance to any competitor of Gaussian, Inc.  The licensee
 of this program is prohibited from giving any competitor of
 Gaussian, Inc. access to this program.  By using this program,
 the user acknowledges that Gaussian, Inc. is engaged in the
 business of creating and licensing software in the field of
 computational chemistry and represents and warrants to the
 licensee that it is not a competitor of Gaussian, Inc. and that
 it will not use this program in any manner prohibited above.
 ---------------------------------------------------------------
  

 Cite this work as:
 Gaussian 16, Revision C.01,
 M. J. Frisch, G. W. Trucks, H. B. Schlegel, G. E. Scuseria, 
 M. A. Robb, J. R. Cheeseman, G. Scalmani, V. Barone, 
 G. A. Petersson, H. Nakatsuji, X. Li, M. Caricato, A. V. Marenich, 
 J. Bloino, B. G. Janesko, R. Gomperts, B. Mennucci, H. P. Hratchian, 
 J. V. Ortiz, A. F. Izmaylov, J. L. Sonnenberg, D. Williams-Young, 
 F. Ding, F. Lipparini, F. Egidi, J. Goings, B. Peng, A. Petrone, 
 T. Henderson, D. Ranasinghe, V. G. Zakrzewski, J. Gao, N. Rega, 
 G. Zheng, W. Liang, M. Hada, M. Ehara, K. Toyota, R. Fukuda, 
 J. Hasegawa, M. Ishida, T. Nakajima, Y. Honda, O. Kitao, H. Nakai, 
 T. Vreven, K. Throssell, J. A. Montgomery, Jr., J. E. Peralta, 
 F. Ogliaro, M. J. Bearpark, J. J. Heyd, E. N. Brothers, K. N. Kudin, 
 V. N. Staroverov, T. A. Keith, R. Kobayashi, J. Normand, 
 K. Raghavachari, A. P. Rendell, J. C. Burant, S. S. Iyengar, 
 J. Tomasi, M. Cossi, J. M. Millam, M. Klene, C. Adamo, R. Cammi, 
 J. W. Ochterski, R. L. Martin, K. Morokuma, O. Farkas, 
 J. B. Foresman, and D. J. Fox, Gaussian, Inc., Wallingford CT, 2019.
 
 ******************************************
 Gaussian 16:  ES64L-G16RevC.01  3-Jul-2019
                11-Jan-2023 
 ******************************************
 %oldchk=../GS_OLD/geometry.chk
 %chk=geometry.chk
 %nprocshared=4
 Will use up to    4 processors via shared memory.
 %mem=5GB
 Copying data from "../GS_OLD/geometry.chk" to current chk file "geometry.chk"
 IOpt=  2 FromEx=T IUOpen= 4 IOptOp= 5 NList=   0 IFRang= 0 IUIn= 4 IUOut= 2.
 -------------------------------------------------------
 # WB97XD/6-311G SCF=XQC FORCE nosym pop=full guess=read
 -------------------------------------------------------
 1/10=7,30=1,38=1/1,3;
 2/12=2,15=1,17=6,18=5,40=1/2;
 3/5=4,6=6,11=2,25=1,30=1,71=1,74=-58,116=-2/1,2,3;
 4/5=1/1;
 5/5=2,8=3,13=1,38=6/2,8;
 6/7=3,28=1/1;
 7/29=1,30=1/1,2,3,16;
 1/10=7,30=1/3;
 99//99;
 -----------
 MD Step 999
 -----------
 Symbolic Z-matrix:
 Charge =  0 Multiplicity = 1
 C                    -0.33511  -0.57972   0.00687 
 H                     0.2141   -1.53364  -0.02316 
 H                    -1.42471  -0.59851  -0.02545 
 C                     0.33322   0.57794   0.00572 
 H                    -0.16532   1.56498  -0.02828 
 H                     1.44562   0.63561  -0.02596 
 

 GradGradGradGradGradGradGradGradGradGradGradGradGradGradGradGradGradGrad
 Berny optimization.
 Initialization pass.
 Trust Radius=3.00D-01 FncErr=1.00D-07 GrdErr=1.00D-07 EigMax=2.50D+02 EigMin=1.00D-04
 Number of steps in this run=      2 maximum allowed number of steps=      2.
 GradGradGradGradGradGradGradGradGradGradGradGradGradGradGradGradGradGrad

                          Input orientation:                          
 ---------------------------------------------------------------------
 Center     Atomic      Atomic             Coordinates (Angstroms)
 Number     Number       Type             X           Y           Z
 ---------------------------------------------------------------------
      1          6           0       -0.335106   -0.579722    0.006872
      2          1           0        0.214102   -1.533636   -0.023163
      3          1           0       -1.424711   -0.598510   -0.025451
      4          6           0        0.333221    0.577944    0.005724
      5          1           0       -0.165318    1.564980   -0.028278
      6          1           0        1.445618    0.635605   -0.025957
 ---------------------------------------------------------------------
                    Distance matrix (angstroms):
                    1          2          3          4          5
     1  C    0.000000
     2  H    1.101128   0.000000
     3  H    1.090246   1.886842   0.000000
     4  C    1.336732   2.115135   2.115499   0.000000
     5  H    2.151700   3.121764   2.503351   1.106318   0.000000
     6  H    2.156172   2.494444   3.124392   1.114341   1.859801
                    6
     6  H    0.000000
 Symmetry turned off by external request.
 Stoichiometry    C2H4
 Framework group  C1[X(C2H4)]
 Deg. of freedom    12
 Full point group                 C1      NOp   1
 Rotational constants (GHZ):         142.7362428          29.6933122          24.5884115
 Standard basis: 6-311G (5D, 7F)
    38 basis functions,    72 primitive gaussians,    38 cartesian basis functions
     8 alpha electrons        8 beta electrons
       nuclear repulsion energy        33.0439095982 Hartrees.
 NAtoms=    6 NActive=    6 NUniq=    6 SFac= 1.00D+00 NAtFMM=   60 NAOKFM=F Big=F
 Integral buffers will be    131072 words long.
 Raffenetti 2 integral format.
 Two-electron integral symmetry is turned off.
 Nuclear repulsion after empirical dispersion term =       33.0430672977 Hartrees.
 One-electron integrals computed using PRISM.
 NBasis=    38 RedAO= T EigKep=  6.40D-03  NBF=    38
 NBsUse=    38 1.00D-06 EigRej= -1.00D+00 NBFU=    38
 Initial guess from the checkpoint file:  "geometry.chk"
 B after Tr=    -0.000317   -0.000472   -0.000622
         Rot=    1.000000   -0.000001    0.000002    0.000006 Ang=  -0.00 deg.
 Keep R1 ints in memory in canonical form, NReq=4036876.
 Requested convergence on RMS density matrix=1.00D-08 within  32 cycles.
 Requested convergence on MAX density matrix=1.00D-06.
 Requested convergence on             energy=1.00D-06.
 No special actions if energy rises.
 SCF Done:  E(RwB97XD) =  -78.5558042742     A.U. after    8 cycles
            NFock=  8  Conv=0.76D-08     -V/T= 2.0053
 QCSCF skips out because SCF is already converged.

 **********************************************************************

            Population analysis using the SCF Density.

 **********************************************************************

 Alpha  occ. eigenvalues --  -10.29077 -10.28859  -0.86379  -0.67134  -0.55848
 Alpha  occ. eigenvalues --   -0.50958  -0.43585  -0.35717
 Alpha virt. eigenvalues --    0.08003   0.14064   0.16398   0.16962   0.24073
 Alpha virt. eigenvalues --    0.37581   0.39223   0.39709   0.46329   0.48702
 Alpha virt. eigenvalues --    0.49353   0.59106   0.66478   0.68917   0.77220
 Alpha virt. eigenvalues --    0.77528   0.84198   0.95328   2.23236   2.28948
 Alpha virt. eigenvalues --    2.33203   2.40533   2.67122   2.81728   2.87844
 Alpha virt. eigenvalues --    2.95180   3.14042   3.31605  23.35058  23.70633
     Molecular Orbital Coefficients:
                           1         2         3         4         5
                           O         O         O         O         O
     Eigenvalues --   -10.29077 -10.28859  -0.86379  -0.67134  -0.55848
   1 1   C  1S          0.11715   0.55109  -0.08831   0.06684  -0.00025
   2        2S          0.09661   0.45352  -0.13957   0.10708  -0.00041
   3        2PX         0.00016  -0.00002   0.02642   0.03699   0.13630
   4        2PY         0.00028  -0.00003   0.04674   0.06115  -0.07244
   5        2PZ         0.00000  -0.00001  -0.00124   0.00191   0.00033
   6        3S          0.00217   0.01445   0.37431  -0.29225   0.00109
   7        3PX        -0.00060   0.00045   0.03466   0.05934   0.21354
   8        3PY        -0.00102   0.00080   0.06087   0.09907  -0.11440
   9        3PZ        -0.00001  -0.00003  -0.00209   0.00342   0.00049
  10        4S          0.00292  -0.01475   0.19155  -0.22869   0.00025
  11        4PX         0.00146  -0.00160   0.00496   0.02404   0.11162
  12        4PY         0.00249  -0.00273   0.00862   0.04093  -0.06046
  13        4PZ         0.00001   0.00008  -0.00075   0.00174   0.00025
  14 2   H  1S         -0.00005  -0.00005   0.05196  -0.08787   0.10021
  15        2S         -0.00030   0.00012   0.05329  -0.10609   0.12732
  16        3S          0.00086   0.00165  -0.00164  -0.01543   0.04134
  17 3   H  1S         -0.00006  -0.00006   0.05300  -0.09131  -0.10363
  18        2S         -0.00030   0.00009   0.05399  -0.10932  -0.13067
  19        3S          0.00089   0.00166  -0.00171  -0.01621  -0.04231
  20 4   C  1S          0.55107  -0.11734  -0.08702  -0.06822  -0.00004
  21        2S          0.45358  -0.09637  -0.13742  -0.10939  -0.00006
  22        2PX        -0.00003  -0.00016  -0.02771   0.03695   0.11928
  23        2PY        -0.00005  -0.00028  -0.04721   0.06568  -0.07510
  24        2PZ        -0.00000   0.00000  -0.00108  -0.00206   0.00032
  25        3S          0.01395  -0.00388   0.36827   0.29887   0.00010
  26        3PX        -0.00019   0.00073  -0.03485   0.06005   0.18713
  27        3PY        -0.00031   0.00127  -0.05946   0.10618  -0.11674
  28        3PZ        -0.00003  -0.00000  -0.00187  -0.00372   0.00049
  29        4S         -0.01205   0.00874   0.18922   0.23778  -0.00113
  30        4PX         0.00083  -0.00193  -0.00530   0.02586   0.10237
  31        4PY         0.00143  -0.00339  -0.00913   0.04492  -0.06338
  32        4PZ         0.00007  -0.00002  -0.00075  -0.00191   0.00026
  33 5   H  1S         -0.00006  -0.00004   0.04973   0.09288  -0.09162
  34        2S         -0.00003  -0.00031   0.05106   0.11129  -0.11593
  35        3S          0.00180   0.00011  -0.00124   0.01672  -0.03734
  36 6   H  1S         -0.00005  -0.00004   0.04888   0.09093   0.08708
  37        2S         -0.00003  -0.00032   0.05052   0.10957   0.11074
  38        3S          0.00177   0.00009  -0.00125   0.01625   0.03603
                           6         7         8         9        10
                           O         O         O         V         V
     Eigenvalues --    -0.50958  -0.43585  -0.35717   0.08003   0.14064
   1 1   C  1S         -0.00427   0.00022  -0.00094   0.00270  -0.03332
   2        2S         -0.00647   0.00039  -0.00153   0.00448  -0.05344
   3        2PX         0.09347  -0.11236  -0.00349   0.00159  -0.03109
   4        2PY         0.16796   0.06643  -0.00569   0.00237  -0.06503
   5        2PZ         0.00508  -0.00010   0.17944  -0.18903  -0.00236
   6        3S          0.02360  -0.00099   0.00446  -0.01355   0.11632
   7        3PX         0.13583  -0.17966  -0.00494   0.00240  -0.03646
   8        3PY         0.24569   0.10646  -0.00801   0.00355  -0.08040
   9        3PZ         0.00805  -0.00013   0.28833  -0.27782  -0.00378
  10        4S         -0.04999  -0.00317   0.00686  -0.01504   1.21218
  11        4PX         0.06853  -0.11229  -0.00398   0.01315  -0.19374
  12        4PY         0.12519   0.06759  -0.00644   0.02083  -0.39095
  13        4PZ         0.00458  -0.00004   0.26686  -0.69605  -0.01372
  14 2   H  1S         -0.08049  -0.11628   0.00017   0.00416  -0.01680
  15        2S         -0.11142  -0.18026   0.00200   0.00655  -0.04761
  16        3S         -0.04171  -0.08366   0.00120   0.01760  -0.83459
  17 3   H  1S         -0.07849   0.11381   0.00012   0.00418  -0.01277
  18        2S         -0.10802   0.17582   0.00195   0.00674  -0.03772
  19        3S         -0.04008   0.08151   0.00117   0.01756  -0.76618
  20 4   C  1S         -0.00762  -0.00046  -0.00086  -0.00270  -0.03632
  21        2S         -0.01188  -0.00078  -0.00140  -0.00448  -0.05833
  22        2PX        -0.09888   0.12293   0.00323   0.00158   0.04159
  23        2PY        -0.16221  -0.07254   0.00611   0.00317   0.06157
  24        2PZ         0.00533   0.00028   0.17927   0.18939  -0.00311
  25        3S          0.03899   0.00226   0.00415   0.01339   0.12878
  26        3PX        -0.14618   0.19716   0.00450   0.00242   0.05129
  27        3PY        -0.23809  -0.11586   0.00859   0.00481   0.07312
  28        3PZ         0.00845   0.00043   0.28700   0.27764  -0.00473
  29        4S         -0.03401   0.00276   0.00662   0.01616   1.24733
  30        4PX        -0.07605   0.12641   0.00349   0.01251   0.26447
  31        4PY        -0.12252  -0.07317   0.00686   0.02359   0.40697
  32        4PZ         0.00489   0.00025   0.26699   0.69691  -0.01836
  33 5   H  1S         -0.07491  -0.12328   0.00021  -0.00411  -0.01285
  34        2S         -0.10268  -0.19258   0.00212  -0.00694  -0.03831
  35        3S         -0.03830  -0.09056   0.00117  -0.01816  -0.81769
  36 6   H  1S         -0.08053   0.12322   0.00015  -0.00412  -0.01667
  37        2S         -0.11082   0.19319   0.00203  -0.00687  -0.04817
  38        3S         -0.04156   0.09076   0.00112  -0.01827  -0.88682
                          11        12        13        14        15
                           V         V         V         V         V
     Eigenvalues --     0.16398   0.16962   0.24073   0.37581   0.39223
   1 1   C  1S          0.00108  -0.04544  -0.00004   0.01129   0.00178
   2        2S          0.00174  -0.07404  -0.00007   0.01605   0.00305
   3        2PX         0.09813  -0.02096   0.10037  -0.03722  -0.02612
   4        2PY        -0.05362  -0.03765  -0.05762  -0.06854   0.00759
   5        2PZ         0.00019  -0.00668   0.00011  -0.00465  -0.00019
   6        3S         -0.00364   0.16733   0.00020   0.02759  -0.00705
   7        3PX         0.14085  -0.01296   0.10739  -0.05084  -0.11223
   8        3PY        -0.07796  -0.02534  -0.06246  -0.09834   0.03869
   9        3PZ         0.00028  -0.00925   0.00007  -0.00907  -0.00016
  10        4S         -0.05158   1.43001  -0.00490  -2.84658  -0.26923
  11        4PX         0.57645  -0.12466   1.16419  -1.59487  -0.53043
  12        4PY        -0.30646  -0.20790  -0.65915  -2.79139   0.14950
  13        4PZ         0.00127  -0.04353   0.00171  -0.04297  -0.00257
  14 2   H  1S         -0.03012  -0.02564   0.01224  -0.05369   0.07780
  15        2S         -0.08043  -0.01824  -0.02329  -0.61861   0.80295
  16        3S         -1.01875  -0.99511  -1.54307  -0.34315  -0.36276
  17 3   H  1S          0.02959  -0.02538  -0.01423  -0.04622  -0.07574
  18        2S          0.08000  -0.02239   0.01829  -0.56140  -0.74533
  19        3S          1.08530  -1.01414   1.56060  -0.41378   0.27137
  20 4   C  1S          0.00154   0.04267   0.00001  -0.01959   0.00017
  21        2S          0.00247   0.06949  -0.00001  -0.03185   0.00065
  22        2PX         0.10063  -0.02311  -0.10042  -0.04228  -0.03025
  23        2PY        -0.06191  -0.03711   0.05753  -0.07435   0.01372
  24        2PZ         0.00030   0.00663  -0.00011   0.00372   0.00043
  25        3S         -0.00503  -0.15518   0.00026   0.03484  -0.00968
  26        3PX         0.14519  -0.01824  -0.11325  -0.09235  -0.10396
  27        3PY        -0.08799  -0.02652   0.06393  -0.16555   0.06412
  28        3PZ         0.00043   0.00916  -0.00008   0.00509   0.00093
  29        4S         -0.06854  -1.33621  -0.00092   3.42389   0.17139
  30        4PX         0.53836  -0.11585  -1.12262  -1.27876  -0.59034
  31        4PY        -0.33695  -0.19801   0.65684  -2.23855   0.01786
  32        4PZ         0.00184   0.04282  -0.00170   0.03644   0.00336
  33 5   H  1S          0.03180   0.02510   0.00705   0.01435  -0.07772
  34        2S          0.07158   0.02310  -0.03136   0.12242  -0.74752
  35        3S          1.08482   0.93757  -1.51555   0.46227   0.46716
  36 6   H  1S         -0.03147   0.02600  -0.00572   0.01014   0.08815
  37        2S         -0.07135   0.02091   0.03242   0.08099   0.90949
  38        3S         -0.99350   0.94482   1.50749   0.47262  -0.43837
                          16        17        18        19        20
                           V         V         V         V         V
     Eigenvalues --     0.39709   0.46329   0.48702   0.49353   0.59106
   1 1   C  1S         -0.01680   0.01134  -0.04734   0.00049  -0.00057
   2        2S         -0.02989   0.02705  -0.07946   0.00109  -0.00102
   3        2PX         0.02128  -0.06055   0.01337   0.00109   0.00214
   4        2PY         0.04236  -0.10660   0.01926   0.00142   0.00311
   5        2PZ        -0.00014  -0.00061   0.00228  -0.15185  -0.19264
   6        3S          0.07690  -0.33433   0.10634  -0.01081  -0.00013
   7        3PX         0.08932  -0.23985  -0.02543   0.00158   0.00729
   8        3PY         0.18172  -0.42010  -0.05126   0.00087   0.01053
   9        3PZ        -0.00473  -0.00455   0.01157  -0.62841  -0.68498
  10        4S          2.32230   0.12337   3.16329   0.03423   0.06720
  11        4PX         0.05171   0.23745   0.81158   0.01374   0.01969
  12        4PY         0.17894   0.43063   1.39288   0.02622   0.03812
  13        4PZ        -0.00297  -0.00003  -0.07406   0.68694   1.24103
  14 2   H  1S         -0.02600  -0.03748  -0.07564  -0.00123  -0.00162
  15        2S         -0.53622  -0.35610  -0.90862  -0.00843  -0.01082
  16        3S          0.24503   0.08943   0.64339   0.01821   0.02294
  17 3   H  1S         -0.04031  -0.03830  -0.07438  -0.00119  -0.00160
  18        2S         -0.67489  -0.36352  -0.88324  -0.00829  -0.01057
  19        3S          0.28527   0.08639   0.62131   0.01799   0.02255
  20 4   C  1S         -0.00336  -0.00147   0.05088   0.00212   0.00065
  21        2S         -0.00901   0.00528   0.08818   0.00389   0.00121
  22        2PX         0.00426   0.05621   0.02642  -0.00034   0.00189
  23        2PY         0.01220   0.09579   0.04688  -0.00098   0.00383
  24        2PZ        -0.00348  -0.00161   0.00252  -0.15265   0.19239
  25        3S          0.08183  -0.29203  -0.22045  -0.01696  -0.00193
  26        3PX        -0.05502   0.23869   0.04817  -0.00058   0.00658
  27        3PY        -0.07335   0.41090   0.08283  -0.00269   0.01332
  28        3PZ        -0.01031  -0.00674   0.00799  -0.63109   0.68273
  29        4S         -0.48912   0.72916  -3.11782  -0.05535  -0.06118
  30        4PX         1.07926  -0.35938   0.65416   0.00385   0.02298
  31        4PY         1.99705  -0.61445   1.13023   0.00750   0.03564
  32        4PZ        -0.03030  -0.01490   0.04777   0.69313  -1.23845
  33 5   H  1S         -0.05354  -0.06095   0.06555   0.00124   0.00159
  34        2S         -0.88737  -0.60946   0.80764   0.02103   0.00687
  35        3S         -0.10200   0.26166  -0.57413  -0.00022  -0.02273
  36 6   H  1S         -0.03891  -0.06095   0.06503   0.00124   0.00158
  37        2S         -0.72700  -0.61060   0.80508   0.02066   0.00654
  38        3S         -0.16161   0.27795  -0.58442  -0.00073  -0.02288
                          21        22        23        24        25
                           V         V         V         V         V
     Eigenvalues --     0.66478   0.68917   0.77220   0.77528   0.84198
   1 1   C  1S          0.00078  -0.00063   0.06340   0.06296   0.00093
   2        2S          0.00163  -0.00134   0.13405   0.13437   0.00220
   3        2PX        -0.13114   0.19861  -0.00576   0.11666  -0.00922
   4        2PY         0.07609  -0.11889  -0.01105   0.19060   0.01524
   5        2PZ        -0.00018   0.00027   0.00144   0.00460   0.00011
   6        3S         -0.01366   0.01488  -0.95593  -1.19838  -0.02648
   7        3PX        -0.61185   0.69247  -0.09759   0.47052  -0.22785
   8        3PY         0.35145  -0.41532  -0.17282   0.75859   0.17129
   9        3PZ        -0.00091   0.00099   0.00520   0.01609   0.00014
  10        4S          0.02083  -0.04484   1.13787   2.33111   0.05187
  11        4PX         1.11242  -0.74670   0.04792  -0.78449   4.47323
  12        4PY        -0.63738   0.47363   0.02361  -1.01558  -2.52175
  13        4PZ         0.00135   0.00069  -0.00012  -0.05515   0.00748
  14 2   H  1S          0.02254  -0.05943   0.01632   0.03020  -0.02542
  15        2S          0.11510  -0.64009   0.08277   0.07819  -1.53279
  16        3S         -1.03023   1.10639  -0.28801  -1.05814  -1.21170
  17 3   H  1S         -0.02172   0.05876   0.01660   0.03071   0.02918
  18        2S         -0.12820   0.66442   0.10995   0.03163   1.56978
  19        3S          1.02348  -1.06092  -0.28890  -1.20946   1.20547
  20 4   C  1S          0.00098  -0.00022   0.08820   0.01556   0.00050
  21        2S          0.00203  -0.00042   0.18756   0.03237   0.00092
  22        2PX        -0.15248  -0.18450  -0.08562   0.06804   0.01456
  23        2PY         0.08770   0.10269  -0.15401   0.12484   0.00046
  24        2PZ        -0.00020  -0.00028   0.00478  -0.00187  -0.00012
  25        3S         -0.01537  -0.00139  -1.53623  -0.09975   0.00047
  26        3PX        -0.68460  -0.61986  -0.29614   0.33227   0.25617
  27        3PY         0.39653   0.34210  -0.53941   0.61108  -0.10571
  28        3PZ        -0.00098  -0.00092   0.01684  -0.00685  -0.00009
  29        4S          0.01200   0.01991   2.65736  -0.38464  -0.06474
  30        4PX         1.25814   0.69663   0.45106  -0.29807  -4.20147
  31        4PY        -0.72605  -0.36378   0.88457  -0.82342   2.43719
  32        4PZ         0.00172  -0.00055  -0.04700   0.03397  -0.00684
  33 5   H  1S         -0.02593  -0.05543   0.03481  -0.00332  -0.02391
  34        2S         -0.15588  -0.57958   0.07897   0.07211  -1.42934
  35        3S          1.11621   0.95288  -1.09474   0.49441  -1.10818
  36 6   H  1S          0.02668   0.05554   0.03449  -0.00293   0.02288
  37        2S          0.14931   0.55725   0.07978   0.00518   1.41411
  38        3S         -1.11981  -0.98180  -1.03052   0.39900   1.12219
                          26        27        28        29        30
                           V         V         V         V         V
     Eigenvalues --     0.95328   2.23236   2.28948   2.33203   2.40533
   1 1   C  1S          0.09551  -0.01012  -0.01399   0.00033  -0.00042
   2        2S          0.19844   0.00152  -0.01400   0.00069  -0.00058
   3        2PX        -0.09194  -0.08630  -0.13206   0.33965  -0.41101
   4        2PY        -0.15913  -0.16055  -0.23119  -0.19280   0.22959
   5        2PZ         0.00008  -0.01336  -0.01772   0.00037  -0.00099
   6        3S         -1.53673  -0.18450  -0.03270  -0.00053  -0.00364
   7        3PX        -0.23550   0.08793   0.21078  -0.40919   0.57494
   8        3PY        -0.40051   0.17539   0.38086   0.23456  -0.32166
   9        3PZ        -0.00266   0.01349   0.02230  -0.00033   0.00119
  10        4S          5.71760  -0.11507  -0.88669  -0.00135  -0.00131
  11        4PX         1.20714   0.04726  -0.18497  -0.02185   0.95667
  12        4PY         1.98767   0.06406  -0.35995   0.00296  -0.52004
  13        4PZ        -0.01731   0.00311   0.00774  -0.00021   0.00226
  14 2   H  1S          0.01586  -0.72324  -0.77665  -0.70284   0.66028
  15        2S         -0.29518   1.03148   1.16389   1.07213  -1.45736
  16        3S         -0.09050  -0.31221  -0.46923  -0.47531   0.38376
  17 3   H  1S          0.01632  -0.71360  -0.77648   0.69549  -0.67797
  18        2S         -0.26463   1.01819   1.17160  -1.06377   1.49589
  19        3S         -0.06608  -0.29260  -0.45228   0.46551  -0.37405
  20 4   C  1S         -0.09422  -0.01003   0.01220   0.00042   0.00024
  21        2S         -0.19551   0.00096   0.01206   0.00053   0.00054
  22        2PX        -0.09262   0.12777  -0.12808   0.31103   0.41274
  23        2PY        -0.16016   0.22122  -0.21305  -0.18121  -0.24093
  24        2PZ         0.00023  -0.01474   0.01771   0.00065   0.00064
  25        3S          1.51174  -0.17274   0.02070   0.00100  -0.00043
  26        3PX        -0.22881  -0.16131   0.21902  -0.38842  -0.57846
  27        3PY        -0.40113  -0.27521   0.35924   0.22437   0.33926
  28        3PZ         0.00341   0.01581  -0.02265  -0.00073  -0.00088
  29        4S         -5.69994  -0.15325   0.88382   0.01439  -0.01205
  30        4PX         1.10665  -0.01716  -0.20898   0.09073  -0.85455
  31        4PY         2.00382  -0.03516  -0.32500  -0.05141   0.51149
  32        4PZ         0.01353   0.00433  -0.00647  -0.00001  -0.00201
  33 5   H  1S         -0.01796  -0.77693   0.69233   0.70893   0.67979
  34        2S          0.28556   1.12416  -1.05577  -1.03716  -1.45236
  35        3S          0.05399  -0.34965   0.41166   0.50831   0.42038
  36 6   H  1S         -0.01782  -0.77284   0.71166  -0.69428  -0.67966
  37        2S          0.31134   1.11671  -1.07610   1.01333   1.44458
  38        3S          0.07087  -0.35072   0.43925  -0.50377  -0.42958
                          31        32        33        34        35
                           V         V         V         V         V
     Eigenvalues --     2.67122   2.81728   2.87844   2.95180   3.14042
   1 1   C  1S          0.00048   0.00250  -0.01335  -0.00002  -0.00915
   2        2S          0.00036   0.00735  -0.04481  -0.00036  -0.02841
   3        2PX         0.00588   0.07127  -0.45660  -0.73687   0.46218
   4        2PY         0.00787   0.12517  -0.83335   0.41846   0.79942
   5        2PZ        -0.92389  -0.93037  -0.13859  -0.00176   0.00737
   6        3S         -0.00138  -0.06146   0.39597   0.00520   0.24089
   7        3PX        -0.00459  -0.12458   0.81964   0.88586  -0.45578
   8        3PY        -0.00577  -0.21727   1.46563  -0.48908  -0.78411
   9        3PZ         0.93874   1.13755   0.17415   0.00230  -0.00937
  10        4S          0.01255   0.14055  -0.87952  -0.01265  -0.46778
  11        4PX        -0.00164   0.10058  -0.70859  -0.66773   0.24054
  12        4PY        -0.00273   0.17664  -1.26501   0.35635   0.40810
  13        4PZ        -0.33776  -0.61580  -0.11057  -0.00179   0.00599
  14 2   H  1S          0.01192  -0.02129   0.26902  -0.38240  -0.21839
  15        2S         -0.01376   0.01445  -0.22869   0.39330   0.16587
  16        3S         -0.00268   0.04034  -0.29588   0.26613   0.06577
  17 3   H  1S          0.01213  -0.02104   0.26103   0.38214  -0.22317
  18        2S         -0.01423   0.01338  -0.21512  -0.38968   0.16945
  19        3S         -0.00304   0.04016  -0.29358  -0.28143   0.07793
  20 4   C  1S          0.00052  -0.00248   0.01366   0.00044  -0.00743
  21        2S          0.00050  -0.00764   0.04768   0.00100  -0.02359
  22        2PX        -0.00661   0.06583  -0.42272  -0.79830  -0.49169
  23        2PY        -0.01352   0.11714  -0.74148   0.43803  -0.87903
  24        2PZ        -0.92555   0.92803   0.14180  -0.00019   0.01235
  25        3S         -0.00280   0.06540  -0.42795  -0.00724   0.20430
  26        3PX         0.00688  -0.11892   0.78582   0.94968   0.51782
  27        3PY         0.01383  -0.20999   1.37421  -0.51492   0.93567
  28        3PZ         0.94102  -1.13516  -0.17849   0.00022  -0.01557
  29        4S          0.01567  -0.14302   0.90268   0.02302  -0.39040
  30        4PX        -0.00046   0.10062  -0.71389  -0.69285  -0.30510
  31        4PY        -0.00193   0.17558  -1.24054   0.37366  -0.56117
  32        4PZ        -0.33897   0.61458   0.11389  -0.00022   0.01195
  33 5   H  1S          0.01170   0.02646  -0.29209   0.41202  -0.25889
  34        2S         -0.01434  -0.02100   0.26405  -0.42448   0.20346
  35        3S         -0.00146  -0.03791   0.28114  -0.24494   0.11843
  36 6   H  1S          0.01179   0.02631  -0.28736  -0.42477  -0.24262
  37        2S         -0.01476  -0.02150   0.26293   0.43622   0.18867
  38        3S         -0.00116  -0.03690   0.27145   0.24716   0.10663
                          36        37        38
                           V         V         V
     Eigenvalues --     3.31605  23.35058  23.70633
   1 1   C  1S         -0.00022  -1.41789  -1.44846
   2        2S         -0.00022   1.51209   1.56640
   3        2PX         0.77891  -0.00645   0.01217
   4        2PY        -0.43174  -0.01062   0.02124
   5        2PZ         0.00162  -0.00054  -0.00022
   6        3S         -0.00274  -0.29641  -0.39897
   7        3PX        -1.11256   0.02394  -0.05608
   8        3PY         0.61116   0.03996  -0.09730
   9        3PZ        -0.00241   0.00152   0.00065
  10        4S          0.01075   0.27338   0.77011
  11        4PX         1.95140  -0.02586   0.13456
  12        4PY        -1.06694  -0.04419   0.22963
  13        4PZ         0.00412  -0.00253  -0.00287
  14 2   H  1S          0.54933   0.01281   0.00653
  15        2S         -0.85504   0.00782  -0.01480
  16        3S         -0.45060  -0.08363  -0.03942
  17 3   H  1S         -0.56037   0.01438   0.00733
  18        2S          0.87095   0.00772  -0.01417
  19        3S          0.47706  -0.08572  -0.03872
  20 4   C  1S         -0.00003  -1.44364   1.42269
  21        2S         -0.00039   1.53964  -1.53862
  22        2PX        -0.71727   0.00592   0.01257
  23        2PY         0.41492   0.01060   0.02154
  24        2PZ        -0.00140  -0.00055   0.00015
  25        3S          0.00630  -0.30193   0.39213
  26        3PX         1.01834  -0.02212  -0.05666
  27        3PY        -0.59908  -0.03927  -0.09777
  28        3PZ         0.00209   0.00157  -0.00040
  29        4S         -0.03164   0.27880  -0.76318
  30        4PX        -1.78631   0.02334   0.13100
  31        4PY         1.06460   0.04224   0.22925
  32        4PZ        -0.00366  -0.00259   0.00234
  33 5   H  1S          0.49487   0.01285  -0.00450
  34        2S         -0.77252   0.00840   0.01316
  35        3S         -0.43066  -0.08317   0.03683
  36 6   H  1S         -0.49001   0.01168  -0.00375
  37        2S          0.76631   0.00913   0.01345
  38        3S          0.41709  -0.08138   0.03721
     Density Matrix:
                           1         2         3         4         5
   1 1   C  1S          0.65941
   2        2S          0.56151   0.49200
   3        2PX        -0.00061  -0.00084   0.08404
   4        2PY        -0.00140  -0.00197   0.00376   0.08765
   5        2PZ         0.00009   0.00014  -0.00011  -0.00028   0.06446
   6        3S         -0.08896  -0.15387   0.00306   0.00684  -0.00020
   7        3PX         0.00083   0.00127   0.13023   0.00137  -0.00008
   8        3PY         0.00116   0.00178   0.00142   0.13115  -0.00025
   9        3PZ         0.00018   0.00030  -0.00020  -0.00044   0.10357
  10        4S         -0.07956  -0.11463  -0.01541  -0.02739   0.00061
  11        4PX         0.00023   0.00154   0.07054  -0.00462  -0.00056
  12        4PY         0.00053   0.00287  -0.00474   0.06568  -0.00096
  13        4PZ        -0.00009  -0.00022  -0.00084  -0.00140   0.09582
  14 2   H  1S         -0.02041  -0.03251   0.03465  -0.06290  -0.00113
  15        2S         -0.02273  -0.03636   0.04934  -0.08784  -0.00083
  16        3S          0.00054  -0.00075   0.02104  -0.03317  -0.00000
  17 3   H  1S         -0.02088  -0.03323  -0.07246  -0.00245  -0.00132
  18        2S         -0.02306  -0.03682  -0.10057  -0.00234  -0.00107
  19        3S          0.00057  -0.00070  -0.03864   0.00134  -0.00009
  20 4   C  1S          0.00610   0.00983  -0.01079  -0.01877  -0.00043
  21        2S          0.00981   0.01532  -0.01726  -0.03004  -0.00070
  22        2PX         0.01048   0.01677  -0.01235  -0.03227   0.00042
  23        2PY         0.01818   0.02907  -0.03217  -0.04970   0.00088
  24        2PZ        -0.00047  -0.00076  -0.00044  -0.00061   0.06439
  25        3S         -0.02644  -0.04013   0.04835   0.08432   0.00211
  26        3PX         0.01618   0.02509  -0.01805  -0.04598   0.00053
  27        3PY         0.02804   0.04348  -0.04564  -0.07113   0.00117
  28        3PZ        -0.00079  -0.00127  -0.00076  -0.00108   0.10307
  29        4S          0.00545   0.00413   0.02025   0.03579   0.00247
  30        4PX         0.00311   0.00642  -0.01311  -0.02096   0.00063
  31        4PY         0.00525   0.01093  -0.02094  -0.03713   0.00138
  32        4PZ        -0.00067  -0.00108  -0.00111  -0.00171   0.09586
  33 5   H  1S          0.00421   0.00691  -0.00178  -0.01227  -0.00049
  34        2S          0.00636   0.01056   0.00339  -0.02493  -0.00002
  35        3S          0.00330   0.00483   0.00418  -0.01757   0.00009
  36 6   H  1S          0.00417   0.00685  -0.00970  -0.00761  -0.00051
  37        2S          0.00633   0.01055  -0.02318  -0.00950  -0.00007
  38        3S          0.00328   0.00483  -0.01721  -0.00526   0.00005
                           6         7         8         9        10
   6        3S          0.45262
   7        3PX        -0.00154   0.20214
   8        3PY        -0.00125  -0.00431   0.19674
   9        3PZ        -0.00061  -0.00014  -0.00038   0.16643
  10        4S          0.27436  -0.02628  -0.04743   0.00079   0.18354
  11        4PX        -0.00672   0.10986  -0.01035  -0.00091  -0.01518
  12        4PY        -0.01195  -0.01058   0.09899  -0.00153  -0.02839
  13        4PZ         0.00102  -0.00112  -0.00184   0.15398   0.00212
  14 2   H  1S          0.08691   0.05589  -0.09833  -0.00189   0.06893
  15        2S          0.09730   0.07996  -0.13682  -0.00141   0.08130
  16        3S          0.00614   0.03443  -0.05105  -0.00001   0.01112
  17 3   H  1S          0.08889  -0.11364  -0.00227  -0.00217   0.06914
  18        2S          0.09860  -0.15758  -0.00086  -0.00177   0.08032
  19        3S          0.00612  -0.06030   0.00390  -0.00014   0.01020
  20 4   C  1S         -0.02664  -0.01681  -0.02924  -0.00073   0.00529
  21        2S         -0.04033  -0.02610  -0.04545  -0.00118   0.00405
  22        2PX        -0.04697  -0.01766  -0.04581   0.00072  -0.01830
  23        2PY        -0.08137  -0.04562  -0.07080   0.00150  -0.03140
  24        2PZ         0.00225  -0.00060  -0.00080   0.10346   0.00245
  25        3S          0.10282   0.07076   0.12356   0.00353   0.00073
  26        3PX        -0.06801  -0.02596  -0.06508   0.00093  -0.02732
  27        3PY        -0.11773  -0.06451  -0.10129   0.00201  -0.04679
  28        3PZ         0.00374  -0.00105  -0.00143   0.16562   0.00408
  29        4S          0.00132   0.03058   0.05421   0.00411  -0.03312
  30        4PX        -0.02272  -0.01969  -0.02946   0.00105  -0.00689
  31        4PY        -0.03890  -0.02943  -0.05361   0.00228  -0.01116
  32        4PZ         0.00317  -0.00157  -0.00235   0.15403   0.00376
  33 5   H  1S         -0.02055  -0.00072  -0.01764  -0.00072  -0.01520
  34        2S         -0.03154   0.00851  -0.03670   0.00005  -0.01988
  35        3S         -0.01239   0.00807  -0.02642   0.00016  -0.00372
  36 6   H  1S         -0.02041  -0.01478  -0.00929  -0.00074  -0.01555
  37        2S         -0.03158  -0.03574  -0.01083  -0.00002  -0.02081
  38        3S         -0.01247  -0.02668  -0.00629   0.00010  -0.00429
                          11        12        13        14        15
  11        4PX         0.06077
  12        4PY        -0.00940   0.05140
  13        4PZ        -0.00136  -0.00220   0.14248
  14 2   H  1S          0.03374  -0.05429  -0.00097   0.08093
  15        2S          0.04904  -0.07545  -0.00032   0.10956   0.15043
  16        3S          0.02153  -0.02806   0.00024   0.03700   0.05309
  17 3   H  1S         -0.06332   0.00170  -0.00111  -0.01305  -0.02491
  18        2S         -0.08820   0.00448  -0.00049  -0.02487  -0.04363
  19        3S         -0.03405   0.00472   0.00018  -0.01831  -0.02797
  20 4   C  1S         -0.00310  -0.00565  -0.00065   0.00423   0.00669
  21        2S         -0.00645  -0.01159  -0.00104   0.00699   0.01118
  22        2PX        -0.01306  -0.02006   0.00104   0.00186  -0.00269
  23        2PY        -0.02007  -0.03685   0.00204   0.01148   0.02423
  24        2PZ        -0.00080  -0.00116   0.09573  -0.00055  -0.00017
  25        3S          0.02290   0.04091   0.00305  -0.02103  -0.03363
  26        3PX        -0.02003  -0.02833   0.00140   0.00101  -0.00729
  27        3PY        -0.02823  -0.05361   0.00282   0.01704   0.03627
  28        3PZ        -0.00131  -0.00192   0.15324  -0.00080  -0.00017
  29        4S          0.00766   0.01453   0.00376  -0.01751  -0.02395
  30        4PX        -0.01479  -0.01234   0.00131  -0.00173  -0.00859
  31        4PY        -0.01248  -0.02945   0.00268   0.01520   0.02706
  32        4PZ        -0.00155  -0.00238   0.14254  -0.00044   0.00028
  33 5   H  1S          0.00192  -0.01588  -0.00036   0.01121   0.02340
  34        2S          0.00913  -0.02776   0.00046   0.02383   0.04462
  35        3S          0.00754  -0.01597   0.00032   0.01668   0.02800
  36 6   H  1S         -0.01441  -0.00575  -0.00038  -0.00914  -0.01838
  37        2S         -0.02810  -0.00521   0.00041  -0.01890  -0.03461
  38        3S         -0.01727  -0.00119   0.00028  -0.01018  -0.01786
                          16        17        18        19        20
  16        3S          0.02139
  17 3   H  1S         -0.01842   0.08200
  18        2S         -0.02801   0.10975   0.14905
  19        3S         -0.01328   0.03639   0.05174   0.02062
  20 4   C  1S          0.00366   0.00429   0.00667   0.00364   0.65947
  21        2S          0.00540   0.00707   0.01110   0.00533   0.56155
  22        2PX        -0.00350   0.00910   0.02236   0.01678   0.00116
  23        2PY         0.01760   0.00752   0.00973   0.00558   0.00180
  24        2PZ         0.00003  -0.00054  -0.00011   0.00008   0.00008
  25        3S         -0.01404  -0.02117  -0.03323  -0.01369  -0.08919
  26        3PX        -0.00705   0.01438   0.03513   0.02621  -0.00049
  27        3PY         0.02654   0.00951   0.01160   0.00686  -0.00105
  28        3PZ         0.00008  -0.00078  -0.00007   0.00015   0.00017
  29        4S         -0.00566  -0.01716  -0.02291  -0.00506  -0.08020
  30        4PX        -0.00712   0.01421   0.02791   0.01722  -0.00022
  31        4PY         0.01588   0.00655   0.00652   0.00184  -0.00024
  32        4PZ         0.00028  -0.00043   0.00034   0.00032  -0.00006
  33 5   H  1S          0.01627  -0.00900  -0.01816  -0.00952  -0.02012
  34        2S          0.02761  -0.01860  -0.03405  -0.01713  -0.02228
  35        3S          0.01476  -0.01005  -0.01760  -0.00907   0.00056
  36 6   H  1S         -0.00967   0.01122   0.02337   0.01606  -0.01986
  37        2S         -0.01747   0.02377   0.04444   0.02729  -0.02220
  38        3S         -0.00923   0.01662   0.02779   0.01456   0.00048
                          21        22        23        24        25
  21        2S          0.49203
  22        2PX         0.00167   0.08252
  23        2PY         0.00258   0.00384   0.08759
  24        2PZ         0.00011   0.00016   0.00020   0.06435
  25        3S         -0.15415  -0.00542  -0.00845  -0.00013   0.45340
  26        3PX        -0.00074   0.12842   0.00194   0.00011  -0.00021
  27        3PY        -0.00159   0.00195   0.13125   0.00009   0.00061
  28        3PZ         0.00029   0.00023   0.00032   0.10301  -0.00056
  29        4S         -0.11586   0.01426   0.02425   0.00062   0.27851
  30        4PX        -0.00149   0.07277  -0.00510   0.00048   0.00629
  31        4PY        -0.00236  -0.00501   0.06673   0.00090   0.01035
  32        4PZ        -0.00017   0.00078   0.00142   0.09579   0.00090
  33 5   H  1S         -0.03205  -0.03324   0.06346  -0.00134   0.08573
  34        2S         -0.03561  -0.04929   0.08849  -0.00109   0.09524
  35        3S         -0.00065  -0.02228   0.03350  -0.00013   0.00574
  36 6   H  1S         -0.03166   0.07101   0.00250  -0.00116   0.08465
  37        2S         -0.03551   0.10114   0.00094  -0.00084   0.09498
  38        3S         -0.00078   0.04041  -0.00283  -0.00003   0.00603
                          26        27        28        29        30
  26        3PX         0.20019
  27        3PY        -0.00280   0.19725
  28        3PZ         0.00015   0.00013   0.16491
  29        4S          0.02606   0.04396   0.00075   0.18755
  30        4PX         0.11390  -0.01080   0.00076   0.01593   0.06591
  31        4PY        -0.01066   0.10083   0.00144   0.02598  -0.01035
  32        4PZ         0.00099   0.00183   0.15335   0.00201   0.00115
  33 5   H  1S         -0.05331   0.09944  -0.00222   0.06761  -0.03425
  34        2S         -0.07948   0.13819  -0.00181   0.07845  -0.05157
  35        3S         -0.03638   0.05166  -0.00021   0.00965  -0.02382
  36 6   H  1S          0.11224   0.00296  -0.00194   0.06771   0.06542
  37        2S          0.15968  -0.00056  -0.00143   0.07960   0.09352
  38        3S          0.06347  -0.00604  -0.00006   0.01047   0.03751
                          31        32        33        34        35
  31        4PY         0.05309
  32        4PZ         0.00224   0.14263
  33 5   H  1S          0.05545  -0.00116   0.08061
  34        2S          0.07714  -0.00053   0.10986   0.15213
  35        3S          0.02892   0.00012   0.03789   0.05500   0.02269
  36 6   H  1S         -0.00206  -0.00102  -0.01252  -0.02588  -0.01973
  37        2S         -0.00620  -0.00034  -0.02594  -0.04777  -0.03123
  38        3S         -0.00616   0.00019  -0.01986  -0.03128  -0.01539
                          36        37        38
  36 6   H  1S          0.07982
  37        2S          0.10961   0.15286
  38        3S          0.03817   0.05570   0.02307
    Full Mulliken population analysis:
                           1         2         3         4         5
   1 1   C  1S          0.65941
   2        2S          0.49326   0.49200
   3        2PX         0.00000   0.00000   0.08404
   4        2PY         0.00000   0.00000   0.00000   0.08765
   5        2PZ         0.00000   0.00000   0.00000   0.00000   0.06446
   6        3S         -0.02928  -0.06444   0.00000   0.00000   0.00000
   7        3PX         0.00000   0.00000   0.08193   0.00000   0.00000
   8        3PY         0.00000   0.00000   0.00000   0.08251   0.00000
   9        3PZ         0.00000   0.00000   0.00000   0.00000   0.06516
  10        4S         -0.01223  -0.02145   0.00000   0.00000   0.00000
  11        4PX         0.00000   0.00000   0.01554   0.00000   0.00000
  12        4PY         0.00000   0.00000   0.00000   0.01446   0.00000
  13        4PZ         0.00000   0.00000   0.00000   0.00000   0.02110
  14 2   H  1S         -0.00022  -0.00032   0.00175   0.00553   0.00000
  15        2S         -0.00164  -0.00314   0.00426   0.01319   0.00000
  16        3S          0.00004  -0.00007   0.00070   0.00192   0.00000
  17 3   H  1S         -0.00024  -0.00035   0.00770   0.00000   0.00000
  18        2S         -0.00171  -0.00327   0.01765   0.00001   0.00001
  19        3S          0.00005  -0.00007   0.00257  -0.00000   0.00000
  20 4   C  1S          0.00000   0.00000  -0.00002  -0.00006   0.00000
  21        2S          0.00000  -0.00000  -0.00002  -0.00006   0.00000
  22        2PX        -0.00002  -0.00002   0.00011   0.00086   0.00000
  23        2PY        -0.00006  -0.00005   0.00086   0.00198   0.00000
  24        2PZ        -0.00000  -0.00000  -0.00000  -0.00000   0.00042
  25        3S         -0.00060  -0.00101   0.00253   0.00765  -0.00000
  26        3PX        -0.00055  -0.00101   0.00019   0.00558   0.00000
  27        3PY        -0.00165  -0.00303   0.00553   0.01070   0.00000
  28        3PZ        -0.00000  -0.00000  -0.00000  -0.00000   0.00615
  29        4S          0.00035   0.00031   0.00092   0.00282  -0.00000
  30        4PX        -0.00018  -0.00046  -0.00071   0.00145   0.00000
  31        4PY        -0.00053  -0.00135   0.00145   0.00096   0.00000
  32        4PZ        -0.00000  -0.00000  -0.00000  -0.00000   0.00903
  33 5   H  1S          0.00000   0.00000  -0.00000  -0.00000   0.00000
  34        2S          0.00001   0.00002   0.00000  -0.00032   0.00000
  35        3S          0.00008   0.00013   0.00001  -0.00071  -0.00000
  36 6   H  1S          0.00000   0.00000  -0.00000  -0.00000   0.00000
  37        2S          0.00001   0.00002  -0.00024  -0.00007   0.00000
  38        3S          0.00008   0.00013  -0.00057  -0.00012  -0.00000
                           6         7         8         9        10
   6        3S          0.45262
   7        3PX         0.00000   0.20214
   8        3PY         0.00000   0.00000   0.19674
   9        3PZ         0.00000   0.00000   0.00000   0.16643
  10        4S          0.21255   0.00000   0.00000   0.00000   0.18354
  11        4PX         0.00000   0.07179   0.00000   0.00000   0.00000
  12        4PY         0.00000   0.00000   0.06469   0.00000   0.00000
  13        4PZ         0.00000   0.00000   0.00000   0.10062   0.00000
  14 2   H  1S          0.01578   0.01054   0.03221   0.00002   0.01815
  15        2S          0.04069   0.01943   0.05775   0.00002   0.04671
  16        3S          0.00282   0.00400   0.01030   0.00000   0.00838
  17 3   H  1S          0.01662   0.04381   0.00002   0.00002   0.01841
  18        2S          0.04192   0.07724   0.00001   0.00003   0.04654
  19        3S          0.00283   0.01400  -0.00002   0.00000   0.00772
  20 4   C  1S         -0.00060  -0.00057  -0.00172   0.00000   0.00034
  21        2S         -0.00101  -0.00105  -0.00317   0.00000   0.00031
  22        2PX         0.00246   0.00018   0.00555   0.00000   0.00083
  23        2PY         0.00738   0.00553   0.01065   0.00000   0.00247
  24        2PZ         0.00000  -0.00000  -0.00000   0.00617   0.00000
  25        3S          0.02199   0.01329   0.04020  -0.00000   0.00028
  26        3PX         0.01277  -0.00127   0.01859   0.00000   0.00421
  27        3PY         0.03830   0.01843   0.02846   0.00000   0.01250
  28        3PZ         0.00000  -0.00000  -0.00000   0.03542   0.00000
  29        4S          0.00050   0.00472   0.01448  -0.00000  -0.02081
  30        4PX         0.00638  -0.00405   0.00583   0.00000   0.00209
  31        4PY         0.01894   0.00582   0.00122   0.00000   0.00586
  32        4PZ         0.00000  -0.00000  -0.00000   0.04929   0.00000
  33 5   H  1S         -0.00006  -0.00000  -0.00019   0.00000  -0.00082
  34        2S         -0.00123   0.00006  -0.00324  -0.00000  -0.00334
  35        3S         -0.00202   0.00010  -0.00426  -0.00000  -0.00134
  36 6   H  1S         -0.00005  -0.00013  -0.00006   0.00000  -0.00083
  37        2S         -0.00121  -0.00258  -0.00053   0.00000  -0.00348
  38        3S         -0.00203  -0.00355  -0.00057  -0.00000  -0.00154
                          11        12        13        14        15
  11        4PX         0.06077
  12        4PY         0.00000   0.05140
  13        4PZ         0.00000   0.00000   0.14248
  14 2   H  1S          0.00630   0.01760   0.00001   0.08093
  15        2S          0.01542   0.04122   0.00001   0.07739   0.15043
  16        3S          0.00531   0.01203  -0.00000   0.01383   0.04188
  17 3   H  1S          0.02371  -0.00001   0.00001  -0.00001  -0.00066
  18        2S          0.05550  -0.00005   0.00001  -0.00066  -0.00550
  19        3S          0.01676  -0.00004  -0.00000  -0.00205  -0.00817
  20 4   C  1S         -0.00018  -0.00057   0.00000   0.00000   0.00002
  21        2S         -0.00046  -0.00143   0.00000   0.00000   0.00003
  22        2PX        -0.00071   0.00139   0.00000  -0.00000   0.00000
  23        2PY         0.00139   0.00095   0.00000  -0.00000  -0.00035
  24        2PZ        -0.00000  -0.00000   0.00902   0.00000   0.00000
  25        3S          0.00643   0.01991  -0.00000  -0.00007  -0.00146
  26        3PX        -0.00412   0.00560   0.00000  -0.00000   0.00004
  27        3PY         0.00559   0.00122   0.00000  -0.00022  -0.00351
  28        3PZ        -0.00000  -0.00000   0.04904   0.00000   0.00000
  29        4S          0.00232   0.00762  -0.00000  -0.00101  -0.00426
  30        4PX        -0.00714   0.00312   0.00000   0.00002   0.00018
  31        4PY         0.00315  -0.00561   0.00000  -0.00239  -0.01014
  32        4PZ        -0.00000  -0.00000   0.08958   0.00000  -0.00000
  33 5   H  1S          0.00002  -0.00236   0.00000   0.00000   0.00000
  34        2S          0.00026  -0.00998  -0.00000   0.00000   0.00015
  35        3S          0.00028  -0.00738  -0.00000   0.00023   0.00146
  36 6   H  1S         -0.00176  -0.00048   0.00000  -0.00000  -0.00004
  37        2S         -0.00833  -0.00105  -0.00000  -0.00004  -0.00093
  38        3S         -0.00660  -0.00031  -0.00000  -0.00046  -0.00248
                          16        17        18        19        20
  16        3S          0.02139
  17 3   H  1S         -0.00206   0.08200
  18        2S         -0.00819   0.07752   0.14905
  19        3S         -0.00691   0.01360   0.04082   0.02062
  20 4   C  1S          0.00009   0.00000   0.00002   0.00009   0.65947
  21        2S          0.00016   0.00000   0.00003   0.00016   0.49329
  22        2PX         0.00001  -0.00000  -0.00027  -0.00058   0.00000
  23        2PY        -0.00073  -0.00000  -0.00008  -0.00013   0.00000
  24        2PZ        -0.00000   0.00000   0.00000  -0.00000   0.00000
  25        3S         -0.00240  -0.00007  -0.00144  -0.00234  -0.02936
  26        3PX         0.00007  -0.00015  -0.00283  -0.00363   0.00000
  27        3PY        -0.00442  -0.00007  -0.00063  -0.00064   0.00000
  28        3PZ        -0.00000   0.00000   0.00000  -0.00000   0.00000
  29        4S         -0.00211  -0.00099  -0.00408  -0.00189  -0.01233
  30        4PX         0.00019  -0.00186  -0.00870  -0.00674   0.00000
  31        4PY        -0.00747  -0.00057  -0.00136  -0.00048   0.00000
  32        4PZ        -0.00000   0.00000  -0.00000  -0.00000   0.00000
  33 5   H  1S          0.00022  -0.00000  -0.00004  -0.00043  -0.00021
  34        2S          0.00144  -0.00004  -0.00089  -0.00235  -0.00159
  35        3S          0.00247  -0.00045  -0.00242  -0.00287   0.00004
  36 6   H  1S         -0.00044   0.00000   0.00000   0.00022  -0.00020
  37        2S         -0.00243   0.00000   0.00015   0.00141  -0.00155
  38        3S         -0.00295   0.00023   0.00144   0.00243   0.00004
                          21        22        23        24        25
  21        2S          0.49203
  22        2PX         0.00000   0.08252
  23        2PY         0.00000   0.00000   0.08759
  24        2PZ         0.00000   0.00000   0.00000   0.06435
  25        3S         -0.06456   0.00000   0.00000   0.00000   0.45340
  26        3PX         0.00000   0.08079   0.00000   0.00000   0.00000
  27        3PY         0.00000   0.00000   0.08257   0.00000   0.00000
  28        3PZ         0.00000   0.00000   0.00000   0.06481   0.00000
  29        4S         -0.02168   0.00000   0.00000   0.00000   0.21576
  30        4PX         0.00000   0.01603   0.00000   0.00000   0.00000
  31        4PY         0.00000   0.00000   0.01470   0.00000   0.00000
  32        4PZ         0.00000   0.00000   0.00000   0.02110   0.00000
  33 5   H  1S         -0.00030   0.00148   0.00561   0.00000   0.01535
  34        2S         -0.00304   0.00382   0.01360   0.00001   0.03951
  35        3S         -0.00006   0.00067   0.00200   0.00000   0.00263
  36 6   H  1S         -0.00028   0.00678   0.00001   0.00000   0.01482
  37        2S         -0.00297   0.01722   0.00001   0.00000   0.03892
  38        3S         -0.00007   0.00270  -0.00001   0.00000   0.00274
                          26        27        28        29        30
  26        3PX         0.20019
  27        3PY         0.00000   0.19725
  28        3PZ         0.00000   0.00000   0.16491
  29        4S          0.00000   0.00000   0.00000   0.18755
  30        4PX         0.07443   0.00000   0.00000   0.00000   0.06591
  31        4PY         0.00000   0.06589   0.00000   0.00000   0.00000
  32        4PZ         0.00000   0.00000   0.10021   0.00000   0.00000
  33 5   H  1S          0.00900   0.03323   0.00003   0.01771   0.00577
  34        2S          0.01739   0.05987   0.00003   0.04489   0.01466
  35        3S          0.00382   0.01075   0.00000   0.00725   0.00532
  36 6   H  1S          0.04134   0.00006   0.00002   0.01759   0.02440
  37        2S          0.07701  -0.00001   0.00002   0.04525   0.05895
  38        3S          0.01481  -0.00007   0.00000   0.00784   0.01863
                          31        32        33        34        35
  31        4PY         0.05309
  32        4PZ         0.00000   0.14263
  33 5   H  1S          0.01850   0.00001   0.08061
  34        2S          0.04342   0.00001   0.07760   0.15213
  35        3S          0.01279  -0.00000   0.01416   0.04339   0.02269
  36 6   H  1S         -0.00004   0.00001  -0.00001  -0.00076  -0.00228
  37        2S         -0.00020   0.00001  -0.00076  -0.00639  -0.00939
  38        3S         -0.00016  -0.00000  -0.00230  -0.00941  -0.00816
                          36        37        38
  36 6   H  1S          0.07982
  37        2S          0.07743   0.15286
  38        3S          0.01426   0.04394   0.02307
     Gross orbital populations:
                           1
   1 1   C  1S          1.10436
   2        2S          0.88585
   3        2PX         0.22620
   4        2PY         0.23593
   5        2PZ         0.16634
   6        3S          0.79262
   7        3PX         0.55982
   8        3PY         0.55543
   9        3PZ         0.42318
  10        4S          0.50503
  11        4PX         0.26125
  12        4PY         0.21193
  13        4PZ         0.41186
  14 2   H  1S          0.27283
  15        2S          0.46799
  16        3S          0.08706
  17 3   H  1S          0.27613
  18        2S          0.46585
  19        3S          0.08394
  20 4   C  1S          1.10441
  21        2S          0.88584
  22        2PX         0.22182
  23        2PY         0.23587
  24        2PZ         0.16588
  25        3S          0.79211
  26        3PX         0.55227
  27        3PY         0.55610
  28        3PZ         0.42063
  29        4S          0.50870
  30        4PX         0.27352
  31        4PY         0.21548
  32        4PZ         0.41187
  33 5   H  1S          0.27184
  34        2S          0.46972
  35        3S          0.08894
  36 6   H  1S          0.26940
  37        2S          0.47104
  38        3S          0.09096
          Condensed to atoms (all electrons):
               1          2          3          4          5          6
     1  C    5.036081   0.386702   0.387411   0.601746  -0.036272  -0.035868
     2  H    0.386702   0.518949  -0.034208  -0.039762   0.005976  -0.009778
     3  H    0.387411  -0.034208   0.515565  -0.039246  -0.009488   0.005888
     4  C    0.601746  -0.039762  -0.039246   5.054170   0.383986   0.383593
     5  H   -0.036272   0.005976  -0.009488   0.383986   0.525744  -0.039443
     6  H   -0.035868  -0.009778   0.005888   0.383593  -0.039443   0.527018
 Mulliken charges:
               1
     1  C   -0.339800
     2  H    0.172121
     3  H    0.174080
     4  C   -0.344487
     5  H    0.169497
     6  H    0.168590
 Sum of Mulliken charges =  -0.00000
 Mulliken charges with hydrogens summed into heavy atoms:
               1
     1  C    0.006400
     4  C   -0.006400
 Electronic spatial extent (au):  <R**2>=             83.8141
 Charge=             -0.0000 electrons
 Dipole moment (field-independent basis, Debye):
    X=             -0.0001    Y=              0.0132    Z=             -0.1059  Tot=              0.1067
 Quadrupole moment (field-independent basis, Debye-Ang):
   XX=            -12.2088   YY=            -12.2217   ZZ=            -15.6783
   XY=              0.0142   XZ=              0.0010   YZ=             -0.0057
 Traceless Quadrupole moment (field-independent basis, Debye-Ang):
   XX=              1.1608   YY=              1.1479   ZZ=             -2.3087
   XY=              0.0142   XZ=              0.0010   YZ=             -0.0057
 Octapole moment (field-independent basis, Debye-Ang**2):
  XXX=             -0.2925  YYY=             -0.0324  ZZZ=             -0.0677  XYY=              0.1134
  XXY=             -0.0532  XXZ=             -0.1435  XZZ=             -0.0858  YZZ=             -0.0711
  YYZ=             -0.1885  XYZ=             -0.0392
 Hexadecapole moment (field-independent basis, Debye-Ang**3):
 XXXX=            -34.3562 YYYY=            -55.2646 ZZZZ=            -17.8196 XXXY=             -7.2211
 XXXZ=              0.0111 YYYX=            -10.7206 YYYZ=              0.0123 ZZZX=              0.0140
 ZZZY=              0.0355 XXYY=            -16.2355 XXZZ=             -9.9506 YYZZ=            -13.6673
 XXYZ=              0.0086 YYXZ=              0.0009 ZZXY=             -3.2030
 N-N= 3.304306729774D+01 E-N=-2.477880888120D+02  KE= 7.813995818336D+01
 Orbital energies and kinetic energies (alpha):
                                 1                 2
   1         O               -10.290766         15.978353
   2         O               -10.288587         15.980297
   3         O                -0.863794          1.540551
   4         O                -0.671337          1.269262
   5         O                -0.558476          0.939796
   6         O                -0.509585          1.281824
   7         O                -0.435848          1.040666
   8         O                -0.357166          1.039230
   9         V                 0.080034          1.181805
  10         V                 0.140639          0.591073
  11         V                 0.163980          0.598249
  12         V                 0.169623          0.682494
  13         V                 0.240732          0.584817
  14         V                 0.375808          0.856251
  15         V                 0.392235          0.931262
  16         V                 0.397089          0.774963
  17         V                 0.463293          1.190540
  18         V                 0.487022          1.425106
  19         V                 0.493527          1.300870
  20         V                 0.591057          1.653722
  21         V                 0.664778          1.569347
  22         V                 0.689167          2.147212
  23         V                 0.772198          2.492335
  24         V                 0.775284          2.244005
  25         V                 0.841982          1.085170
  26         V                 0.953277          3.430993
  27         V                 2.232357          3.921549
  28         V                 2.289483          4.030347
  29         V                 2.332035          4.300059
  30         V                 2.405335          4.511993
  31         V                 2.671224          6.301178
  32         V                 2.817284          6.304792
  33         V                 2.878437          6.135940
  34         V                 2.951800          6.227296
  35         V                 3.140423          6.822039
  36         V                 3.316046          6.402775
  37         V                23.350584         60.073703
  38         V                23.706331         60.204573
 Total kinetic energy from orbitals= 7.813995818336D+01
 Calling FoFJK, ICntrl=      2127 FMM=F ISym2X=0 I1Cent= 0 IOpClX= 0 NMat=1 NMatS=1 NMatT=0.
 -------------------------------------------------------------------
 Center     Atomic                   Forces (Hartrees/Bohr)
 Number     Number              X              Y              Z
 -------------------------------------------------------------------
      1        6           0.009719513    0.003217464   -0.004276617
      2        1          -0.009308686    0.008368895    0.002182415
      3        1           0.005338431   -0.002968722    0.002035305
      4        6           0.009369610    0.009540896   -0.004825539
      5        1           0.003542991   -0.014075089    0.002401135
      6        1          -0.018661858   -0.004083444    0.002483301
 -------------------------------------------------------------------
 Cartesian Forces:  Max     0.018661858 RMS     0.007872790

 GradGradGradGradGradGradGradGradGradGradGradGradGradGradGradGradGradGrad
 Berny optimization.
 Search for a local minimum.
 Step number   1 out of a maximum of    2
 All quantities printed in internal units (Hartrees-Bohrs-Radians)
 Second derivative matrix not updated -- first step.
 The second derivative matrix:
                          X1        Y1        Z1        X2        Y2
           X1           0.75183
           Y1           0.10409   0.85784
           Z1           0.00637   0.00928   0.17215
           X2          -0.16119   0.09400   0.00210   0.13896
           Y2           0.10030  -0.28115  -0.00763  -0.11311   0.27021
           Z2           0.00334  -0.00962  -0.05501  -0.00302   0.00793
           X3          -0.34734  -0.00405  -0.00860  -0.00060  -0.00034
           Y3          -0.01033  -0.10928  -0.00209   0.03229   0.01854
           Z3          -0.01097  -0.00203  -0.05656   0.00155   0.00056
           X4          -0.26809  -0.17973  -0.00097   0.02285   0.01314
           Y4          -0.17985  -0.47561  -0.00152  -0.01319  -0.00759
           Z4           0.00124   0.00234  -0.09457  -0.00063  -0.00086
           X5           0.02343  -0.01352   0.00069  -0.00001   0.00000
           Y5           0.01181  -0.00682   0.00095   0.00000  -0.00000
           Z5          -0.00054   0.00033   0.01743   0.00026  -0.00014
           X6           0.00136  -0.00079   0.00042  -0.00001   0.00000
           Y6          -0.02601   0.01502   0.00101   0.00000  -0.00000
           Z6           0.00055  -0.00030   0.01656  -0.00026   0.00014
                          Z2        X3        Y3        Z3        X4
           Z2           0.02865
           X3          -0.00034   0.34748
           Y3           0.00168   0.00465   0.07538
           Z3           0.01047   0.00941   0.00146   0.02962
           X4           0.00057   0.00048  -0.02662  -0.00056   0.71193
           Y4          -0.00031  -0.00028   0.01537   0.00034   0.12012
           Z4           0.01580  -0.00047  -0.00105   0.01657  -0.00527
           X5          -0.00029  -0.00001   0.00001   0.00029  -0.14699
           Y5           0.00017   0.00001  -0.00000  -0.00018   0.09228
           Z5           0.00927   0.00028  -0.00017  -0.00945  -0.00350
           X6          -0.00027  -0.00001   0.00001   0.00027  -0.32017
           Y6           0.00015   0.00000  -0.00000  -0.00015  -0.01919
           Z6          -0.00918  -0.00028   0.00017   0.00936   0.00974
                          Y4        Z4        X5        Y5        Z5
           Y4           0.85883
           Z4          -0.01073   0.17535
           X5           0.08441  -0.00232   0.12530
           Y5          -0.28694   0.00823  -0.10325   0.27748
           Z5           0.01019  -0.05711   0.00313  -0.00876   0.02967
           X6          -0.01121   0.00745  -0.00172  -0.00086   0.00037
           Y6          -0.10405   0.00207   0.03235   0.01629  -0.00145
           Z6           0.00204  -0.05604  -0.00151  -0.00041   0.01019
                          X6        Y6        Z6
           X6           0.32055
           Y6           0.01284   0.07275
           Z6          -0.00824  -0.00163   0.02911
 ITU=  0
     Eigenvalues ---    0.03731   0.04360   0.09176   0.10049   0.13477
     Eigenvalues ---    0.17349   0.26428   0.28742   0.52474   0.69459
     Eigenvalues ---    0.96594   1.56564
 Angle between quadratic step and forces=  32.98 degrees.
 Linear search not attempted -- first point.
 B after Tr=     0.005643    0.005025   -0.010851
         Rot=    1.000000   -0.000012    0.000007   -0.000097 Ang=  -0.01 deg.
 Variable       Old X    -DE/DX   Delta X   Delta X   Delta X     New X
                                 (Linear)    (Quad)   (Total)
    X1       -0.63326   0.00972   0.00000   0.01784   0.02369  -0.60956
    Y1       -1.09552   0.00322   0.00000   0.01715   0.02205  -1.07346
    Z1        0.01299  -0.00428   0.00000  -0.02258  -0.03346  -0.02048
    X2        0.40459  -0.00931   0.00000  -0.03480  -0.02860   0.37600
    Y2       -2.89815   0.00837   0.00000   0.02637   0.03147  -2.86669
    Z2       -0.04377   0.00218   0.00000   0.02784   0.01693  -0.02685
    X3       -2.69231   0.00534   0.00000   0.03214   0.03800  -2.65431
    Y3       -1.13102  -0.00297   0.00000  -0.00653  -0.00202  -1.13304
    Z3       -0.04810   0.00204   0.00000   0.02741   0.01650  -0.03160
    X4        0.62970   0.00937   0.00000   0.00551   0.01094   0.64063
    Y4        1.09216   0.00954   0.00000   0.00367   0.00882   1.10097
    Z4        0.01082  -0.00483   0.00000  -0.02234  -0.03315  -0.02234
    X5       -0.31241   0.00354   0.00000  -0.00390   0.00118  -0.31122
    Y5        2.95738  -0.01408   0.00000  -0.04769  -0.04273   2.91465
    Z5       -0.05344   0.00240   0.00000   0.02767   0.01688  -0.03655
    X6        2.73182  -0.01866   0.00000  -0.05063  -0.04522   2.68660
    Y6        1.20112  -0.00408   0.00000  -0.02313  -0.01759   1.18353
    Z6       -0.04905   0.00248   0.00000   0.02709   0.01630  -0.03275
         Item               Value     Threshold  Converged?
 Maximum Force            0.018662     0.000450     NO 
 RMS     Force            0.007873     0.000300     NO 
 Maximum Displacement     0.045218     0.001800     NO 
 RMS     Displacement     0.025831     0.001200     NO 
 Predicted change in Energy=-1.601075D-03
 GradGradGradGradGradGradGradGradGradGradGradGradGradGradGradGradGradGrad

 Unable to Open any file for archive entry.
 1\1\GINC-BHD0015\Force\RwB97XD\6-311G\C2H4\BWEIGHT\11-Jan-2023\0\\# WB
 97XD/6-311G SCF=XQC FORCE nosym pop=full guess=read\\MD Step 999\\0,1\
 C,-0.33510568,-0.57972221,0.00687156\H,0.21410175,-1.53363639,-0.02316
 346\H,-1.4247106,-0.59850975,-0.02545086\C,0.33322102,0.57794363,0.005
 72432\H,-0.16531847,1.56498021,-0.02827798\H,1.44561832,0.63560517,-0.
 02595667\\Version=ES64L-G16RevC.01\HF=-78.5558043\RMSD=7.594e-09\RMSF=
 7.873e-03\Dipole=-0.0000211,0.0052008,-0.0416469\Quadrupole=0.8630325,
 0.8534215,-1.716454,0.0105439,0.0007126,-0.0042676\PG=C01 [X(C2H4)]\\@
 The archive entry for this job was punched.


 IT IS IMPOSSIBLE TO MEDITATE ON TIME AND THE MYSTERY 
 OF NATURE WITHOUT AN OVERWHELMING EMOTION AT THE
 LIMITATIONS OF HUMAN INTELLIGENCE.

                                         -- ALFRED NORTH WHITEHEAD
 Job cpu time:       0 days  0 hours  0 minutes 52.2 seconds.
 Elapsed time:       0 days  0 hours  0 minutes 18.6 seconds.
 File lengths (MBytes):  RWF=    272 Int=      0 D2E=      0 Chk=     32 Scr=     32
 Normal termination of Gaussian 16 at Wed Jan 11 16:32:39 2023.
