 Entering Gaussian System, Link 0=g16
 Initial command:
 /software/gaussian/g16-c01/avx2/g16/l1.exe "/gpfs/fs2/scratch/bweight/software/many_molecule_many_mode_NAMD/src/NAMD/TEST_NVT/TRAJ/traj-84/G16/GS_NEW/Gau-11274.inp" -scrdir="/gpfs/fs2/scratch/bweight/software/many_molecule_many_mode_NAMD/src/NAMD/TEST_NVT/TRAJ/traj-84/G16/GS_NEW/"
 Entering Link 1 = /software/gaussian/g16-c01/avx2/g16/l1.exe PID=     11275.
  
 Copyright (c) 1988-2019, Gaussian, Inc.  All Rights Reserved.
  
 This is part of the Gaussian(R) 16 program.  It is based on
 the Gaussian(R) 09 system (copyright 2009, Gaussian, Inc.),
 the Gaussian(R) 03 system (copyright 2003, Gaussian, Inc.),
 the Gaussian(R) 98 system (copyright 1998, Gaussian, Inc.),
 the Gaussian(R) 94 system (copyright 1995, Gaussian, Inc.),
 the Gaussian 92(TM) system (copyright 1992, Gaussian, Inc.),
 the Gaussian 90(TM) system (copyright 1990, Gaussian, Inc.),
 the Gaussian 88(TM) system (copyright 1988, Gaussian, Inc.),
 the Gaussian 86(TM) system (copyright 1986, Carnegie Mellon
 University), and the Gaussian 82(TM) system (copyright 1983,
 Carnegie Mellon University). Gaussian is a federally registered
 trademark of Gaussian, Inc.
  
 This software contains proprietary and confidential information,
 including trade secrets, belonging to Gaussian, Inc.
  
 This software is provided under written license and may be
 used, copied, transmitted, or stored only in accord with that
 written license.
  
 The following legend is applicable only to US Government
 contracts under FAR:
  
                    RESTRICTED RIGHTS LEGEND
  
 Use, reproduction and disclosure by the US Government is
 subject to restrictions as set forth in subparagraphs (a)
 and (c) of the Commercial Computer Software - Restricted
 Rights clause in FAR 52.227-19.
  
 Gaussian, Inc.
 340 Quinnipiac St., Bldg. 40, Wallingford CT 06492
  
  
 ---------------------------------------------------------------
 Warning -- This program may not be used in any manner that
 competes with the business of Gaussian, Inc. or will provide
 assistance to any competitor of Gaussian, Inc.  The licensee
 of this program is prohibited from giving any competitor of
 Gaussian, Inc. access to this program.  By using this program,
 the user acknowledges that Gaussian, Inc. is engaged in the
 business of creating and licensing software in the field of
 computational chemistry and represents and warrants to the
 licensee that it is not a competitor of Gaussian, Inc. and that
 it will not use this program in any manner prohibited above.
 ---------------------------------------------------------------
  

 Cite this work as:
 Gaussian 16, Revision C.01,
 M. J. Frisch, G. W. Trucks, H. B. Schlegel, G. E. Scuseria, 
 M. A. Robb, J. R. Cheeseman, G. Scalmani, V. Barone, 
 G. A. Petersson, H. Nakatsuji, X. Li, M. Caricato, A. V. Marenich, 
 J. Bloino, B. G. Janesko, R. Gomperts, B. Mennucci, H. P. Hratchian, 
 J. V. Ortiz, A. F. Izmaylov, J. L. Sonnenberg, D. Williams-Young, 
 F. Ding, F. Lipparini, F. Egidi, J. Goings, B. Peng, A. Petrone, 
 T. Henderson, D. Ranasinghe, V. G. Zakrzewski, J. Gao, N. Rega, 
 G. Zheng, W. Liang, M. Hada, M. Ehara, K. Toyota, R. Fukuda, 
 J. Hasegawa, M. Ishida, T. Nakajima, Y. Honda, O. Kitao, H. Nakai, 
 T. Vreven, K. Throssell, J. A. Montgomery, Jr., J. E. Peralta, 
 F. Ogliaro, M. J. Bearpark, J. J. Heyd, E. N. Brothers, K. N. Kudin, 
 V. N. Staroverov, T. A. Keith, R. Kobayashi, J. Normand, 
 K. Raghavachari, A. P. Rendell, J. C. Burant, S. S. Iyengar, 
 J. Tomasi, M. Cossi, J. M. Millam, M. Klene, C. Adamo, R. Cammi, 
 J. W. Ochterski, R. L. Martin, K. Morokuma, O. Farkas, 
 J. B. Foresman, and D. J. Fox, Gaussian, Inc., Wallingford CT, 2019.
 
 ******************************************
 Gaussian 16:  ES64L-G16RevC.01  3-Jul-2019
                11-Jan-2023 
 ******************************************
 %oldchk=../GS_OLD/geometry.chk
 %chk=geometry.chk
 %nprocshared=4
 Will use up to    4 processors via shared memory.
 %mem=5GB
 Copying data from "../GS_OLD/geometry.chk" to current chk file "geometry.chk"
 IOpt=  2 FromEx=T IUOpen= 4 IOptOp= 5 NList=   0 IFRang= 0 IUIn= 4 IUOut= 2.
 -------------------------------------------------------
 # WB97XD/6-311G SCF=XQC FORCE nosym pop=full guess=read
 -------------------------------------------------------
 1/10=7,30=1,38=1/1,3;
 2/12=2,15=1,17=6,18=5,40=1/2;
 3/5=4,6=6,11=2,25=1,30=1,71=1,74=-58,116=-2/1,2,3;
 4/5=1/1;
 5/5=2,8=3,13=1,38=6/2,8;
 6/7=3,28=1/1;
 7/29=1,30=1/1,2,3,16;
 1/10=7,30=1/3;
 99//99;
 ------------
 MD Step 1000
 ------------
 Symbolic Z-matrix:
 Charge =  0 Multiplicity = 1
 C                    -0.3358   -0.58152   0.00852 
 H                     0.21424  -1.5267   -0.02943 
 H                    -1.42012  -0.5893   -0.03179 
 C                     0.33343   0.57756   0.00659 
 H                    -0.16338   1.5664   -0.03671 
 H                     1.44537   0.64458  -0.03427 
 

 GradGradGradGradGradGradGradGradGradGradGradGradGradGradGradGradGradGrad
 Berny optimization.
 Initialization pass.
 Trust Radius=3.00D-01 FncErr=1.00D-07 GrdErr=1.00D-07 EigMax=2.50D+02 EigMin=1.00D-04
 Number of steps in this run=      2 maximum allowed number of steps=      2.
 GradGradGradGradGradGradGradGradGradGradGradGradGradGradGradGradGradGrad

                          Input orientation:                          
 ---------------------------------------------------------------------
 Center     Atomic      Atomic             Coordinates (Angstroms)
 Number     Number       Type             X           Y           Z
 ---------------------------------------------------------------------
      1          6           0       -0.335802   -0.581519    0.008518
      2          1           0        0.214245   -1.526699   -0.029430
      3          1           0       -1.420122   -0.589299   -0.031785
      4          6           0        0.333430    0.577564    0.006593
      5          1           0       -0.163375    1.566398   -0.036712
      6          1           0        1.445366    0.644581   -0.034273
 ---------------------------------------------------------------------
                    Distance matrix (angstroms):
                    1          2          3          4          5
     1  C    0.000000
     2  H    1.094238   0.000000
     3  H    1.085096   1.884112   0.000000
     4  C    1.338413   2.107944   2.106653   0.000000
     5  H    2.155302   3.116072   2.495289   1.107467   0.000000
     6  H    2.162802   2.496025   3.119854   1.114703   1.854131
                    6
     6  H    0.000000
 Symmetry turned off by external request.
 Stoichiometry    C2H4
 Framework group  C1[X(C2H4)]
 Deg. of freedom    12
 Full point group                 C1      NOp   1
 Rotational constants (GHZ):         143.2920015          29.6684215          24.5928896
 Standard basis: 6-311G (5D, 7F)
    38 basis functions,    72 primitive gaussians,    38 cartesian basis functions
     8 alpha electrons        8 beta electrons
       nuclear repulsion energy        33.0609035530 Hartrees.
 NAtoms=    6 NActive=    6 NUniq=    6 SFac= 1.00D+00 NAtFMM=   60 NAOKFM=F Big=F
 Integral buffers will be    131072 words long.
 Raffenetti 2 integral format.
 Two-electron integral symmetry is turned off.
 Nuclear repulsion after empirical dispersion term =       33.0600620046 Hartrees.
 One-electron integrals computed using PRISM.
 NBasis=    38 RedAO= T EigKep=  6.44D-03  NBF=    38
 NBsUse=    38 1.00D-06 EigRej= -1.00D+00 NBFU=    38
 Initial guess from the checkpoint file:  "geometry.chk"
 B after Tr=    -0.000198   -0.000300   -0.000707
         Rot=    1.000000    0.000001    0.000001    0.000006 Ang=   0.00 deg.
 Keep R1 ints in memory in canonical form, NReq=4036876.
 Requested convergence on RMS density matrix=1.00D-08 within  32 cycles.
 Requested convergence on MAX density matrix=1.00D-06.
 Requested convergence on             energy=1.00D-06.
 No special actions if energy rises.
 SCF Done:  E(RwB97XD) =  -78.5555497990     A.U. after    8 cycles
            NFock=  8  Conv=0.62D-08     -V/T= 2.0052
 QCSCF skips out because SCF is already converged.

 **********************************************************************

            Population analysis using the SCF Density.

 **********************************************************************

 Alpha  occ. eigenvalues --  -10.29092 -10.28772  -0.86376  -0.67214  -0.55922
 Alpha  occ. eigenvalues --   -0.50942  -0.43642  -0.35683
 Alpha virt. eigenvalues --    0.07952   0.14089   0.16458   0.17014   0.24079
 Alpha virt. eigenvalues --    0.37456   0.39295   0.39831   0.46391   0.48848
 Alpha virt. eigenvalues --    0.49380   0.59100   0.66533   0.69089   0.77216
 Alpha virt. eigenvalues --    0.77603   0.83951   0.95185   2.23168   2.29000
 Alpha virt. eigenvalues --    2.33279   2.40562   2.67118   2.81698   2.87927
 Alpha virt. eigenvalues --    2.95134   3.13999   3.31738  23.35213  23.70564
     Molecular Orbital Coefficients:
                           1         2         3         4         5
                           O         O         O         O         O
     Eigenvalues --   -10.29092 -10.28772  -0.86376  -0.67214  -0.55922
   1 1   C  1S          0.07776   0.55800  -0.08854   0.06659  -0.00028
   2        2S          0.06420   0.45923  -0.13995   0.10665  -0.00046
   3        2PX         0.00016  -0.00001   0.02600   0.03671   0.13774
   4        2PY         0.00028  -0.00001   0.04604   0.06113  -0.07479
   5        2PZ         0.00000  -0.00001  -0.00163   0.00241   0.00034
   6        3S          0.00115   0.01460   0.37537  -0.29105   0.00127
   7        3PX        -0.00062   0.00040   0.03433   0.05880   0.21574
   8        3PY        -0.00107   0.00072   0.06047   0.09875  -0.11779
   9        3PZ        -0.00002  -0.00004  -0.00272   0.00430   0.00051
  10        4S          0.00390  -0.01453   0.19196  -0.22615   0.00082
  11        4PX         0.00156  -0.00148   0.00477   0.02364   0.11174
  12        4PY         0.00268  -0.00254   0.00848   0.04066  -0.06167
  13        4PZ         0.00000   0.00010  -0.00096   0.00217   0.00025
  14 2   H  1S         -0.00004  -0.00007   0.05298  -0.08820   0.10296
  15        2S         -0.00030   0.00009   0.05408  -0.10593   0.13019
  16        3S          0.00076   0.00173  -0.00169  -0.01532   0.04213
  17 3   H  1S         -0.00005  -0.00007   0.05400  -0.09098  -0.10551
  18        2S         -0.00030   0.00008   0.05472  -0.10859  -0.13262
  19        3S          0.00077   0.00175  -0.00174  -0.01602  -0.04290
  20 4   C  1S          0.55801  -0.07795  -0.08668  -0.06859  -0.00014
  21        2S          0.45927  -0.06395  -0.13687  -0.11000  -0.00021
  22        2PX        -0.00001  -0.00016  -0.02764   0.03702   0.11795
  23        2PY        -0.00002  -0.00029  -0.04696   0.06576  -0.07275
  24        2PZ        -0.00000   0.00000  -0.00135  -0.00266   0.00033
  25        3S          0.01417  -0.00287   0.36674   0.30059   0.00057
  26        3PX        -0.00024   0.00072  -0.03472   0.06013   0.18480
  27        3PY        -0.00039   0.00124  -0.05892   0.10633  -0.11311
  28        3PZ        -0.00004  -0.00001  -0.00235  -0.00478   0.00051
  29        4S         -0.01260   0.00784   0.18886   0.23868  -0.00035
  30        4PX         0.00097  -0.00186  -0.00542   0.02615   0.10165
  31        4PY         0.00164  -0.00326  -0.00922   0.04525  -0.06164
  32        4PZ         0.00009  -0.00002  -0.00096  -0.00246   0.00026
  33 5   H  1S         -0.00006  -0.00004   0.04945   0.09303  -0.08908
  34        2S         -0.00001  -0.00031   0.05071   0.11135  -0.11257
  35        3S          0.00179   0.00022  -0.00114   0.01668  -0.03615
  36 6   H  1S         -0.00005  -0.00004   0.04853   0.09147   0.08556
  37        2S         -0.00001  -0.00032   0.05016   0.10995   0.10853
  38        3S          0.00175   0.00022  -0.00120   0.01624   0.03514
                           6         7         8         9        10
                           O         O         O         V         V
     Eigenvalues --    -0.50942  -0.43642  -0.35683   0.07952   0.14089
   1 1   C  1S         -0.00396   0.00013  -0.00121   0.00338  -0.03253
   2        2S         -0.00598   0.00023  -0.00197   0.00561  -0.05216
   3        2PX         0.09449  -0.11082  -0.00437   0.00187  -0.03195
   4        2PY         0.16769   0.06565  -0.00721   0.00285  -0.06337
   5        2PZ         0.00640  -0.00008   0.17929  -0.18886  -0.00274
   6        3S          0.02216  -0.00049   0.00573  -0.01704   0.11306
   7        3PX         0.13743  -0.17662  -0.00618   0.00284  -0.03806
   8        3PY         0.24511   0.10498  -0.01015   0.00429  -0.07843
   9        3PZ         0.01014  -0.00009   0.28839  -0.27787  -0.00443
  10        4S         -0.05039  -0.00252   0.00871  -0.01798   1.20230
  11        4PX         0.06942  -0.10997  -0.00499   0.01601  -0.19575
  12        4PY         0.12462   0.06587  -0.00819   0.02594  -0.37883
  13        4PZ         0.00575  -0.00001   0.26712  -0.69388  -0.01599
  14 2   H  1S         -0.08023  -0.11476   0.00022   0.00524  -0.01573
  15        2S         -0.11076  -0.17703   0.00255   0.00817  -0.04536
  16        3S         -0.04143  -0.08186   0.00156   0.02159  -0.81396
  17 3   H  1S         -0.07898   0.11267   0.00014   0.00526  -0.01270
  18        2S         -0.10849   0.17323   0.00244   0.00830  -0.03803
  19        3S         -0.04028   0.07994   0.00150   0.02143  -0.76405
  20 4   C  1S         -0.00810  -0.00040  -0.00109  -0.00341  -0.03706
  21        2S         -0.01266  -0.00066  -0.00177  -0.00565  -0.05953
  22        2PX        -0.09785   0.12491   0.00414   0.00212   0.04050
  23        2PY        -0.16263  -0.07357   0.00779   0.00411   0.06255
  24        2PZ         0.00684   0.00033   0.17909   0.18938  -0.00421
  25        3S          0.04119   0.00191   0.00524   0.01690   0.13173
  26        3PX        -0.14472   0.20018   0.00577   0.00324   0.04940
  27        3PY        -0.23914  -0.11731   0.01096   0.00628   0.07420
  28        3PZ         0.01083   0.00051   0.28656   0.27755  -0.00635
  29        4S         -0.03137   0.00244   0.00838   0.02051   1.26193
  30        4PX        -0.07541   0.12820   0.00449   0.01636   0.26194
  31        4PY        -0.12344  -0.07451   0.00874   0.03006   0.41754
  32        4PZ         0.00629   0.00031   0.26725   0.69504  -0.02488
  33 5   H  1S         -0.07516  -0.12483   0.00027  -0.00519  -0.01341
  34        2S         -0.10292  -0.19498   0.00272  -0.00875  -0.03972
  35        3S         -0.03844  -0.09165   0.00149  -0.02279  -0.84061
  36 6   H  1S         -0.07994   0.12437   0.00018  -0.00520  -0.01626
  37        2S         -0.10981   0.19506   0.00259  -0.00881  -0.04689
  38        3S         -0.04115   0.09172   0.00140  -0.02315  -0.89177
                          11        12        13        14        15
                           V         V         V         V         V
     Eigenvalues --     0.16458   0.17014   0.24079   0.37456   0.39295
   1 1   C  1S          0.00122  -0.04585   0.00003   0.01049   0.00087
   2        2S          0.00198  -0.07471   0.00004   0.01460   0.00139
   3        2PX         0.09644  -0.01976   0.10034  -0.03683  -0.02334
   4        2PY        -0.05337  -0.03812  -0.05747  -0.06669   0.00972
   5        2PZ         0.00027  -0.00834   0.00011  -0.00577  -0.00023
   6        3S         -0.00434   0.16849   0.00025   0.03117  -0.00085
   7        3PX         0.13812  -0.01110   0.10649  -0.04792  -0.10534
   8        3PY        -0.07753  -0.02530  -0.06168  -0.09110   0.04925
   9        3PZ         0.00038  -0.01154   0.00007  -0.01148  -0.00034
  10        4S         -0.05058   1.45821  -0.01362  -2.68711  -0.16983
  11        4PX         0.57748  -0.11588   1.16794  -1.57729  -0.53766
  12        4PY        -0.31215  -0.21412  -0.66783  -2.75378   0.16620
  13        4PZ         0.00179  -0.05476   0.00181  -0.05363  -0.00314
  14 2   H  1S         -0.02919  -0.02525   0.01369  -0.05562   0.07571
  15        2S         -0.08078  -0.01801  -0.02205  -0.63986   0.77233
  16        3S         -1.02510  -1.02735  -1.55612  -0.33679  -0.31706
  17 3   H  1S          0.02908  -0.02459  -0.01529  -0.04941  -0.07630
  18        2S          0.08054  -0.01939   0.01745  -0.59022  -0.76547
  19        3S          1.09180  -1.01621   1.57768  -0.39623   0.25551
  20 4   C  1S          0.00071   0.04193  -0.00008  -0.02011  -0.00001
  21        2S          0.00112   0.06827  -0.00014  -0.03294   0.00014
  22        2PX         0.10235  -0.02183  -0.10009  -0.04177  -0.03126
  23        2PY        -0.06111  -0.03726   0.05735  -0.07425   0.01402
  24        2PZ         0.00022   0.00825  -0.00012   0.00452   0.00038
  25        3S         -0.00208  -0.15177   0.00033   0.04203  -0.00377
  26        3PX         0.14702  -0.01647  -0.11357  -0.09354  -0.10851
  27        3PY        -0.08713  -0.02721   0.06413  -0.16877   0.05844
  28        3PZ         0.00031   0.01139  -0.00009   0.00597   0.00075
  29        4S         -0.03914  -1.31938   0.00864   3.35260   0.13851
  30        4PX         0.54411  -0.10878  -1.11967  -1.21383  -0.54211
  31        4PY        -0.32902  -0.19293   0.64873  -2.12695   0.11046
  32        4PZ         0.00133   0.05347  -0.00183   0.04468   0.00274
  33 5   H  1S          0.03127   0.02514   0.00589   0.01108  -0.08069
  34        2S          0.06848   0.02252  -0.03432   0.07868  -0.79281
  35        3S          1.06894   0.93281  -1.51218   0.45823   0.47857
  36 6   H  1S         -0.03174   0.02533  -0.00478   0.00653   0.08749
  37        2S         -0.06934   0.02046   0.03532   0.03908   0.88803
  38        3S         -1.01762   0.92312   1.49893   0.47201  -0.46086
                          16        17        18        19        20
                           V         V         V         V         V
     Eigenvalues --     0.39831   0.46391   0.48848   0.49380   0.59100
   1 1   C  1S         -0.01766   0.01336  -0.04626   0.00011  -0.00071
   2        2S         -0.03118   0.03038  -0.07721   0.00054  -0.00128
   3        2PX         0.02524  -0.06167   0.01077   0.00136   0.00268
   4        2PY         0.04662  -0.10709   0.01444   0.00180   0.00391
   5        2PZ         0.00021  -0.00059   0.00467  -0.15165  -0.19257
   6        3S          0.07481  -0.33769   0.08540  -0.01299  -0.00062
   7        3PX         0.09951  -0.24059  -0.03785   0.00097   0.00899
   8        3PY         0.18755  -0.41661  -0.07408  -0.00038   0.01313
   9        3PZ        -0.00533  -0.00545   0.02180  -0.62781  -0.68525
  10        4S          2.55321   0.02669   3.14659   0.07632   0.08727
  11        4PX         0.18118   0.20405   0.81036   0.02572   0.02621
  12        4PY         0.34848   0.37971   1.40088   0.04758   0.04771
  13        4PZ        -0.00161   0.00313  -0.10348   0.68428   1.24069
  14 2   H  1S         -0.02730  -0.03288  -0.07687  -0.00249  -0.00209
  15        2S         -0.54851  -0.31045  -0.92603  -0.02182  -0.01551
  16        3S          0.28520   0.05117   0.63519   0.03002   0.02907
  17 3   H  1S         -0.03455  -0.03477  -0.07515  -0.00243  -0.00202
  18        2S         -0.61348  -0.33198  -0.90260  -0.02161  -0.01415
  19        3S          0.30014   0.05403   0.61091   0.02933   0.02862
  20 4   C  1S         -0.00188  -0.00387   0.05095   0.00327   0.00086
  21        2S         -0.00665   0.00111   0.08880   0.00597   0.00161
  22        2PX         0.00745   0.05417   0.02855  -0.00016   0.00249
  23        2PY         0.01518   0.09344   0.05114  -0.00065   0.00500
  24        2PZ        -0.00475  -0.00226   0.00478  -0.15284   0.19217
  25        3S          0.08107  -0.28086  -0.23846  -0.02474  -0.00296
  26        3PX        -0.04624   0.23392   0.05990  -0.00021   0.00871
  27        3PY        -0.06954   0.40685   0.10527  -0.00203   0.01738
  28        3PZ        -0.01356  -0.00910   0.01676  -0.63176   0.68187
  29        4S         -0.73476   0.84779  -3.06012  -0.10132  -0.07687
  30        4PX         1.19401  -0.37611   0.62091   0.01064   0.02805
  31        4PY         2.15459  -0.63319   1.05829   0.01851   0.04558
  32        4PZ        -0.04153  -0.02219   0.05255   0.69558  -1.23707
  33 5   H  1S         -0.04896  -0.06493   0.06278   0.00224   0.00201
  34        2S         -0.85079  -0.66129   0.78683   0.03533   0.00785
  35        3S         -0.15979   0.29016  -0.55058  -0.00570  -0.02888
  36 6   H  1S         -0.04138  -0.06408   0.06261   0.00227   0.00204
  37        2S         -0.76425  -0.64901   0.78080   0.03486   0.00818
  38        3S         -0.18521   0.30394  -0.56403  -0.00668  -0.02915
                          21        22        23        24        25
                           V         V         V         V         V
     Eigenvalues --     0.66533   0.69089   0.77216   0.77603   0.83951
   1 1   C  1S          0.00061  -0.00044   0.04936   0.07447   0.00088
   2        2S          0.00127  -0.00096   0.10406   0.15877   0.00200
   3        2PX        -0.12475   0.20329  -0.02933   0.11219  -0.00948
   4        2PY         0.07244  -0.12092  -0.05002   0.18515   0.01236
   5        2PZ        -0.00017   0.00034   0.00064   0.00605   0.00014
   6        3S         -0.01004   0.01223  -0.69203  -1.36660  -0.02117
   7        3PX        -0.58973   0.71895  -0.18921   0.43512  -0.22429
   8        3PY         0.33970  -0.42771  -0.32396   0.70961   0.15642
   9        3PZ        -0.00087   0.00125   0.00253   0.02117   0.00031
  10        4S          0.01502  -0.05179   0.64336   2.47755  -0.00573
  11        4PX         1.08220  -0.80713   0.18203  -0.73128   4.48487
  12        4PY        -0.62452   0.48870   0.24111  -1.01921  -2.56377
  13        4PZ         0.00135   0.00038   0.01394  -0.06776   0.00745
  14 2   H  1S          0.02102  -0.05976   0.00957   0.03274  -0.02636
  15        2S          0.10252  -0.65069   0.07571   0.09675  -1.55993
  16        3S         -1.00528   1.14182  -0.06457  -1.11977  -1.22769
  17 3   H  1S         -0.02040   0.05935   0.00952   0.03324   0.02926
  18        2S         -0.11174   0.67451   0.09650   0.06839   1.59208
  19        3S          0.99844  -1.11121  -0.04636  -1.23653   1.22511
  20 4   C  1S          0.00081  -0.00031   0.08301   0.03348   0.00053
  21        2S          0.00164  -0.00059   0.17673   0.07052   0.00107
  22        2PX        -0.15856  -0.17882  -0.09859   0.05014   0.01203
  23        2PY         0.09090   0.10000  -0.17653   0.09122  -0.00093
  24        2PZ        -0.00023  -0.00033   0.00651  -0.00117  -0.00015
  25        3S         -0.01224  -0.00036  -1.48164  -0.41770  -0.00458
  26        3PX        -0.70549  -0.59589  -0.36141   0.26957   0.24514
  27        3PY         0.40661   0.33107  -0.65144   0.48893  -0.11088
  28        3PZ        -0.00108  -0.00112   0.02301  -0.00456  -0.00027
  29        4S          0.01165   0.03029   2.67726   0.20663  -0.00747
  30        4PX         1.28455   0.67799   0.52973  -0.24489  -4.17440
  31        4PY        -0.73742  -0.37126   1.02587  -0.63382   2.38338
  32        4PZ         0.00187  -0.00029  -0.06777   0.03028  -0.00660
  33 5   H  1S         -0.02773  -0.05414   0.03463   0.00376  -0.02268
  34        2S         -0.17313  -0.55674   0.06659   0.07467  -1.41067
  35        3S          1.14481   0.93007  -1.15991   0.25756  -1.09621
  36 6   H  1S          0.02820   0.05409   0.03426   0.00420   0.02253
  37        2S          0.16704   0.53361   0.07184   0.02542   1.40068
  38        3S         -1.14709  -0.94589  -1.10029   0.19690   1.10658
                          26        27        28        29        30
                           V         V         V         V         V
     Eigenvalues --     0.95185   2.23168   2.29000   2.33279   2.40562
   1 1   C  1S          0.09573  -0.01049  -0.01458   0.00023  -0.00037
   2        2S          0.19892   0.00091  -0.01489   0.00059  -0.00042
   3        2PX        -0.09124  -0.08157  -0.13226   0.33987  -0.41045
   4        2PY        -0.15801  -0.15161  -0.22895  -0.19390   0.23266
   5        2PZ         0.00018  -0.01674  -0.02238   0.00025  -0.00110
   6        3S         -1.54144  -0.18408  -0.03325  -0.00122  -0.00375
   7        3PX        -0.23246   0.07952   0.20966  -0.40522   0.57216
   8        3PY        -0.39696   0.15874   0.37377   0.23301  -0.32610
   9        3PZ        -0.00322   0.01665   0.02796  -0.00019   0.00132
  10        4S          5.71813  -0.12157  -0.89316  -0.00300  -0.01449
  11        4PX         1.19150   0.05092  -0.19018  -0.03568   0.96615
  12        4PY         1.99188   0.07058  -0.35348   0.01259  -0.53764
  13        4PZ        -0.02304   0.00400   0.01038  -0.00023   0.00231
  14 2   H  1S          0.01532  -0.71774  -0.78305  -0.69881   0.66478
  15        2S         -0.28766   1.02276   1.17573   1.07157  -1.47281
  16        3S         -0.09492  -0.30372  -0.46603  -0.46440   0.37552
  17 3   H  1S          0.01562  -0.70917  -0.78504   0.68811  -0.68289
  18        2S         -0.26526   1.01108   1.18244  -1.05809   1.50986
  19        3S         -0.07959  -0.28515  -0.45538   0.45389  -0.36928
  20 4   C  1S         -0.09403  -0.01002   0.01215   0.00039   0.00021
  21        2S         -0.19506   0.00073   0.01190   0.00050   0.00042
  22        2PX        -0.09229   0.13128  -0.12523   0.31015   0.41293
  23        2PY        -0.15936   0.22956  -0.20933  -0.17973  -0.23737
  24        2PZ         0.00034  -0.01884   0.02275   0.00072   0.00061
  25        3S          1.50888  -0.16981   0.02087   0.00056  -0.00046
  26        3PX        -0.22674  -0.16734   0.21416  -0.38955  -0.57916
  27        3PY        -0.39576  -0.28905   0.35386   0.22389   0.33343
  28        3PZ         0.00445   0.02035  -0.02901  -0.00082  -0.00088
  29        4S         -5.69268  -0.15698   0.88560   0.01460   0.00125
  30        4PX         1.11364  -0.01492  -0.19960   0.09763  -0.84794
  31        4PY         1.98295  -0.03210  -0.32248  -0.05621   0.49526
  32        4PZ         0.01673   0.00570  -0.00816  -0.00005  -0.00200
  33 5   H  1S         -0.01797  -0.78165   0.68560   0.71513   0.67512
  34        2S          0.29231   1.13336  -1.04550  -1.04425  -1.43801
  35        3S          0.06202  -0.35436   0.40835   0.51640   0.42346
  36 6   H  1S         -0.01802  -0.77569   0.70564  -0.70054  -0.67580
  37        2S          0.30985   1.12270  -1.07045   1.02012   1.43316
  38        3S          0.06860  -0.35392   0.43222  -0.51153  -0.42983
                          31        32        33        34        35
                           V         V         V         V         V
     Eigenvalues --     2.67118   2.81698   2.87927   2.95134   3.13999
   1 1   C  1S          0.00061   0.00313  -0.01307  -0.00004  -0.00965
   2        2S          0.00044   0.00910  -0.04367  -0.00034  -0.02940
   3        2PX         0.00660   0.09016  -0.46371  -0.73158   0.45277
   4        2PY         0.00905   0.15777  -0.83816   0.41000   0.79010
   5        2PZ        -0.92307  -0.92541  -0.17248  -0.00196   0.00846
   6        3S         -0.00155  -0.07539   0.38433   0.00445   0.24630
   7        3PX        -0.00462  -0.15664   0.82471   0.88238  -0.43981
   8        3PY        -0.00579  -0.27246   1.46518  -0.48194  -0.76627
   9        3PZ         0.93798   1.13045   0.21670   0.00257  -0.01087
  10        4S          0.01533   0.17434  -0.86292  -0.01322  -0.47889
  11        4PX        -0.00280   0.12609  -0.70837  -0.66685   0.22639
  12        4PY        -0.00448   0.22041  -1.25896   0.35492   0.38980
  13        4PZ        -0.33752  -0.61059  -0.13767  -0.00200   0.00662
  14 2   H  1S          0.01506  -0.02505   0.26345  -0.37492  -0.21697
  15        2S         -0.01714   0.01584  -0.22024   0.38400   0.16379
  16        3S         -0.00390   0.05122  -0.29949   0.27510   0.06280
  17 3   H  1S          0.01529  -0.02440   0.25411   0.37712  -0.21724
  18        2S         -0.01771   0.01429  -0.20477  -0.38241   0.16419
  19        3S         -0.00434   0.05127  -0.29814  -0.28990   0.07018
  20 4   C  1S          0.00066  -0.00311   0.01360   0.00047  -0.00734
  21        2S          0.00068  -0.00958   0.04757   0.00112  -0.02308
  22        2PX        -0.00915   0.08093  -0.40870  -0.80399  -0.50057
  23        2PY        -0.01798   0.14531  -0.72699   0.44566  -0.88639
  24        2PZ        -0.92614   0.92097   0.17784  -0.00011   0.01665
  25        3S         -0.00396   0.08193  -0.42683  -0.00862   0.19911
  26        3PX         0.00980  -0.14701   0.76764   0.95709   0.53320
  27        3PY         0.01892  -0.26120   1.35508  -0.52270   0.95156
  28        3PZ         0.94210  -1.12583  -0.22394   0.00010  -0.02100
  29        4S          0.02079  -0.17882   0.89624   0.02493  -0.38027
  30        4PX        -0.00124   0.12480  -0.70431  -0.69890  -0.32167
  31        4PY        -0.00342   0.21942  -1.23262   0.37650  -0.57722
  32        4PZ        -0.33972   0.60826   0.14320  -0.00014   0.01633
  33 5   H  1S          0.01473   0.03318  -0.29278   0.41860  -0.26044
  34        2S         -0.01820  -0.02663   0.26655  -0.43175   0.20460
  35        3S         -0.00160  -0.04739   0.27980  -0.24198   0.12108
  36 6   H  1S          0.01491   0.03332  -0.28918  -0.42878  -0.24997
  37        2S         -0.01885  -0.02750   0.26715   0.44116   0.19635
  38        3S         -0.00119  -0.04544   0.26724   0.24444   0.11491
                          36        37        38
                           V         V         V
     Eigenvalues --     3.31738  23.35213  23.70564
   1 1   C  1S         -0.00028  -1.41223  -1.45401
   2        2S         -0.00040   1.50610   1.57230
   3        2PX         0.78485  -0.00660   0.01210
   4        2PY        -0.43968  -0.01095   0.02116
   5        2PZ         0.00164  -0.00069  -0.00030
   6        3S         -0.00039  -0.29548  -0.39977
   7        3PX        -1.12201   0.02425  -0.05555
   8        3PY         0.62537   0.04067  -0.09657
   9        3PZ        -0.00244   0.00194   0.00090
  10        4S         -0.00579   0.27231   0.76933
  11        4PX         1.95671  -0.02650   0.13296
  12        4PY        -1.09126  -0.04538   0.22901
  13        4PZ         0.00414  -0.00321  -0.00377
  14 2   H  1S          0.56004   0.01364   0.00750
  15        2S         -0.86681   0.00739  -0.01511
  16        3S         -0.46497  -0.08458  -0.03987
  17 3   H  1S         -0.56915   0.01497   0.00833
  18        2S          0.88000   0.00724  -0.01504
  19        3S          0.48581  -0.08619  -0.03987
  20 4   C  1S          0.00007  -1.44922   1.41697
  21        2S         -0.00015   1.54569  -1.53240
  22        2PX        -0.71118   0.00598   0.01268
  23        2PY         0.40767   0.01070   0.02163
  24        2PZ        -0.00139  -0.00070   0.00018
  25        3S          0.00363  -0.30360   0.39010
  26        3PX         1.01148  -0.02196  -0.05654
  27        3PY        -0.58712  -0.03898  -0.09728
  28        3PZ         0.00207   0.00201  -0.00047
  29        4S         -0.01430   0.28157  -0.75923
  30        4PX        -1.77039   0.02270   0.13117
  31        4PY         1.03429   0.04141   0.22720
  32        4PZ        -0.00359  -0.00332   0.00289
  33 5   H  1S          0.48438   0.01280  -0.00436
  34        2S         -0.75313   0.00829   0.01347
  35        3S         -0.42417  -0.08278   0.03712
  36 6   H  1S         -0.48042   0.01172  -0.00349
  37        2S          0.74890   0.00920   0.01313
  38        3S          0.41588  -0.08128   0.03670
     Density Matrix:
                           1         2         3         4         5
   1 1   C  1S          0.65940
   2        2S          0.56152   0.49203
   3        2PX        -0.00054  -0.00072   0.08445
   4        2PY        -0.00123  -0.00169   0.00348   0.08787
   5        2PZ         0.00012   0.00018  -0.00015  -0.00035   0.06439
   6        3S         -0.08895  -0.15388   0.00274   0.00608  -0.00029
   7        3PX         0.00086   0.00133   0.13071   0.00107  -0.00011
   8        3PY         0.00125   0.00192   0.00109   0.13140  -0.00032
   9        3PZ         0.00023   0.00038  -0.00027  -0.00057   0.10357
  10        4S         -0.07934  -0.11425  -0.01544  -0.02745   0.00076
  11        4PX         0.00027   0.00159   0.07030  -0.00447  -0.00071
  12        4PY         0.00058   0.00294  -0.00454   0.06554  -0.00122
  13        4PZ        -0.00012  -0.00029  -0.00106  -0.00179   0.09587
  14 2   H  1S         -0.02066  -0.03290   0.03491  -0.06329  -0.00146
  15        2S         -0.02287  -0.03657   0.04918  -0.08787  -0.00108
  16        3S          0.00058  -0.00070   0.02069  -0.03300   0.00000
  17 3   H  1S         -0.02106  -0.03350  -0.07284  -0.00206  -0.00167
  18        2S         -0.02314  -0.03696  -0.10058  -0.00207  -0.00133
  19        3S          0.00061  -0.00067  -0.03843   0.00126  -0.00009
  20 4   C  1S          0.00607   0.00978  -0.01083  -0.01879  -0.00054
  21        2S          0.00975   0.01524  -0.01733  -0.03007  -0.00088
  22        2PX         0.01037   0.01658  -0.01244  -0.03213   0.00056
  23        2PY         0.01804   0.02885  -0.03215  -0.04972   0.00114
  24        2PZ        -0.00060  -0.00097  -0.00052  -0.00074   0.06430
  25        3S         -0.02625  -0.03987   0.04862   0.08444   0.00266
  26        3PX         0.01600   0.02480  -0.01825  -0.04582   0.00071
  27        3PY         0.02782   0.04313  -0.04570  -0.07127   0.00152
  28        3PZ        -0.00102  -0.00163  -0.00090  -0.00131   0.10288
  29        4S          0.00536   0.00398   0.02070   0.03630   0.00314
  30        4PX         0.00308   0.00636  -0.01306  -0.02103   0.00084
  31        4PY         0.00525   0.01091  -0.02103  -0.03740   0.00177
  32        4PZ        -0.00086  -0.00139  -0.00137  -0.00213   0.09590
  33 5   H  1S          0.00419   0.00688  -0.00168  -0.01235  -0.00062
  34        2S          0.00632   0.01050   0.00354  -0.02504  -0.00002
  35        3S          0.00325   0.00476   0.00424  -0.01761   0.00011
  36 6   H  1S          0.00415   0.00682  -0.00987  -0.00763  -0.00064
  37        2S          0.00625   0.01041  -0.02343  -0.00942  -0.00007
  38        3S          0.00321   0.00472  -0.01731  -0.00516   0.00007
                           6         7         8         9        10
   6        3S          0.45270
   7        3PX        -0.00170   0.20260
   8        3PY        -0.00172  -0.00464   0.19697
   9        3PZ        -0.00079  -0.00021  -0.00050   0.16659
  10        4S          0.27320  -0.02615  -0.04708   0.00101   0.18168
  11        4PX        -0.00681   0.10931  -0.01004  -0.00116  -0.01515
  12        4PY        -0.01216  -0.01017   0.09866  -0.00197  -0.02818
  13        4PZ         0.00134  -0.00142  -0.00236   0.15421   0.00272
  14 2   H  1S          0.08794   0.05618  -0.09870  -0.00242   0.06907
  15        2S          0.09789   0.07949  -0.13657  -0.00182   0.08098
  16        3S          0.00607   0.03377  -0.05068  -0.00001   0.01092
  17 3   H  1S          0.08961  -0.11403  -0.00164  -0.00273   0.06910
  18        2S          0.09900  -0.15728  -0.00045  -0.00219   0.08000
  19        3S          0.00612  -0.05984   0.00374  -0.00014   0.01015
  20 4   C  1S         -0.02650  -0.01691  -0.02934  -0.00092   0.00517
  21        2S         -0.04011  -0.02627  -0.04561  -0.00149   0.00390
  22        2PX        -0.04642  -0.01772  -0.04564   0.00097  -0.01785
  23        2PY        -0.08077  -0.04569  -0.07088   0.00196  -0.03099
  24        2PZ         0.00289  -0.00071  -0.00098   0.10342   0.00311
  25        3S          0.10219   0.07134   0.12405   0.00445   0.00097
  26        3PX        -0.06713  -0.02614  -0.06489   0.00125  -0.02657
  27        3PY        -0.11674  -0.06477  -0.10156   0.00261  -0.04605
  28        3PZ         0.00479  -0.00125  -0.00175   0.16547   0.00516
  29        4S          0.00175   0.03132   0.05507   0.00522  -0.03248
  30        4PX        -0.02251  -0.01951  -0.02958   0.00140  -0.00665
  31        4PY        -0.03880  -0.02963  -0.05400   0.00293  -0.01103
  32        4PZ         0.00405  -0.00193  -0.00294   0.15426   0.00476
  33 5   H  1S         -0.02046  -0.00066  -0.01772  -0.00091  -0.01503
  34        2S         -0.03138   0.00856  -0.03680   0.00009  -0.01966
  35        3S         -0.01224   0.00807  -0.02645   0.00021  -0.00367
  36 6   H  1S         -0.02026  -0.01490  -0.00930  -0.00093  -0.01517
  37        2S         -0.03111  -0.03592  -0.01071   0.00001  -0.02016
  38        3S         -0.01215  -0.02674  -0.00616   0.00014  -0.00403
                          11        12        13        14        15
  11        4PX         0.06002
  12        4PY        -0.00887   0.05096
  13        4PZ        -0.00172  -0.00282   0.14279
  14 2   H  1S          0.03344  -0.05409  -0.00124   0.08159
  15        2S          0.04813  -0.07473  -0.00041   0.10963   0.14942
  16        3S          0.02091  -0.02761   0.00032   0.03664   0.05220
  17 3   H  1S         -0.06311   0.00169  -0.00139  -0.01315  -0.02475
  18        2S         -0.08744   0.00420  -0.00059  -0.02471  -0.04290
  19        3S         -0.03355   0.00442   0.00025  -0.01808  -0.02734
  20 4   C  1S         -0.00316  -0.00570  -0.00082   0.00424   0.00670
  21        2S         -0.00653  -0.01167  -0.00132   0.00701   0.01118
  22        2PX        -0.01325  -0.02000   0.00136   0.00186  -0.00265
  23        2PY        -0.02007  -0.03683   0.00263   0.01143   0.02416
  24        2PZ        -0.00098  -0.00146   0.09575  -0.00070  -0.00022
  25        3S          0.02314   0.04112   0.00388  -0.02109  -0.03365
  26        3PX        -0.02037  -0.02829   0.00184   0.00104  -0.00717
  27        3PY        -0.02833  -0.05365   0.00363   0.01701   0.03622
  28        3PZ        -0.00161  -0.00242   0.15320  -0.00103  -0.00023
  29        4S          0.00797   0.01492   0.00479  -0.01769  -0.02409
  30        4PX        -0.01480  -0.01247   0.00171  -0.00158  -0.00833
  31        4PY        -0.01255  -0.02957   0.00344   0.01526   0.02713
  32        4PZ        -0.00193  -0.00302   0.14284  -0.00058   0.00034
  33 5   H  1S          0.00198  -0.01579  -0.00045   0.01120   0.02330
  34        2S          0.00916  -0.02758   0.00060   0.02382   0.04443
  35        3S          0.00751  -0.01588   0.00041   0.01670   0.02790
  36 6   H  1S         -0.01455  -0.00583  -0.00048  -0.00910  -0.01818
  37        2S         -0.02824  -0.00530   0.00055  -0.01888  -0.03434
  38        3S         -0.01729  -0.00122   0.00036  -0.01021  -0.01778
                          16        17        18        19        20
  16        3S          0.02087
  17 3   H  1S         -0.01819   0.08251
  18        2S         -0.02740   0.10983   0.14832
  19        3S         -0.01286   0.03616   0.05111   0.02024
  20 4   C  1S          0.00369   0.00430   0.00671   0.00369   0.65947
  21        2S          0.00544   0.00709   0.01119   0.00541   0.56155
  22        2PX        -0.00343   0.00900   0.02218   0.01666   0.00117
  23        2PY         0.01756   0.00742   0.00971   0.00566   0.00184
  24        2PZ         0.00005  -0.00069  -0.00015   0.00010   0.00009
  25        3S         -0.01410  -0.02128  -0.03356  -0.01394  -0.08923
  26        3PX        -0.00692   0.01429   0.03491   0.02602  -0.00049
  27        3PY         0.02647   0.00950   0.01176   0.00705  -0.00103
  28        3PZ         0.00011  -0.00101  -0.00012   0.00019   0.00022
  29        4S         -0.00575  -0.01745  -0.02338  -0.00532  -0.08028
  30        4PX        -0.00695   0.01401   0.02757   0.01704  -0.00020
  31        4PY         0.01589   0.00649   0.00652   0.00192  -0.00021
  32        4PZ         0.00036  -0.00056   0.00041   0.00040  -0.00008
  33 5   H  1S          0.01614  -0.00905  -0.01811  -0.00941  -0.02005
  34        2S          0.02739  -0.01871  -0.03399  -0.01696  -0.02217
  35        3S          0.01464  -0.01011  -0.01757  -0.00898   0.00057
  36 6   H  1S         -0.00950   0.01120   0.02319   0.01589  -0.01983
  37        2S         -0.01722   0.02381   0.04424   0.02703  -0.02215
  38        3S         -0.00913   0.01667   0.02774   0.01446   0.00048
                          21        22        23        24        25
  21        2S          0.49203
  22        2PX         0.00168   0.08248
  23        2PY         0.00263   0.00381   0.08749
  24        2PZ         0.00014   0.00018   0.00025   0.06426
  25        3S         -0.15420  -0.00543  -0.00859  -0.00015   0.45359
  26        3PX        -0.00074   0.12834   0.00199   0.00012  -0.00022
  27        3PY        -0.00156   0.00203   0.13119   0.00010   0.00052
  28        3PZ         0.00037   0.00028   0.00039   0.10282  -0.00070
  29        4S         -0.11602   0.01396   0.02367   0.00079   0.27913
  30        4PX        -0.00146   0.07304  -0.00511   0.00061   0.00622
  31        4PY        -0.00229  -0.00507   0.06703   0.00114   0.01007
  32        4PZ        -0.00022   0.00099   0.00180   0.09583   0.00114
  33 5   H  1S         -0.03194  -0.03334   0.06337  -0.00170   0.08543
  34        2S         -0.03544  -0.04966   0.08847  -0.00137   0.09481
  35        3S         -0.00064  -0.02259   0.03357  -0.00016   0.00570
  36 6   H  1S         -0.03162   0.07099   0.00273  -0.00151   0.08457
  37        2S         -0.03542   0.10121   0.00101  -0.00109   0.09474
  38        3S         -0.00076   0.04054  -0.00296  -0.00006   0.00594
                          26        27        28        29        30
  26        3PX         0.20005
  27        3PY        -0.00255   0.19729
  28        3PZ         0.00015   0.00013   0.16453
  29        4S          0.02562   0.04322   0.00096   0.18783
  30        4PX         0.11429  -0.01071   0.00095   0.01574   0.06638
  31        4PY        -0.01071   0.10135   0.00181   0.02560  -0.01046
  32        4PZ         0.00126   0.00231   0.15333   0.00255   0.00147
  33 5   H  1S         -0.05339   0.09935  -0.00281   0.06726  -0.03445
  34        2S         -0.07998   0.13820  -0.00229   0.07793  -0.05206
  35        3S         -0.03683   0.05178  -0.00027   0.00951  -0.02415
  36 6   H  1S          0.11219   0.00344  -0.00252   0.06756   0.06560
  37        2S          0.15976  -0.00027  -0.00187   0.07923   0.09387
  38        3S          0.06367  -0.00616  -0.00011   0.01028   0.03774
                          31        32        33        34        35
  31        4PY         0.05362
  32        4PZ         0.00284   0.14294
  33 5   H  1S          0.05565  -0.00148   0.08053
  34        2S          0.07753  -0.00066   0.10994   0.15251
  35        3S          0.02917   0.00016   0.03809   0.05540   0.02294
  36 6   H  1S         -0.00196  -0.00133  -0.01246  -0.02602  -0.01990
  37        2S         -0.00627  -0.00046  -0.02611  -0.04831  -0.03160
  38        3S         -0.00632   0.00023  -0.02007  -0.03171  -0.01564
                          36        37        38
  36 6   H  1S          0.07980
  37        2S          0.10963   0.15299
  38        3S          0.03826   0.05590   0.02322
    Full Mulliken population analysis:
                           1         2         3         4         5
   1 1   C  1S          0.65940
   2        2S          0.49326   0.49203
   3        2PX         0.00000   0.00000   0.08445
   4        2PY         0.00000   0.00000   0.00000   0.08787
   5        2PZ         0.00000   0.00000   0.00000   0.00000   0.06439
   6        3S         -0.02928  -0.06445   0.00000   0.00000   0.00000
   7        3PX         0.00000   0.00000   0.08223   0.00000   0.00000
   8        3PY         0.00000   0.00000   0.00000   0.08266   0.00000
   9        3PZ         0.00000   0.00000   0.00000   0.00000   0.06516
  10        4S         -0.01220  -0.02138   0.00000   0.00000   0.00000
  11        4PX         0.00000   0.00000   0.01548   0.00000   0.00000
  12        4PY         0.00000   0.00000   0.00000   0.01443   0.00000
  13        4PZ         0.00000   0.00000   0.00000   0.00000   0.02111
  14 2   H  1S         -0.00024  -0.00034   0.00183   0.00571   0.00001
  15        2S         -0.00168  -0.00321   0.00432   0.01326   0.00001
  16        3S          0.00005  -0.00007   0.00069   0.00190  -0.00000
  17 3   H  1S         -0.00026  -0.00037   0.00792   0.00000   0.00001
  18        2S         -0.00173  -0.00332   0.01775   0.00000   0.00001
  19        3S          0.00005  -0.00006   0.00256  -0.00000   0.00000
  20 4   C  1S          0.00000   0.00000  -0.00002  -0.00006   0.00000
  21        2S          0.00000  -0.00000  -0.00002  -0.00005   0.00000
  22        2PX        -0.00002  -0.00002   0.00011   0.00085   0.00000
  23        2PY        -0.00006  -0.00005   0.00085   0.00196   0.00000
  24        2PZ        -0.00000  -0.00000  -0.00000  -0.00000   0.00041
  25        3S         -0.00059  -0.00099   0.00253   0.00762  -0.00000
  26        3PX        -0.00054  -0.00099   0.00019   0.00554   0.00000
  27        3PY        -0.00163  -0.00299   0.00552   0.01069   0.00000
  28        3PZ        -0.00000  -0.00000  -0.00000  -0.00000   0.00610
  29        4S          0.00034   0.00030   0.00094   0.00285  -0.00000
  30        4PX        -0.00018  -0.00045  -0.00071   0.00146   0.00000
  31        4PY        -0.00053  -0.00134   0.00146   0.00097   0.00000
  32        4PZ        -0.00000  -0.00000  -0.00000  -0.00000   0.00902
  33 5   H  1S          0.00000   0.00000  -0.00000  -0.00000   0.00000
  34        2S          0.00001   0.00002   0.00000  -0.00031   0.00000
  35        3S          0.00008   0.00013   0.00001  -0.00070  -0.00000
  36 6   H  1S          0.00000   0.00000  -0.00000  -0.00000   0.00000
  37        2S          0.00001   0.00002  -0.00024  -0.00007   0.00000
  38        3S          0.00007   0.00013  -0.00057  -0.00012  -0.00000
                           6         7         8         9        10
   6        3S          0.45270
   7        3PX         0.00000   0.20260
   8        3PY         0.00000   0.00000   0.19697
   9        3PZ         0.00000   0.00000   0.00000   0.16659
  10        4S          0.21165   0.00000   0.00000   0.00000   0.18168
  11        4PX         0.00000   0.07143   0.00000   0.00000   0.00000
  12        4PY         0.00000   0.00000   0.06447   0.00000   0.00000
  13        4PZ         0.00000   0.00000   0.00000   0.10077   0.00000
  14 2   H  1S          0.01627   0.01081   0.03265   0.00003   0.01832
  15        2S          0.04137   0.01955   0.05772   0.00003   0.04678
  16        3S          0.00280   0.00395   0.01018   0.00000   0.00825
  17 3   H  1S          0.01700   0.04436   0.00000   0.00004   0.01850
  18        2S          0.04242   0.07732   0.00000   0.00004   0.04655
  19        3S          0.00284   0.01388  -0.00001   0.00000   0.00770
  20 4   C  1S         -0.00059  -0.00057  -0.00172   0.00000   0.00033
  21        2S         -0.00100  -0.00105  -0.00316   0.00000   0.00030
  22        2PX         0.00242   0.00019   0.00552   0.00000   0.00081
  23        2PY         0.00729   0.00552   0.01063   0.00000   0.00244
  24        2PZ         0.00000  -0.00000  -0.00000   0.00613   0.00000
  25        3S          0.02177   0.01336   0.04024  -0.00000   0.00037
  26        3PX         0.01257  -0.00126   0.01851   0.00000   0.00410
  27        3PY         0.03787   0.01848   0.02855   0.00000   0.01229
  28        3PZ         0.00000  -0.00000  -0.00000   0.03525   0.00000
  29        4S          0.00066   0.00483   0.01470  -0.00000  -0.02039
  30        4PX         0.00632  -0.00400   0.00586   0.00000   0.00201
  31        4PY         0.01888   0.00587   0.00127   0.00000   0.00579
  32        4PZ         0.00000  -0.00000  -0.00000   0.04927   0.00000
  33 5   H  1S         -0.00005  -0.00000  -0.00019   0.00000  -0.00080
  34        2S         -0.00121   0.00006  -0.00322  -0.00000  -0.00329
  35        3S         -0.00199   0.00010  -0.00425  -0.00000  -0.00132
  36 6   H  1S         -0.00005  -0.00013  -0.00005   0.00000  -0.00080
  37        2S         -0.00117  -0.00255  -0.00052  -0.00000  -0.00333
  38        3S         -0.00196  -0.00353  -0.00056  -0.00000  -0.00144
                          11        12        13        14        15
  11        4PX         0.06002
  12        4PY         0.00000   0.05096
  13        4PZ         0.00000   0.00000   0.14279
  14 2   H  1S          0.00630   0.01750   0.00002   0.08159
  15        2S          0.01524   0.04067   0.00001   0.07744   0.14942
  16        3S          0.00519   0.01177  -0.00001   0.01369   0.04118
  17 3   H  1S          0.02364  -0.00000   0.00002  -0.00001  -0.00066
  18        2S          0.05498  -0.00002   0.00001  -0.00066  -0.00544
  19        3S          0.01647  -0.00002  -0.00000  -0.00203  -0.00801
  20 4   C  1S         -0.00018  -0.00057   0.00000   0.00000   0.00002
  21        2S         -0.00046  -0.00143   0.00000   0.00000   0.00003
  22        2PX        -0.00072   0.00139   0.00000  -0.00000   0.00000
  23        2PY         0.00139   0.00096   0.00000  -0.00000  -0.00036
  24        2PZ        -0.00000  -0.00000   0.00900   0.00000   0.00000
  25        3S          0.00650   0.02000  -0.00000  -0.00007  -0.00149
  26        3PX        -0.00418   0.00560   0.00000  -0.00000   0.00004
  27        3PY         0.00561   0.00126   0.00000  -0.00023  -0.00357
  28        3PZ        -0.00000  -0.00000   0.04894   0.00000   0.00000
  29        4S          0.00241   0.00783  -0.00000  -0.00104  -0.00433
  30        4PX        -0.00713   0.00316   0.00000   0.00001   0.00018
  31        4PY         0.00318  -0.00560   0.00000  -0.00243  -0.01024
  32        4PZ        -0.00000  -0.00000   0.08967   0.00000  -0.00000
  33 5   H  1S          0.00002  -0.00233   0.00000   0.00000   0.00000
  34        2S          0.00026  -0.00988  -0.00000   0.00000   0.00016
  35        3S          0.00028  -0.00732  -0.00000   0.00023   0.00147
  36 6   H  1S         -0.00176  -0.00048   0.00000  -0.00000  -0.00004
  37        2S         -0.00829  -0.00107  -0.00000  -0.00004  -0.00092
  38        3S         -0.00657  -0.00032  -0.00000  -0.00046  -0.00247
                          16        17        18        19        20
  16        3S          0.02087
  17 3   H  1S         -0.00204   0.08251
  18        2S         -0.00803   0.07758   0.14832
  19        3S         -0.00670   0.01351   0.04032   0.02024
  20 4   C  1S          0.00009   0.00000   0.00002   0.00009   0.65947
  21        2S          0.00016   0.00000   0.00003   0.00016   0.49329
  22        2PX         0.00001  -0.00000  -0.00028  -0.00058   0.00000
  23        2PY        -0.00074  -0.00000  -0.00008  -0.00013   0.00000
  24        2PZ        -0.00000   0.00000   0.00000  -0.00000   0.00000
  25        3S         -0.00244  -0.00007  -0.00149  -0.00241  -0.02937
  26        3PX         0.00007  -0.00016  -0.00288  -0.00364   0.00000
  27        3PY        -0.00443  -0.00007  -0.00064  -0.00066   0.00000
  28        3PZ        -0.00000   0.00000   0.00000  -0.00000   0.00000
  29        4S         -0.00216  -0.00103  -0.00421  -0.00200  -0.01234
  30        4PX         0.00019  -0.00186  -0.00869  -0.00671   0.00000
  31        4PY        -0.00750  -0.00057  -0.00137  -0.00050   0.00000
  32        4PZ        -0.00000   0.00000  -0.00000  -0.00000   0.00000
  33 5   H  1S          0.00023  -0.00000  -0.00004  -0.00043  -0.00021
  34        2S          0.00144  -0.00004  -0.00091  -0.00236  -0.00158
  35        3S          0.00247  -0.00046  -0.00244  -0.00286   0.00004
  36 6   H  1S         -0.00043   0.00000   0.00000   0.00022  -0.00020
  37        2S         -0.00239   0.00000   0.00015   0.00141  -0.00155
  38        3S         -0.00291   0.00023   0.00145   0.00242   0.00004
                          21        22        23        24        25
  21        2S          0.49203
  22        2PX         0.00000   0.08248
  23        2PY         0.00000   0.00000   0.08749
  24        2PZ         0.00000   0.00000   0.00000   0.06426
  25        3S         -0.06458   0.00000   0.00000   0.00000   0.45359
  26        3PX         0.00000   0.08074   0.00000   0.00000   0.00000
  27        3PY         0.00000   0.00000   0.08253   0.00000   0.00000
  28        3PZ         0.00000   0.00000   0.00000   0.06469   0.00000
  29        4S         -0.02171   0.00000   0.00000   0.00000   0.21624
  30        4PX         0.00000   0.01609   0.00000   0.00000   0.00000
  31        4PY         0.00000   0.00000   0.01476   0.00000   0.00000
  32        4PZ         0.00000   0.00000   0.00000   0.02110   0.00000
  33 5   H  1S         -0.00030   0.00147   0.00558   0.00001   0.01524
  34        2S         -0.00302   0.00383   0.01358   0.00001   0.03927
  35        3S         -0.00006   0.00068   0.00200   0.00000   0.00261
  36 6   H  1S         -0.00028   0.00676   0.00002   0.00001   0.01479
  37        2S         -0.00296   0.01721   0.00001   0.00001   0.03880
  38        3S         -0.00007   0.00271  -0.00001   0.00000   0.00271
                          26        27        28        29        30
  26        3PX         0.20005
  27        3PY         0.00000   0.19729
  28        3PZ         0.00000   0.00000   0.16453
  29        4S          0.00000   0.00000   0.00000   0.18783
  30        4PX         0.07469   0.00000   0.00000   0.00000   0.06638
  31        4PY         0.00000   0.06623   0.00000   0.00000   0.00000
  32        4PZ         0.00000   0.00000   0.10020   0.00000   0.00000
  33 5   H  1S          0.00895   0.03315   0.00004   0.01760   0.00578
  34        2S          0.01741   0.05988   0.00004   0.04455   0.01474
  35        3S          0.00386   0.01079   0.00000   0.00714   0.00538
  36 6   H  1S          0.04126   0.00008   0.00003   0.01754   0.02444
  37        2S          0.07697  -0.00001   0.00003   0.04503   0.05913
  38        3S          0.01485  -0.00009   0.00000   0.00769   0.01874
                          31        32        33        34        35
  31        4PY         0.05362
  32        4PZ         0.00000   0.14294
  33 5   H  1S          0.01858   0.00002   0.08053
  34        2S          0.04368   0.00002   0.07766   0.15251
  35        3S          0.01292  -0.00000   0.01423   0.04371   0.02294
  36 6   H  1S         -0.00004   0.00002  -0.00001  -0.00077  -0.00232
  37        2S         -0.00024   0.00001  -0.00078  -0.00654  -0.00956
  38        3S         -0.00019  -0.00000  -0.00234  -0.00959  -0.00832
                          36        37        38
  36 6   H  1S          0.07980
  37        2S          0.07744   0.15299
  38        3S          0.01430   0.04411   0.02322
     Gross orbital populations:
                           1
   1 1   C  1S          1.10435
   2        2S          0.88586
   3        2PX         0.22731
   4        2PY         0.23648
   5        2PZ         0.16622
   6        3S          0.79309
   7        3PX         0.56145
   8        3PY         0.55627
   9        3PZ         0.42332
  10        4S          0.50290
  11        4PX         0.25912
  12        4PY         0.21093
  13        4PZ         0.41232
  14 2   H  1S          0.27488
  15        2S          0.46646
  16        3S          0.08531
  17 3   H  1S          0.27771
  18        2S          0.46472
  19        3S          0.08274
  20 4   C  1S          1.10442
  21        2S          0.88584
  22        2PX         0.22164
  23        2PY         0.23559
  24        2PZ         0.16563
  25        3S          0.79213
  26        3PX         0.55174
  27        3PY         0.55592
  28        3PZ         0.41985
  29        4S          0.50927
  30        4PX         0.27482
  31        4PY         0.21665
  32        4PZ         0.41225
  33 5   H  1S          0.27162
  34        2S          0.47013
  35        3S          0.08944
  36 6   H  1S          0.26935
  37        2S          0.47112
  38        3S          0.09114
          Condensed to atoms (all electrons):
               1          2          3          4          5          6
     1  C    5.033167   0.387638   0.388274   0.601758  -0.035903  -0.035338
     2  H    0.387638   0.516514  -0.033591  -0.040235   0.005993  -0.009663
     3  H    0.388274  -0.033591   0.513894  -0.039750  -0.009539   0.005893
     4  C    0.601758  -0.040235  -0.039750   5.057078   0.383681   0.383234
     5  H   -0.035903   0.005993  -0.009539   0.383681   0.527185  -0.040224
     6  H   -0.035338  -0.009663   0.005893   0.383234  -0.040224   0.527704
 Mulliken charges:
               1
     1  C   -0.339597
     2  H    0.173344
     3  H    0.174819
     4  C   -0.345767
     5  H    0.168808
     6  H    0.168392
 Sum of Mulliken charges =   0.00000
 Mulliken charges with hydrogens summed into heavy atoms:
               1
     1  C    0.008566
     4  C   -0.008566
 Electronic spatial extent (au):  <R**2>=             83.7527
 Charge=             -0.0000 electrons
 Dipole moment (field-independent basis, Debye):
    X=              0.0007    Y=              0.0146    Z=             -0.1345  Tot=              0.1353
 Quadrupole moment (field-independent basis, Debye-Ang):
   XX=            -12.2080   YY=            -12.2213   ZZ=            -15.6696
   XY=              0.0144   XZ=             -0.0004   YZ=             -0.0087
 Traceless Quadrupole moment (field-independent basis, Debye-Ang):
   XX=              1.1583   YY=              1.1450   ZZ=             -2.3033
   XY=              0.0144   XZ=             -0.0004   YZ=             -0.0087
 Octapole moment (field-independent basis, Debye-Ang**2):
  XXX=             -0.3285  YYY=             -0.0850  ZZZ=             -0.0665  XYY=              0.1526
  XXY=             -0.0451  XXZ=             -0.1764  XZZ=             -0.0948  YZZ=             -0.0973
  YYZ=             -0.2339  XYZ=             -0.0500
 Hexadecapole moment (field-independent basis, Debye-Ang**3):
 XXXX=            -34.3144 YYYY=            -55.2378 ZZZZ=            -17.8236 XXXY=             -7.2521
 XXXZ=              0.0179 YYYX=            -10.7164 YYYZ=              0.0244 ZZZX=              0.0272
 ZZZY=              0.0588 XXYY=            -16.2071 XXZZ=             -9.9313 YYZZ=            -13.6468
 XXYZ=              0.0118 YYXZ=              0.0022 ZZXY=             -3.2072
 N-N= 3.306006200459D+01 E-N=-2.478282723257D+02  KE= 7.814984192159D+01
 Orbital energies and kinetic energies (alpha):
                                 1                 2
   1         O               -10.290919         15.979016
   2         O               -10.287718         15.979436
   3         O                -0.863762          1.538261
   4         O                -0.672140          1.271196
   5         O                -0.559220          0.941899
   6         O                -0.509418          1.283526
   7         O                -0.436420          1.042872
   8         O                -0.356833          1.038716
   9         V                 0.079521          1.182242
  10         V                 0.140893          0.589522
  11         V                 0.164580          0.595674
  12         V                 0.170136          0.679462
  13         V                 0.240789          0.583516
  14         V                 0.374558          0.855409
  15         V                 0.392946          0.932710
  16         V                 0.398308          0.778816
  17         V                 0.463907          1.195067
  18         V                 0.488476          1.420175
  19         V                 0.493805          1.301928
  20         V                 0.590997          1.652864
  21         V                 0.665333          1.573393
  22         V                 0.690888          2.145359
  23         V                 0.772163          2.414103
  24         V                 0.776033          2.328419
  25         V                 0.839508          1.081497
  26         V                 0.951854          3.422715
  27         V                 2.231676          3.924633
  28         V                 2.289998          4.029914
  29         V                 2.332792          4.302816
  30         V                 2.405618          4.515229
  31         V                 2.671182          6.300677
  32         V                 2.816984          6.303364
  33         V                 2.879271          6.140038
  34         V                 2.951343          6.226006
  35         V                 3.139990          6.821525
  36         V                 3.317383          6.402596
  37         V                23.352134         60.074556
  38         V                23.705641         60.203647
 Total kinetic energy from orbitals= 7.814984192159D+01
 Calling FoFJK, ICntrl=      2127 FMM=F ISym2X=0 I1Cent= 0 IOpClX= 0 NMat=1 NMatS=1 NMatT=0.
 -------------------------------------------------------------------
 Center     Atomic                   Forces (Hartrees/Bohr)
 Number     Number              X              Y              Z
 -------------------------------------------------------------------
      1        6           0.012638388    0.009865788   -0.005175598
      2        1          -0.007992861    0.004290487    0.002629024
      3        1           0.001980150   -0.004164392    0.002450133
      4        6           0.008898448    0.010075538   -0.006185399
      5        1           0.003095837   -0.014793337    0.003092095
      6        1          -0.018619963   -0.005274084    0.003189744
 -------------------------------------------------------------------
 Cartesian Forces:  Max     0.018619963 RMS     0.008306494

 GradGradGradGradGradGradGradGradGradGradGradGradGradGradGradGradGradGrad
 Berny optimization.
 Search for a local minimum.
 Step number   1 out of a maximum of    2
 All quantities printed in internal units (Hartrees-Bohrs-Radians)
 Second derivative matrix not updated -- first step.
 The second derivative matrix:
                          X1        Y1        Z1        X2        Y2
           X1           0.76037
           Y1           0.09695   0.86077
           Z1           0.00799   0.01189   0.17163
           X2          -0.16517   0.09731   0.00277   0.14259
           Y2           0.10347  -0.28614  -0.00995  -0.11663   0.27499
           Z2           0.00438  -0.01250  -0.05530  -0.00399   0.01030
           X3          -0.35328  -0.00165  -0.01104  -0.00031  -0.00016
           Y3          -0.00776  -0.11022  -0.00263   0.03253   0.01884
           Z3          -0.01406  -0.00254  -0.05640   0.00201   0.00075
           X4          -0.26691  -0.17819  -0.00114   0.02291   0.01330
           Y4          -0.17844  -0.47262  -0.00180  -0.01323  -0.00768
           Z4           0.00167   0.00311  -0.09388  -0.00080  -0.00110
           X5           0.02340  -0.01351   0.00088  -0.00001   0.00001
           Y5           0.01173  -0.00677   0.00120   0.00001  -0.00000
           Z5          -0.00067   0.00042   0.01723   0.00033  -0.00018
           X6           0.00159  -0.00092   0.00054  -0.00001   0.00001
           Y6          -0.02596   0.01499   0.00130   0.00001  -0.00000
           Z6           0.00070  -0.00037   0.01672  -0.00033   0.00018
                          Z2        X3        Y3        Z3        X4
           Z2           0.02891
           X3          -0.00041   0.35339
           Y3           0.00218   0.00193   0.07597
           Z3           0.01057   0.01204   0.00178   0.02969
           X4           0.00072   0.00022  -0.02672  -0.00071   0.70891
           Y4          -0.00039  -0.00013   0.01542   0.00044   0.12113
           Z4           0.01577  -0.00059  -0.00132   0.01618  -0.00691
           X5          -0.00036  -0.00001   0.00001   0.00037  -0.14580
           Y5           0.00022   0.00001  -0.00001  -0.00023   0.09170
           Z5           0.00923   0.00035  -0.00022  -0.00936  -0.00444
           X6          -0.00035  -0.00001   0.00001   0.00035  -0.31933
           Y6           0.00019   0.00001  -0.00000  -0.00019  -0.02123
           Z6          -0.00919  -0.00035   0.00022   0.00932   0.01248
                          Y4        Z4        X5        Y5        Z5
           Y4           0.85500
           Z4          -0.01380   0.17515
           X5           0.08365  -0.00294   0.12444
           Y5          -0.28611   0.01043  -0.10245   0.27674
           Z5           0.01291  -0.05692   0.00395  -0.01111   0.02968
           X6          -0.01299   0.00957  -0.00202  -0.00099   0.00048
           Y6          -0.10401   0.00268   0.03230   0.01615  -0.00183
           Z6           0.00264  -0.05630  -0.00190  -0.00051   0.01015
                          X6        Y6        Z6
           X6           0.31978
           Y6           0.01488   0.07288
           Z6          -0.01059  -0.00215   0.02930
 ITU=  0
     Eigenvalues ---    0.03717   0.04378   0.09071   0.10167   0.13502
     Eigenvalues ---    0.17430   0.26280   0.28999   0.52883   0.69874
     Eigenvalues ---    0.97469   1.56069
 Angle between quadratic step and forces=  36.33 degrees.
 Linear search not attempted -- first point.
 B after Tr=     0.006154    0.007314   -0.013830
         Rot=    1.000000   -0.000016    0.000008   -0.000106 Ang=  -0.01 deg.
 Variable       Old X    -DE/DX   Delta X   Delta X   Delta X     New X
                                 (Linear)    (Quad)   (Total)
    X1       -0.63457   0.01264   0.00000   0.01978   0.02616  -0.60841
    Y1       -1.09891   0.00987   0.00000   0.02308   0.03026  -1.06865
    Z1        0.01610  -0.00518   0.00000  -0.02874  -0.04262  -0.02652
    X2        0.40486  -0.00799   0.00000  -0.03076  -0.02399   0.38087
    Y2       -2.88504   0.00429   0.00000   0.01744   0.02483  -2.86021
    Z2       -0.05561   0.00263   0.00000   0.03556   0.02165  -0.03397
    X3       -2.68364   0.00198   0.00000   0.02345   0.02984  -2.65380
    Y3       -1.11361  -0.00416   0.00000  -0.01385  -0.00710  -1.12072
    Z3       -0.06007   0.00245   0.00000   0.03486   0.02096  -0.03911
    X4        0.63009   0.00890   0.00000   0.00568   0.01160   0.64169
    Y4        1.09144   0.01008   0.00000   0.00722   0.01467   1.10611
    Z4        0.01246  -0.00619   0.00000  -0.02850  -0.04229  -0.02983
    X5       -0.30873   0.00310   0.00000  -0.00604  -0.00051  -0.30924
    Y5        2.96006  -0.01479   0.00000  -0.04603  -0.03878   2.92128
    Z5       -0.06937   0.00309   0.00000   0.03529   0.02155  -0.04782
    X6        2.73135  -0.01862   0.00000  -0.04901  -0.04311   2.68824
    Y6        1.21808  -0.00527   0.00000  -0.03176  -0.02388   1.19420
    Z6       -0.06477   0.00319   0.00000   0.03450   0.02075  -0.04402
         Item               Value     Threshold  Converged?
 Maximum Force            0.018620     0.000450     NO 
 RMS     Force            0.008306     0.000300     NO 
 Maximum Displacement     0.043106     0.001800     NO 
 RMS     Displacement     0.027308     0.001200     NO 
 Predicted change in Energy=-1.745550D-03
 GradGradGradGradGradGradGradGradGradGradGradGradGradGradGradGradGradGrad

 Unable to Open any file for archive entry.
 1\1\GINC-BHD0008\Force\RwB97XD\6-311G\C2H4\BWEIGHT\11-Jan-2023\0\\# WB
 97XD/6-311G SCF=XQC FORCE nosym pop=full guess=read\\MD Step 1000\\0,1
 \C,-0.33580195,-0.58151909,0.00851805\H,0.21424465,-1.52669934,-0.0294
 3019\H,-1.42012155,-0.58929949,-0.03178509\C,0.3334304,0.5775643,0.006
 59327\H,-0.16337527,1.56639825,-0.03671152\H,1.44536645,0.64458087,-0.
 0342731\\Version=ES64L-G16RevC.01\HF=-78.5555498\RMSD=6.201e-09\RMSF=8
 .306e-03\Dipole=0.0002724,0.0057377,-0.0529168\Quadrupole=0.8611698,0.
 8512811,-1.7124509,0.0106882,-0.0003004,-0.0064818\PG=C01 [X(C2H4)]\\@
 The archive entry for this job was punched.


 ACHIEVEMENT--  THE MAN WHO ROWS THE BOAT GENERALLY 
                DOESN'T HAVE TIME TO ROCK IT.

                   -- FROM THE BACK OF A SUGAR PACKET
 Job cpu time:       0 days  0 hours  0 minutes 11.9 seconds.
 Elapsed time:       0 days  0 hours  0 minutes  3.5 seconds.
 File lengths (MBytes):  RWF=    272 Int=      0 D2E=      0 Chk=     32 Scr=     32
 Normal termination of Gaussian 16 at Wed Jan 11 19:42:17 2023.
