 Entering Gaussian System, Link 0=g16
 Initial command:
 /software/gaussian/g16-c01/avx2/g16/l1.exe "/gpfs/fs2/scratch/bweight/software/many_molecule_many_mode_NAMD/src/NAMD/TEST_NVT/TRAJ/traj-23/G16/GS_NEW/Gau-11949.inp" -scrdir="/gpfs/fs2/scratch/bweight/software/many_molecule_many_mode_NAMD/src/NAMD/TEST_NVT/TRAJ/traj-23/G16/GS_NEW/"
 Entering Link 1 = /software/gaussian/g16-c01/avx2/g16/l1.exe PID=     11950.
  
 Copyright (c) 1988-2019, Gaussian, Inc.  All Rights Reserved.
  
 This is part of the Gaussian(R) 16 program.  It is based on
 the Gaussian(R) 09 system (copyright 2009, Gaussian, Inc.),
 the Gaussian(R) 03 system (copyright 2003, Gaussian, Inc.),
 the Gaussian(R) 98 system (copyright 1998, Gaussian, Inc.),
 the Gaussian(R) 94 system (copyright 1995, Gaussian, Inc.),
 the Gaussian 92(TM) system (copyright 1992, Gaussian, Inc.),
 the Gaussian 90(TM) system (copyright 1990, Gaussian, Inc.),
 the Gaussian 88(TM) system (copyright 1988, Gaussian, Inc.),
 the Gaussian 86(TM) system (copyright 1986, Carnegie Mellon
 University), and the Gaussian 82(TM) system (copyright 1983,
 Carnegie Mellon University). Gaussian is a federally registered
 trademark of Gaussian, Inc.
  
 This software contains proprietary and confidential information,
 including trade secrets, belonging to Gaussian, Inc.
  
 This software is provided under written license and may be
 used, copied, transmitted, or stored only in accord with that
 written license.
  
 The following legend is applicable only to US Government
 contracts under FAR:
  
                    RESTRICTED RIGHTS LEGEND
  
 Use, reproduction and disclosure by the US Government is
 subject to restrictions as set forth in subparagraphs (a)
 and (c) of the Commercial Computer Software - Restricted
 Rights clause in FAR 52.227-19.
  
 Gaussian, Inc.
 340 Quinnipiac St., Bldg. 40, Wallingford CT 06492
  
  
 ---------------------------------------------------------------
 Warning -- This program may not be used in any manner that
 competes with the business of Gaussian, Inc. or will provide
 assistance to any competitor of Gaussian, Inc.  The licensee
 of this program is prohibited from giving any competitor of
 Gaussian, Inc. access to this program.  By using this program,
 the user acknowledges that Gaussian, Inc. is engaged in the
 business of creating and licensing software in the field of
 computational chemistry and represents and warrants to the
 licensee that it is not a competitor of Gaussian, Inc. and that
 it will not use this program in any manner prohibited above.
 ---------------------------------------------------------------
  

 Cite this work as:
 Gaussian 16, Revision C.01,
 M. J. Frisch, G. W. Trucks, H. B. Schlegel, G. E. Scuseria, 
 M. A. Robb, J. R. Cheeseman, G. Scalmani, V. Barone, 
 G. A. Petersson, H. Nakatsuji, X. Li, M. Caricato, A. V. Marenich, 
 J. Bloino, B. G. Janesko, R. Gomperts, B. Mennucci, H. P. Hratchian, 
 J. V. Ortiz, A. F. Izmaylov, J. L. Sonnenberg, D. Williams-Young, 
 F. Ding, F. Lipparini, F. Egidi, J. Goings, B. Peng, A. Petrone, 
 T. Henderson, D. Ranasinghe, V. G. Zakrzewski, J. Gao, N. Rega, 
 G. Zheng, W. Liang, M. Hada, M. Ehara, K. Toyota, R. Fukuda, 
 J. Hasegawa, M. Ishida, T. Nakajima, Y. Honda, O. Kitao, H. Nakai, 
 T. Vreven, K. Throssell, J. A. Montgomery, Jr., J. E. Peralta, 
 F. Ogliaro, M. J. Bearpark, J. J. Heyd, E. N. Brothers, K. N. Kudin, 
 V. N. Staroverov, T. A. Keith, R. Kobayashi, J. Normand, 
 K. Raghavachari, A. P. Rendell, J. C. Burant, S. S. Iyengar, 
 J. Tomasi, M. Cossi, J. M. Millam, M. Klene, C. Adamo, R. Cammi, 
 J. W. Ochterski, R. L. Martin, K. Morokuma, O. Farkas, 
 J. B. Foresman, and D. J. Fox, Gaussian, Inc., Wallingford CT, 2019.
 
 ******************************************
 Gaussian 16:  ES64L-G16RevC.01  3-Jul-2019
                11-Jan-2023 
 ******************************************
 %oldchk=../GS_OLD/geometry.chk
 %chk=geometry.chk
 %nprocshared=4
 Will use up to    4 processors via shared memory.
 %mem=5GB
 Copying data from "../GS_OLD/geometry.chk" to current chk file "geometry.chk"
 IOpt=  2 FromEx=T IUOpen= 4 IOptOp= 5 NList=   0 IFRang= 0 IUIn= 4 IUOut= 2.
 -------------------------------------------------------
 # WB97XD/6-311G SCF=XQC FORCE nosym pop=full guess=read
 -------------------------------------------------------
 1/10=7,30=1,38=1/1,3;
 2/12=2,15=1,17=6,18=5,40=1/2;
 3/5=4,6=6,11=2,25=1,30=1,71=1,74=-58,116=-2/1,2,3;
 4/5=1/1;
 5/5=2,8=3,13=1,38=6/2,8;
 6/7=3,28=1/1;
 7/29=1,30=1/1,2,3,16;
 1/10=7,30=1/3;
 99//99;
 ------------
 MD Step 1000
 ------------
 Symbolic Z-matrix:
 Charge =  0 Multiplicity = 1
 C                    -0.33706  -0.58202   0.00726 
 H                     0.22173  -1.53045  -0.02857 
 H                    -1.42338  -0.5907   -0.0306 
 C                     0.33254   0.57753   0.00561 
 H                    -0.15652   1.56175  -0.03328 
 H                     1.44197   0.64281  -0.03091 
 

 GradGradGradGradGradGradGradGradGradGradGradGradGradGradGradGradGradGrad
 Berny optimization.
 Initialization pass.
 Trust Radius=3.00D-01 FncErr=1.00D-07 GrdErr=1.00D-07 EigMax=2.50D+02 EigMin=1.00D-04
 Number of steps in this run=      2 maximum allowed number of steps=      2.
 GradGradGradGradGradGradGradGradGradGradGradGradGradGradGradGradGradGrad

                          Input orientation:                          
 ---------------------------------------------------------------------
 Center     Atomic      Atomic             Coordinates (Angstroms)
 Number     Number       Type             X           Y           Z
 ---------------------------------------------------------------------
      1          6           0       -0.337060   -0.582017    0.007259
      2          1           0        0.221733   -1.530450   -0.028573
      3          1           0       -1.423381   -0.590703   -0.030600
      4          6           0        0.332538    0.577528    0.005605
      5          1           0       -0.156516    1.561754   -0.033279
      6          1           0        1.441969    0.642806   -0.030908
 ---------------------------------------------------------------------
                    Distance matrix (angstroms):
                    1          2          3          4          5
     1  C    0.000000
     2  H    1.101389   0.000000
     3  H    1.087016   1.894605   0.000000
     4  C    1.338995   2.111165   2.109342   0.000000
     5  H    2.151742   3.115256   2.497604   1.099721   0.000000
     6  H    2.160229   2.492392   3.119579   1.111950   1.843807
                    6
     6  H    0.000000
 Symmetry turned off by external request.
 Stoichiometry    C2H4
 Framework group  C1[X(C2H4)]
 Deg. of freedom    12
 Full point group                 C1      NOp   1
 Rotational constants (GHZ):         143.2912512          29.6604829          24.5852822
 Standard basis: 6-311G (5D, 7F)
    38 basis functions,    72 primitive gaussians,    38 cartesian basis functions
     8 alpha electrons        8 beta electrons
       nuclear repulsion energy        33.0581379361 Hartrees.
 NAtoms=    6 NActive=    6 NUniq=    6 SFac= 1.00D+00 NAtFMM=   60 NAOKFM=F Big=F
 Integral buffers will be    131072 words long.
 Raffenetti 2 integral format.
 Two-electron integral symmetry is turned off.
 Nuclear repulsion after empirical dispersion term =       33.0572960418 Hartrees.
 One-electron integrals computed using PRISM.
 NBasis=    38 RedAO= T EigKep=  6.45D-03  NBF=    38
 NBsUse=    38 1.00D-06 EigRej= -1.00D+00 NBFU=    38
 Initial guess from the checkpoint file:  "geometry.chk"
 B after Tr=    -0.000358   -0.000499   -0.000544
         Rot=    1.000000    0.000005   -0.000001    0.000006 Ang=   0.00 deg.
 Keep R1 ints in memory in canonical form, NReq=4036876.
 Requested convergence on RMS density matrix=1.00D-08 within  32 cycles.
 Requested convergence on MAX density matrix=1.00D-06.
 Requested convergence on             energy=1.00D-06.
 No special actions if energy rises.
 SCF Done:  E(RwB97XD) =  -78.5556514923     A.U. after    8 cycles
            NFock=  8  Conv=0.63D-08     -V/T= 2.0052
 QCSCF skips out because SCF is already converged.

 **********************************************************************

            Population analysis using the SCF Density.

 **********************************************************************

 Alpha  occ. eigenvalues --  -10.29000 -10.28860  -0.86361  -0.67236  -0.55920
 Alpha  occ. eigenvalues --   -0.50921  -0.43666  -0.35671
 Alpha virt. eigenvalues --    0.07948   0.14088   0.16475   0.17015   0.24082
 Alpha virt. eigenvalues --    0.37349   0.39324   0.39895   0.46451   0.48818
 Alpha virt. eigenvalues --    0.49389   0.59095   0.66560   0.69074   0.77316
 Alpha virt. eigenvalues --    0.77499   0.84066   0.95141   2.23171   2.29038
 Alpha virt. eigenvalues --    2.33235   2.40589   2.67107   2.81728   2.87918
 Alpha virt. eigenvalues --    2.95161   3.14003   3.31800  23.35242  23.70515
     Molecular Orbital Coefficients:
                           1         2         3         4         5
                           O         O         O         O         O
     Eigenvalues --   -10.29000 -10.28860  -0.86361  -0.67236  -0.55920
   1 1   C  1S          0.18683   0.53152  -0.08817   0.06702  -0.00033
   2        2S          0.15395   0.43739  -0.13936   0.10735  -0.00054
   3        2PX         0.00016  -0.00004   0.02598   0.03624   0.13805
   4        2PY         0.00027  -0.00006   0.04649   0.05899  -0.07166
   5        2PZ        -0.00000  -0.00001  -0.00149   0.00225   0.00039
   6        3S          0.00401   0.01405   0.37385  -0.29297   0.00148
   7        3PX        -0.00053   0.00052   0.03442   0.05811   0.21624
   8        3PY        -0.00090   0.00092   0.06108   0.09585  -0.11343
   9        3PZ        -0.00002  -0.00003  -0.00251   0.00402   0.00058
  10        4S          0.00094  -0.01497   0.19182  -0.22730   0.00045
  11        4PX         0.00123  -0.00178   0.00491   0.02330   0.11223
  12        4PY         0.00210  -0.00302   0.00872   0.03975  -0.05984
  13        4PZ         0.00002   0.00009  -0.00089   0.00202   0.00029
  14 2   H  1S         -0.00005  -0.00005   0.05206  -0.08667   0.10091
  15        2S         -0.00028   0.00016   0.05346  -0.10481   0.12815
  16        3S          0.00106   0.00152  -0.00173  -0.01497   0.04147
  17 3   H  1S         -0.00006  -0.00006   0.05358  -0.09096  -0.10552
  18        2S         -0.00028   0.00013   0.05443  -0.10887  -0.13276
  19        3S          0.00110   0.00155  -0.00179  -0.01602  -0.04282
  20 4   C  1S          0.53148  -0.18701  -0.08703  -0.06816  -0.00023
  21        2S          0.43748  -0.15372  -0.13743  -0.10930  -0.00035
  22        2PX        -0.00004  -0.00016  -0.02751   0.03756   0.11758
  23        2PY        -0.00007  -0.00028  -0.04628   0.06784  -0.07583
  24        2PZ        -0.00000   0.00000  -0.00126  -0.00242   0.00040
  25        3S          0.01335  -0.00563   0.36820   0.29869   0.00093
  26        3PX        -0.00009   0.00075  -0.03449   0.06091   0.18423
  27        3PY        -0.00013   0.00129  -0.05809   0.10909  -0.11743
  28        3PZ        -0.00004   0.00000  -0.00216  -0.00433   0.00060
  29        4S         -0.01081   0.01019   0.18918   0.23692  -0.00048
  30        4PX         0.00056  -0.00200  -0.00529   0.02654   0.10110
  31        4PY         0.00094  -0.00352  -0.00897   0.04615  -0.06363
  32        4PZ         0.00008  -0.00003  -0.00088  -0.00222   0.00031
  33 5   H  1S         -0.00007  -0.00003   0.05047   0.09456  -0.09121
  34        2S         -0.00007  -0.00030   0.05146   0.11236  -0.11471
  35        3S          0.00182  -0.00013  -0.00109   0.01693  -0.03679
  36 6   H  1S         -0.00006  -0.00003   0.04907   0.09157   0.08559
  37        2S         -0.00007  -0.00032   0.05060   0.10970   0.10845
  38        3S          0.00177  -0.00014  -0.00113   0.01618   0.03522
                           6         7         8         9        10
                           O         O         O         V         V
     Eigenvalues --    -0.50921  -0.43666  -0.35671   0.07948   0.14088
   1 1   C  1S         -0.00345   0.00032  -0.00116   0.00318  -0.03388
   2        2S         -0.00514   0.00055  -0.00189   0.00528  -0.05435
   3        2PX         0.09304  -0.11127  -0.00401   0.00182  -0.03001
   4        2PY         0.16905   0.06607  -0.00670   0.00287  -0.06587
   5        2PZ         0.00596  -0.00004   0.17934  -0.18903  -0.00309
   6        3S          0.01992  -0.00138   0.00551  -0.01596   0.11853
   7        3PX         0.13490  -0.17770  -0.00568   0.00274  -0.03465
   8        3PY         0.24732   0.10599  -0.00945   0.00428  -0.08147
   9        3PZ         0.00945  -0.00003   0.28823  -0.27783  -0.00488
  10        4S         -0.05412  -0.00416   0.00815  -0.01837   1.23116
  11        4PX         0.06771  -0.11051  -0.00466   0.01517  -0.18527
  12        4PY         0.12581   0.06704  -0.00774   0.02460  -0.39028
  13        4PZ         0.00537   0.00005   0.26714  -0.69395  -0.01777
  14 2   H  1S         -0.08165  -0.11557   0.00019   0.00495  -0.01821
  15        2S         -0.11337  -0.17887   0.00236   0.00782  -0.05001
  16        3S         -0.04248  -0.08275   0.00141   0.02085  -0.85258
  17 3   H  1S         -0.07853   0.11269   0.00008   0.00495  -0.01311
  18        2S         -0.10826   0.17351   0.00220   0.00798  -0.03728
  19        3S         -0.04014   0.08012   0.00133   0.02054  -0.76530
  20 4   C  1S         -0.00863  -0.00059  -0.00095  -0.00305  -0.03575
  21        2S         -0.01352  -0.00099  -0.00155  -0.00505  -0.05741
  22        2PX        -0.09929   0.12453   0.00375   0.00181   0.04225
  23        2PY        -0.16108  -0.07355   0.00711   0.00355   0.05977
  24        2PZ         0.00620   0.00036   0.17905   0.18933  -0.00328
  25        3S          0.04351   0.00283   0.00459   0.01518   0.12656
  26        3PX        -0.14727   0.19914   0.00522   0.00279   0.05247
  27        3PY        -0.23677  -0.11681   0.01000   0.00547   0.07072
  28        3PZ         0.00981   0.00054   0.28672   0.27777  -0.00500
  29        4S         -0.02720   0.00404   0.00757   0.01688   1.23352
  30        4PX        -0.07713   0.12743   0.00400   0.01440   0.27128
  31        4PY        -0.12232  -0.07347   0.00788   0.02686   0.40556
  32        4PZ         0.00568   0.00031   0.26751   0.69490  -0.01971
  33 5   H  1S         -0.07354  -0.12427   0.00029  -0.00466  -0.01093
  34        2S         -0.10011  -0.19327   0.00255  -0.00778  -0.03544
  35        3S         -0.03733  -0.09070   0.00142  -0.01993  -0.80260
  36 6   H  1S         -0.08031   0.12441   0.00016  -0.00465  -0.01589
  37        2S         -0.11002   0.19464   0.00234  -0.00768  -0.04773
  38        3S         -0.04133   0.09136   0.00129  -0.02014  -0.88980
                          11        12        13        14        15
                           V         V         V         V         V
     Eigenvalues --     0.16475   0.17015   0.24082   0.37349   0.39324
   1 1   C  1S          0.00191  -0.04516  -0.00000   0.00983   0.00193
   2        2S          0.00308  -0.07360  -0.00000   0.01354   0.00324
   3        2PX         0.09852  -0.01879   0.09974  -0.03599  -0.02570
   4        2PY        -0.05274  -0.03729  -0.05718  -0.06657   0.00703
   5        2PZ         0.00030  -0.00770   0.00007  -0.00545  -0.00025
   6        3S         -0.00662   0.16644   0.00026   0.03172  -0.00599
   7        3PX         0.14064  -0.00985   0.10576  -0.04543  -0.11182
   8        3PY        -0.07697  -0.02487  -0.06178  -0.08882   0.03836
   9        3PZ         0.00043  -0.01066  -0.00001  -0.01107  -0.00021
  10        4S         -0.08283   1.42116  -0.01336  -2.60855  -0.29919
  11        4PX         0.58903  -0.11205   1.16570  -1.55654  -0.54723
  12        4PY        -0.30538  -0.20364  -0.66045  -2.71659   0.11740
  13        4PZ         0.00201  -0.05032   0.00164  -0.04999  -0.00319
  14 2   H  1S         -0.02910  -0.02588   0.01275  -0.05856   0.07675
  15        2S         -0.07979  -0.01805  -0.02499  -0.66449   0.79325
  16        3S         -1.00924  -1.00037  -1.53468  -0.29709  -0.35193
  17 3   H  1S          0.02896  -0.02499  -0.01533  -0.05069  -0.07508
  18        2S          0.07948  -0.02149   0.01837  -0.60514  -0.74048
  19        3S          1.11732  -0.99521   1.56232  -0.38304   0.24449
  20 4   C  1S          0.00143   0.04274  -0.00006  -0.01995   0.00006
  21        2S          0.00227   0.06956  -0.00012  -0.03273   0.00045
  22        2PX         0.09992  -0.02300  -0.10061  -0.04119  -0.03108
  23        2PY        -0.06160  -0.03803   0.05761  -0.07267   0.01265
  24        2PZ         0.00028   0.00755  -0.00010   0.00394   0.00056
  25        3S         -0.00443  -0.15432   0.00037   0.04205  -0.00911
  26        3PX         0.14373  -0.01803  -0.11420  -0.09325  -0.10573
  27        3PY        -0.08729  -0.02759   0.06395  -0.16715   0.06152
  28        3PZ         0.00040   0.01040  -0.00006   0.00480   0.00121
  29        4S         -0.07166  -1.35706   0.00881   3.29819   0.20888
  30        4PX         0.53168  -0.11498  -1.12288  -1.17344  -0.62139
  31        4PY        -0.33679  -0.20485   0.65717  -2.05841   0.00260
  32        4PZ         0.00181   0.04918  -0.00180   0.04012   0.00425
  33 5   H  1S          0.03088   0.02451   0.00682   0.00916  -0.07803
  34        2S          0.06823   0.02246  -0.03219   0.05542  -0.75077
  35        3S          1.08678   0.95992  -1.53547   0.45809   0.46950
  36 6   H  1S         -0.03146   0.02508  -0.00488   0.00486   0.08926
  37        2S         -0.06920   0.01880   0.03428   0.01427   0.92408
  38        3S         -0.99184   0.94816   1.51661   0.46377  -0.43707
                          16        17        18        19        20
                           V         V         V         V         V
     Eigenvalues --     0.39895   0.46451   0.48818   0.49389   0.59095
   1 1   C  1S         -0.01846   0.01111   0.04706  -0.00028  -0.00066
   2        2S         -0.03244   0.02668   0.07897  -0.00016  -0.00118
   3        2PX         0.02548  -0.06045  -0.01408   0.00153   0.00251
   4        2PY         0.05005  -0.10602  -0.01855   0.00204   0.00365
   5        2PZ         0.00032  -0.00063  -0.00548  -0.15197  -0.19241
   6        3S          0.07601  -0.33412  -0.10503  -0.01074  -0.00039
   7        3PX         0.09612  -0.24037   0.02609   0.00127   0.00844
   8        3PY         0.19598  -0.41887   0.05635   0.00012   0.01228
   9        3PZ        -0.00441  -0.00518  -0.02512  -0.62857  -0.68433
  10        4S          2.64961   0.20376  -3.09169   0.09541   0.07890
  11        4PX         0.21216   0.25676  -0.81183   0.03096   0.02355
  12        4PY         0.46088   0.47620  -1.39657   0.05592   0.04380
  13        4PZ        -0.00163  -0.00005   0.09979   0.68538   1.23969
  14 2   H  1S         -0.02240  -0.03616   0.07529  -0.00282  -0.00193
  15        2S         -0.49417  -0.34890   0.90079  -0.02643  -0.01378
  16        3S          0.29576   0.09274  -0.64526   0.03345   0.02702
  17 3   H  1S         -0.03770  -0.03807   0.07311  -0.00274  -0.00187
  18        2S         -0.64053  -0.36924   0.86693  -0.02557  -0.01271
  19        3S          0.33726   0.09096  -0.61128   0.03233   0.02642
  20 4   C  1S         -0.00067  -0.00136  -0.05079   0.00339   0.00079
  21        2S         -0.00467   0.00541  -0.08813   0.00614   0.00147
  22        2PX         0.00737   0.05615  -0.02602   0.00008   0.00223
  23        2PY         0.01764   0.09558  -0.04774  -0.00020   0.00457
  24        2PZ        -0.00426  -0.00196  -0.00566  -0.15255   0.19226
  25        3S          0.07849  -0.29186   0.22102  -0.02379  -0.00258
  26        3PX        -0.04915   0.23833  -0.04979   0.00024   0.00776
  27        3PY        -0.06184   0.41159  -0.08808  -0.00129   0.01584
  28        3PZ        -0.01219  -0.00813  -0.02073  -0.63101   0.68262
  29        4S         -0.84222   0.69016   3.12543  -0.12169  -0.07096
  30        4PX         1.21422  -0.32580  -0.62088   0.01556   0.02612
  31        4PY         2.25329  -0.54104  -1.06063   0.02723   0.04140
  32        4PZ        -0.03782  -0.01823  -0.04432   0.69414  -1.23762
  33 5   H  1S         -0.05129  -0.06200  -0.06571   0.00263   0.00183
  34        2S         -0.88329  -0.63331  -0.82763   0.03969   0.00766
  35        3S         -0.18396   0.24538   0.54893  -0.00984  -0.02619
  36 6   H  1S         -0.03583  -0.06123  -0.06551   0.00265   0.00185
  37        2S         -0.71049  -0.62328  -0.82494   0.03936   0.00785
  38        3S         -0.23519   0.26747   0.57105  -0.01141  -0.02668
                          21        22        23        24        25
                           V         V         V         V         V
     Eigenvalues --     0.66560   0.69074   0.77316   0.77499   0.84066
   1 1   C  1S          0.00111  -0.00055   0.05311   0.07141   0.00098
   2        2S          0.00231  -0.00121   0.11216   0.15227   0.00232
   3        2PX        -0.13733   0.19394  -0.02368   0.11601  -0.00761
   4        2PY         0.08008  -0.11770  -0.03945   0.18609   0.01661
   5        2PZ        -0.00015   0.00029   0.00086   0.00563   0.00021
   6        3S         -0.01875   0.01651  -0.76492  -1.32285  -0.02870
   7        3PX        -0.63216   0.67388  -0.16811   0.45566  -0.22157
   8        3PY         0.36393  -0.41022  -0.28254   0.71745   0.17744
   9        3PZ        -0.00082   0.00105   0.00320   0.01968   0.00057
  10        4S          0.02857  -0.06699   0.80225   2.43193   0.02724
  11        4PX         1.10121  -0.73566   0.18997  -0.80719   4.50103
  12        4PY        -0.63536   0.46945   0.17108  -0.98585  -2.54834
  13        4PZ         0.00086   0.00154   0.00913  -0.06417   0.00740
  14 2   H  1S          0.02513  -0.05838   0.01118   0.03233  -0.02548
  15        2S          0.14824  -0.62669   0.06225   0.09669  -1.55380
  16        3S         -1.06213   1.08263  -0.13330  -1.07083  -1.22203
  17 3   H  1S         -0.02407   0.05776   0.01123   0.03310   0.02995
  18        2S         -0.16538   0.66181   0.10882   0.04517   1.60064
  19        3S          1.05027  -1.03155  -0.09860  -1.25923   1.21600
  20 4   C  1S          0.00133  -0.00016   0.08498   0.02916   0.00049
  21        2S          0.00274  -0.00025   0.18089   0.06124   0.00087
  22        2PX        -0.14702  -0.18954  -0.09381   0.05436   0.01296
  23        2PY         0.08425   0.10391  -0.17255   0.10149   0.00387
  24        2PZ        -0.00019  -0.00032   0.00583  -0.00134  -0.00022
  25        3S         -0.02051  -0.00536  -1.50453  -0.33828   0.00180
  26        3PX        -0.66852  -0.64609  -0.33695   0.28307   0.24508
  27        3PY         0.38699   0.35108  -0.62974   0.52738  -0.08773
  28        3PZ        -0.00100  -0.00112   0.02061  -0.00507  -0.00049
  29        4S          0.01810   0.04757   2.66864   0.05268  -0.04392
  30        4PX         1.26739   0.77076   0.47339  -0.21551  -4.16151
  31        4PY        -0.73021  -0.40017   1.02922  -0.72286   2.39676
  32        4PZ         0.00188  -0.00118  -0.05935   0.03104  -0.00699
  33 5   H  1S         -0.02391  -0.05570   0.03460   0.00203  -0.02376
  34        2S         -0.13378  -0.57924   0.07640   0.08718  -1.42178
  35        3S          1.09759   0.99676  -1.18281   0.34167  -1.09948
  36 6   H  1S          0.02486   0.05592   0.03396   0.00260   0.02248
  37        2S          0.12462   0.54349   0.08853   0.00785   1.39694
  38        3S         -1.10186  -1.03419  -1.06927   0.23604   1.11690
                          26        27        28        29        30
                           V         V         V         V         V
     Eigenvalues --     0.95141   2.23171   2.29038   2.33235   2.40589
   1 1   C  1S          0.09577  -0.00990  -0.01430   0.00046  -0.00055
   2        2S          0.19900   0.00184  -0.01404   0.00095  -0.00071
   3        2PX        -0.09112  -0.07822  -0.13139   0.34814  -0.40692
   4        2PY        -0.15781  -0.14911  -0.23114  -0.19707   0.22727
   5        2PZ         0.00016  -0.01547  -0.02128   0.00024  -0.00114
   6        3S         -1.54318  -0.18560  -0.03793  -0.00088  -0.00486
   7        3PX        -0.23286   0.07491   0.20647  -0.41971   0.56875
   8        3PY        -0.39388   0.15849   0.37928   0.24036  -0.31889
   9        3PZ        -0.00299   0.01558   0.02660  -0.00013   0.00134
  10        4S          5.71454  -0.10200  -0.88289   0.00052  -0.01048
  11        4PX         1.21758   0.05218  -0.18233  -0.05102   0.97051
  12        4PY         1.97662   0.06693  -0.36165   0.01757  -0.52554
  13        4PZ        -0.02111   0.00332   0.00927  -0.00038   0.00265
  14 2   H  1S          0.01557  -0.70874  -0.79540  -0.71219   0.64519
  15        2S         -0.29712   1.00723   1.18911   1.09906  -1.44022
  16        3S         -0.10101  -0.30579  -0.47969  -0.47571   0.37055
  17 3   H  1S          0.01609  -0.69822  -0.79159   0.70454  -0.66934
  18        2S         -0.25634   0.99298   1.19167  -1.09168   1.49170
  19        3S         -0.07231  -0.28140  -0.45614   0.46369  -0.35947
  20 4   C  1S         -0.09398  -0.01066   0.01241   0.00059   0.00039
  21        2S         -0.19494  -0.00031   0.01264   0.00082   0.00075
  22        2PX        -0.09209   0.13448  -0.12512   0.30188   0.41619
  23        2PY        -0.15895   0.23198  -0.20601  -0.17622  -0.24231
  24        2PZ         0.00030  -0.01715   0.02025   0.00070   0.00074
  25        3S          1.50764  -0.16789   0.01747   0.00061   0.00015
  26        3PX        -0.22482  -0.17153   0.21513  -0.37483  -0.58223
  27        3PY        -0.39561  -0.28865   0.34638   0.21552   0.33990
  28        3PZ         0.00406   0.01831  -0.02580  -0.00074  -0.00099
  29        4S         -5.69534  -0.17801   0.89117   0.01847  -0.00319
  30        4PX         1.08832  -0.01402  -0.20580   0.10923  -0.84911
  31        4PY         1.99421  -0.03721  -0.31313  -0.06079   0.51055
  32        4PZ         0.01536   0.00565  -0.00770  -0.00010  -0.00244
  33 5   H  1S         -0.01778  -0.78966   0.67297   0.70066   0.69357
  34        2S          0.28417   1.14810  -1.03104  -1.01656  -1.47157
  35        3S          0.05874  -0.35125   0.39485   0.50381   0.42675
  36 6   H  1S         -0.01766  -0.78497   0.69778  -0.68429  -0.68998
  37        2S          0.31768   1.13837  -1.05879   0.98894   1.45494
  38        3S          0.07764  -0.35633   0.43030  -0.50013  -0.43847
                          31        32        33        34        35
                           V         V         V         V         V
     Eigenvalues --     2.67107   2.81728   2.87918   2.95161   3.14003
   1 1   C  1S          0.00058   0.00291  -0.01335   0.00004  -0.00962
   2        2S          0.00046   0.00841  -0.04406  -0.00027  -0.02947
   3        2PX         0.00655   0.08289  -0.46255  -0.72984   0.45297
   4        2PY         0.00931   0.14670  -0.84832   0.41208   0.78239
   5        2PZ        -0.92477  -0.92599  -0.15962  -0.00172   0.00782
   6        3S         -0.00185  -0.06948   0.38611   0.00487   0.24771
   7        3PX        -0.00504  -0.14397   0.82330   0.87909  -0.43836
   8        3PY        -0.00698  -0.25212   1.47516  -0.48037  -0.75142
   9        3PZ         0.94025   1.13160   0.20047   0.00233  -0.00996
  10        4S          0.01522   0.16130  -0.86978  -0.01242  -0.48460
  11        4PX        -0.00200   0.11534  -0.70462  -0.67189   0.22469
  12        4PY        -0.00295   0.20348  -1.26383   0.35385   0.37465
  13        4PZ        -0.33865  -0.61186  -0.12729  -0.00187   0.00598
  14 2   H  1S          0.01404  -0.02280   0.26451  -0.37883  -0.21134
  15        2S         -0.01609   0.01454  -0.22255   0.39296   0.15960
  16        3S         -0.00321   0.04685  -0.29690   0.26826   0.05511
  17 3   H  1S          0.01429  -0.02205   0.25323   0.37853  -0.21748
  18        2S         -0.01661   0.01246  -0.20247  -0.38826   0.16540
  19        3S         -0.00377   0.04697  -0.29697  -0.28754   0.06945
  20 4   C  1S          0.00059  -0.00283   0.01343   0.00060  -0.00753
  21        2S          0.00057  -0.00877   0.04733   0.00136  -0.02317
  22        2PX        -0.00788   0.07418  -0.40965  -0.80730  -0.49942
  23        2PY        -0.01559   0.13269  -0.72214   0.44094  -0.89345
  24        2PZ        -0.92448   0.92551   0.16305  -0.00007   0.01520
  25        3S         -0.00320   0.07511  -0.42554  -0.00972   0.19776
  26        3PX         0.00815  -0.13504   0.76972   0.96398   0.53347
  27        3PY         0.01577  -0.23951   1.35261  -0.51998   0.96602
  28        3PZ         0.94003  -1.13090  -0.20535   0.00013  -0.01929
  29        4S          0.01795  -0.16345   0.89093   0.02933  -0.37557
  30        4PX        -0.00060   0.11528  -0.70843  -0.69883  -0.32324
  31        4PY        -0.00198   0.20169  -1.23310   0.37399  -0.59241
  32        4PZ        -0.33853   0.61110   0.13122  -0.00019   0.01507
  33 5   H  1S          0.01339   0.03086  -0.29267   0.41400  -0.26701
  34        2S         -0.01644  -0.02462   0.26508  -0.42279   0.20944
  35        3S         -0.00187  -0.04417   0.28425  -0.24903   0.12918
  36 6   H  1S          0.01352   0.03083  -0.28861  -0.42903  -0.24970
  37        2S         -0.01702  -0.02568   0.26731   0.43746   0.19538
  38        3S         -0.00124  -0.04203   0.26897   0.24911   0.11571
                          36        37        38
                           V         V         V
     Eigenvalues --     3.31800  23.35242  23.70515
   1 1   C  1S         -0.00034  -1.41819  -1.44818
   2        2S         -0.00037   1.51252   1.56603
   3        2PX         0.78633  -0.00657   0.01215
   4        2PY        -0.43476  -0.01064   0.02134
   5        2PZ         0.00175  -0.00063  -0.00027
   6        3S         -0.00283  -0.29722  -0.39831
   7        3PX        -1.12393   0.02390  -0.05560
   8        3PY         0.61415   0.03937  -0.09675
   9        3PZ        -0.00267   0.00180   0.00081
  10        4S          0.00621   0.27648   0.76665
  11        4PX         1.96617  -0.02530   0.13392
  12        4PY        -1.06943  -0.04264   0.22872
  13        4PZ         0.00453  -0.00301  -0.00345
  14 2   H  1S          0.55526   0.01266   0.00671
  15        2S         -0.86258   0.00774  -0.01483
  16        3S         -0.45317  -0.08356  -0.03962
  17 3   H  1S         -0.56872   0.01474   0.00794
  18        2S          0.88200   0.00739  -0.01438
  19        3S          0.48571  -0.08625  -0.03922
  20 4   C  1S          0.00009  -1.44340   1.42291
  21        2S         -0.00024   1.53944  -1.53874
  22        2PX        -0.70993   0.00610   0.01264
  23        2PY         0.41173   0.01114   0.02148
  24        2PZ        -0.00161  -0.00064   0.00017
  25        3S          0.00634  -0.30202   0.39119
  26        3PX         1.00932  -0.02241  -0.05633
  27        3PY        -0.59712  -0.04037  -0.09678
  28        3PZ         0.00243   0.00184  -0.00044
  29        4S         -0.02813   0.27759  -0.76035
  30        4PX        -1.76733   0.02393   0.12996
  31        4PY         1.05844   0.04416   0.22684
  32        4PZ        -0.00419  -0.00300   0.00267
  33 5   H  1S          0.49003   0.01389  -0.00517
  34        2S         -0.76100   0.00790   0.01374
  35        3S         -0.43672  -0.08386   0.03750
  36 6   H  1S         -0.48200   0.01209  -0.00390
  37        2S          0.75105   0.00903   0.01369
  38        3S          0.41799  -0.08129   0.03746
     Density Matrix:
                           1         2         3         4         5
   1 1   C  1S          0.65940
   2        2S          0.56149   0.49197
   3        2PX        -0.00050  -0.00066   0.08420
   4        2PY        -0.00131  -0.00183   0.00371   0.08753
   5        2PZ         0.00010   0.00015  -0.00013  -0.00032   0.06441
   6        3S         -0.08892  -0.15380   0.00257   0.00647  -0.00022
   7        3PX         0.00090   0.00138   0.13040   0.00127  -0.00009
   8        3PY         0.00118   0.00181   0.00131   0.13099  -0.00029
   9        3PZ         0.00020   0.00034  -0.00023  -0.00052   0.10352
  10        4S         -0.07951  -0.11455  -0.01559  -0.02800   0.00068
  11        4PX         0.00023   0.00154   0.07016  -0.00452  -0.00068
  12        4PY         0.00059   0.00298  -0.00463   0.06558  -0.00118
  13        4PZ        -0.00012  -0.00029  -0.00098  -0.00164   0.09589
  14 2   H  1S         -0.02045  -0.03257   0.03481  -0.06273  -0.00136
  15        2S         -0.02283  -0.03653   0.04925  -0.08776  -0.00102
  16        3S          0.00052  -0.00078   0.02077  -0.03319  -0.00002
  17 3   H  1S         -0.02104  -0.03349  -0.07264  -0.00229  -0.00157
  18        2S         -0.02322  -0.03708  -0.10050  -0.00246  -0.00127
  19        3S          0.00058  -0.00070  -0.03839   0.00108  -0.00011
  20 4   C  1S          0.00606   0.00977  -0.01081  -0.01877  -0.00049
  21        2S          0.00973   0.01521  -0.01729  -0.03005  -0.00080
  22        2PX         0.01038   0.01659  -0.01246  -0.03214   0.00049
  23        2PY         0.01803   0.02883  -0.03209  -0.04971   0.00102
  24        2PZ        -0.00056  -0.00091  -0.00049  -0.00071   0.06429
  25        3S         -0.02620  -0.03978   0.04847   0.08437   0.00241
  26        3PX         0.01602   0.02483  -0.01827  -0.04597   0.00062
  27        3PY         0.02781   0.04310  -0.04568  -0.07132   0.00135
  28        3PZ        -0.00095  -0.00152  -0.00086  -0.00126   0.10295
  29        4S          0.00536   0.00398   0.02085   0.03684   0.00289
  30        4PX         0.00311   0.00640  -0.01318  -0.02114   0.00072
  31        4PY         0.00519   0.01083  -0.02116  -0.03744   0.00156
  32        4PZ        -0.00081  -0.00131  -0.00128  -0.00201   0.09601
  33 5   H  1S          0.00420   0.00690  -0.00174  -0.01237  -0.00056
  34        2S          0.00628   0.01043   0.00351  -0.02494  -0.00000
  35        3S          0.00322   0.00470   0.00424  -0.01745   0.00012
  36 6   H  1S          0.00414   0.00681  -0.00981  -0.00762  -0.00058
  37        2S          0.00622   0.01037  -0.02328  -0.00941  -0.00006
  38        3S          0.00319   0.00469  -0.01720  -0.00516   0.00007
                           6         7         8         9        10
   6        3S          0.45248
   7        3PX        -0.00186   0.20226
   8        3PY        -0.00135  -0.00454   0.19654
   9        3PZ        -0.00068  -0.00017  -0.00045   0.16638
  10        4S          0.27414  -0.02625  -0.04807   0.00089   0.18339
  11        4PX        -0.00674   0.10918  -0.01024  -0.00110  -0.01504
  12        4PY        -0.01227  -0.01046   0.09884  -0.00188  -0.02898
  13        4PZ         0.00131  -0.00130  -0.00217   0.15412   0.00251
  14 2   H  1S          0.08707   0.05620  -0.09803  -0.00227   0.06926
  15        2S          0.09776   0.07988  -0.13667  -0.00173   0.08206
  16        3S          0.00620   0.03401  -0.05107  -0.00005   0.01145
  17 3   H  1S          0.08960  -0.11376  -0.00191  -0.00257   0.06938
  18        2S          0.09934  -0.15722  -0.00092  -0.00209   0.08057
  19        3S          0.00617  -0.05982   0.00353  -0.00017   0.01021
  20 4   C  1S         -0.02648  -0.01688  -0.02932  -0.00083   0.00512
  21        2S         -0.04007  -0.02622  -0.04560  -0.00135   0.00384
  22        2PX        -0.04649  -0.01777  -0.04562   0.00085  -0.01775
  23        2PY        -0.08072  -0.04550  -0.07084   0.00175  -0.03049
  24        2PZ         0.00270  -0.00068  -0.00095   0.10332   0.00286
  25        3S          0.10202   0.07113   0.12403   0.00402   0.00101
  26        3PX        -0.06727  -0.02618  -0.06506   0.00109  -0.02641
  27        3PY        -0.11667  -0.06459  -0.10161   0.00233  -0.04526
  28        3PZ         0.00448  -0.00119  -0.00168   0.16545   0.00475
  29        4S          0.00181   0.03152   0.05593   0.00480  -0.03242
  30        4PX        -0.02264  -0.01970  -0.02971   0.00120  -0.00659
  31        4PY        -0.03861  -0.02976  -0.05405   0.00257  -0.01039
  32        4PZ         0.00382  -0.00180  -0.00278   0.15431   0.00442
  33 5   H  1S         -0.02052  -0.00066  -0.01774  -0.00081  -0.01471
  34        2S         -0.03114   0.00864  -0.03668   0.00010  -0.01895
  35        3S         -0.01205   0.00813  -0.02626   0.00022  -0.00332
  36 6   H  1S         -0.02026  -0.01485  -0.00922  -0.00084  -0.01506
  37        2S         -0.03103  -0.03575  -0.01060   0.00001  -0.02002
  38        3S         -0.01209  -0.02661  -0.00613   0.00013  -0.00401
                          11        12        13        14        15
  11        4PX         0.05997
  12        4PY        -0.00918   0.05126
  13        4PZ        -0.00162  -0.00267   0.14279
  14 2   H  1S          0.03361  -0.05410  -0.00117   0.08086
  15        2S          0.04856  -0.07528  -0.00042   0.10946   0.15024
  16        3S          0.02111  -0.02799   0.00026   0.03685   0.05282
  17 3   H  1S         -0.06294   0.00168  -0.00131  -0.01318  -0.02476
  18        2S         -0.08737   0.00417  -0.00058  -0.02468  -0.04290
  19        3S         -0.03353   0.00444   0.00020  -0.01802  -0.02736
  20 4   C  1S         -0.00314  -0.00578  -0.00073   0.00422   0.00673
  21        2S         -0.00650  -0.01179  -0.00118   0.00697   0.01125
  22        2PX        -0.01313  -0.01991   0.00122   0.00179  -0.00270
  23        2PY        -0.01994  -0.03684   0.00237   0.01142   0.02426
  24        2PZ        -0.00094  -0.00142   0.09572  -0.00066  -0.00022
  25        3S          0.02302   0.04141   0.00347  -0.02101  -0.03387
  26        3PX        -0.02016  -0.02825   0.00164   0.00106  -0.00706
  27        3PY        -0.02819  -0.05369   0.00326   0.01701   0.03634
  28        3PZ        -0.00155  -0.00235   0.15328  -0.00097  -0.00023
  29        4S          0.00808   0.01567   0.00437  -0.01795  -0.02479
  30        4PX        -0.01476  -0.01245   0.00150  -0.00161  -0.00830
  31        4PY        -0.01261  -0.02960   0.00305   0.01519   0.02711
  32        4PZ        -0.00183  -0.00290   0.14298  -0.00054   0.00031
  33 5   H  1S          0.00193  -0.01586  -0.00041   0.01119   0.02333
  34        2S          0.00913  -0.02758   0.00056   0.02375   0.04440
  35        3S          0.00750  -0.01584   0.00040   0.01659   0.02782
  36 6   H  1S         -0.01441  -0.00564  -0.00043  -0.00913  -0.01831
  37        2S         -0.02799  -0.00500   0.00050  -0.01888  -0.03446
  38        3S         -0.01715  -0.00111   0.00034  -0.01018  -0.01779
                          16        17        18        19        20
  16        3S          0.02121
  17 3   H  1S         -0.01819   0.08229
  18        2S         -0.02745   0.10977   0.14855
  19        3S         -0.01290   0.03612   0.05116   0.02026
  20 4   C  1S          0.00371   0.00430   0.00674   0.00370   0.65947
  21        2S          0.00549   0.00710   0.01123   0.00544   0.56158
  22        2PX        -0.00344   0.00907   0.02234   0.01676   0.00119
  23        2PY         0.01771   0.00743   0.00971   0.00565   0.00172
  24        2PZ         0.00003  -0.00064  -0.00015   0.00008   0.00010
  25        3S         -0.01428  -0.02127  -0.03363  -0.01398  -0.08927
  26        3PX        -0.00685   0.01436   0.03508   0.02614  -0.00047
  27        3PY         0.02667   0.00958   0.01188   0.00709  -0.00112
  28        3PZ         0.00008  -0.00094  -0.00013   0.00015   0.00021
  29        4S         -0.00612  -0.01754  -0.02354  -0.00537  -0.08008
  30        4PX        -0.00692   0.01410   0.02774   0.01713  -0.00023
  31        4PY         0.01594   0.00672   0.00689   0.00206  -0.00020
  32        4PZ         0.00032  -0.00053   0.00036   0.00035  -0.00006
  33 5   H  1S          0.01624  -0.00900  -0.01808  -0.00941  -0.02029
  34        2S          0.02744  -0.01856  -0.03379  -0.01689  -0.02223
  35        3S          0.01463  -0.01001  -0.01742  -0.00892   0.00063
  36 6   H  1S         -0.00958   0.01119   0.02324   0.01594  -0.01988
  37        2S         -0.01732   0.02373   0.04420   0.02704  -0.02210
  38        3S         -0.00916   0.01659   0.02766   0.01444   0.00051
                          21        22        23        24        25
  21        2S          0.49208
  22        2PX         0.00171   0.08275
  23        2PY         0.00245   0.00353   0.08780
  24        2PZ         0.00015   0.00018   0.00022   0.06421
  25        3S         -0.15428  -0.00550  -0.00806  -0.00018   0.45385
  26        3PX        -0.00070   0.12868   0.00174   0.00012  -0.00032
  27        3PY        -0.00170   0.00177   0.13159   0.00008   0.00098
  28        3PZ         0.00035   0.00027   0.00036   0.10282  -0.00069
  29        4S         -0.11568   0.01374   0.02298   0.00075   0.27816
  30        4PX        -0.00149   0.07315  -0.00508   0.00053   0.00623
  31        4PY        -0.00224  -0.00495   0.06707   0.00100   0.00992
  32        4PZ        -0.00018   0.00091   0.00166   0.09588   0.00098
  33 5   H  1S         -0.03230  -0.03347   0.06396  -0.00155   0.08639
  34        2S         -0.03551  -0.04961   0.08859  -0.00123   0.09503
  35        3S         -0.00056  -0.02249   0.03336  -0.00013   0.00554
  36 6   H  1S         -0.03168   0.07124   0.00248  -0.00135   0.08471
  37        2S         -0.03534   0.10130   0.00060  -0.00096   0.09454
  38        3S         -0.00073   0.04053  -0.00315  -0.00003   0.00588
                          26        27        28        29        30
  26        3PX         0.20043
  27        3PY        -0.00265   0.19774
  28        3PZ         0.00016   0.00013   0.16466
  29        4S          0.02535   0.04194   0.00094   0.18591
  30        4PX         0.11436  -0.01051   0.00083   0.01571   0.06633
  31        4PY        -0.01036   0.10129   0.00160   0.02462  -0.01010
  32        4PZ         0.00115   0.00213   0.15354   0.00236   0.00130
  33 5   H  1S         -0.05340   0.10005  -0.00256   0.06699  -0.03428
  34        2S         -0.07960   0.13808  -0.00205   0.07674  -0.05157
  35        3S         -0.03654   0.05135  -0.00020   0.00892  -0.02388
  36 6   H  1S          0.11251   0.00314  -0.00225   0.06725   0.06575
  37        2S          0.15978  -0.00074  -0.00165   0.07860   0.09382
  38        3S          0.06360  -0.00636  -0.00007   0.01017   0.03767
                          31        32        33        34        35
  31        4PY         0.05339
  32        4PZ         0.00255   0.14320
  33 5   H  1S          0.05568  -0.00132   0.08132
  34        2S          0.07698  -0.00055   0.11013   0.15163
  35        3S          0.02875   0.00018   0.03784   0.05467   0.02253
  36 6   H  1S         -0.00195  -0.00119  -0.01245  -0.02602  -0.01988
  37        2S         -0.00623  -0.00039  -0.02612  -0.04822  -0.03147
  38        3S         -0.00626   0.00023  -0.02011  -0.03160  -0.01552
                          36        37        38
  36 6   H  1S          0.08009
  37        2S          0.10972   0.15270
  38        3S          0.03825   0.05574   0.02313
    Full Mulliken population analysis:
                           1         2         3         4         5
   1 1   C  1S          0.65940
   2        2S          0.49324   0.49197
   3        2PX         0.00000   0.00000   0.08420
   4        2PY         0.00000   0.00000   0.00000   0.08753
   5        2PZ         0.00000   0.00000   0.00000   0.00000   0.06441
   6        3S         -0.02927  -0.06441   0.00000   0.00000   0.00000
   7        3PX         0.00000   0.00000   0.08204   0.00000   0.00000
   8        3PY         0.00000   0.00000   0.00000   0.08241   0.00000
   9        3PZ         0.00000   0.00000   0.00000   0.00000   0.06513
  10        4S         -0.01222  -0.02144   0.00000   0.00000   0.00000
  11        4PX         0.00000   0.00000   0.01545   0.00000   0.00000
  12        4PY         0.00000   0.00000   0.00000   0.01444   0.00000
  13        4PZ         0.00000   0.00000   0.00000   0.00000   0.02112
  14 2   H  1S         -0.00022  -0.00032   0.00179   0.00547   0.00000
  15        2S         -0.00165  -0.00316   0.00433   0.01309   0.00001
  16        3S          0.00004  -0.00007   0.00070   0.00191   0.00000
  17 3   H  1S         -0.00025  -0.00036   0.00783   0.00000   0.00001
  18        2S         -0.00173  -0.00332   0.01770   0.00000   0.00001
  19        3S          0.00005  -0.00007   0.00256  -0.00000   0.00000
  20 4   C  1S          0.00000   0.00000  -0.00002  -0.00006   0.00000
  21        2S          0.00000  -0.00000  -0.00002  -0.00005   0.00000
  22        2PX        -0.00002  -0.00002   0.00011   0.00085   0.00000
  23        2PY        -0.00006  -0.00005   0.00085   0.00196   0.00000
  24        2PZ        -0.00000  -0.00000  -0.00000  -0.00000   0.00041
  25        3S         -0.00059  -0.00099   0.00252   0.00760  -0.00000
  26        3PX        -0.00054  -0.00099   0.00019   0.00555   0.00000
  27        3PY        -0.00162  -0.00298   0.00551   0.01069   0.00000
  28        3PZ        -0.00000  -0.00000  -0.00000  -0.00000   0.00609
  29        4S          0.00034   0.00030   0.00095   0.00289  -0.00000
  30        4PX        -0.00018  -0.00045  -0.00071   0.00147   0.00000
  31        4PY        -0.00052  -0.00133   0.00147   0.00098   0.00000
  32        4PZ        -0.00000  -0.00000  -0.00000  -0.00000   0.00902
  33 5   H  1S          0.00000   0.00000  -0.00000  -0.00000   0.00000
  34        2S          0.00001   0.00002   0.00000  -0.00032   0.00000
  35        3S          0.00008   0.00013   0.00001  -0.00070  -0.00000
  36 6   H  1S          0.00000   0.00000  -0.00000  -0.00000   0.00000
  37        2S          0.00001   0.00002  -0.00024  -0.00007   0.00000
  38        3S          0.00007   0.00013  -0.00057  -0.00012  -0.00000
                           6         7         8         9        10
   6        3S          0.45248
   7        3PX         0.00000   0.20226
   8        3PY         0.00000   0.00000   0.19654
   9        3PZ         0.00000   0.00000   0.00000   0.16638
  10        4S          0.21238   0.00000   0.00000   0.00000   0.18339
  11        4PX         0.00000   0.07134   0.00000   0.00000   0.00000
  12        4PY         0.00000   0.00000   0.06459   0.00000   0.00000
  13        4PZ         0.00000   0.00000   0.00000   0.10071   0.00000
  14 2   H  1S          0.01580   0.01078   0.03191   0.00003   0.01824
  15        2S          0.04087   0.01974   0.05733   0.00003   0.04713
  16        3S          0.00285   0.00402   0.01025   0.00000   0.00862
  17 3   H  1S          0.01691   0.04411   0.00001   0.00003   0.01853
  18        2S          0.04244   0.07721   0.00000   0.00004   0.04680
  19        3S          0.00286   0.01388  -0.00001   0.00000   0.00774
  20 4   C  1S         -0.00059  -0.00057  -0.00171   0.00000   0.00032
  21        2S         -0.00100  -0.00105  -0.00315   0.00000   0.00029
  22        2PX         0.00242   0.00019   0.00551   0.00000   0.00081
  23        2PY         0.00728   0.00549   0.01062   0.00000   0.00240
  24        2PZ         0.00000  -0.00000  -0.00000   0.00611   0.00000
  25        3S          0.02170   0.01331   0.04020  -0.00000   0.00038
  26        3PX         0.01259  -0.00126   0.01855   0.00000   0.00407
  27        3PY         0.03781   0.01842   0.02856   0.00000   0.01208
  28        3PZ         0.00000  -0.00000  -0.00000   0.03520   0.00000
  29        4S          0.00069   0.00486   0.01493  -0.00000  -0.02034
  30        4PX         0.00636  -0.00404   0.00588   0.00000   0.00200
  31        4PY         0.01878   0.00589   0.00129   0.00000   0.00545
  32        4PZ         0.00000  -0.00000  -0.00000   0.04926   0.00000
  33 5   H  1S         -0.00006  -0.00000  -0.00019   0.00000  -0.00079
  34        2S         -0.00121   0.00006  -0.00323  -0.00000  -0.00319
  35        3S         -0.00197   0.00011  -0.00424  -0.00000  -0.00120
  36 6   H  1S         -0.00005  -0.00013  -0.00005   0.00000  -0.00080
  37        2S         -0.00118  -0.00255  -0.00052  -0.00000  -0.00332
  38        3S         -0.00195  -0.00352  -0.00056  -0.00000  -0.00144
                          11        12        13        14        15
  11        4PX         0.05997
  12        4PY         0.00000   0.05126
  13        4PZ         0.00000   0.00000   0.14279
  14 2   H  1S          0.00638   0.01743   0.00001   0.08086
  15        2S          0.01554   0.04088   0.00001   0.07732   0.15024
  16        3S          0.00530   0.01193  -0.00000   0.01377   0.04168
  17 3   H  1S          0.02357  -0.00001   0.00002  -0.00001  -0.00064
  18        2S          0.05496  -0.00002   0.00001  -0.00064  -0.00531
  19        3S          0.01648  -0.00002  -0.00000  -0.00200  -0.00793
  20 4   C  1S         -0.00018  -0.00058   0.00000   0.00000   0.00002
  21        2S         -0.00046  -0.00145   0.00000   0.00000   0.00003
  22        2PX        -0.00071   0.00138   0.00000  -0.00000   0.00000
  23        2PY         0.00138   0.00096   0.00000  -0.00000  -0.00036
  24        2PZ        -0.00000  -0.00000   0.00899   0.00000   0.00000
  25        3S          0.00646   0.02014  -0.00000  -0.00007  -0.00149
  26        3PX        -0.00413   0.00560   0.00000  -0.00000   0.00004
  27        3PY         0.00558   0.00128   0.00000  -0.00022  -0.00355
  28        3PZ        -0.00000  -0.00000   0.04893   0.00000   0.00000
  29        4S          0.00245   0.00822  -0.00000  -0.00105  -0.00444
  30        4PX        -0.00710   0.00315   0.00000   0.00001   0.00016
  31        4PY         0.00319  -0.00559   0.00000  -0.00240  -0.01020
  32        4PZ        -0.00000  -0.00000   0.08971   0.00000  -0.00000
  33 5   H  1S          0.00002  -0.00236   0.00000   0.00000   0.00000
  34        2S          0.00028  -0.00992  -0.00000   0.00000   0.00016
  35        3S          0.00029  -0.00731  -0.00000   0.00023   0.00146
  36 6   H  1S         -0.00175  -0.00047   0.00000  -0.00000  -0.00004
  37        2S         -0.00824  -0.00101  -0.00000  -0.00004  -0.00093
  38        3S         -0.00652  -0.00029  -0.00000  -0.00046  -0.00248
                          16        17        18        19        20
  16        3S          0.02121
  17 3   H  1S         -0.00202   0.08229
  18        2S         -0.00796   0.07754   0.14855
  19        3S         -0.00668   0.01350   0.04037   0.02026
  20 4   C  1S          0.00009   0.00000   0.00002   0.00009   0.65947
  21        2S          0.00016   0.00000   0.00003   0.00016   0.49331
  22        2PX         0.00001  -0.00000  -0.00028  -0.00059   0.00000
  23        2PY        -0.00074  -0.00000  -0.00008  -0.00013   0.00000
  24        2PZ        -0.00000   0.00000   0.00000  -0.00000   0.00000
  25        3S         -0.00246  -0.00007  -0.00148  -0.00241  -0.02939
  26        3PX         0.00006  -0.00016  -0.00287  -0.00365   0.00000
  27        3PY        -0.00446  -0.00007  -0.00065  -0.00066   0.00000
  28        3PZ        -0.00000   0.00000   0.00000  -0.00000   0.00000
  29        4S         -0.00229  -0.00103  -0.00423  -0.00202  -0.01231
  30        4PX         0.00017  -0.00187  -0.00872  -0.00674   0.00000
  31        4PY        -0.00751  -0.00059  -0.00144  -0.00054   0.00000
  32        4PZ        -0.00000   0.00000  -0.00000  -0.00000   0.00000
  33 5   H  1S          0.00023  -0.00000  -0.00004  -0.00043  -0.00022
  34        2S          0.00144  -0.00004  -0.00090  -0.00234  -0.00161
  35        3S          0.00247  -0.00045  -0.00241  -0.00284   0.00005
  36 6   H  1S         -0.00044   0.00000   0.00000   0.00022  -0.00020
  37        2S         -0.00242   0.00000   0.00015   0.00141  -0.00156
  38        3S         -0.00293   0.00023   0.00145   0.00242   0.00004
                          21        22        23        24        25
  21        2S          0.49208
  22        2PX         0.00000   0.08275
  23        2PY         0.00000   0.00000   0.08780
  24        2PZ         0.00000   0.00000   0.00000   0.06421
  25        3S         -0.06461   0.00000   0.00000   0.00000   0.45385
  26        3PX         0.00000   0.08095   0.00000   0.00000   0.00000
  27        3PY         0.00000   0.00000   0.08278   0.00000   0.00000
  28        3PZ         0.00000   0.00000   0.00000   0.06469   0.00000
  29        4S         -0.02165   0.00000   0.00000   0.00000   0.21549
  30        4PX         0.00000   0.01611   0.00000   0.00000   0.00000
  31        4PY         0.00000   0.00000   0.01477   0.00000   0.00000
  32        4PZ         0.00000   0.00000   0.00000   0.02112   0.00000
  33 5   H  1S         -0.00032   0.00152   0.00584   0.00001   0.01575
  34        2S         -0.00308   0.00383   0.01376   0.00001   0.03982
  35        3S         -0.00005   0.00067   0.00199   0.00000   0.00255
  36 6   H  1S         -0.00029   0.00687   0.00001   0.00000   0.01493
  37        2S         -0.00298   0.01729   0.00001   0.00001   0.03888
  38        3S         -0.00007   0.00270  -0.00001   0.00000   0.00268
                          26        27        28        29        30
  26        3PX         0.20043
  27        3PY         0.00000   0.19774
  28        3PZ         0.00000   0.00000   0.16466
  29        4S          0.00000   0.00000   0.00000   0.18591
  30        4PX         0.07473   0.00000   0.00000   0.00000   0.06633
  31        4PY         0.00000   0.06619   0.00000   0.00000   0.00000
  32        4PZ         0.00000   0.00000   0.10033   0.00000   0.00000
  33 5   H  1S          0.00900   0.03395   0.00003   0.01767   0.00571
  34        2S          0.01726   0.06026   0.00004   0.04414   0.01446
  35        3S          0.00378   0.01071   0.00000   0.00672   0.00525
  36 6   H  1S          0.04161   0.00007   0.00003   0.01751   0.02451
  37        2S          0.07714  -0.00002   0.00003   0.04477   0.05909
  38        3S          0.01482  -0.00009   0.00000   0.00762   0.01868
                          31        32        33        34        35
  31        4PY         0.05339
  32        4PZ         0.00000   0.14320
  33 5   H  1S          0.01865   0.00002   0.08132
  34        2S          0.04343   0.00001   0.07779   0.15163
  35        3S          0.01272  -0.00000   0.01414   0.04314   0.02253
  36 6   H  1S         -0.00004   0.00001  -0.00001  -0.00080  -0.00235
  37        2S         -0.00023   0.00001  -0.00081  -0.00667  -0.00962
  38        3S         -0.00018  -0.00000  -0.00238  -0.00966  -0.00832
                          36        37        38
  36 6   H  1S          0.08009
  37        2S          0.07751   0.15270
  38        3S          0.01429   0.04398   0.02313
     Gross orbital populations:
                           1
   1 1   C  1S          1.10436
   2        2S          0.88586
   3        2PX         0.22667
   4        2PY         0.23552
   5        2PZ         0.16621
   6        3S          0.79253
   7        3PX         0.56061
   8        3PY         0.55490
   9        3PZ         0.42291
  10        4S          0.50590
  11        4PX         0.25956
  12        4PY         0.21223
  13        4PZ         0.41229
  14 2   H  1S          0.27260
  15        2S          0.46787
  16        3S          0.08693
  17 3   H  1S          0.27701
  18        2S          0.46519
  19        3S          0.08296
  20 4   C  1S          1.10440
  21        2S          0.88584
  22        2PX         0.22235
  23        2PY         0.23646
  24        2PZ         0.16555
  25        3S          0.79273
  26        3PX         0.55278
  27        3PY         0.55732
  28        3PZ         0.42001
  29        4S          0.50610
  30        4PX         0.27427
  31        4PY         0.21562
  32        4PZ         0.41268
  33 5   H  1S          0.27405
  34        2S          0.46860
  35        3S          0.08758
  36 6   H  1S          0.27026
  37        2S          0.47060
  38        3S          0.09069
          Condensed to atoms (all electrons):
               1          2          3          4          5          6
     1  C    5.033599   0.386989   0.387976   0.601758  -0.035661  -0.035113
     2  H    0.386989   0.517822  -0.033180  -0.040492   0.005997  -0.009746
     3  H    0.387976  -0.033180   0.513892  -0.039960  -0.009450   0.005889
     4  C    0.601758  -0.040492  -0.039960   5.056827   0.384327   0.383659
     5  H   -0.035661   0.005997  -0.009450   0.384327   0.525613  -0.040605
     6  H   -0.035113  -0.009746   0.005889   0.383659  -0.040605   0.527470
 Mulliken charges:
               1
     1  C   -0.339548
     2  H    0.172610
     3  H    0.174832
     4  C   -0.346119
     5  H    0.169779
     6  H    0.168446
 Sum of Mulliken charges =  -0.00000
 Mulliken charges with hydrogens summed into heavy atoms:
               1
     1  C    0.007894
     4  C   -0.007894
 Electronic spatial extent (au):  <R**2>=             83.7540
 Charge=             -0.0000 electrons
 Dipole moment (field-independent basis, Debye):
    X=              0.0023    Y=              0.0247    Z=             -0.1237  Tot=              0.1261
 Quadrupole moment (field-independent basis, Debye-Ang):
   XX=            -12.2039   YY=            -12.2215   ZZ=            -15.6712
   XY=              0.0131   XZ=              0.0013   YZ=             -0.0045
 Traceless Quadrupole moment (field-independent basis, Debye-Ang):
   XX=              1.1616   YY=              1.1440   ZZ=             -2.3057
   XY=              0.0131   XZ=              0.0013   YZ=             -0.0045
 Octapole moment (field-independent basis, Debye-Ang**2):
  XXX=             -0.3372  YYY=              0.0344  ZZZ=             -0.0379  XYY=              0.1971
  XXY=             -0.0310  XXZ=             -0.1557  XZZ=             -0.0840  YZZ=             -0.0543
  YYZ=             -0.2089  XYZ=             -0.0455
 Hexadecapole moment (field-independent basis, Debye-Ang**3):
 XXXX=            -34.3083 YYYY=            -55.2391 ZZZZ=            -17.8236 XXXY=             -7.2561
 XXXZ=              0.0191 YYYX=            -10.7199 YYYZ=              0.0196 ZZZX=              0.0200
 ZZZY=              0.0420 XXYY=            -16.2022 XXZZ=             -9.9315 YYZZ=            -13.6458
 XXYZ=              0.0105 YYXZ=             -0.0013 ZZXY=             -3.2075
 N-N= 3.305729604181D+01 E-N=-2.478229271469D+02  KE= 7.814971918787D+01
 Orbital energies and kinetic energies (alpha):
                                 1                 2
   1         O               -10.289997         15.977371
   2         O               -10.288604         15.981114
   3         O                -0.863609          1.537461
   4         O                -0.672364          1.271533
   5         O                -0.559204          0.941731
   6         O                -0.509212          1.283402
   7         O                -0.436658          1.043826
   8         O                -0.356709          1.038421
   9         V                 0.079481          1.182289
  10         V                 0.140880          0.589309
  11         V                 0.164747          0.594244
  12         V                 0.170146          0.679905
  13         V                 0.240825          0.583269
  14         V                 0.373486          0.852851
  15         V                 0.393243          0.932337
  16         V                 0.398948          0.783762
  17         V                 0.464511          1.190926
  18         V                 0.488178          1.423534
  19         V                 0.493888          1.302262
  20         V                 0.590954          1.652392
  21         V                 0.665604          1.572011
  22         V                 0.690743          2.147371
  23         V                 0.773162          2.440398
  24         V                 0.774988          2.302370
  25         V                 0.840656          1.084458
  26         V                 0.951408          3.419495
  27         V                 2.231706          3.926462
  28         V                 2.290377          4.028891
  29         V                 2.332352          4.303761
  30         V                 2.405885          4.514941
  31         V                 2.671069          6.300547
  32         V                 2.817285          6.304350
  33         V                 2.879179          6.139666
  34         V                 2.951608          6.225837
  35         V                 3.140028          6.821112
  36         V                 3.317999          6.403098
  37         V                23.352422         60.074763
  38         V                23.705152         60.203272
 Total kinetic energy from orbitals= 7.814971918787D+01
 Calling FoFJK, ICntrl=      2127 FMM=F ISym2X=0 I1Cent= 0 IOpClX= 0 NMat=1 NMatS=1 NMatT=0.
 -------------------------------------------------------------------
 Center     Atomic                   Forces (Hartrees/Bohr)
 Number     Number              X              Y              Z
 -------------------------------------------------------------------
      1        6           0.014385603    0.007087343   -0.005019403
      2        1          -0.010756338    0.007831598    0.002569442
      3        1           0.003352592   -0.004414518    0.002305869
      4        6           0.009498736    0.005750998   -0.005363175
      5        1           0.000509666   -0.010863956    0.002668316
      6        1          -0.016990259   -0.005391465    0.002838950
 -------------------------------------------------------------------
 Cartesian Forces:  Max     0.016990259 RMS     0.007836224

 GradGradGradGradGradGradGradGradGradGradGradGradGradGradGradGradGradGrad
 Berny optimization.
 Search for a local minimum.
 Step number   1 out of a maximum of    2
 All quantities printed in internal units (Hartrees-Bohrs-Radians)
 Second derivative matrix not updated -- first step.
 The second derivative matrix:
                          X1        Y1        Z1        X2        Y2
           X1           0.75587
           Y1           0.09883   0.85208
           Z1           0.00751   0.01099   0.17016
           X2          -0.16343   0.09519   0.00254   0.14110
           Y2           0.10110  -0.27877  -0.00912  -0.11427   0.26761
           Z2           0.00405  -0.01149  -0.05437  -0.00368   0.00943
           X3          -0.35108  -0.00185  -0.01028  -0.00032  -0.00018
           Y3          -0.00768  -0.10998  -0.00248   0.03217   0.01888
           Z3          -0.01311  -0.00240  -0.05616   0.00188   0.00071
           X4          -0.26652  -0.17765  -0.00105   0.02268   0.01334
           Y4          -0.17795  -0.47159  -0.00166  -0.01310  -0.00770
           Z4           0.00153   0.00285  -0.09380  -0.00074  -0.00102
           X5           0.02361  -0.01363   0.00080  -0.00001   0.00001
           Y5           0.01170  -0.00676   0.00109   0.00001  -0.00000
           Z5          -0.00064   0.00039   0.01758   0.00031  -0.00017
           X6           0.00155  -0.00090   0.00048  -0.00001   0.00001
           Y6          -0.02601   0.01502   0.00117   0.00001  -0.00000
           Z6           0.00065  -0.00035   0.01659  -0.00031   0.00016
                          Z2        X3        Y3        Z3        X4
           Z2           0.02834
           X3          -0.00038   0.35119
           Y3           0.00204   0.00215   0.07572
           Z3           0.01049   0.01121   0.00168   0.02950
           X4           0.00064   0.00024  -0.02665  -0.00063   0.71358
           Y4          -0.00035  -0.00014   0.01539   0.00039   0.11837
           Z4           0.01542  -0.00056  -0.00123   0.01629  -0.00616
           X5          -0.00033  -0.00001   0.00001   0.00033  -0.14766
           Y5           0.00020   0.00001  -0.00000  -0.00021   0.09398
           Z5           0.00921   0.00033  -0.00020  -0.00942  -0.00409
           X6          -0.00031  -0.00001   0.00001   0.00032  -0.32231
           Y6           0.00017   0.00001  -0.00000  -0.00017  -0.02138
           Z6          -0.00909  -0.00033   0.00020   0.00930   0.01129
                          Y4        Z4        X5        Y5        Z5
           Y4           0.86243
           Z4          -0.01270   0.17615
           X5           0.08566  -0.00273   0.12606
           Y5          -0.29410   0.00968  -0.10474   0.28468
           Z5           0.01194  -0.05771   0.00365  -0.01032   0.03008
           X6          -0.01284   0.00866  -0.00198  -0.00097   0.00043
           Y6          -0.10443   0.00242   0.03269   0.01618  -0.00165
           Z6           0.00237  -0.05635  -0.00173  -0.00045   0.01026
                          X6        Y6        Z6
           X6           0.32276
           Y6           0.01469   0.07323
           Z6          -0.00958  -0.00193   0.02929
 ITU=  0
     Eigenvalues ---    0.03709   0.04378   0.09114   0.10126   0.13502
     Eigenvalues ---    0.17459   0.26273   0.28993   0.52875   0.70178
     Eigenvalues ---    0.97280   1.55891
 Angle between quadratic step and forces=  35.41 degrees.
 Linear search not attempted -- first point.
 B after Tr=     0.007091    0.006283   -0.012715
         Rot=    1.000000   -0.000050    0.000028   -0.000116 Ang=  -0.01 deg.
 Variable       Old X    -DE/DX   Delta X   Delta X   Delta X     New X
                                 (Linear)    (Quad)   (Total)
    X1       -0.63695   0.01439   0.00000   0.02218   0.02952  -0.60743
    Y1       -1.09985   0.00709   0.00000   0.02134   0.02748  -1.07237
    Z1        0.01372  -0.00502   0.00000  -0.02697  -0.03983  -0.02611
    X2        0.41902  -0.01076   0.00000  -0.04209  -0.03433   0.38469
    Y2       -2.89213   0.00783   0.00000   0.02375   0.03012  -2.86201
    Z2       -0.05400   0.00257   0.00000   0.03323   0.02025  -0.03375
    X3       -2.68980   0.00335   0.00000   0.03007   0.03742  -2.65238
    Y3       -1.11627  -0.00441   0.00000  -0.01529  -0.00962  -1.12589
    Z3       -0.05783   0.00231   0.00000   0.03230   0.01932  -0.03850
    X4        0.62841   0.00950   0.00000   0.00716   0.01400   0.64241
    Y4        1.09137   0.00575   0.00000   0.00470   0.01113   1.10250
    Z4        0.01059  -0.00536   0.00000  -0.02565  -0.03822  -0.02763
    X5       -0.29577   0.00051   0.00000  -0.01743  -0.01101  -0.30678
    Y5        2.95129  -0.01086   0.00000  -0.03853  -0.03231   2.91897
    Z5       -0.06289   0.00267   0.00000   0.03220   0.01976  -0.04313
    X6        2.72493  -0.01699   0.00000  -0.04242  -0.03561   2.68932
    Y6        1.21473  -0.00539   0.00000  -0.03370  -0.02679   1.18794
    Z6       -0.05841   0.00284   0.00000   0.03117   0.01872  -0.03969
         Item               Value     Threshold  Converged?
 Maximum Force            0.016990     0.000450     NO 
 RMS     Force            0.007836     0.000300     NO 
 Maximum Displacement     0.039829     0.001800     NO 
 RMS     Displacement     0.027129     0.001200     NO 
 Predicted change in Energy=-1.645806D-03
 GradGradGradGradGradGradGradGradGradGradGradGradGradGradGradGradGradGrad

 Unable to Open any file for archive entry.
 1\1\GINC-BHD0005\Force\RwB97XD\6-311G\C2H4\BWEIGHT\11-Jan-2023\0\\# WB
 97XD/6-311G SCF=XQC FORCE nosym pop=full guess=read\\MD Step 1000\\0,1
 \C,-0.33705958,-0.58201695,0.0072585\H,0.22173319,-1.53044957,-0.02857
 313\H,-1.42338099,-0.59070273,-0.03060003\C,0.33253764,0.57752849,0.00
 560509\H,-0.15651568,1.56175422,-0.03327893\H,1.44196901,0.64280569,-0
 .03090831\\Version=ES64L-G16RevC.01\HF=-78.5556515\RMSD=6.323e-09\RMSF
 =7.836e-03\Dipole=0.0009168,0.0097285,-0.0486544\Quadrupole=0.8636526,
 0.8505621,-1.7142147,0.0097212,0.0009826,-0.0033241\PG=C01 [X(C2H4)]\\
 @
 The archive entry for this job was punched.


 Other things may change us, but we start and end with family.
 -- Anthony Brandt
 Job cpu time:       0 days  0 hours  0 minutes 43.4 seconds.
 Elapsed time:       0 days  0 hours  0 minutes 14.4 seconds.
 File lengths (MBytes):  RWF=    272 Int=      0 D2E=      0 Chk=     32 Scr=     32
 Normal termination of Gaussian 16 at Wed Jan 11 18:38:43 2023.
