16
MD Step 0
C  -0.93249429 0.12585812 0.00000000
C  0.46266571 0.12585812 0.00000000
C  1.16020371 1.33360912 0.00000000
C  0.46254971 2.54211812 -0.00119900
C  -0.93227529 2.54204012 -0.00167800
C  -1.62987629 1.33383412 -0.00068200
H  -1.48225329 -0.82645888 0.00045000
H  1.01217371 -0.82665488 0.00131500
H  1.01274971 3.49426112 -0.00125800
H  -1.48239729 3.49432112 -0.00263100
N  2.63020346 1.33371606 0.00084750
H  2.96309986 0.86268626 0.81773851
H  2.96404138 0.86198552 -0.81525454
N  -3.09987625 1.33407876 -0.00092263
H  -3.43326487 1.80404920 0.81637769
H  -3.43299706 1.80702664 -0.81661304
16
MD Step 1
C  -0.92683830 0.13215518 0.00633162
C  0.46919243 0.13051051 0.00633304
C  1.16643882 1.34147234 0.00633236
C  0.46956705 2.54847930 0.00513542
C  -0.92614879 2.55005100 0.00465502
C  -1.62343478 1.33864757 0.00565094
H  -1.46099133 -0.80570933 0.02232488
H  1.03377957 -0.80510256 0.02318274
H  1.03519757 3.51728901 0.02059621
H  -1.46023634 3.51649619 0.01924589
N  2.63552684 1.34042227 0.00671137
H  2.99298014 0.87754529 0.85268319
H  2.99395746 0.87678951 -0.80643545
N  -3.09347141 1.33910882 0.00494209
H  -3.41942897 1.83292284 0.85135372
H  -3.41918486 1.83590946 -0.80783843
16
MD Step 2
C  -0.92150963 0.13894307 0.01270583
C  0.47654555 0.13197542 0.01266756
C  1.17095024 1.35279296 0.01261469
C  0.47847356 2.55565056 0.01152475
C  -0.91964451 2.56135001 0.01097345
C  -1.61843643 1.34125634 0.01194487
H  -1.44478165 -0.79370531 0.04400482
H  1.05537016 -0.78723300 0.04501111
H  1.05487833 3.53609493 0.04205709
H  -1.43743809 3.53685012 0.04103994
N  2.64003767 1.34743747 0.01347358
H  3.03766991 0.88825243 0.90437143
H  3.04393084 0.88056548 -0.82644052
N  -3.08671732 1.34207234 0.01161139
H  -3.41177116 1.87143203 0.89499729
H  -3.41564427 1.88159046 -0.81857638
16
MD Step 3
C  -0.91605529 0.14629150 0.01915964
C  0.48470277 0.13082722 0.01900305
C  1.17372140 1.36701170 0.01880455
C  0.48927303 2.56416998 0.01802205
C  -0.91262039 2.57567299 0.01726540
C  -1.61482898 1.34227949 0.01816944
H  -1.43599654 -0.79386713 0.06538605
H  1.07719938 -0.77558574 0.06681366
H  1.06909597 3.54645007 0.06262889
H  -1.41490946 3.55456281 0.06266351
N  2.64489997 1.35353744 0.02123971
H  3.08868650 0.90360536 0.95461649
H  3.10582812 0.88248963 -0.85824821
N  -3.08061831 1.34390891 0.01918463
H  -3.40404067 1.91177446 0.93186954
H  -3.41589211 1.93712631 -0.83453231
16
MD Step 4
C  -0.91034390 0.15372938 0.02574338
C  0.49366509 0.12774096 0.02534052
C  1.17495731 1.38320004 0.02486959
C  0.50169242 2.57440584 0.02466662
C  -0.90503243 2.59246667 0.02351382
C  -1.61228134 1.34249847 0.02430591
H  -1.43391071 -0.80405104 0.08620963
H  1.09907399 -0.77140092 0.08860915
H  1.07723063 3.54740411 0.08186149
H  -1.39412538 3.57031269 0.08409475
N  2.65130768 1.35786335 0.02967039
H  3.13824114 0.92858064 0.98992551
H  3.16898294 0.89163095 -0.88345773
N  -3.07604660 1.34558757 0.02736762
H  -3.39234544 1.94813648 0.95235633
H  -3.41366333 1.99352420 -0.84184965
16
MD Step 5
C  -0.90447036 0.16042182 0.03253130
C  0.50349218 0.12337129 0.03168785
C  1.17496895 1.40020655 0.03079086
C  0.51522280 2.58651076 0.03147161
C  -0.89688718 2.61098060 0.02969449
C  -1.61037642 1.34275002 0.03034875
H  -1.43541394 -0.81782455 0.10593909
H  1.12008612 -0.77410673 0.11036297
H  1.08085235 3.54146436 0.09951684
H  -1.37675085 3.58583399 0.10544057
N  2.66009193 1.36017936 0.03842889
H  3.18082352 0.96424215 1.00360865
H  3.22494881 0.91287243 -0.89058489
N  -3.07354449 1.34781398 0.03583905
H  -3.37491493 1.97708991 0.95285442
H  -3.40495974 2.04357380 -0.83236401
16
MD Step 6
C  -0.89861020 0.16554469 0.03960916
C  0.51428055 0.11827725 0.03805775
C  1.17410846 1.41683265 0.03656365
C  0.52920630 2.60038469 0.03842226
C  -0.88825860 2.63043935 0.03577641
C  -1.60867451 1.34376106 0.03630114
H  -1.43694883 -0.82804697 0.12387909
H  1.13872404 -0.78162846 0.13193505
H  1.08344863 3.53421801 0.11566076
H  -1.36415490 3.60297027 0.12689889
N  2.67166885 1.36071751 0.04725267
H  3.21338488 1.00900137 0.99465343
H  3.26846345 0.94739190 -0.87494479
N  -3.07332694 1.35102335 0.04433388
H  -3.35167950 1.99719243 0.93454263
H  -3.38813240 2.08255318 -0.80352234
16
MD Step 7
C  -0.89290434 0.16857959 0.04705048
C  0.52610000 0.11291203 0.04445874
C  1.17273861 1.43199991 0.04219666
C  0.54295384 2.61571735 0.04548706
C  -0.87930980 2.65020228 0.04172695
C  -1.60674720 1.34603187 0.04216809
H  -1.43595727 -0.82965690 0.13939569
H  1.15335824 -0.79122812 0.15308459
H  1.08956841 3.53296816 0.13063907
H  -1.35692713 3.62258654 0.14862389
N  2.68600539 1.35998921 0.05587984
H  3.23574894 1.05955163 0.96735292
H  3.29736014 0.99381601 -0.83726909
N  -3.07531215 1.35537496 0.05259621
H  -3.32409421 2.00911300 0.90302326
H  -3.36344623 2.10812671 -0.75734094
16
MD Step 8
C  -0.88738846 0.16942020 0.05489544
C  0.53890374 0.10767889 0.05088893
C  1.17129162 1.44483203 0.04771019
C  0.55589418 2.63219874 0.05264691
C  -0.87029120 2.66982938 0.04752567
C  -1.60419571 1.34982771 0.04795258
H  -1.43152113 -0.82090299 0.15214675
H  1.16293386 -0.80047171 0.17358595
H  1.10305629 3.54371639 0.14489426
H  -1.35463148 3.64402440 0.17061243
N  2.70248568 1.35869562 0.06401050
H  3.25153964 1.11158117 0.93203133
H  3.31316177 1.04870002 -0.78385069
N  -3.07914394 1.36067385 0.06035137
H  -3.29495125 2.01622775 0.86851340
H  -3.33281093 2.12088941 -0.70013706
16
MD Step 9
C  -0.88197331 0.16839667 0.06313993
C  0.55250115 0.10292342 0.05733057
C  1.17019306 1.45477318 0.05313197
C  0.56777981 2.64975031 0.05992613
C  -0.86150796 2.68910652 0.05316532
C  -1.60068091 1.35515853 0.05365787
H  -1.42445969 -0.80354975 0.16214683
H  1.16731311 -0.80785219 0.19330554
H  1.12494230 3.56770892 0.15854705
H  -1.35594404 3.66524229 0.19262600
N  2.71976263 1.35764274 0.07142864
H  3.26871224 1.16055435 0.90512300
H  3.32277907 1.10655585 -0.72833532
N  -3.08423753 1.36628967 0.06739629
H  -3.26782865 2.02441669 0.84482811
H  -3.29971490 2.12543905 -0.64283573
16
MD Step 10
C  -0.87642746 0.16619010 0.07173271
C  0.56652802 0.09899203 0.06375609
C  1.16988649 1.46155585 0.05849336
C  0.57870087 2.66858338 0.06739966
C  -0.85325056 2.70793225 0.05865753
C  -1.59592548 1.36188510 0.05929249
H  -1.41722644 -0.78251067 0.16981864
H  1.16746372 -0.81310270 0.21227865
H  1.15285989 3.60054087 0.17121673
H  -1.35918622 3.68378671 0.21425900
N  2.73600360 1.35754721 0.07838617
H  3.29610989 1.20378179 0.90312540
H  3.33873070 1.16102800 -0.69094644
N  -3.08994247 1.37132749 0.07385290
H  -3.24561538 2.03913335 0.84441185
H  -3.26857465 2.13070579 -0.59954263
16
MD Step 11
C  -0.87044071 0.16371446 0.08058702
C  0.58052236 0.09618561 0.07013034
C  1.17066624 1.46525808 0.06383015
C  0.58899094 2.68893238 0.07516763
C  -0.84573108 2.72626071 0.06401718
C  -1.58971891 1.36974676 0.06487720
H  -1.41325913 -0.76458977 0.17584964
H  1.16515974 -0.81699305 0.23072151
H  1.18248859 3.63483526 0.18220506
H  -1.36283621 3.69768809 0.23507215
N  2.74999450 1.35863918 0.08572657
H  3.33589836 1.24214272 0.93045526
H  3.37250207 1.20854123 -0.68812033
N  -3.09578081 1.37522845 0.08030205
H  -3.22922691 2.06045556 0.87074417
H  -3.24311145 2.14620388 -0.58191669
16
MD Step 12
C  -0.86374119 0.16183903 0.08960121
C  0.59398980 0.09475155 0.07642182
C  1.17269262 1.46625153 0.06918648
C  0.59900962 2.71078117 0.08332568
C  -0.83902647 2.74400869 0.06925783
C  -1.58192263 1.37845871 0.07044479
H  -1.41555971 -0.75580324 0.18089366
H  1.16251583 -0.82080343 0.24896218
H  1.20963201 3.66376733 0.19088556
H  -1.36597662 3.70617683 0.25468641
N  2.76226529 1.36058343 0.09400504
H  3.38063138 1.27876027 0.97543963
H  3.42191780 1.25084065 -0.71634783
N  -3.10155658 1.37836643 0.08737667
H  -3.21798105 2.08224562 0.91604591
H  -3.22466770 2.17430230 -0.59121485
16
MD Step 13
C  -0.85626757 0.16108947 0.09868866
C  0.60650526 0.09481183 0.08261223
C  1.17599732 1.46516520 0.07461879
C  0.60901812 2.73373865 0.09195220
C  -0.83306353 2.76103180 0.07438327
C  -1.57249771 1.38774796 0.07603553
H  -1.42478153 -0.75812850 0.18521040
H  1.16132964 -0.82550000 0.26732607
H  1.23153694 3.68317555 0.19696296
H  -1.36846008 3.70991328 0.27286783
N  2.77445476 1.36295228 0.10299209
H  3.42003817 1.31618718 1.02122126
H  3.47307997 1.29119731 -0.75623540
N  -3.10721199 1.38186394 0.09528235
H  -3.21094125 2.09694259 0.96732737
H  -3.21266041 2.20792063 -0.61759287
16
MD Step 14
C  -0.84825466 0.16153599 0.10779609
C  0.61779177 0.09629894 0.08870348
C  1.18051988 1.46281825 0.08019136
C  0.61913152 2.75705621 0.10109625
C  -0.82764912 2.77713831 0.07938068
C  -1.56152699 1.39735794 0.08169152
H  -1.43838509 -0.76832174 0.18857502
H  1.16255638 -0.83099863 0.28596748
H  1.24738210 3.69219549 0.20054206
H  -1.37082277 3.71076272 0.28957789
N  2.78795315 1.36553688 0.11219888
H  3.44690765 1.35553731 1.05512310
H  3.51290837 1.33092147 -0.78912142
N  -3.11264135 1.38684988 0.10386190
H  -3.20756300 2.09956695 1.01298658
H  -3.20621618 2.23689227 -0.64757217
16
MD Step 15
C  -0.84013486 0.16294165 0.11690116
C  0.62772092 0.09900611 0.09472890
C  1.18624809 1.46006812 0.08596165
C  0.62927222 2.77972983 0.11074379
C  -0.82252360 2.79209562 0.08423275
C  -1.54919938 1.40709106 0.08745400
H  -1.45184204 -0.77998145 0.19058355
H  1.16625529 -0.83604223 0.30472284
H  1.25842901 3.69321493 0.20210585
H  -1.37404884 3.71124265 0.30499217
N  2.80341821 1.36830533 0.12123374
H  3.45806610 1.39683378 1.07059316
H  3.53411560 1.36992201 -0.80364952
N  -3.11764631 1.39399331 0.11284692
H  -3.20761896 2.08854481 1.04550157
H  -3.20482225 2.25375549 -0.67017414
16
MD Step 16
C  -0.83238155 0.16504673 0.12599778
C  0.63630519 0.10264380 0.10074596
C  1.19320085 1.45772578 0.09197223
C  0.63922456 2.80060547 0.12080470
C  -0.81745171 2.80570550 0.08892202
C  -1.53577752 1.41678671 0.09336523
H  -1.46064824 -0.78677961 0.19098335
H  1.17185854 -0.83863909 0.32312564
H  1.26773229 3.69122202 0.20238109
H  -1.37902427 3.71356694 0.31941943
N  2.82085214 1.37130017 0.12981892
H  3.45388456 1.43937676 1.06647748
H  3.53457020 1.40783675 -0.79507614
N  -3.12196881 1.40344278 0.12196125
H  -3.21103940 2.06516635 1.06156181
H  -3.20824694 2.25513819 -0.67854942
16
MD Step 17
C  -0.82539815 0.16777213 0.13507982
C  0.64368758 0.10689582 0.10681109
C  1.20131630 1.45652074 0.09825579
C  0.64878841 2.81853599 0.13115131
C  -0.81232201 2.81790048 0.09342829
C  -1.52157272 1.42627409 0.09947225
H  -1.46173164 -0.78458011 0.18979591
H  1.17856662 -0.83680985 0.34063132
H  1.27916059 3.69223985 0.20210214
H  -1.38588734 3.71870029 0.33313421
N  2.83970339 1.37457206 0.13772276
H  3.43829272 1.48229738 1.04686914
H  3.51646485 1.44448040 -0.76423372
N  -3.12531586 1.41488983 0.13090833
H  -3.21787663 2.03320571 1.06195345
H  -3.21637240 2.24131517 -0.66969046
16
MD Step 18
C  -0.81943180 0.17125483 0.14412968
C  0.65007958 0.11155822 0.11296489
C  1.21050507 1.45698939 0.10483804
C  0.65790996 2.83266346 0.14166435
C  -0.80717553 2.82872980 0.09774797
C  -1.50692861 1.43542490 0.10582477
H  -1.45415079 -0.77226572 0.18730790
H  1.18582375 -0.82940254 0.35684434
H  1.29559695 3.70066897 0.20172682
H  -1.39381671 3.72606940 0.34620818
N  2.85884585 1.37810215 0.14478442
H  3.41869239 1.52552737 1.02147979
H  3.48648565 1.48027798 -0.71829494
N  -3.12736038 1.42760668 0.13934919
H  -3.22841869 1.99866996 1.05195087
H  -3.22919326 2.21594558 -0.64442868
16
MD Step 19
C  -0.81449049 0.17579515 0.15310505
C  0.65566007 0.11666146 0.11923014
C  1.22077506 1.45937362 0.11173229
C  0.66671989 2.84266937 0.15225183
C  -0.80213361 2.83825745 0.10191838
C  -1.49223093 1.44424069 0.11246126
H  -1.43929692 -0.75185935 0.18400787
H  1.19360327 -0.81659109 0.37148969
H  1.31707096 3.71686178 0.20130163
H  -1.40131592 3.73403751 0.35832567
N  2.87660312 1.38168601 0.15113593
H  3.40441843 1.57043966 1.00425354
H  3.45640105 1.51676980 -0.67264682
N  -3.12771914 1.44047112 0.14696236
H  -3.24333125 1.96921266 1.04121635
H  -3.24697750 2.18640692 -0.60820392
16
MD Step 20
C  -0.81035403 0.18186900 0.16195679
C  0.66059613 0.12235868 0.12559639
C  1.23202210 1.46374583 0.11895176
C  0.67562129 2.84874686 0.16287883
C  -0.79734466 2.84657720 0.10597510
C  -1.47789757 1.45277748 0.11941112
H  -1.42066418 -0.72825658 0.18042210
H  1.20230090 -0.79974409 0.38470321
H  1.34055235 3.73698900 0.20059200
H  -1.40659111 3.74064657 0.36910112
N  2.89123679 1.38493595 0.15748331
H  3.40299049 1.61946672 1.00711909
H  3.44146286 1.55743573 -0.64870978
N  -3.12595117 1.45211859 0.15368661
H  -3.26355932 1.95177431 1.04108947
H  -3.27058817 2.16387940 -0.57161231
16
MD Step 21
C  -0.80660990 0.18999851 0.17063615
C  0.66499511 0.12891543 0.13203878
C  1.24411853 1.47001446 0.12650851
C  0.68504615 2.85139548 0.17353190
C  -0.79286398 2.85372361 0.10995433
C  -1.46435547 1.46119274 0.12668506
H  -1.40308240 -0.70807937 0.17699396
H  1.21256253 -0.78106358 0.39684797
H  1.36161721 3.75531972 0.19938962
H  -1.40818109 3.74448814 0.37815498
N  2.90207071 1.38760863 0.16470307
H  3.41467003 1.67324310 1.03049929
H  3.45000727 1.60563964 -0.65898199
N  -3.12165947 1.46138641 0.15997629
H  -3.28940995 1.94912490 1.05801802
H  -3.30136310 2.16055494 -0.54743420
16
MD Step 22
C  -0.80282347 0.20053884 0.17910674
C  0.66893518 0.13661988 0.13853337
C  1.25692023 1.47797202 0.13441921
C  0.69527459 2.85117647 0.18420188
C  -0.78859836 2.85964845 0.11387984
C  -1.45199717 1.46973561 0.13427984
H  -1.39087695 -0.69704723 0.17398598
H  1.22488371 -0.76282792 0.40834577
H  1.37646217 3.76680357 0.19770814
H  -1.40534544 3.74522225 0.38527159
N  2.91006033 1.39009867 0.17283013
H  3.43305466 1.72870549 1.06323564
H  3.47495367 1.65971403 -0.69295730
N  -3.11473985 1.46797826 0.16651413
H  -3.31926007 1.95832085 1.08852307
H  -3.33946874 2.18179451 -0.54165848
16
MD Step 23
C  -0.79878056 0.21344287 0.18735128
C  0.67255500 0.14565061 0.14505971
C  1.27021277 1.48733671 0.14270802
C  0.70641274 2.84856010 0.19488744
C  -0.78433572 2.86424698 0.11773719
C  -1.44113570 1.47868422 0.14219332
H  -1.38559581 -0.69670059 0.17151007
H  1.23909219 -0.74650337 0.41951380
H  1.38307728 3.76857108 0.19578795
H  -1.39812179 3.74367214 0.39058053
N  2.91677258 1.39337702 0.18124895
H  3.45061718 1.78042005 1.09192169
H  3.50252321 1.71289393 -0.72906618
N  -3.10558645 1.47265767 0.17356205
H  -3.34945903 1.97335201 1.12241558
H  -3.38149638 2.22088093 -0.54774674
16
MD Step 24
C  -0.79449437 0.22812169 0.19534916
C  0.67598511 0.15612593 0.15163699
C  1.28397403 1.49768820 0.15138639
C  0.71823014 2.84392057 0.20555050
C  -0.77971723 2.86731116 0.12153343
C  -1.43200714 1.48840440 0.15041562
H  -1.38538951 -0.70327316 0.16976311
H  1.25430656 -0.73241706 0.43018786
H  1.38162773 3.76047119 0.19404882
H  -1.38744458 3.74174519 0.39439659
N  2.92337286 1.39843103 0.18941209
H  3.46158630 1.82317052 1.10698630
H  3.52186278 1.75791574 -0.75044237
N  -3.09494812 1.47661067 0.18095539
H  -3.37560606 1.98849323 1.14962429
H  -3.42107760 2.26484171 -0.55343432
16
MD Step 25
C  -0.79018949 0.24374013 0.20308686
C  0.67947032 0.16799208 0.15828837
C  1.29809393 1.50856200 0.16046514
C  0.73040039 2.83746989 0.21615688
C  -0.77441399 2.86867174 0.12524066
C  -1.42476239 1.49916729 0.15894630
H  -1.38637263 -0.70987307 0.16903166
H  1.26884189 -0.71967184 0.43999087
H  1.37431473 3.74509023 0.19288546
H  -1.37446049 3.74164772 0.39734958
N  2.93041895 1.40604982 0.19698785
H  3.46349781 1.85312242 1.10444509
H  3.52778428 1.78937881 -0.74872318
N  -3.08359035 1.48080008 0.18845139
H  -3.39388144 1.99976672 1.16384284
H  -3.45186687 2.30246497 -0.54918124
16
MD Step 26
C  -0.78603575 0.25946390 0.21054240
C  0.68321730 0.18118825 0.16506512
C  1.31255384 1.51945187 0.16993836
C  0.74237406 2.82932113 0.22663887
C  -0.76812274 2.86819906 0.12887830
C  -1.41950830 1.51120958 0.16777333
H  -1.38486966 -0.70985916 0.16969541
H  1.28090311 -0.70695459 0.44827999
H  1.36495545 3.72738002 0.19259173
H  -1.36022969 3.74519581 0.39990381
N  2.93801053 1.41649525 0.20378453
H  3.45642552 1.86932482 1.08531615
H  3.51888610 1.80507918 -0.72221938
N  -3.07209149 1.48579484 0.19586566
H  -3.40164002 2.00492343 1.16298655
H  -3.46921904 2.32678731 -0.53051332
16
MD Step 27
C  -0.78213534 0.27475453 0.21770934
C  0.68745799 0.19559919 0.17199676
C  1.32718752 1.52986308 0.17980222
C  0.75365749 2.81954847 0.23695021
C  -0.76070553 2.86595649 0.13246765
C  -1.41629590 1.52457653 0.17688749
H  -1.37863128 -0.69905469 0.17202781
H  1.28893577 -0.69307161 0.45464380
H  1.35787969 3.71328141 0.19325099
H  -1.34488319 3.75285399 0.40230612
N  2.94582766 1.42959609 0.20967601
H  3.44363731 1.87376080 1.05601103
H  3.49765045 1.80575803 -0.67546557
N  -3.06077419 1.49181556 0.20304496
H  -3.39775685 2.00333940 1.14893599
H  -3.47064476 2.33487614 -0.49725103
16
MD Step 28
C  -0.77844399 0.28942418 0.22459399
C  0.69233946 0.21113839 0.17909274
C  1.34182397 1.53931324 0.19004070
C  0.76386469 2.80840181 0.24704152
C  -0.75216301 2.86218973 0.13607015
C  -1.41513029 1.53915506 0.18626747
H  -1.36732704 -0.67660323 0.17615830
H  1.29217110 -0.67761228 0.45893940
H  1.35624044 3.70732332 0.19482180
H  -1.32768038 3.76358061 0.40438762
N  2.95305846 1.44459513 0.21471109
H  3.43135455 1.87184225 1.02835798
H  3.47093388 1.79607045 -0.62064024
N  -3.04968536 1.49877116 0.20982645
H  -3.38276677 1.99590496 1.12739687
H  -3.45574803 2.32730581 -0.45278616
16
MD Step 29
C  -0.77477632 0.30365661 0.23122023
C  0.69789824 0.22773999 0.18633385
C  1.35632953 1.54734669 0.20062195
C  0.77284576 2.79648995 0.25685608
C  -0.74260321 2.85729562 0.13977265
C  -1.41596104 1.55466264 0.19587718
H  -1.35258177 -0.64514337 0.18203202
H  1.29079683 -0.66116791 0.46135454
H  1.36051294 3.71021736 0.19731020
H  -1.30737849 3.77528154 0.40568945
N  2.95839532 1.46025763 0.21939385
H  3.42749098 1.87094679 1.01721029
H  3.45095048 1.78489066 -0.57909196
N  -3.03856342 1.50622070 0.21605571
H  -3.35899955 1.98500710 1.10780922
H  -3.42662341 2.30874289 -0.40420664
16
MD Step 30
C  -0.77083824 0.31796892 0.23763006
C  0.70407187 0.24532740 0.19367723
C  1.37060915 1.55356524 0.21150476
C  0.78069052 2.78477073 0.26633375
C  -0.73218290 2.85175071 0.14366094
C  -1.41865932 1.57065958 0.20566787
H  -1.33772169 -0.61044193 0.18939877
H  1.28581010 -0.64517191 0.46235265
H  1.36848510 3.71852114 0.20090572
H  -1.28280580 3.78568026 0.40568271
N  2.96063594 1.47546111 0.22472780
H  3.43739017 1.87606064 1.03229724
H  3.45119093 1.78179252 -0.57393453
N  -3.02684758 1.51332860 0.22171845
H  -3.33014731 1.97396345 1.10169818
H  -3.38843412 2.28911355 -0.36246752
16
MD Step 31
C  -0.76628296 0.33304280 0.24387186
C  0.71070471 0.26378815 0.20108265
C  1.38462292 1.55767801 0.22264655
C  0.78756950 2.77432619 0.27541177
C  -0.72103404 2.84601595 0.14781156
C  -1.42298560 1.58662465 0.21557864
H  -1.32693070 -0.57996375 0.19788015
H  1.27866478 -0.63147215 0.46244951
H  1.37674709 3.72673269 0.20594493
H  -1.25344902 3.79317488 0.40391394
N  2.95992483 1.49006826 0.23126107
H  3.45929164 1.88595983 1.06976167
H  3.47381059 1.78863565 -0.60850250
N  -3.01387976 1.51904615 0.22713358
H  -3.29978061 1.96532584 1.11775182
H  -3.34871468 2.28258812 -0.34025392
16
MD Step 32
C  -0.76089011 0.34944242 0.24999115
C  0.71762984 0.28290159 0.20852356
C  1.39829277 1.55957667 0.23401436
C  0.79365384 2.76607173 0.28404150
C  -0.70924290 2.84048507 0.15226820
C  -1.42854752 1.60201782 0.22555000
H  -1.32334225 -0.55971291 0.20713120
H  1.27070052 -0.62156435 0.46204089
H  1.38232924 3.72991826 0.21272533
H  -1.21967281 3.79736878 0.40020417
N  2.95786365 1.50483135 0.23849951
H  3.48603685 1.89528214 1.11555251
H  3.50680243 1.79887070 -0.66158602
N  -2.99936257 1.52277665 0.23286447
H  -3.26957294 1.95906795 1.15560295
H  -3.31336145 2.29976229 -0.34459692
16
MD Step 33
C  -0.75474400 0.36730103 0.25602007
C  0.72472832 0.30227815 0.21599294
C  1.41146325 1.55939423 0.24558193
C  0.79909195 2.76055979 0.29219506
C  -0.69685583 2.83545299 0.15703608
C  -1.43478995 1.61635485 0.23553294
H  -1.32697317 -0.55084076 0.21702284
H  1.26268352 -0.61590907 0.46123725
H  1.38363735 3.72541665 0.22133898
H  -1.18273792 3.79922016 0.39472879
N  2.95624428 1.52044703 0.24574776
H  3.51012232 1.89918901 1.15538163
H  3.53645335 1.80602057 -0.70897067
N  -2.98367163 1.52502314 0.23921908
H  -3.23933119 1.95308619 1.20548104
H  -3.28254484 2.33779876 -0.36966479
16
MD Step 34
C  -0.74822833 0.38623628 0.26197591
C  0.73191350 0.32136426 0.22351004
C  1.42396219 1.55751457 0.25732088
C  0.80398762 2.75790069 0.29986068
C  -0.68389987 2.83110316 0.16210166
C  -1.44103794 1.62927743 0.24548510
H  -1.33441026 -0.54908068 0.22766248
H  1.25470464 -0.61370361 0.45978337
H  1.38076531 3.71352660 0.23161628
H  -1.14460885 3.80079739 0.38790962
N  2.95631509 1.53715408 0.25260889
H  3.52642914 1.89539216 1.17987683
H  3.55416718 1.80724404 -0.73541238
N  -2.96756115 1.52701116 0.24608902
H  -3.20851308 1.94530514 1.25451990
H  -3.25288715 2.38346103 -0.40082129
16
MD Step 35
C  -0.74188203 0.40558657 0.26787864
C  0.73914021 0.33948403 0.23110301
C  1.43557375 1.55452669 0.26919977
C  0.80844835 2.75776905 0.30705121
C  -0.67045626 2.82755352 0.16743415
C  -1.44655226 1.64055441 0.25536691
H  -1.34061174 -0.54757846 0.23919983
H  1.24637695 -0.61318407 0.45723108
H  1.37546421 3.69752211 0.24311829
H  -1.10748254 3.80453301 0.38027774
N  2.95873381 1.55484388 0.25891077
H  3.53288330 1.88387751 1.18520320
H  3.55631335 1.80239048 -0.73422130
N  -2.95172282 1.52985633 0.25323544
H  -3.17726921 1.93482125 1.29243112
H  -3.22183754 2.42365781 -0.42421298
16
MD Step 36
C  -0.73615353 0.42467029 0.27375579
C  0.74632270 0.35596298 0.23880881
C  1.44616216 1.55112177 0.28117536
C  0.81254479 2.75951950 0.31379653
C  -0.65669413 2.82489929 0.17302268
C  -1.45059291 1.65011820 0.26512908
H  -1.34116250 -0.54029760 0.25169628
H  1.23731243 -0.61241168 0.45307213
H  1.37079311 3.68297667 0.25525254
H  -1.07329295 3.81225148 0.37215329
N  2.96362692 1.57319533 0.26457828
H  3.53028230 1.86630942 1.17250723
H  3.54281461 1.79279219 -0.70493220
N  -2.93663994 1.53423299 0.26046157
H  -3.14658532 1.92185107 1.31343401
H  -3.18892492 2.45021597 -0.43102984
16
MD Step 37
C  -0.73130537 0.44296065 0.27964805
C  0.75335365 0.37021236 0.24664975
C  1.45564209 1.54798879 0.29319884
C  0.81640248 2.76240288 0.32015090
C  -0.64291856 2.82329197 0.17887027
C  -1.45245937 1.65803269 0.27471554
H  -1.33353423 -0.52392521 0.26507181
H  1.22744542 -0.60999739 0.44697460
H  1.37011821 3.67595022 0.26741806
H  -1.04323978 3.82424854 0.36353850
N  2.97054403 1.59176676 0.26962066
H  3.52269781 1.84555789 1.14822021
H  3.51739688 1.78074208 -0.65353410
N  -2.92260647 1.54041087 0.26760411
H  -3.11810695 1.90744154 1.31620547
H  -3.15523242 2.45976702 -0.41731813
16
MD Step 38
C  -0.72730852 0.46012553 0.28559697
C  0.76002836 0.38181462 0.25463590
C  1.46411223 1.54574378 0.30521580
C  0.82020501 2.76586370 0.32616583
C  -0.62950327 2.82295720 0.18501218
C  -1.45156248 1.66448178 0.28405755
H  -1.31756675 -0.49855523 0.27914196
H  1.21727600 -0.60566483 0.43882012
H  1.37555156 3.68024837 0.27922254
H  -1.01784566 3.83910888 0.35408105
N  2.97832282 1.60998780 0.27431793
H  3.51735244 1.82538724 1.12411757
H  3.48898445 1.76968670 -0.59526111
N  -2.90974843 1.54832854 0.27448561
H  -3.09407059 1.89329551 1.30360640
H  -3.12297011 2.45289024 -0.38312690
16
MD Step 39
C  -0.72391818 0.47608875 0.29165307
C  0.76617456 0.39051573 0.26273700
C  1.47162204 1.54492535 0.31718854
C  0.82440543 2.76974053 0.33190027
C  -0.61689024 2.82420164 0.19145770
C  -1.44747184 1.66968207 0.29309759
H  -1.29539644 -0.46766329 0.29372830
H  1.20771254 -0.60028944 0.42883925
H  1.38659169 3.69514230 0.29057579
H  -0.99693649 3.85425302 0.34341123
N  2.98522063 1.62725094 0.27952231
H  3.52322590 1.80922737 1.11468049
H  3.47262768 1.76412766 -0.55607713
N  -2.89800395 1.55757754 0.28092243
H  -3.07700257 1.88155474 1.28276557
H  -3.09515798 2.43463127 -0.33263120
16
MD Step 40
C  -0.72058554 0.49096057 0.29785092
C  0.77150972 0.39627264 0.27091674
C  1.47839109 1.54597107 0.32908199
C  0.82944960 2.77422903 0.33737240
C  -0.60539193 2.82732536 0.19822701
C  -1.44002243 1.67389168 0.30177797
H  -1.27132918 -0.43785002 0.30867599
H  1.20005314 -0.59577940 0.41742805
H  1.40047756 3.71591597 0.30161778
H  -0.98038258 3.86700254 0.33125497
N  2.98988229 1.64319887 0.28631957
H  3.54523759 1.79832380 1.12809517
H  3.48140911 1.76711536 -0.55922452
N  -2.88711426 1.56732066 0.28682988
H  -3.06959416 1.87438772 1.26435591
H  -3.07591894 2.41586696 -0.27516423
16
MD Step 41
C  -0.71670115 0.50494420 0.30422308
C  0.77586701 0.39917064 0.27911272
C  1.48443272 1.54922318 0.34088325
C  0.83584414 2.77964629 0.34259736
C  -0.59523059 2.83258569 0.20528985
C  -1.42931212 1.67737655 0.31007269
H  -1.25041122 -0.41674271 0.32400585
H  1.19545492 -0.59422248 0.40513039
H  1.41368198 3.73640844 0.31255013
H  -0.96806523 3.87553030 0.31772857
N  2.99275413 1.65801141 0.29469469
H  3.58055032 1.79111765 1.15958375
H  3.51249946 1.77706975 -0.59964835
N  -2.87669122 1.57635936 0.29239333
H  -3.07367242 1.87289105 1.25919876
H  -3.06965988 2.41300669 -0.22401405
16
MD Step 42
C  -0.71172535 0.51802743 0.31079088
C  0.77915115 0.39937557 0.28726132
C  1.48970626 1.55489734 0.35259048
C  0.84388190 2.78621942 0.34757121
C  -0.58641033 2.84013827 0.21259738
C  -1.41572910 1.68045327 0.31798484
H  -1.23643955 -0.40960409 0.33982590
H  1.19464373 -0.59703758 0.39245383
H  1.42349698 3.75161882 0.32353154
H  -0.96020744 3.87945540 0.30327339
N  2.99563366 1.67212677 0.30366323
H  3.62051894 1.78511490 1.19569980
H  3.55061464 1.78982545 -0.65024738
N  -2.86646720 1.58377129 0.29799524
H  -3.08910285 1.87603278 1.27250418
H  -3.07907954 2.43970705 -0.18986823
16
MD Step 43
C  -0.70530953 0.52969424 0.31757180
C  0.78131742 0.39710380 0.29532337
C  1.49428780 1.56301990 0.36420930
C  0.85346430 2.79401367 0.35227458
C  -0.57864171 2.84999163 0.22011486
C  -1.39991293 1.68353860 0.32555070
H  -1.23000774 -0.41588107 0.35619213
H  1.19766635 -0.60427514 0.37968518
H  1.42895271 3.75921538 0.33470939
H  -0.95734571 3.88009966 0.28838982
N  3.00016011 1.68587444 0.31244477
H  3.65620497 1.77853320 1.22357384
H  3.58233031 1.80215307 -0.68742138
N  -2.85661904 1.58986625 0.30383389
H  -3.11303692 1.88072620 1.30047609
H  -3.10189140 2.49325664 -0.17199823
16
MD Step 44
C  -0.69742258 0.53898810 0.32459313
C  0.78254582 0.39254491 0.30325424
C  1.49810092 1.57343376 0.37575009
C  0.86431579 2.80291408 0.35671138
C  -0.57153150 2.86202254 0.22778416
C  -1.38261959 1.68709676 0.33284224
H  -1.22866399 -0.42944610 0.37284493
H  1.20384107 -0.61438291 0.36709951
H  1.43083823 3.75977868 0.34608065
H  -0.96012924 3.87997150 0.27371941
N  3.00726039 1.69940646 0.32067816
H  3.68195749 1.77079164 1.23561492
H  3.60072723 1.81232728 -0.69880601
N  -2.84774914 1.59595944 0.30989347
H  -3.14059501 1.88339428 1.33350299
H  -3.13111578 2.55643510 -0.16131366
16
MD Step 45
C  -0.68810364 0.54481477 0.33188276
C  0.78307795 0.38603684 0.31105438
C  1.50127729 1.58568043 0.38720791
C  0.87579517 2.81271562 0.36089526
C  -0.56458726 2.87595071 0.23559812
C  -1.36463347 1.69166234 0.33993716
H  -1.22887584 -0.44219847 0.38932739
H  1.21217196 -0.62505467 0.35475703
H  1.43166187 3.75670902 0.35764096
H  -0.96907498 3.88208460 0.25954223
N  3.01718327 1.71275773 0.32822580
H  3.69544402 1.76206613 1.22943948
H  3.60346744 1.81950797 -0.68044318
N  -2.84048770 1.60331591 0.31618632
H  -3.16664467 1.88132979 1.36196693
H  -3.15912901 2.61177824 -0.14905482
16
MD Step 46
C  -0.67752650 0.54640945 0.33946418
C  0.78334096 0.37798637 0.31872433
C  1.50382116 1.59915022 0.39856477
C  0.88726310 2.82313414 0.36487008
C  -0.55747509 2.89149391 0.24354300
C  -1.34663781 1.69762028 0.34691128
H  -1.22776397 -0.44761518 0.40508482
H  1.22161875 -0.63392522 0.34279088
H  1.43487550 3.75515370 0.36932441
H  -0.98399384 3.88849098 0.24603694
N  3.02962482 1.72588005 0.33506156
H  3.69802742 1.75310235 1.20771157
H  3.59202041 1.82346531 -0.63501793
N  -2.83522420 1.61266140 0.32277248
H  -3.18697394 1.87314844 1.37938717
H  -3.18015289 2.64822398 -0.13035817
16
MD Step 47
C  -0.66588090 0.54352482 0.34734816
C  0.78375726 0.36895565 0.32629632
C  1.50591769 1.61309476 0.40978089
C  0.89804452 2.83398199 0.36867940
C  -0.55001303 2.90841722 0.25163117
C  -1.32916231 1.70517486 0.35382097
H  -1.22401682 -0.44261179 0.41967927
H  1.23155747 -0.63955837 0.33127547
H  1.44376200 3.76005659 0.38112266
H  -1.00372418 3.89942191 0.23313693
N  3.04365476 1.73866259 0.34136186
H  3.69448575 1.74469741 1.17790937
H  3.57179352 1.82469313 -0.57272460
N  -2.83203943 1.62423727 0.32967922
H  -3.19894425 1.85851379 1.38324622
H  -3.19081701 2.66118584 -0.10364231
16
MD Step 48
C  -0.65345575 0.53657917 0.35552895
C  0.78478392 0.35949389 0.33379794
C  1.50767933 1.62683243 0.42081868
C  0.90774790 2.84529095 0.37237023
C  -0.54223649 2.92664429 0.25985134
C  -1.31256110 1.71417970 0.36070769
H  -1.21803284 -0.42793475 0.43288514
H  1.24184786 -0.64161601 0.32033772
H  1.45988453 3.77365031 0.39302375
H  -1.02592543 3.91308370 0.22086639
N  3.05764621 1.75094396 0.34773848
H  3.69338999 1.73743259 1.15236402
H  3.55422571 1.82464630 -0.51460359
N  -2.83071476 1.63791436 0.33685409
H  -3.20160085 1.83783109 1.37474729
H  -3.18987959 2.65115240 -0.06974022
16
MD Step 49
C  -0.64049936 0.52652921 0.36397960
C  0.78675765 0.35018598 0.34127361
C  1.50935972 1.63973238 0.43163504
C  0.91618359 2.85742315 0.37597585
C  -0.53428898 2.94612800 0.26819111
C  -1.29705856 1.72426302 0.36758852
H  -1.21200019 -0.40794994 0.44469958
H  1.25292393 -0.64098435 0.31007089
H  1.48232552 3.79414761 0.40490502
H  -1.04762365 3.92677463 0.20935384
N  3.06963126 1.76258222 0.35526775
H  3.70380343 1.73120775 1.14410098
H  3.55436594 1.82519254 -0.48877018