 Entering Gaussian System, Link 0=g16
 Initial command:
 /software/gaussian/g16-c01/avx2/g16/l1.exe "/gpfs/fs2/scratch/bweight/software/many_molecule_many_mode_NAMD/src/NAMD/TEST_NVT/TRAJ/traj-19/G16/GS_NEW/Gau-19065.inp" -scrdir="/gpfs/fs2/scratch/bweight/software/many_molecule_many_mode_NAMD/src/NAMD/TEST_NVT/TRAJ/traj-19/G16/GS_NEW/"
 Entering Link 1 = /software/gaussian/g16-c01/avx2/g16/l1.exe PID=     19067.
  
 Copyright (c) 1988-2019, Gaussian, Inc.  All Rights Reserved.
  
 This is part of the Gaussian(R) 16 program.  It is based on
 the Gaussian(R) 09 system (copyright 2009, Gaussian, Inc.),
 the Gaussian(R) 03 system (copyright 2003, Gaussian, Inc.),
 the Gaussian(R) 98 system (copyright 1998, Gaussian, Inc.),
 the Gaussian(R) 94 system (copyright 1995, Gaussian, Inc.),
 the Gaussian 92(TM) system (copyright 1992, Gaussian, Inc.),
 the Gaussian 90(TM) system (copyright 1990, Gaussian, Inc.),
 the Gaussian 88(TM) system (copyright 1988, Gaussian, Inc.),
 the Gaussian 86(TM) system (copyright 1986, Carnegie Mellon
 University), and the Gaussian 82(TM) system (copyright 1983,
 Carnegie Mellon University). Gaussian is a federally registered
 trademark of Gaussian, Inc.
  
 This software contains proprietary and confidential information,
 including trade secrets, belonging to Gaussian, Inc.
  
 This software is provided under written license and may be
 used, copied, transmitted, or stored only in accord with that
 written license.
  
 The following legend is applicable only to US Government
 contracts under FAR:
  
                    RESTRICTED RIGHTS LEGEND
  
 Use, reproduction and disclosure by the US Government is
 subject to restrictions as set forth in subparagraphs (a)
 and (c) of the Commercial Computer Software - Restricted
 Rights clause in FAR 52.227-19.
  
 Gaussian, Inc.
 340 Quinnipiac St., Bldg. 40, Wallingford CT 06492
  
  
 ---------------------------------------------------------------
 Warning -- This program may not be used in any manner that
 competes with the business of Gaussian, Inc. or will provide
 assistance to any competitor of Gaussian, Inc.  The licensee
 of this program is prohibited from giving any competitor of
 Gaussian, Inc. access to this program.  By using this program,
 the user acknowledges that Gaussian, Inc. is engaged in the
 business of creating and licensing software in the field of
 computational chemistry and represents and warrants to the
 licensee that it is not a competitor of Gaussian, Inc. and that
 it will not use this program in any manner prohibited above.
 ---------------------------------------------------------------
  

 Cite this work as:
 Gaussian 16, Revision C.01,
 M. J. Frisch, G. W. Trucks, H. B. Schlegel, G. E. Scuseria, 
 M. A. Robb, J. R. Cheeseman, G. Scalmani, V. Barone, 
 G. A. Petersson, H. Nakatsuji, X. Li, M. Caricato, A. V. Marenich, 
 J. Bloino, B. G. Janesko, R. Gomperts, B. Mennucci, H. P. Hratchian, 
 J. V. Ortiz, A. F. Izmaylov, J. L. Sonnenberg, D. Williams-Young, 
 F. Ding, F. Lipparini, F. Egidi, J. Goings, B. Peng, A. Petrone, 
 T. Henderson, D. Ranasinghe, V. G. Zakrzewski, J. Gao, N. Rega, 
 G. Zheng, W. Liang, M. Hada, M. Ehara, K. Toyota, R. Fukuda, 
 J. Hasegawa, M. Ishida, T. Nakajima, Y. Honda, O. Kitao, H. Nakai, 
 T. Vreven, K. Throssell, J. A. Montgomery, Jr., J. E. Peralta, 
 F. Ogliaro, M. J. Bearpark, J. J. Heyd, E. N. Brothers, K. N. Kudin, 
 V. N. Staroverov, T. A. Keith, R. Kobayashi, J. Normand, 
 K. Raghavachari, A. P. Rendell, J. C. Burant, S. S. Iyengar, 
 J. Tomasi, M. Cossi, J. M. Millam, M. Klene, C. Adamo, R. Cammi, 
 J. W. Ochterski, R. L. Martin, K. Morokuma, O. Farkas, 
 J. B. Foresman, and D. J. Fox, Gaussian, Inc., Wallingford CT, 2019.
 
 ******************************************
 Gaussian 16:  ES64L-G16RevC.01  3-Jul-2019
                11-Jan-2023 
 ******************************************
 %oldchk=../GS_OLD/geometry.chk
 %chk=geometry.chk
 %nprocshared=4
 Will use up to    4 processors via shared memory.
 %mem=5GB
 Copying data from "../GS_OLD/geometry.chk" to current chk file "geometry.chk"
 IOpt=  2 FromEx=T IUOpen= 4 IOptOp= 5 NList=   0 IFRang= 0 IUIn= 4 IUOut= 2.
 -------------------------------------------------------
 # WB97XD/6-311G SCF=XQC FORCE nosym pop=full guess=read
 -------------------------------------------------------
 1/10=7,30=1,38=1/1,3;
 2/12=2,15=1,17=6,18=5,40=1/2;
 3/5=4,6=6,11=2,25=1,30=1,71=1,74=-58,116=-2/1,2,3;
 4/5=1/1;
 5/5=2,8=3,13=1,38=6/2,8;
 6/7=3,28=1/1;
 7/29=1,30=1/1,2,3,16;
 1/10=7,30=1/3;
 99//99;
 -----------
 MD Step 999
 -----------
 Symbolic Z-matrix:
 Charge =  0 Multiplicity = 1
 C                    -0.33676  -0.58215   0.00693 
 H                     0.22645  -1.52236  -0.02248 
 H                    -1.42106  -0.58492  -0.02463 
 C                     0.33235   0.57655   0.00509 
 H                    -0.1507    1.56979  -0.02697 
 H                     1.44218   0.64862  -0.02482 
 

 GradGradGradGradGradGradGradGradGradGradGradGradGradGradGradGradGradGrad
 Berny optimization.
 Initialization pass.
 Trust Radius=3.00D-01 FncErr=1.00D-07 GrdErr=1.00D-07 EigMax=2.50D+02 EigMin=1.00D-04
 Number of steps in this run=      2 maximum allowed number of steps=      2.
 GradGradGradGradGradGradGradGradGradGradGradGradGradGradGradGradGradGrad

                          Input orientation:                          
 ---------------------------------------------------------------------
 Center     Atomic      Atomic             Coordinates (Angstroms)
 Number     Number       Type             X           Y           Z
 ---------------------------------------------------------------------
      1          6           0       -0.336759   -0.582153    0.006935
      2          1           0        0.226448   -1.522359   -0.022480
      3          1           0       -1.421056   -0.584916   -0.024626
      4          6           0        0.332352    0.576550    0.005087
      5          1           0       -0.150697    1.569792   -0.026967
      6          1           0        1.442181    0.648620   -0.024818
 ---------------------------------------------------------------------
                    Distance matrix (angstroms):
                    1          2          3          4          5
     1  C    0.000000
     2  H    1.096382   0.000000
     3  H    1.084760   1.895540   0.000000
     4  C    1.338023   2.101759   2.103408   0.000000
     5  H    2.160240   3.115069   2.501317   1.104940   0.000000
     6  H    2.163432   2.488205   3.117650   1.112569   1.840060
                    6
     6  H    0.000000
 Symmetry turned off by external request.
 Stoichiometry    C2H4
 Framework group  C1[X(C2H4)]
 Deg. of freedom    12
 Full point group                 C1      NOp   1
 Rotational constants (GHZ):         143.5674020          29.6891602          24.6094302
 Standard basis: 6-311G (5D, 7F)
    38 basis functions,    72 primitive gaussians,    38 cartesian basis functions
     8 alpha electrons        8 beta electrons
       nuclear repulsion energy        33.0760915303 Hartrees.
 NAtoms=    6 NActive=    6 NUniq=    6 SFac= 1.00D+00 NAtFMM=   60 NAOKFM=F Big=F
 Integral buffers will be    131072 words long.
 Raffenetti 2 integral format.
 Two-electron integral symmetry is turned off.
 Nuclear repulsion after empirical dispersion term =       33.0752503871 Hartrees.
 One-electron integrals computed using PRISM.
 NBasis=    38 RedAO= T EigKep=  6.42D-03  NBF=    38
 NBsUse=    38 1.00D-06 EigRej= -1.00D+00 NBFU=    38
 Initial guess from the checkpoint file:  "geometry.chk"
 B after Tr=    -0.000216   -0.000364   -0.000349
         Rot=    1.000000    0.000001    0.000000    0.000003 Ang=   0.00 deg.
 Keep R1 ints in memory in canonical form, NReq=4036876.
 Requested convergence on RMS density matrix=1.00D-08 within  32 cycles.
 Requested convergence on MAX density matrix=1.00D-06.
 Requested convergence on             energy=1.00D-06.
 No special actions if energy rises.
 SCF Done:  E(RwB97XD) =  -78.5554617709     A.U. after    8 cycles
            NFock=  8  Conv=0.60D-08     -V/T= 2.0051
 QCSCF skips out because SCF is already converged.

 **********************************************************************

            Population analysis using the SCF Density.

 **********************************************************************

 Alpha  occ. eigenvalues --  -10.29024 -10.28795  -0.86392  -0.67240  -0.55960
 Alpha  occ. eigenvalues --   -0.50939  -0.43629  -0.35689
 Alpha virt. eigenvalues --    0.07981   0.14097   0.16478   0.17015   0.24079
 Alpha virt. eigenvalues --    0.37225   0.39335   0.40061   0.46390   0.48889
 Alpha virt. eigenvalues --    0.49378   0.59107   0.66563   0.69146   0.77269
 Alpha virt. eigenvalues --    0.77572   0.84204   0.95210   2.23115   2.29055
 Alpha virt. eigenvalues --    2.33303   2.40687   2.67121   2.81765   2.87820
 Alpha virt. eigenvalues --    2.95142   3.14136   3.31950  23.35241  23.70609
     Molecular Orbital Coefficients:
                           1         2         3         4         5
                           O         O         O         O         O
     Eigenvalues --   -10.29024 -10.28795  -0.86392  -0.67240  -0.55960
   1 1   C  1S          0.11045   0.55246  -0.08847   0.06669  -0.00024
   2        2S          0.09110   0.45465  -0.13985   0.10680  -0.00039
   3        2PX         0.00016  -0.00001   0.02614   0.03593   0.13949
   4        2PY         0.00028  -0.00001   0.04625   0.05891  -0.07381
   5        2PZ        -0.00000  -0.00001  -0.00128   0.00188   0.00032
   6        3S          0.00201   0.01451   0.37514  -0.29139   0.00104
   7        3PX        -0.00060   0.00044   0.03482   0.05766   0.21856
   8        3PY        -0.00102   0.00079   0.06104   0.09563  -0.11668
   9        3PZ        -0.00001  -0.00003  -0.00214   0.00334   0.00048
  10        4S          0.00301  -0.01475   0.19199  -0.22509   0.00010
  11        4PX         0.00147  -0.00160   0.00496   0.02332   0.11276
  12        4PY         0.00251  -0.00271   0.00852   0.03938  -0.06086
  13        4PZ         0.00000   0.00008  -0.00074   0.00167   0.00024
  14 2   H  1S         -0.00004  -0.00006   0.05293  -0.08669   0.10355
  15        2S         -0.00030   0.00012   0.05411  -0.10469   0.13112
  16        3S          0.00085   0.00168  -0.00180  -0.01499   0.04236
  17 3   H  1S         -0.00005  -0.00007   0.05399  -0.09052  -0.10711
  18        2S         -0.00030   0.00008   0.05484  -0.10824  -0.13449
  19        3S          0.00089   0.00170  -0.00185  -0.01583  -0.04336
  20 4   C  1S          0.55245  -0.11064  -0.08677  -0.06844   0.00002
  21        2S          0.45472  -0.09086  -0.13700  -0.10976   0.00005
  22        2PX        -0.00002  -0.00017  -0.02741   0.03831   0.11599
  23        2PY        -0.00003  -0.00029  -0.04680   0.06774  -0.07376
  24        2PZ        -0.00000   0.00000  -0.00099  -0.00197   0.00031
  25        3S          0.01399  -0.00370   0.36698   0.29997  -0.00021
  26        3PX        -0.00019   0.00073  -0.03410   0.06204   0.18155
  27        3PY        -0.00031   0.00127  -0.05838   0.10921  -0.11435
  28        3PZ        -0.00003  -0.00000  -0.00171  -0.00355   0.00047
  29        4S         -0.01210   0.00860   0.18855   0.23819  -0.00152
  30        4PX         0.00083  -0.00190  -0.00529   0.02696   0.10012
  31        4PY         0.00143  -0.00336  -0.00918   0.04677  -0.06268
  32        4PZ         0.00007  -0.00002  -0.00071  -0.00183   0.00025
  33 5   H  1S         -0.00006  -0.00004   0.04948   0.09425  -0.08863
  34        2S         -0.00003  -0.00031   0.05068   0.11220  -0.11154
  35        3S          0.00180   0.00012  -0.00106   0.01684  -0.03570
  36 6   H  1S         -0.00005  -0.00004   0.04874   0.09239   0.08365
  37        2S         -0.00002  -0.00033   0.05021   0.11060   0.10581
  38        3S          0.00177   0.00010  -0.00105   0.01641   0.03429
                           6         7         8         9        10
                           O         O         O         V         V
     Eigenvalues --    -0.50939  -0.43629  -0.35689   0.07981   0.14097
   1 1   C  1S         -0.00300   0.00025  -0.00100   0.00264  -0.03313
   2        2S         -0.00441   0.00044  -0.00162   0.00438  -0.05313
   3        2PX         0.09380  -0.10940  -0.00334   0.00152  -0.03067
   4        2PY         0.16906   0.06501  -0.00548   0.00229  -0.06483
   5        2PZ         0.00490  -0.00008   0.17942  -0.18899  -0.00243
   6        3S          0.01779  -0.00114   0.00473  -0.01325   0.11540
   7        3PX         0.13596  -0.17471  -0.00474   0.00229  -0.03592
   8        3PY         0.24686   0.10397  -0.00773   0.00342  -0.08034
   9        3PZ         0.00777  -0.00010   0.28861  -0.27799  -0.00387
  10        4S         -0.05620  -0.00351   0.00672  -0.01520   1.22124
  11        4PX         0.06820  -0.10871  -0.00392   0.01268  -0.18574
  12        4PY         0.12525   0.06585  -0.00641   0.02008  -0.38049
  13        4PZ         0.00441  -0.00002   0.26699  -0.69498  -0.01411
  14 2   H  1S         -0.08136  -0.11406   0.00012   0.00412  -0.01741
  15        2S         -0.11284  -0.17586   0.00191   0.00646  -0.04833
  16        3S         -0.04219  -0.08119   0.00114   0.01708  -0.83303
  17 3   H  1S         -0.07928   0.11126   0.00007   0.00414  -0.01326
  18        2S         -0.10928   0.17090   0.00187   0.00668  -0.03805
  19        3S         -0.04048   0.07884   0.00112   0.01703  -0.76131
  20 4   C  1S         -0.00907  -0.00051  -0.00075  -0.00250  -0.03646
  21        2S         -0.01423  -0.00085  -0.00122  -0.00414  -0.05856
  22        2PX        -0.09888   0.12604   0.00312   0.00150   0.04154
  23        2PY        -0.16113  -0.07470   0.00588   0.00300   0.06097
  24        2PZ         0.00515   0.00028   0.17910   0.18945  -0.00282
  25        3S          0.04552   0.00250   0.00360   0.01243   0.12940
  26        3PX        -0.14655   0.20153   0.00434   0.00232   0.05109
  27        3PY        -0.23710  -0.11901   0.00825   0.00462   0.07210
  28        3PZ         0.00813   0.00042   0.28662   0.27783  -0.00428
  29        4S         -0.02551   0.00288   0.00622   0.01372   1.24533
  30        4PX        -0.07676   0.12979   0.00327   0.01189   0.27161
  31        4PY        -0.12287  -0.07539   0.00643   0.02250   0.41682
  32        4PZ         0.00471   0.00025   0.26738   0.69630  -0.01681
  33 5   H  1S         -0.07371  -0.12566   0.00024  -0.00379  -0.01164
  34        2S         -0.10037  -0.19604   0.00206  -0.00638  -0.03696
  35        3S         -0.03742  -0.09238   0.00115  -0.01662  -0.82291
  36 6   H  1S         -0.07985   0.12551   0.00018  -0.00379  -0.01558
  37        2S         -0.10924   0.19648   0.00198  -0.00629  -0.04709
  38        3S         -0.04098   0.09245   0.00110  -0.01664  -0.89460
                          11        12        13        14        15
                           V         V         V         V         V
     Eigenvalues --     0.16478   0.17015   0.24079   0.37225   0.39335
   1 1   C  1S          0.00069  -0.04573  -0.00009   0.00881   0.00109
   2        2S          0.00110  -0.07455  -0.00014   0.01175   0.00183
   3        2PX         0.09685  -0.02132   0.09976  -0.03480  -0.02389
   4        2PY        -0.05310  -0.03612  -0.05731  -0.06424   0.00798
   5        2PZ         0.00012  -0.00641   0.00010  -0.00448  -0.00020
   6        3S         -0.00216   0.16881   0.00022   0.03568  -0.00451
   7        3PX         0.13874  -0.01307   0.10505  -0.04202  -0.10811
   8        3PY        -0.07678  -0.02269  -0.06118  -0.08152   0.04412
   9        3PZ         0.00018  -0.00890   0.00004  -0.00932  -0.00040
  10        4S         -0.04154   1.44351  -0.00115  -2.47408  -0.17144
  11        4PX         0.58692  -0.12935   1.17490  -1.52955  -0.53242
  12        4PY        -0.31368  -0.19993  -0.66272  -2.67475   0.15426
  13        4PZ         0.00086  -0.04196   0.00159  -0.04077  -0.00255
  14 2   H  1S         -0.02927  -0.02527   0.01415  -0.06063   0.07451
  15        2S         -0.08180  -0.01630  -0.02326  -0.68321   0.76093
  16        3S         -1.04009  -0.99182  -1.55108  -0.28465  -0.31034
  17 3   H  1S          0.02824  -0.02541  -0.01641  -0.05379  -0.07592
  18        2S          0.08089  -0.02238   0.01748  -0.63303  -0.75944
  19        3S          1.09130  -1.03469   1.56748  -0.35606   0.23956
  20 4   C  1S          0.00200   0.04209   0.00004  -0.02008  -0.00002
  21        2S          0.00321   0.06851   0.00004  -0.03314   0.00021
  22        2PX         0.10076  -0.02429  -0.10048  -0.04067  -0.03103
  23        2PY        -0.06278  -0.03715   0.05756  -0.07126   0.01533
  24        2PZ         0.00035   0.00616  -0.00010   0.00307   0.00025
  25        3S         -0.00667  -0.15177   0.00027   0.04751  -0.00696
  26        3PX         0.14505  -0.02013  -0.11464  -0.09423  -0.10661
  27        3PY        -0.08866  -0.02683   0.06477  -0.16734   0.06293
  28        3PZ         0.00050   0.00848  -0.00007   0.00348   0.00042
  29        4S         -0.08334  -1.33281  -0.00572   3.23309   0.15741
  30        4PX         0.53011  -0.12036  -1.11716  -1.11879  -0.55949
  31        4PY        -0.33706  -0.19703   0.65649  -1.95021   0.10606
  32        4PZ         0.00212   0.04017  -0.00158   0.03276   0.00205
  33 5   H  1S          0.03190   0.02418   0.00535   0.00597  -0.08220
  34        2S          0.06780   0.02200  -0.03570   0.01778  -0.80531
  35        3S          1.09534   0.92550  -1.51923   0.44708   0.48946
  36 6   H  1S         -0.03108   0.02565  -0.00406   0.00263   0.08768
  37        2S         -0.06706   0.02041   0.03618  -0.01427   0.89243
  38        3S         -0.98272   0.95065   1.51457   0.45627  -0.46567
                          16        17        18        19        20
                           V         V         V         V         V
     Eigenvalues --     0.40061   0.46390   0.48889   0.49378   0.59107
   1 1   C  1S         -0.01917   0.01298   0.04602  -0.00097  -0.00052
   2        2S         -0.03346   0.02978   0.07679  -0.00135  -0.00092
   3        2PX         0.02872  -0.06057  -0.01042   0.00138   0.00201
   4        2PY         0.05337  -0.10697  -0.01407   0.00181   0.00294
   5        2PZ         0.00051  -0.00048  -0.00702  -0.15166  -0.19253
   6        3S          0.07340  -0.33733  -0.08497  -0.00783  -0.00080
   7        3PX         0.10498  -0.23652   0.04038   0.00018   0.00680
   8        3PY         0.20043  -0.41567   0.07756  -0.00173   0.00981
   9        3PZ        -0.00316  -0.00438  -0.03090  -0.62760  -0.68505
  10        4S          2.87147   0.11783  -3.09029   0.12895   0.06715
  11        4PX         0.33129   0.23708  -0.83049   0.03950   0.01892
  12        4PY         0.61878   0.42717  -1.42152   0.07020   0.03725
  13        4PZ        -0.00078   0.00222   0.09454   0.68386   1.24086
  14 2   H  1S         -0.02371  -0.03309   0.07563  -0.00360  -0.00158
  15        2S         -0.50758  -0.32035   0.90916  -0.03697  -0.01160
  16        3S          0.33492   0.06196  -0.63700   0.03809   0.02239
  17 3   H  1S         -0.03197  -0.03365   0.07451  -0.00352  -0.00158
  18        2S         -0.58178  -0.32353   0.88173  -0.03596  -0.01166
  19        3S          0.34917   0.05862  -0.61652   0.03725   0.02193
  20 4   C  1S          0.00066  -0.00355  -0.05096   0.00365   0.00068
  21        2S         -0.00253   0.00159  -0.08889   0.00656   0.00127
  22        2PX         0.01038   0.05498  -0.02892   0.00060   0.00192
  23        2PY         0.01992   0.09324  -0.05045   0.00068   0.00379
  24        2PZ        -0.00369  -0.00183  -0.00711  -0.15264   0.19225
  25        3S          0.07788  -0.28145   0.23894  -0.02396  -0.00260
  26        3PX        -0.04089   0.23592  -0.06301   0.00151   0.00668
  27        3PY        -0.05916   0.40469  -0.10653   0.00092   0.01324
  28        3PZ        -0.01025  -0.00732  -0.02713  -0.63125   0.68229
  29        4S         -1.08555   0.79043   3.09198  -0.15037  -0.05851
  30        4PX         1.33503  -0.32597  -0.58635   0.02156   0.02231
  31        4PY         2.39444  -0.56013  -1.01587   0.03811   0.03432
  32        4PZ        -0.03257  -0.01640  -0.02412   0.69468  -1.23752
  33 5   H  1S         -0.04594  -0.06501  -0.06374   0.00322   0.00152
  34        2S         -0.84208  -0.66725  -0.80548   0.04596   0.00610
  35        3S         -0.23344   0.27479   0.54239  -0.01742  -0.02182
  36 6   H  1S         -0.03811  -0.06530  -0.06280   0.00318   0.00150
  37        2S         -0.74846  -0.67296  -0.80020   0.04534   0.00553
  38        3S         -0.25802   0.29272   0.54832  -0.01799  -0.02187
                          21        22        23        24        25
                           V         V         V         V         V
     Eigenvalues --     0.66563   0.69146   0.77269   0.77572   0.84204
   1 1   C  1S          0.00082  -0.00085   0.04988   0.07379   0.00119
   2        2S          0.00173  -0.00179   0.10524   0.15728   0.00279
   3        2PX        -0.13161   0.19875  -0.02778   0.11377  -0.00719
   4        2PY         0.07645  -0.11941  -0.04708   0.18415   0.01540
   5        2PZ        -0.00017   0.00023   0.00057   0.00466   0.00011
   6        3S         -0.01493   0.01807  -0.70368  -1.35708  -0.03281
   7        3PX        -0.61231   0.69866  -0.18396   0.44452  -0.21825
   8        3PY         0.35165  -0.42040  -0.31155   0.70597   0.17104
   9        3PZ        -0.00088   0.00086   0.00220   0.01628   0.00016
  10        4S          0.02483  -0.04429   0.67204   2.46301   0.07445
  11        4PX         1.07589  -0.77999   0.19496  -0.78559   4.55615
  12        4PY        -0.61523   0.50020   0.20544  -0.97893  -2.55426
  13        4PZ         0.00114   0.00086   0.00959  -0.05268   0.00730
  14 2   H  1S          0.02364  -0.05919   0.00949   0.03295  -0.02668
  15        2S          0.13424  -0.64200   0.06750   0.10379  -1.58433
  16        3S         -1.03595   1.12102  -0.08749  -1.08809  -1.24030
  17 3   H  1S         -0.02276   0.05827   0.00980   0.03344   0.03115
  18        2S         -0.15003   0.66509   0.10655   0.05244   1.62514
  19        3S          1.02801  -1.06699  -0.05837  -1.25861   1.23130
  20 4   C  1S          0.00106  -0.00027   0.08375   0.03260   0.00067
  21        2S          0.00218  -0.00055   0.17828   0.06864   0.00125
  22        2PX        -0.15215  -0.18425  -0.09764   0.05061   0.01096
  23        2PY         0.08774   0.10230  -0.17581   0.09390   0.00338
  24        2PZ        -0.00018  -0.00024   0.00483  -0.00095  -0.00012
  25        3S         -0.01645  -0.00018  -1.49055  -0.40180  -0.00077
  26        3PX        -0.68594  -0.62309  -0.35601   0.27059   0.23830
  27        3PY         0.39849   0.34237  -0.64887   0.50151  -0.09114
  28        3PZ        -0.00090  -0.00078   0.01712  -0.00368  -0.00008
  29        4S          0.01078   0.01262   2.69077   0.16663  -0.08717
  30        4PX         1.29302   0.76196   0.50561  -0.20919  -4.11679
  31        4PY        -0.74854  -0.39380   1.03855  -0.68322   2.39928
  32        4PZ         0.00169  -0.00061  -0.04981   0.02374  -0.00648
  33 5   H  1S         -0.02524  -0.05469   0.03445   0.00375  -0.02339
  34        2S         -0.14340  -0.54856   0.06816   0.08721  -1.40121
  35        3S          1.12183   0.97043  -1.17319   0.29163  -1.08344
  36 6   H  1S          0.02612   0.05484   0.03408   0.00406   0.02239
  37        2S          0.13818   0.52810   0.08261   0.01251   1.38586
  38        3S         -1.12531  -1.00387  -1.09081   0.19932   1.10060
                          26        27        28        29        30
                           V         V         V         V         V
     Eigenvalues --     0.95210   2.23115   2.29055   2.33303   2.40687
   1 1   C  1S          0.09598  -0.01006  -0.01468  -0.00041  -0.00047
   2        2S          0.19948   0.00169  -0.01462  -0.00077  -0.00066
   3        2PX        -0.09138  -0.07305  -0.13032  -0.35030  -0.40904
   4        2PY        -0.15814  -0.13964  -0.23243   0.19737   0.22673
   5        2PZ         0.00021  -0.01282  -0.01765  -0.00045  -0.00099
   6        3S         -1.54591  -0.18702  -0.03854  -0.00015  -0.00404
   7        3PX        -0.23411   0.06652   0.20547   0.41928   0.57162
   8        3PY        -0.39781   0.14170   0.37856  -0.23832  -0.31693
   9        3PZ        -0.00234   0.01280   0.02194   0.00041   0.00118
  10        4S          5.71482  -0.10270  -0.88467  -0.00113   0.00114
  11        4PX         1.21299   0.05312  -0.18268   0.06585   0.99327
  12        4PY         1.98754   0.07422  -0.36144  -0.02719  -0.53612
  13        4PZ        -0.01821   0.00279   0.00798   0.00033   0.00229
  14 2   H  1S          0.01506  -0.70344  -0.80462   0.70384   0.64965
  15        2S         -0.28953   0.99887   1.20178  -1.09341  -1.45893
  16        3S         -0.10172  -0.29771  -0.48222   0.46364   0.36253
  17 3   H  1S          0.01560  -0.69006  -0.79907  -0.70329  -0.67087
  18        2S         -0.25577   0.97919   1.20193   1.09531   1.50373
  19        3S         -0.07413  -0.27482  -0.45867  -0.45615  -0.35232
  20 4   C  1S         -0.09379  -0.01050   0.01216  -0.00040   0.00024
  21        2S         -0.19450  -0.00020   0.01227  -0.00047   0.00058
  22        2PX        -0.09242   0.13969  -0.12270  -0.30004   0.41522
  23        2PY        -0.15977   0.24089  -0.20381   0.17491  -0.24351
  24        2PZ         0.00033  -0.01402   0.01668  -0.00058   0.00061
  25        3S          1.50273  -0.16623   0.01660  -0.00138  -0.00076
  26        3PX        -0.22709  -0.17912   0.21107   0.37514  -0.58101
  27        3PY        -0.39782  -0.30523   0.34557  -0.21636   0.34289
  28        3PZ         0.00351   0.01510  -0.02129   0.00064  -0.00084
  29        4S         -5.68836  -0.17881   0.88940  -0.01354  -0.01750
  30        4PX         1.09411  -0.01523  -0.20178  -0.12073  -0.84208
  31        4PY         1.98679  -0.03076  -0.31012   0.06804   0.50775
  32        4PZ         0.01160   0.00461  -0.00611  -0.00007  -0.00195
  33 5   H  1S         -0.01809  -0.79338   0.66788  -0.70459   0.68861
  34        2S          0.28984   1.15475  -1.02414   1.01736  -1.45791
  35        3S          0.05379  -0.35914   0.39417  -0.51259   0.43061
  36 6   H  1S         -0.01790  -0.79089   0.68544   0.69061  -0.68857
  37        2S          0.31643   1.14961  -1.04154  -0.99504   1.45023
  38        3S          0.07308  -0.36044   0.42190   0.50867  -0.44004
                          31        32        33        34        35
                           V         V         V         V         V
     Eigenvalues --     2.67121   2.81765   2.87820   2.95142   3.14136
   1 1   C  1S          0.00049   0.00243  -0.01331  -0.00005  -0.00985
   2        2S          0.00039   0.00698  -0.04377  -0.00043  -0.03015
   3        2PX         0.00539   0.07022  -0.47095  -0.72064   0.44631
   4        2PY         0.00713   0.12391  -0.86355   0.40781   0.77120
   5        2PZ        -0.92429  -0.93077  -0.13341  -0.00175   0.00595
   6        3S         -0.00159  -0.05755   0.38331   0.00594   0.25314
   7        3PX        -0.00409  -0.12121   0.83228   0.86935  -0.42591
   8        3PY        -0.00504  -0.21212   1.49371  -0.47652  -0.73107
   9        3PZ         0.93936   1.13777   0.16741   0.00230  -0.00768
  10        4S          0.01263   0.13489  -0.87267  -0.01445  -0.49707
  11        4PX        -0.00181   0.09666  -0.70955  -0.66744   0.21143
  12        4PY        -0.00283   0.17054  -1.27107   0.35213   0.35606
  13        4PZ        -0.33807  -0.61603  -0.10601  -0.00180   0.00439
  14 2   H  1S          0.01157  -0.01795   0.25832  -0.37199  -0.20848
  15        2S         -0.01308   0.01056  -0.21188   0.38480   0.15761
  16        3S         -0.00297   0.03999  -0.30316   0.27545   0.04956
  17 3   H  1S          0.01181  -0.01775   0.25018   0.37162  -0.21336
  18        2S         -0.01364   0.00946  -0.19795  -0.38062   0.16109
  19        3S         -0.00336   0.03959  -0.29948  -0.29263   0.06351
  20 4   C  1S          0.00048  -0.00236   0.01356   0.00044  -0.00716
  21        2S          0.00046  -0.00738   0.04808   0.00104  -0.02230
  22        2PX        -0.00657   0.06150  -0.40544  -0.81531  -0.50464
  23        2PY        -0.01328   0.10923  -0.71153   0.44585  -0.90353
  24        2PZ        -0.92515   0.92926   0.13646  -0.00004   0.01307
  25        3S         -0.00262   0.06363  -0.43375  -0.00767   0.19184
  26        3PX         0.00683  -0.11269   0.76857   0.97215   0.54516
  27        3PY         0.01359  -0.19859   1.34345  -0.52449   0.98592
  28        3PZ         0.94068  -1.13614  -0.17198   0.00001  -0.01653
  29        4S          0.01475  -0.13757   0.90373   0.02472  -0.36442
  30        4PX        -0.00051   0.09686  -0.71108  -0.70276  -0.33458
  31        4PY        -0.00209   0.16846  -1.23484   0.37642  -0.61506
  32        4PZ        -0.33875   0.61495   0.10982  -0.00005   0.01310
  33 5   H  1S          0.01093   0.02705  -0.29779   0.41944  -0.27229
  34        2S         -0.01354  -0.02234   0.27443  -0.42991   0.21593
  35        3S         -0.00118  -0.03593   0.27821  -0.24241   0.13472
  36 6   H  1S          0.01102   0.02673  -0.29120  -0.43399  -0.25440
  37        2S         -0.01397  -0.02264   0.27084   0.44320   0.19951
  38        3S         -0.00094  -0.03520   0.26956   0.24588   0.12157
                          36        37        38
                           V         V         V
     Eigenvalues --     3.31950  23.35241  23.70609
   1 1   C  1S         -0.00022  -1.41278  -1.45349
   2        2S         -0.00023   1.50672   1.57179
   3        2PX         0.79440  -0.00652   0.01215
   4        2PY        -0.43862  -0.01069   0.02118
   5        2PZ         0.00157  -0.00053  -0.00024
   6        3S         -0.00308  -0.29594  -0.39991
   7        3PX        -1.13635   0.02399  -0.05580
   8        3PY         0.62123   0.03985  -0.09677
   9        3PZ        -0.00237   0.00149   0.00073
  10        4S          0.01448   0.27475   0.76907
  11        4PX         1.99538  -0.02560   0.13466
  12        4PY        -1.08362  -0.04366   0.22909
  13        4PZ         0.00408  -0.00251  -0.00298
  14 2   H  1S          0.56733   0.01320   0.00756
  15        2S         -0.88226   0.00738  -0.01532
  16        3S         -0.46506  -0.08423  -0.04020
  17 3   H  1S         -0.57866   0.01489   0.00837
  18        2S          0.89890   0.00735  -0.01451
  19        3S          0.49491  -0.08655  -0.03930
  20 4   C  1S         -0.00011  -1.44869   1.41751
  21        2S         -0.00053   1.54510  -1.53297
  22        2PX        -0.70085   0.00611   0.01258
  23        2PY         0.40604   0.01089   0.02160
  24        2PZ        -0.00131  -0.00052   0.00012
  25        3S          0.00739  -0.30318   0.39006
  26        3PX         0.99727  -0.02246  -0.05637
  27        3PY        -0.58876  -0.03972  -0.09733
  28        3PZ         0.00197   0.00151  -0.00030
  29        4S         -0.03968   0.27924  -0.75976
  30        4PX        -1.75241   0.02387   0.12960
  31        4PY         1.05100   0.04292   0.22734
  32        4PZ        -0.00349  -0.00243   0.00206
  33 5   H  1S          0.47821   0.01322  -0.00434
  34        2S         -0.74585   0.00837   0.01322
  35        3S         -0.42928  -0.08297   0.03661
  36 6   H  1S         -0.47377   0.01211  -0.00370
  37        2S          0.74014   0.00901   0.01368
  38        3S          0.41521  -0.08120   0.03727
     Density Matrix:
                           1         2         3         4         5
   1 1   C  1S          0.65939
   2        2S          0.56150   0.49199
   3        2PX        -0.00049  -0.00064   0.08442
   4        2PY        -0.00121  -0.00167   0.00359   0.08779
   5        2PZ         0.00008   0.00013  -0.00011  -0.00027   0.06444
   6        3S         -0.08889  -0.15378   0.00251   0.00603  -0.00018
   7        3PX         0.00089   0.00136   0.13070   0.00106  -0.00007
   8        3PY         0.00124   0.00191   0.00112   0.13121  -0.00025
   9        3PZ         0.00017   0.00028  -0.00019  -0.00043   0.10366
  10        4S         -0.07930  -0.11416  -0.01593  -0.02831   0.00053
  11        4PX         0.00028   0.00163   0.07000  -0.00447  -0.00057
  12        4PY         0.00063   0.00305  -0.00457   0.06539  -0.00100
  13        4PZ        -0.00012  -0.00027  -0.00081  -0.00135   0.09586
  14 2   H  1S         -0.02063  -0.03285   0.03512  -0.06294  -0.00113
  15        2S         -0.02295  -0.03671   0.04918  -0.08772  -0.00084
  16        3S          0.00055  -0.00076   0.02049  -0.03302  -0.00001
  17 3   H  1S         -0.02113  -0.03363  -0.07278  -0.00220  -0.00131
  18        2S         -0.02331  -0.03722  -0.10034  -0.00258  -0.00106
  19        3S          0.00059  -0.00070  -0.03818   0.00091  -0.00009
  20 4   C  1S          0.00607   0.00979  -0.01085  -0.01890  -0.00039
  21        2S          0.00974   0.01524  -0.01736  -0.03026  -0.00064
  22        2PX         0.01037   0.01658  -0.01247  -0.03223   0.00042
  23        2PY         0.01794   0.02869  -0.03208  -0.04972   0.00087
  24        2PZ        -0.00047  -0.00077  -0.00040  -0.00056   0.06432
  25        3S         -0.02620  -0.03980   0.04865   0.08500   0.00193
  26        3PX         0.01596   0.02473  -0.01829  -0.04605   0.00053
  27        3PY         0.02763   0.04280  -0.04560  -0.07138   0.00115
  28        3PZ        -0.00080  -0.00129  -0.00070  -0.00099   0.10292
  29        4S          0.00538   0.00396   0.02109   0.03740   0.00239
  30        4PX         0.00308   0.00636  -0.01323  -0.02121   0.00058
  31        4PY         0.00518   0.01081  -0.02120  -0.03750   0.00127
  32        4PZ        -0.00068  -0.00110  -0.00106  -0.00163   0.09599
  33 5   H  1S          0.00418   0.00685  -0.00170  -0.01250  -0.00045
  34        2S          0.00620   0.01029   0.00365  -0.02507   0.00001
  35        3S          0.00316   0.00461   0.00438  -0.01752   0.00010
  36 6   H  1S          0.00414   0.00680  -0.00992  -0.00764  -0.00046
  37        2S          0.00620   0.01033  -0.02340  -0.00936  -0.00004
  38        3S          0.00315   0.00463  -0.01724  -0.00507   0.00006
                           6         7         8         9        10
   6        3S          0.45239
   7        3PX        -0.00182   0.20268
   8        3PY        -0.00169  -0.00485   0.19660
   9        3PZ        -0.00055  -0.00014  -0.00038   0.16675
  10        4S          0.27288  -0.02668  -0.04825   0.00068   0.18193
  11        4PX        -0.00704   0.10889  -0.01012  -0.00094  -0.01547
  12        4PY        -0.01251  -0.01037   0.09840  -0.00160  -0.02900
  13        4PZ         0.00116  -0.00108  -0.00178   0.15420   0.00206
  14 2   H  1S          0.08781   0.05668  -0.09817  -0.00188   0.06932
  15        2S          0.09829   0.07976  -0.13632  -0.00142   0.08187
  16        3S          0.00622   0.03355  -0.05071  -0.00003   0.01135
  17 3   H  1S          0.08996  -0.11394  -0.00173  -0.00215   0.06959
  18        2S          0.09969  -0.15690  -0.00107  -0.00174   0.08086
  19        3S          0.00619  -0.05947   0.00325  -0.00014   0.01037
  20 4   C  1S         -0.02654  -0.01697  -0.02956  -0.00067   0.00510
  21        2S         -0.04015  -0.02636  -0.04599  -0.00108   0.00382
  22        2PX        -0.04643  -0.01775  -0.04575   0.00072  -0.01747
  23        2PY        -0.08026  -0.04546  -0.07072   0.00149  -0.02975
  24        2PZ         0.00228  -0.00056  -0.00074   0.10345   0.00234
  25        3S          0.10211   0.07150   0.12513   0.00322   0.00098
  26        3PX        -0.06697  -0.02617  -0.06518   0.00092  -0.02589
  27        3PY        -0.11573  -0.06442  -0.10149   0.00198  -0.04404
  28        3PZ         0.00379  -0.00098  -0.00133   0.16555   0.00388
  29        4S          0.00199   0.03195   0.05688   0.00398  -0.03222
  30        4PX        -0.02252  -0.01975  -0.02982   0.00097  -0.00633
  31        4PY        -0.03851  -0.02978  -0.05400   0.00211  -0.01006
  32        4PZ         0.00323  -0.00149  -0.00225   0.15440   0.00362
  33 5   H  1S         -0.02032  -0.00057  -0.01778  -0.00065  -0.01427
  34        2S         -0.03071   0.00890  -0.03667   0.00010  -0.01837
  35        3S         -0.01178   0.00835  -0.02628   0.00018  -0.00312
  36 6   H  1S         -0.02022  -0.01496  -0.00922  -0.00067  -0.01476
  37        2S         -0.03089  -0.03587  -0.01052   0.00003  -0.01955
  38        3S         -0.01193  -0.02666  -0.00602   0.00013  -0.00380
                          11        12        13        14        15
  11        4PX         0.05954
  12        4PY        -0.00897   0.05081
  13        4PZ        -0.00136  -0.00223   0.14261
  14 2   H  1S          0.03353  -0.05393  -0.00097   0.08133
  15        2S          0.04805  -0.07474  -0.00034   0.10951   0.14948
  16        3S          0.02072  -0.02765   0.00021   0.03657   0.05214
  17 3   H  1S         -0.06285   0.00162  -0.00110  -0.01325  -0.02453
  18        2S         -0.08691   0.00389  -0.00048  -0.02448  -0.04211
  19        3S         -0.03321   0.00422   0.00017  -0.01783  -0.02685
  20 4   C  1S         -0.00319  -0.00583  -0.00059   0.00424   0.00681
  21        2S         -0.00658  -0.01187  -0.00095   0.00702   0.01138
  22        2PX        -0.01324  -0.01978   0.00101   0.00182  -0.00257
  23        2PY        -0.01972  -0.03676   0.00198   0.01129   0.02407
  24        2PZ        -0.00080  -0.00118   0.09568  -0.00056  -0.00019
  25        3S          0.02327   0.04168   0.00278  -0.02118  -0.03429
  26        3PX        -0.02034  -0.02802   0.00136   0.00111  -0.00686
  27        3PY        -0.02781  -0.05365   0.00271   0.01694   0.03622
  28        3PZ        -0.00131  -0.00195   0.15311  -0.00082  -0.00021
  29        4S          0.00842   0.01596   0.00361  -0.01816  -0.02509
  30        4PX        -0.01492  -0.01232   0.00121  -0.00161  -0.00828
  31        4PY        -0.01245  -0.02961   0.00249   0.01513   0.02705
  32        4PZ        -0.00154  -0.00240   0.14281  -0.00046   0.00024
  33 5   H  1S          0.00216  -0.01596  -0.00032   0.01120   0.02321
  34        2S          0.00950  -0.02771   0.00047   0.02387   0.04435
  35        3S          0.00770  -0.01589   0.00033   0.01674   0.02793
  36 6   H  1S         -0.01453  -0.00555  -0.00034  -0.00917  -0.01826
  37        2S         -0.02811  -0.00482   0.00043  -0.01899  -0.03442
  38        3S         -0.01721  -0.00100   0.00030  -0.01028  -0.01782
                          16        17        18        19        20
  16        3S          0.02080
  17 3   H  1S         -0.01793   0.08249
  18        2S         -0.02687   0.10969   0.14793
  19        3S         -0.01257   0.03592   0.05068   0.01999
  20 4   C  1S          0.00378   0.00430   0.00675   0.00374   0.65948
  21        2S          0.00559   0.00710   0.01125   0.00549   0.56158
  22        2PX        -0.00334   0.00898   0.02221   0.01672   0.00120
  23        2PY         0.01763   0.00741   0.00975   0.00570   0.00187
  24        2PZ         0.00002  -0.00054  -0.00013   0.00007   0.00008
  25        3S         -0.01456  -0.02129  -0.03372  -0.01411  -0.08930
  26        3PX        -0.00670   0.01428   0.03493   0.02607  -0.00049
  27        3PY         0.02660   0.00954   0.01189   0.00713  -0.00104
  28        3PZ         0.00005  -0.00080  -0.00011   0.00013   0.00017
  29        4S         -0.00624  -0.01775  -0.02388  -0.00557  -0.08015
  30        4PX        -0.00690   0.01415   0.02780   0.01717  -0.00018
  31        4PY         0.01594   0.00668   0.00683   0.00205  -0.00019
  32        4PZ         0.00025  -0.00045   0.00030   0.00029  -0.00003
  33 5   H  1S          0.01611  -0.00900  -0.01798  -0.00933  -0.02008
  34        2S          0.02731  -0.01865  -0.03379  -0.01685  -0.02211
  35        3S          0.01464  -0.01014  -0.01755  -0.00896   0.00060
  36 6   H  1S         -0.00950   0.01121   0.02320   0.01590  -0.01983
  37        2S         -0.01722   0.02377   0.04414   0.02697  -0.02202
  38        3S         -0.00913   0.01664   0.02767   0.01441   0.00052
                          21        22        23        24        25
  21        2S          0.49209
  22        2PX         0.00172   0.08269
  23        2PY         0.00268   0.00372   0.08759
  24        2PZ         0.00012   0.00014   0.00018   0.06422
  25        3S         -0.15432  -0.00553  -0.00868  -0.00015   0.45391
  26        3PX        -0.00075   0.12855   0.00198   0.00009  -0.00020
  27        3PY        -0.00157   0.00198   0.13141   0.00006   0.00058
  28        3PZ         0.00029   0.00022   0.00029   0.10277  -0.00058
  29        4S         -0.11582   0.01337   0.02270   0.00065   0.27862
  30        4PX        -0.00140   0.07350  -0.00524   0.00042   0.00597
  31        4PY        -0.00224  -0.00512   0.06738   0.00079   0.00989
  32        4PZ        -0.00013   0.00076   0.00137   0.09583   0.00074
  33 5   H  1S         -0.03199  -0.03315   0.06374  -0.00127   0.08555
  34        2S         -0.03531  -0.04961   0.08857  -0.00101   0.09446
  35        3S         -0.00058  -0.02281   0.03352  -0.00011   0.00553
  36 6   H  1S         -0.03161   0.07124   0.00260  -0.00110   0.08452
  37        2S         -0.03522   0.10141   0.00055  -0.00078   0.09421
  38        3S         -0.00071   0.04069  -0.00333  -0.00002   0.00584
                          26        27        28        29        30
  26        3PX         0.20017
  27        3PY        -0.00239   0.19772
  28        3PZ         0.00012   0.00009   0.16447
  29        4S          0.02486   0.04190   0.00082   0.18641
  30        4PX         0.11490  -0.01084   0.00066   0.01520   0.06706
  31        4PY        -0.01065   0.10193   0.00126   0.02483  -0.01058
  32        4PZ         0.00095   0.00175   0.15336   0.00194   0.00105
  33 5   H  1S         -0.05290   0.09994  -0.00209   0.06686  -0.03449
  34        2S         -0.07962   0.13839  -0.00169   0.07691  -0.05229
  35        3S         -0.03706   0.05172  -0.00018   0.00908  -0.02446
  36 6   H  1S          0.11251   0.00335  -0.00183   0.06694   0.06606
  37        2S          0.15995  -0.00084  -0.00133   0.07803   0.09441
  38        3S          0.06384  -0.00669  -0.00004   0.00991   0.03806
                          31        32        33        34        35
  31        4PY         0.05407
  32        4PZ         0.00205   0.14303
  33 5   H  1S          0.05608  -0.00109   0.08082
  34        2S          0.07780  -0.00048   0.11000   0.15221
  35        3S          0.02921   0.00014   0.03813   0.05537   0.02300
  36 6   H  1S         -0.00204  -0.00096  -0.01236  -0.02617  -0.02018
  37        2S         -0.00659  -0.00030  -0.02621  -0.04879  -0.03206
  38        3S         -0.00659   0.00021  -0.02028  -0.03209  -0.01590
                          36        37        38
  36 6   H  1S          0.08007
  37        2S          0.10980   0.15298
  38        3S          0.03842   0.05607   0.02336
    Full Mulliken population analysis:
                           1         2         3         4         5
   1 1   C  1S          0.65939
   2        2S          0.49325   0.49199
   3        2PX         0.00000   0.00000   0.08442
   4        2PY         0.00000   0.00000   0.00000   0.08779
   5        2PZ         0.00000   0.00000   0.00000   0.00000   0.06444
   6        3S         -0.02926  -0.06440   0.00000   0.00000   0.00000
   7        3PX         0.00000   0.00000   0.08223   0.00000   0.00000
   8        3PY         0.00000   0.00000   0.00000   0.08255   0.00000
   9        3PZ         0.00000   0.00000   0.00000   0.00000   0.06522
  10        4S         -0.01219  -0.02137   0.00000   0.00000   0.00000
  11        4PX         0.00000   0.00000   0.01542   0.00000   0.00000
  12        4PY         0.00000   0.00000   0.00000   0.01440   0.00000
  13        4PZ         0.00000   0.00000   0.00000   0.00000   0.02111
  14 2   H  1S         -0.00023  -0.00033   0.00187   0.00559   0.00000
  15        2S         -0.00168  -0.00321   0.00440   0.01311   0.00000
  16        3S          0.00004  -0.00007   0.00070   0.00189   0.00000
  17 3   H  1S         -0.00026  -0.00037   0.00793   0.00000   0.00000
  18        2S         -0.00175  -0.00335   0.01772   0.00000   0.00001
  19        3S          0.00005  -0.00007   0.00254  -0.00000   0.00000
  20 4   C  1S          0.00000   0.00000  -0.00002  -0.00006   0.00000
  21        2S          0.00000  -0.00000  -0.00002  -0.00005   0.00000
  22        2PX        -0.00002  -0.00002   0.00011   0.00086   0.00000
  23        2PY        -0.00006  -0.00005   0.00085   0.00197   0.00000
  24        2PZ        -0.00000  -0.00000  -0.00000  -0.00000   0.00042
  25        3S         -0.00059  -0.00099   0.00254   0.00768  -0.00000
  26        3PX        -0.00054  -0.00099   0.00019   0.00557   0.00000
  27        3PY        -0.00162  -0.00297   0.00551   0.01071   0.00000
  28        3PZ        -0.00000  -0.00000  -0.00000  -0.00000   0.00611
  29        4S          0.00034   0.00030   0.00096   0.00294  -0.00000
  30        4PX        -0.00018  -0.00045  -0.00072   0.00147   0.00000
  31        4PY        -0.00052  -0.00133   0.00147   0.00097   0.00000
  32        4PZ        -0.00000  -0.00000  -0.00000  -0.00000   0.00903
  33 5   H  1S          0.00000   0.00000  -0.00000  -0.00000   0.00000
  34        2S          0.00001   0.00002   0.00000  -0.00031  -0.00000
  35        3S          0.00007   0.00013   0.00002  -0.00070  -0.00000
  36 6   H  1S          0.00000   0.00000  -0.00000  -0.00000   0.00000
  37        2S          0.00001   0.00002  -0.00024  -0.00007   0.00000
  38        3S          0.00007   0.00013  -0.00056  -0.00011  -0.00000
                           6         7         8         9        10
   6        3S          0.45239
   7        3PX         0.00000   0.20268
   8        3PY         0.00000   0.00000   0.19660
   9        3PZ         0.00000   0.00000   0.00000   0.16675
  10        4S          0.21140   0.00000   0.00000   0.00000   0.18193
  11        4PX         0.00000   0.07115   0.00000   0.00000   0.00000
  12        4PY         0.00000   0.00000   0.06430   0.00000   0.00000
  13        4PZ         0.00000   0.00000   0.00000   0.10076   0.00000
  14 2   H  1S          0.01615   0.01111   0.03211   0.00002   0.01834
  15        2S          0.04140   0.02002   0.05712   0.00002   0.04721
  16        3S          0.00287   0.00401   0.01012   0.00000   0.00857
  17 3   H  1S          0.01708   0.04437   0.00000   0.00002   0.01863
  18        2S          0.04274   0.07717   0.00000   0.00002   0.04706
  19        3S          0.00287   0.01379  -0.00000   0.00000   0.00787
  20 4   C  1S         -0.00060  -0.00057  -0.00173   0.00000   0.00032
  21        2S         -0.00100  -0.00106  -0.00319   0.00000   0.00029
  22        2PX         0.00242   0.00019   0.00553   0.00000   0.00079
  23        2PY         0.00725   0.00550   0.01061   0.00000   0.00234
  24        2PZ         0.00000  -0.00000  -0.00000   0.00614   0.00000
  25        3S          0.02177   0.01340   0.04062  -0.00000   0.00037
  26        3PX         0.01255  -0.00127   0.01860   0.00000   0.00399
  27        3PY         0.03757   0.01839   0.02852   0.00000   0.01176
  28        3PZ         0.00000  -0.00000  -0.00000   0.03530   0.00000
  29        4S          0.00076   0.00493   0.01518  -0.00000  -0.02023
  30        4PX         0.00633  -0.00405   0.00590   0.00000   0.00192
  31        4PY         0.01873   0.00590   0.00126   0.00000   0.00528
  32        4PZ         0.00000  -0.00000  -0.00000   0.04934   0.00000
  33 5   H  1S         -0.00005  -0.00000  -0.00018   0.00000  -0.00075
  34        2S         -0.00116   0.00007  -0.00316  -0.00000  -0.00305
  35        3S         -0.00190   0.00012  -0.00421  -0.00000  -0.00112
  36 6   H  1S         -0.00005  -0.00013  -0.00005   0.00000  -0.00078
  37        2S         -0.00116  -0.00253  -0.00051  -0.00000  -0.00323
  38        3S         -0.00192  -0.00351  -0.00055  -0.00000  -0.00136
                          11        12        13        14        15
  11        4PX         0.05954
  12        4PY         0.00000   0.05081
  13        4PZ         0.00000   0.00000   0.14261
  14 2   H  1S          0.00645   0.01732   0.00001   0.08133
  15        2S          0.01555   0.04039   0.00001   0.07735   0.14948
  16        3S          0.00526   0.01171  -0.00000   0.01366   0.04113
  17 3   H  1S          0.02355  -0.00000   0.00001  -0.00001  -0.00063
  18        2S          0.05466  -0.00001   0.00001  -0.00063  -0.00521
  19        3S          0.01631  -0.00001  -0.00000  -0.00197  -0.00777
  20 4   C  1S         -0.00019  -0.00059   0.00000   0.00000   0.00002
  21        2S         -0.00047  -0.00146   0.00000   0.00000   0.00003
  22        2PX        -0.00072   0.00137   0.00000  -0.00000   0.00000
  23        2PY         0.00137   0.00095   0.00000  -0.00000  -0.00037
  24        2PZ        -0.00000  -0.00000   0.00900   0.00000   0.00000
  25        3S          0.00654   0.02028  -0.00000  -0.00007  -0.00155
  26        3PX        -0.00418   0.00555   0.00000  -0.00000   0.00003
  27        3PY         0.00551   0.00125   0.00000  -0.00023  -0.00363
  28        3PZ        -0.00000  -0.00000   0.04893   0.00000   0.00000
  29        4S          0.00255   0.00837  -0.00000  -0.00108  -0.00456
  30        4PX        -0.00719   0.00312   0.00000   0.00001   0.00016
  31        4PY         0.00315  -0.00561   0.00000  -0.00243  -0.01028
  32        4PZ        -0.00000  -0.00000   0.08967   0.00000  -0.00000
  33 5   H  1S          0.00003  -0.00234   0.00000   0.00000   0.00000
  34        2S          0.00029  -0.00987  -0.00000   0.00000   0.00016
  35        3S          0.00031  -0.00731  -0.00000   0.00023   0.00147
  36 6   H  1S         -0.00175  -0.00046   0.00000  -0.00000  -0.00004
  37        2S         -0.00824  -0.00098  -0.00000  -0.00005  -0.00094
  38        3S         -0.00652  -0.00026  -0.00000  -0.00047  -0.00250
                          16        17        18        19        20
  16        3S          0.02080
  17 3   H  1S         -0.00198   0.08249
  18        2S         -0.00778   0.07748   0.14793
  19        3S         -0.00650   0.01342   0.03999   0.01999
  20 4   C  1S          0.00010   0.00000   0.00002   0.00009   0.65948
  21        2S          0.00017   0.00000   0.00003   0.00016   0.49332
  22        2PX         0.00001  -0.00000  -0.00028  -0.00059   0.00000
  23        2PY        -0.00075  -0.00000  -0.00008  -0.00013   0.00000
  24        2PZ        -0.00000   0.00000   0.00000  -0.00000   0.00000
  25        3S         -0.00254  -0.00007  -0.00151  -0.00245  -0.02940
  26        3PX         0.00006  -0.00016  -0.00291  -0.00366   0.00000
  27        3PY        -0.00448  -0.00007  -0.00066  -0.00066   0.00000
  28        3PZ        -0.00000   0.00000   0.00000  -0.00000   0.00000
  29        4S         -0.00236  -0.00105  -0.00433  -0.00210  -0.01232
  30        4PX         0.00016  -0.00189  -0.00880  -0.00678   0.00000
  31        4PY        -0.00754  -0.00059  -0.00143  -0.00054   0.00000
  32        4PZ        -0.00000   0.00000  -0.00000  -0.00000   0.00000
  33 5   H  1S          0.00023  -0.00000  -0.00004  -0.00042  -0.00021
  34        2S          0.00144  -0.00004  -0.00089  -0.00232  -0.00158
  35        3S          0.00247  -0.00046  -0.00242  -0.00284   0.00005
  36 6   H  1S         -0.00044   0.00000   0.00000   0.00022  -0.00020
  37        2S         -0.00242   0.00000   0.00015   0.00141  -0.00155
  38        3S         -0.00293   0.00023   0.00145   0.00242   0.00004
                          21        22        23        24        25
  21        2S          0.49209
  22        2PX         0.00000   0.08269
  23        2PY         0.00000   0.00000   0.08759
  24        2PZ         0.00000   0.00000   0.00000   0.06422
  25        3S         -0.06463   0.00000   0.00000   0.00000   0.45391
  26        3PX         0.00000   0.08087   0.00000   0.00000   0.00000
  27        3PY         0.00000   0.00000   0.08267   0.00000   0.00000
  28        3PZ         0.00000   0.00000   0.00000   0.06465   0.00000
  29        4S         -0.02167   0.00000   0.00000   0.00000   0.21585
  30        4PX         0.00000   0.01619   0.00000   0.00000   0.00000
  31        4PY         0.00000   0.00000   0.01484   0.00000   0.00000
  32        4PZ         0.00000   0.00000   0.00000   0.02111   0.00000
  33 5   H  1S         -0.00030   0.00145   0.00571   0.00000   0.01537
  34        2S         -0.00303   0.00374   0.01373   0.00001   0.03927
  35        3S         -0.00005   0.00067   0.00201   0.00000   0.00253
  36 6   H  1S         -0.00028   0.00685   0.00002   0.00000   0.01487
  37        2S         -0.00296   0.01729   0.00001   0.00000   0.03871
  38        3S         -0.00007   0.00271  -0.00001   0.00000   0.00266
                          26        27        28        29        30
  26        3PX         0.20017
  27        3PY         0.00000   0.19772
  28        3PZ         0.00000   0.00000   0.16447
  29        4S          0.00000   0.00000   0.00000   0.18641
  30        4PX         0.07508   0.00000   0.00000   0.00000   0.06706
  31        4PY         0.00000   0.06661   0.00000   0.00000   0.00000
  32        4PZ         0.00000   0.00000   0.10022   0.00000   0.00000
  33 5   H  1S          0.00868   0.03374   0.00002   0.01754   0.00564
  34        2S          0.01692   0.06046   0.00002   0.04405   0.01442
  35        3S          0.00378   0.01084   0.00000   0.00683   0.00530
  36 6   H  1S          0.04155   0.00008   0.00002   0.01742   0.02462
  37        2S          0.07717  -0.00003   0.00002   0.04442   0.05945
  38        3S          0.01488  -0.00010   0.00000   0.00742   0.01888
                          31        32        33        34        35
  31        4PY         0.05407
  32        4PZ         0.00000   0.14303
  33 5   H  1S          0.01886   0.00001   0.08082
  34        2S          0.04412   0.00001   0.07770   0.15221
  35        3S          0.01302  -0.00000   0.01425   0.04369   0.02300
  36 6   H  1S         -0.00005   0.00001  -0.00001  -0.00082  -0.00239
  37        2S         -0.00027   0.00001  -0.00082  -0.00681  -0.00984
  38        3S         -0.00021  -0.00000  -0.00241  -0.00985  -0.00854
                          36        37        38
  36 6   H  1S          0.08007
  37        2S          0.07756   0.15298
  38        3S          0.01436   0.04424   0.02336
     Gross orbital populations:
                           1
   1 1   C  1S          1.10435
   2        2S          0.88586
   3        2PX         0.22732
   4        2PY         0.23620
   5        2PZ         0.16634
   6        3S          0.79278
   7        3PX         0.56188
   8        3PY         0.55544
   9        3PZ         0.42359
  10        4S          0.50400
  11        4PX         0.25838
  12        4PY         0.21091
  13        4PZ         0.41210
  14 2   H  1S          0.27407
  15        2S          0.46674
  16        3S          0.08560
  17 3   H  1S          0.27763
  18        2S          0.46438
  19        3S          0.08232
  20 4   C  1S          1.10441
  21        2S          0.88584
  22        2PX         0.22212
  23        2PY         0.23598
  24        2PZ         0.16555
  25        3S          0.79258
  26        3PX         0.55195
  27        3PY         0.55690
  28        3PZ         0.41976
  29        4S          0.50657
  30        4PX         0.27566
  31        4PY         0.21745
  32        4PZ         0.41242
  33 5   H  1S          0.27250
  34        2S          0.46946
  35        3S          0.08898
  36 6   H  1S          0.27020
  37        2S          0.47083
  38        3S          0.09095
          Condensed to atoms (all electrons):
               1          2          3          4          5          6
     1  C    5.030442   0.387859   0.388620   0.602061  -0.035070  -0.034749
     2  H    0.387859   0.515925  -0.032492  -0.041106   0.005998  -0.009784
     3  H    0.388620  -0.032492   0.512190  -0.040455  -0.009427   0.005899
     4  C    0.602061  -0.041106  -0.040455   5.059680   0.383620   0.383383
     5  H   -0.035070   0.005998  -0.009427   0.383620   0.527298  -0.041477
     6  H   -0.034749  -0.009784   0.005899   0.383383  -0.041477   0.528704
 Mulliken charges:
               1
     1  C   -0.339164
     2  H    0.173599
     3  H    0.175666
     4  C   -0.347182
     5  H    0.169058
     6  H    0.168023
 Sum of Mulliken charges =  -0.00000
 Mulliken charges with hydrogens summed into heavy atoms:
               1
     1  C    0.010101
     4  C   -0.010101
 Electronic spatial extent (au):  <R**2>=             83.7015
 Charge=             -0.0000 electrons
 Dipole moment (field-independent basis, Debye):
    X=              0.0071    Y=              0.0243    Z=             -0.1020  Tot=              0.1051
 Quadrupole moment (field-independent basis, Debye-Ang):
   XX=            -12.2045   YY=            -12.2190   ZZ=            -15.6685
   XY=              0.0167   XZ=              0.0016   YZ=             -0.0038
 Traceless Quadrupole moment (field-independent basis, Debye-Ang):
   XX=              1.1595   YY=              1.1450   ZZ=             -2.3045
   XY=              0.0167   XZ=              0.0016   YZ=             -0.0038
 Octapole moment (field-independent basis, Debye-Ang**2):
  XXX=             -0.4030  YYY=             -0.0030  ZZZ=             -0.0644  XYY=              0.2337
  XXY=             -0.0541  XXZ=             -0.1372  XZZ=             -0.0977  YZZ=             -0.0911
  YYZ=             -0.1806  XYZ=             -0.0379
 Hexadecapole moment (field-independent basis, Debye-Ang**3):
 XXXX=            -34.2811 YYYY=            -55.2062 ZZZZ=            -17.8083 XXXY=             -7.2515
 XXXZ=              0.0202 YYYX=            -10.6903 YYYZ=              0.0216 ZZZX=              0.0200
 ZZZY=              0.0446 XXYY=            -16.1855 XXZZ=             -9.9216 YYZZ=            -13.6415
 XXYZ=              0.0117 YYXZ=             -0.0007 ZZXY=             -3.2037
 N-N= 3.307525038708D+01 E-N=-2.478621406407D+02  KE= 7.815464132581D+01
 Orbital energies and kinetic energies (alpha):
                                 1                 2
   1         O               -10.290238         15.978383
   2         O               -10.287954         15.979910
   3         O                -0.863919          1.538588
   4         O                -0.672400          1.271169
   5         O                -0.559602          0.942650
   6         O                -0.509390          1.284529
   7         O                -0.436288          1.043515
   8         O                -0.356893          1.038579
   9         V                 0.079805          1.181985
  10         V                 0.140968          0.588965
  11         V                 0.164779          0.594525
  12         V                 0.170153          0.679356
  13         V                 0.240794          0.583317
  14         V                 0.372249          0.848145
  15         V                 0.393353          0.933647
  16         V                 0.400609          0.787538
  17         V                 0.463900          1.194464
  18         V                 0.488892          1.417261
  19         V                 0.493778          1.301808
  20         V                 0.591067          1.652684
  21         V                 0.665631          1.571753
  22         V                 0.691460          2.147550
  23         V                 0.772690          2.421752
  24         V                 0.775716          2.319583
  25         V                 0.842042          1.085904
  26         V                 0.952097          3.425571
  27         V                 2.231149          3.928098
  28         V                 2.290552          4.027899
  29         V                 2.333028          4.305031
  30         V                 2.406874          4.517517
  31         V                 2.671215          6.300997
  32         V                 2.817646          6.305655
  33         V                 2.878203          6.139086
  34         V                 2.951420          6.226377
  35         V                 3.141364          6.820570
  36         V                 3.319501          6.402052
  37         V                23.352413         60.074512
  38         V                23.706087         60.203902
 Total kinetic energy from orbitals= 7.815464132581D+01
 Calling FoFJK, ICntrl=      2127 FMM=F ISym2X=0 I1Cent= 0 IOpClX= 0 NMat=1 NMatS=1 NMatT=0.
 -------------------------------------------------------------------
 Center     Atomic                   Forces (Hartrees/Bohr)
 Number     Number              X              Y              Z
 -------------------------------------------------------------------
      1        6           0.014562865    0.010219756   -0.004101381
      2        1          -0.010170645    0.004670618    0.002046033
      3        1           0.001985172   -0.005331627    0.001881613
      4        6           0.009984312    0.010992513   -0.004437892
      5        1           0.000722693   -0.014091742    0.002265692
      6        1          -0.017084398   -0.006459517    0.002345935
 -------------------------------------------------------------------
 Cartesian Forces:  Max     0.017084398 RMS     0.008440140

 GradGradGradGradGradGradGradGradGradGradGradGradGradGradGradGradGradGrad
 Berny optimization.
 Search for a local minimum.
 Step number   1 out of a maximum of    2
 All quantities printed in internal units (Hartrees-Bohrs-Radians)
 Second derivative matrix not updated -- first step.
 The second derivative matrix:
                          X1        Y1        Z1        X2        Y2
           X1           0.76317
           Y1           0.09558   0.85742
           Z1           0.00625   0.00909   0.17060
           X2          -0.16733   0.09819   0.00215   0.14477
           Y2           0.10384  -0.28173  -0.00767  -0.11736   0.27031
           Z2           0.00343  -0.00967  -0.05452  -0.00312   0.00791
           X3          -0.35392  -0.00056  -0.00867  -0.00013  -0.00007
           Y3          -0.00621  -0.11076  -0.00208   0.03227   0.01927
           Z3          -0.01106  -0.00200  -0.05624   0.00159   0.00062
           X4          -0.26724  -0.17859  -0.00077   0.02270   0.01358
           Y4          -0.17866  -0.47333  -0.00118  -0.01311  -0.00784
           Z4           0.00136   0.00254  -0.09445  -0.00061  -0.00085
           X5           0.02361  -0.01363   0.00065  -0.00001   0.00000
           Y5           0.01146  -0.00662   0.00089   0.00000  -0.00000
           Z5          -0.00054   0.00034   0.01781   0.00026  -0.00013
           X6           0.00170  -0.00098   0.00039  -0.00001   0.00000
           Y6          -0.02601   0.01502   0.00096   0.00000  -0.00000
           Z6           0.00056  -0.00030   0.01682  -0.00026   0.00013
                          Z2        X3        Y3        Z3        X4
           Z2           0.02844
           X3          -0.00031   0.35398
           Y3           0.00174   0.00067   0.07606
           Z3           0.01057   0.00945   0.00137   0.02948
           X4           0.00052   0.00008  -0.02673  -0.00051   0.71013
           Y4          -0.00028  -0.00005   0.01543   0.00032   0.12361
           Z4           0.01542  -0.00047  -0.00103   0.01629  -0.00519
           X5          -0.00027  -0.00001   0.00001   0.00027  -0.14411
           Y5           0.00017   0.00001  -0.00000  -0.00017   0.09099
           Z5           0.00927   0.00028  -0.00017  -0.00947  -0.00323
           X6          -0.00026  -0.00001   0.00000   0.00026  -0.32156
           Y6           0.00013   0.00000  -0.00000  -0.00014  -0.02285
           Z6          -0.00917  -0.00027   0.00017   0.00937   0.00918
                          Y4        Z4        X5        Y5        Z5
           Y4           0.86102
           Z4          -0.01042   0.17719
           X5           0.08238  -0.00215   0.12267
           Y5          -0.29104   0.00779  -0.10143   0.28182
           Z5           0.00961  -0.05782   0.00288  -0.00833   0.02999
           X6          -0.01417   0.00706  -0.00216  -0.00104   0.00036
           Y6          -0.10424   0.00197   0.03267   0.01584  -0.00132
           Z6           0.00195  -0.05663  -0.00139  -0.00035   0.01022
                          X6        Y6        Z6
           X6           0.32203
           Y6           0.01619   0.07338
           Z6          -0.00781  -0.00161   0.02939
 ITU=  0
     Eigenvalues ---    0.03733   0.04384   0.09223   0.10073   0.13526
     Eigenvalues ---    0.17454   0.26442   0.29072   0.52941   0.70035
     Eigenvalues ---    0.97655   1.56373
 Angle between quadratic step and forces=  35.52 degrees.
 Linear search not attempted -- first point.
 B after Tr=     0.007909    0.008536   -0.010475
         Rot=    1.000000   -0.000056    0.000032   -0.000111 Ang=  -0.01 deg.
 Variable       Old X    -DE/DX   Delta X   Delta X   Delta X     New X
                                 (Linear)    (Quad)   (Total)
    X1       -0.63638   0.01456   0.00000   0.02328   0.03142  -0.60496
    Y1       -1.10011   0.01022   0.00000   0.02517   0.03357  -1.06654
    Z1        0.01311  -0.00410   0.00000  -0.02244  -0.03307  -0.01997
    X2        0.42792  -0.01017   0.00000  -0.04466  -0.03611   0.39181
    Y2       -2.87684   0.00467   0.00000   0.01468   0.02330  -2.85354
    Z2       -0.04248   0.00205   0.00000   0.02737   0.01660  -0.02588
    X3       -2.68541   0.00199   0.00000   0.02767   0.03583  -2.64958
    Y3       -1.10533  -0.00533   0.00000  -0.01731  -0.00936  -1.11470
    Z3       -0.04654   0.00188   0.00000   0.02693   0.01616  -0.03038
    X4        0.62805   0.00998   0.00000   0.00945   0.01711   0.64517
    Y4        1.08952   0.01099   0.00000   0.01019   0.01887   1.10839
    Z4        0.00961  -0.00444   0.00000  -0.02091  -0.03122  -0.02160
    X5       -0.28478   0.00072   0.00000  -0.02254  -0.01528  -0.30005
    Y5        2.96648  -0.01409   0.00000  -0.04765  -0.03918   2.92730
    Z5       -0.05096   0.00227   0.00000   0.02622   0.01605  -0.03491
    X6        2.72533  -0.01708   0.00000  -0.04062  -0.03297   2.69236
    Y6        1.22571  -0.00646   0.00000  -0.03634  -0.02720   1.19851
    Z6       -0.04690   0.00235   0.00000   0.02565   0.01548  -0.03142
         Item               Value     Threshold  Converged?
 Maximum Force            0.017084     0.000450     NO 
 RMS     Force            0.008440     0.000300     NO 
 Maximum Displacement     0.039177     0.001800     NO 
 RMS     Displacement     0.026541     0.001200     NO 
 Predicted change in Energy=-1.733654D-03
 GradGradGradGradGradGradGradGradGradGradGradGradGradGradGradGradGradGrad

 Unable to Open any file for archive entry.
 1\1\GINC-BHD0004\Force\RwB97XD\6-311G\C2H4\BWEIGHT\11-Jan-2023\0\\# WB
 97XD/6-311G SCF=XQC FORCE nosym pop=full guess=read\\MD Step 999\\0,1\
 C,-0.3367591,-0.58215334,0.00693496\H,0.22644774,-1.52235881,-0.022480
 48\H,-1.42105608,-0.58491616,-0.02462646\C,0.33235197,0.57654967,0.005
 08655\H,-0.15069654,1.56979159,-0.02696684\H,1.4421809,0.64862038,-0.0
 2481755\\Version=ES64L-G16RevC.01\HF=-78.5554618\RMSD=6.033e-09\RMSF=8
 .440e-03\Dipole=0.0027952,0.0095744,-0.0401462\Quadrupole=0.8620704,0.
 8512684,-1.7133387,0.0124007,0.001216,-0.0028601\PG=C01 [X(C2H4)]\\@
 The archive entry for this job was punched.



 IN THIS SHORT LIFE

 THAT ONLY LASTS AN HOUR

 HOW MUCH, HOW LITTLE, IS WITHIN OUR POWER....


 EMILY DICKINSON BOLTS OF MELODY NO. 521
 Job cpu time:       0 days  0 hours  0 minutes 59.7 seconds.
 Elapsed time:       0 days  0 hours  0 minutes 21.2 seconds.
 File lengths (MBytes):  RWF=    272 Int=      0 D2E=      0 Chk=     32 Scr=     32
 Normal termination of Gaussian 16 at Wed Jan 11 18:31:44 2023.
