 Entering Gaussian System, Link 0=g16
 Initial command:
 /software/gaussian/g16-c01/avx2/g16/l1.exe "/gpfs/fs2/scratch/bweight/software/many_molecule_many_mode_NAMD/src/NAMD/TESTING/G16/GS_NEW/Gau-29725.inp" -scrdir="/gpfs/fs2/scratch/bweight/software/many_molecule_many_mode_NAMD/src/NAMD/TESTING/G16/GS_NEW/"
 Entering Link 1 = /software/gaussian/g16-c01/avx2/g16/l1.exe PID=     29727.
  
 Copyright (c) 1988-2019, Gaussian, Inc.  All Rights Reserved.
  
 This is part of the Gaussian(R) 16 program.  It is based on
 the Gaussian(R) 09 system (copyright 2009, Gaussian, Inc.),
 the Gaussian(R) 03 system (copyright 2003, Gaussian, Inc.),
 the Gaussian(R) 98 system (copyright 1998, Gaussian, Inc.),
 the Gaussian(R) 94 system (copyright 1995, Gaussian, Inc.),
 the Gaussian 92(TM) system (copyright 1992, Gaussian, Inc.),
 the Gaussian 90(TM) system (copyright 1990, Gaussian, Inc.),
 the Gaussian 88(TM) system (copyright 1988, Gaussian, Inc.),
 the Gaussian 86(TM) system (copyright 1986, Carnegie Mellon
 University), and the Gaussian 82(TM) system (copyright 1983,
 Carnegie Mellon University). Gaussian is a federally registered
 trademark of Gaussian, Inc.
  
 This software contains proprietary and confidential information,
 including trade secrets, belonging to Gaussian, Inc.
  
 This software is provided under written license and may be
 used, copied, transmitted, or stored only in accord with that
 written license.
  
 The following legend is applicable only to US Government
 contracts under FAR:
  
                    RESTRICTED RIGHTS LEGEND
  
 Use, reproduction and disclosure by the US Government is
 subject to restrictions as set forth in subparagraphs (a)
 and (c) of the Commercial Computer Software - Restricted
 Rights clause in FAR 52.227-19.
  
 Gaussian, Inc.
 340 Quinnipiac St., Bldg. 40, Wallingford CT 06492
  
  
 ---------------------------------------------------------------
 Warning -- This program may not be used in any manner that
 competes with the business of Gaussian, Inc. or will provide
 assistance to any competitor of Gaussian, Inc.  The licensee
 of this program is prohibited from giving any competitor of
 Gaussian, Inc. access to this program.  By using this program,
 the user acknowledges that Gaussian, Inc. is engaged in the
 business of creating and licensing software in the field of
 computational chemistry and represents and warrants to the
 licensee that it is not a competitor of Gaussian, Inc. and that
 it will not use this program in any manner prohibited above.
 ---------------------------------------------------------------
  

 Cite this work as:
 Gaussian 16, Revision C.01,
 M. J. Frisch, G. W. Trucks, H. B. Schlegel, G. E. Scuseria, 
 M. A. Robb, J. R. Cheeseman, G. Scalmani, V. Barone, 
 G. A. Petersson, H. Nakatsuji, X. Li, M. Caricato, A. V. Marenich, 
 J. Bloino, B. G. Janesko, R. Gomperts, B. Mennucci, H. P. Hratchian, 
 J. V. Ortiz, A. F. Izmaylov, J. L. Sonnenberg, D. Williams-Young, 
 F. Ding, F. Lipparini, F. Egidi, J. Goings, B. Peng, A. Petrone, 
 T. Henderson, D. Ranasinghe, V. G. Zakrzewski, J. Gao, N. Rega, 
 G. Zheng, W. Liang, M. Hada, M. Ehara, K. Toyota, R. Fukuda, 
 J. Hasegawa, M. Ishida, T. Nakajima, Y. Honda, O. Kitao, H. Nakai, 
 T. Vreven, K. Throssell, J. A. Montgomery, Jr., J. E. Peralta, 
 F. Ogliaro, M. J. Bearpark, J. J. Heyd, E. N. Brothers, K. N. Kudin, 
 V. N. Staroverov, T. A. Keith, R. Kobayashi, J. Normand, 
 K. Raghavachari, A. P. Rendell, J. C. Burant, S. S. Iyengar, 
 J. Tomasi, M. Cossi, J. M. Millam, M. Klene, C. Adamo, R. Cammi, 
 J. W. Ochterski, R. L. Martin, K. Morokuma, O. Farkas, 
 J. B. Foresman, and D. J. Fox, Gaussian, Inc., Wallingford CT, 2019.
 
 ******************************************
 Gaussian 16:  ES64L-G16RevC.01  3-Jul-2019
                30-Dec-2022 
 ******************************************
 %oldchk=../GS_OLD/geometry.chk
 %chk=geometry.chk
 %nprocshared=1
 Will use up to    1 processors via shared memory.
 %mem=5GB
 Copying data from "../GS_OLD/geometry.chk" to current chk file "geometry.chk"
 IOpt=  2 FromEx=T IUOpen= 4 IOptOp= 5 NList=   0 IFRang= 0 IUIn= 4 IUOut= 2.
 ------------------------------------------
 # BLYP/STO-3G SCF=XQC FORCE nosym pop=full
 ------------------------------------------
 1/10=7,30=1,38=1/1,3;
 2/12=2,15=1,17=6,18=5,40=1/2;
 3/6=3,11=2,25=1,30=1,71=1,74=402/1,2,3;
 4//1;
 5/5=2,8=3,13=1,38=5/2,8;
 6/7=3,28=1/1;
 7/29=1,30=1/1,2,3,16;
 1/10=7,30=1/3;
 99//99;
 -----------
 MD Step 709
 -----------
 Symbolic Z-matrix:
 Charge =  0 Multiplicity = 1
 C                     4.27239   5.31319   5.26077 
 C                     5.74537   5.34589   5.30934 
 C                     6.32978   6.65283   5.35661 
 C                     5.71621   7.91415   5.3535 
 C                     4.25176   7.8133    5.26674 
 C                     3.51855   6.57254   5.34524 
 H                     3.67995   4.4128    5.37665 
 H                     6.34535   4.6463    4.75659 
 H                     6.30145   8.85709   5.10709 
 H                     3.63554   8.69227   4.98101 
 N                     7.86443   6.5427    5.16166 
 H                     8.35787   6.03062   6.02991 
 H                     8.32099   6.01378   4.26919 
 N                     2.04331   6.67663   5.06595 
 H                     1.46871   5.75578   4.87866 
 H                     1.57754   7.07789   6.09082 
 

 GradGradGradGradGradGradGradGradGradGradGradGradGradGradGradGradGradGrad
 Berny optimization.
 Initialization pass.
 Trust Radius=3.00D-01 FncErr=1.00D-07 GrdErr=1.00D-07 EigMax=2.50D+02 EigMin=1.00D-04
 Number of steps in this run=      2 maximum allowed number of steps=      2.
 GradGradGradGradGradGradGradGradGradGradGradGradGradGradGradGradGradGrad

                          Input orientation:                          
 ---------------------------------------------------------------------
 Center     Atomic      Atomic             Coordinates (Angstroms)
 Number     Number       Type             X           Y           Z
 ---------------------------------------------------------------------
      1          6           0        4.272387    5.313189    5.260773
      2          6           0        5.745374    5.345889    5.309344
      3          6           0        6.329780    6.652829    5.356614
      4          6           0        5.716214    7.914150    5.353496
      5          6           0        4.251764    7.813299    5.266737
      6          6           0        3.518545    6.572541    5.345237
      7          1           0        3.679948    4.412801    5.376650
      8          1           0        6.345355    4.646304    4.756593
      9          1           0        6.301445    8.857094    5.107085
     10          1           0        3.635539    8.692265    4.981009
     11          7           0        7.864433    6.542700    5.161657
     12          1           0        8.357868    6.030619    6.029906
     13          1           0        8.320988    6.013778    4.269190
     14          7           0        2.043309    6.676631    5.065951
     15          1           0        1.468713    5.755782    4.878659
     16          1           0        1.577542    7.077885    6.090820
 ---------------------------------------------------------------------
                    Distance matrix (angstroms):
                    1          2          3          4          5
     1  C    0.000000
     2  C    1.474150   0.000000
     3  C    2.456967   1.432431   0.000000
     4  C    2.976278   2.568806   1.402641   0.000000
     5  C    2.500201   2.884579   2.381789   1.470481   0.000000
     6  C    1.470163   2.542584   2.812404   2.574827   1.443347
     7  H    1.084026   2.267415   3.469833   4.050477   3.449991
     8  H    2.235202   1.074676   2.094376   3.380965   3.830564
     9  H    4.086557   3.560713   2.218524   1.136818   2.305687
    10  H    3.449927   3.969564   3.399899   2.252425   1.110835
    11  N    3.797935   2.438150   1.550902   2.555879   3.831036
    12  H    4.218699   2.795208   2.225670   3.314145   4.540976
    13  H    4.226728   2.856883   2.357072   3.401762   4.559821
    14  N    2.620251   3.941497   4.296380   3.886434   2.491907
    15  H    2.863999   4.317793   4.966197   4.788036   3.482722
    16  H    3.326458   4.580540   4.827370   4.286210   2.893339
                    6          7          8          9         10
     6  C    0.000000
     7  H    2.165991   0.000000
     8  H    3.470986   2.746523   0.000000
     9  H    3.608383   5.166880   4.225579   0.000000
    10  H    2.153969   4.297944   4.874758   2.673970   0.000000
    11  N    4.349866   4.700277   2.463330   2.793264   4.747294
    12  H    4.917468   4.992696   2.754607   3.615167   5.521316
    13  H    4.953136   5.032777   2.451667   3.586791   5.443750
    14  N    1.505044   2.810702   4.767129   4.784123   2.570057
    15  H    2.255350   2.634608   5.002747   5.746792   3.650828
    16  H    2.139804   3.468837   5.515867   5.142818   2.841348
                   11         12         13         14         15
    11  N    0.000000
    12  H    1.122302   0.000000
    13  H    1.133446   1.761183   0.000000
    14  N    5.823451   6.420295   6.362661   0.000000
    15  H    6.450160   6.990090   6.884162   1.101454   0.000000
    16  H    6.377677   6.860998   7.065743   1.195116   1.796980
                   16
    16  H    0.000000
 Symmetry turned off by external request.
 Stoichiometry    C6H8N2
 Framework group  C1[X(C6H8N2)]
 Deg. of freedom    42
 Full point group                 C1      NOp   1
 Rotational constants (GHZ):           5.0148369           1.3712365           1.0943090
 Standard basis: STO-3G (5D, 7F)
    48 basis functions,   144 primitive gaussians,    48 cartesian basis functions
    29 alpha electrons       29 beta electrons
       nuclear repulsion energy       330.1464848375 Hartrees.
 NAtoms=   16 NActive=   16 NUniq=   16 SFac= 1.00D+00 NAtFMM=   60 NAOKFM=F Big=F
 Integral buffers will be    131072 words long.
 Raffenetti 2 integral format.
 Two-electron integral symmetry is turned off.
 One-electron integrals computed using PRISM.
 NBasis=    48 RedAO= T EigKep=  1.99D-01  NBF=    48
 NBsUse=    48 1.00D-06 EigRej= -1.00D+00 NBFU=    48
 ExpMin= 1.69D-01 ExpMax= 9.91D+01 ExpMxC= 9.91D+01 IAcc=3 IRadAn=         5 AccDes= 0.00D+00
 Harris functional with IExCor=  402 and IRadAn=       5 diagonalized for initial guess.
 HarFok:  IExCor=  402 AccDes= 0.00D+00 IRadAn=         5 IDoV= 1 UseB2=F ITyADJ=14
 ICtDFT=  3500011 ScaDFX=  1.000000  1.000000  1.000000  1.000000
 FoFCou: FMM=F IPFlag=           0 FMFlag=      100000 FMFlg1=           0
         NFxFlg=           0 DoJE=T BraDBF=F KetDBF=T FulRan=T
         wScrn=  0.000000 ICntrl=       500 IOpCl=  0 I1Cent=   200000004 NGrid=           0
         NMat0=    1 NMatS0=      1 NMatT0=    0 NMatD0=    1 NMtDS0=    0 NMtDT0=    0
 Symmetry not used in FoFCou.
 Keep J ints in memory in canonical form, NReq=1566317.
 Requested convergence on RMS density matrix=1.00D-08 within  32 cycles.
 Requested convergence on MAX density matrix=1.00D-06.
 Requested convergence on             energy=1.00D-06.
 No special actions if energy rises.
 Integral accuracy reduced to 1.0D-05 until final iterations.
 Initial convergence to 1.0D-05 achieved.  Increase integral accuracy.
 SCF Done:  E(RB-LYP) =  -338.368475041     A.U. after   16 cycles
            NFock= 16  Conv=0.55D-08     -V/T= 2.0181
 QCSCF skips out because SCF is already converged.

 **********************************************************************

            Population analysis using the SCF Density.

 **********************************************************************

 Alpha  occ. eigenvalues --  -13.83734 -13.76697  -9.77278  -9.76482  -9.74846
 Alpha  occ. eigenvalues --   -9.74017  -9.73637  -9.73360  -0.73940  -0.70851
 Alpha  occ. eigenvalues --   -0.65006  -0.60521  -0.56609  -0.49657  -0.45187
 Alpha  occ. eigenvalues --   -0.39155  -0.36224  -0.35181  -0.32098  -0.31700
 Alpha  occ. eigenvalues --   -0.30930  -0.30727  -0.25490  -0.24508  -0.23071
 Alpha  occ. eigenvalues --   -0.16039  -0.13962  -0.09400  -0.04139
 Alpha virt. eigenvalues --    0.03827   0.05939   0.15578   0.19616   0.21050
 Alpha virt. eigenvalues --    0.25275   0.30324   0.31313   0.33654   0.34862
 Alpha virt. eigenvalues --    0.37654   0.37846   0.40842   0.45211   0.48199
 Alpha virt. eigenvalues --    0.49540   0.55841   0.63803   0.65937
     Molecular Orbital Coefficients:
                           1         2         3         4         5
                           O         O         O         O         O
     Eigenvalues --   -13.83734 -13.76697  -9.77278  -9.76482  -9.74846
   1 1   C  1S         -0.00002   0.00001  -0.01398  -0.00094  -0.00098
   2        2S          0.00020  -0.00009  -0.00922   0.00037  -0.00019
   3        2PX        -0.00044  -0.00008   0.00319   0.00018  -0.00006
   4        2PY        -0.00009  -0.00008  -0.00545  -0.00012  -0.00008
   5        2PZ        -0.00010  -0.00001  -0.00025   0.00002  -0.00001
   6 2   C  1S          0.00000  -0.00000   0.00001  -0.01513   0.00017
   7        2S          0.00004   0.00044   0.00045  -0.00988   0.00003
   8        2PX        -0.00001   0.00017  -0.00017  -0.00237  -0.00029
   9        2PY        -0.00005   0.00007   0.00018  -0.00606   0.00006
  10        2PZ        -0.00001  -0.00005  -0.00003  -0.00011  -0.00002
  11 3   C  1S          0.00001   0.00057  -0.00434   0.98994   0.02809
  12        2S         -0.00002  -0.00536  -0.00045   0.04377  -0.00882
  13        2PX         0.00006  -0.00513   0.00027  -0.00168   0.00289
  14        2PY        -0.00000   0.00061  -0.00002   0.00010  -0.00615
  15        2PZ        -0.00001   0.00075  -0.00002  -0.00063   0.00012
  16 4   C  1S          0.00000  -0.00001   0.00057  -0.02674   0.98789
  17        2S          0.00001   0.00019   0.00052  -0.01077   0.04460
  18        2PX         0.00001   0.00034  -0.00017  -0.00276  -0.00087
  19        2PY         0.00003   0.00018  -0.00030   0.00601  -0.00247
  20        2PZ        -0.00001  -0.00009  -0.00002   0.00009  -0.00130
  21 5   C  1S         -0.00001   0.00001  -0.01504  -0.00197  -0.06367
  22        2S          0.00031  -0.00003  -0.00992   0.00029  -0.01152
  23        2PX        -0.00036  -0.00004   0.00329   0.00016  -0.00636
  24        2PY         0.00015   0.00009   0.00571   0.00036  -0.00029
  25        2PZ        -0.00006  -0.00001  -0.00022   0.00001  -0.00024
  26 6   C  1S          0.00059   0.00000   0.99026   0.00439  -0.00157
  27        2S         -0.00590   0.00001   0.04301   0.00013   0.00079
  28        2PX         0.00549  -0.00003   0.00169  -0.00029   0.00048
  29        2PY        -0.00018   0.00000   0.00070   0.00005   0.00033
  30        2PZ         0.00109  -0.00001  -0.00149  -0.00003  -0.00004
  31 7   H  1S         -0.00004  -0.00002   0.00018  -0.00013  -0.00000
  32 8   H  1S         -0.00002  -0.00019  -0.00005   0.00019  -0.00001
  33 9   H  1S         -0.00001  -0.00025  -0.00003   0.00031  -0.00883
  34 10  H  1S         -0.00033  -0.00002   0.00025  -0.00016   0.00072
  35 11  N  1S         -0.00002   0.99249   0.00000   0.00084   0.00001
  36        2S         -0.00001   0.03438  -0.00001  -0.00595   0.00014
  37        2PX         0.00001  -0.00084   0.00001   0.00494  -0.00005
  38        2PY        -0.00000  -0.00362  -0.00000  -0.00059   0.00008
  39        2PZ        -0.00000   0.00044  -0.00000  -0.00052   0.00000
  40 12  H  1S          0.00000  -0.00727   0.00000  -0.00049  -0.00004
  41 13  H  1S          0.00000  -0.00710   0.00000  -0.00030  -0.00002
  42 14  N  1S          0.99249   0.00002   0.00083   0.00001   0.00001
  43        2S          0.03448  -0.00001  -0.00636  -0.00010  -0.00004
  44        2PX         0.00087  -0.00001  -0.00509  -0.00008  -0.00004
  45        2PY        -0.00290   0.00000   0.00038   0.00001  -0.00006
  46        2PZ         0.00300  -0.00000  -0.00061  -0.00002   0.00000
  47 15  H  1S         -0.00756  -0.00000  -0.00029   0.00000  -0.00001
  48 16  H  1S         -0.00637  -0.00000  -0.00076  -0.00000  -0.00001
                           6         7         8         9        10
                           O         O         O         O         O
     Eigenvalues --    -9.74017  -9.73637  -9.73360  -0.73940  -0.70851
   1 1   C  1S         -0.00725   0.97049   0.19709  -0.05891  -0.03061
   2        2S         -0.00015   0.04468   0.00032   0.15094   0.07874
   3        2PX         0.00003   0.00101  -0.00629  -0.01801   0.04139
   4        2PY        -0.00004   0.00067  -0.00017   0.03888   0.00695
   5        2PZ         0.00002   0.00110   0.00022   0.00441   0.00260
   6 2   C  1S         -0.00329  -0.19555   0.97071  -0.03913  -0.08585
   7        2S         -0.00014  -0.01710   0.04227   0.09961   0.22033
   8        2PX         0.00007   0.00612   0.00118  -0.01139   0.02617
   9        2PY        -0.00014  -0.00034   0.00198   0.02182   0.05726
  10        2PZ         0.00001   0.00066  -0.00269  -0.00447  -0.01179
  11 3   C  1S          0.00379  -0.00234   0.01657  -0.04563  -0.13674
  12        2S         -0.00032   0.00198  -0.00863   0.11516   0.35438
  13        2PX         0.00036  -0.00053   0.00276  -0.01320   0.01679
  14        2PY        -0.00029  -0.00132   0.00600  -0.00194  -0.01510
  15        2PZ         0.00003  -0.00008   0.00041  -0.00260  -0.01090
  16 4   C  1S          0.06519   0.00151  -0.00009  -0.03898  -0.07766
  17        2S         -0.00557  -0.00005   0.00007   0.10026   0.20183
  18        2PX         0.00614   0.00017  -0.00026  -0.01500   0.01459
  19        2PY         0.00040   0.00012  -0.00012  -0.02567  -0.06240
  20        2PZ         0.00031   0.00001  -0.00002  -0.00265  -0.00496
  21 5   C  1S          0.98823   0.00621   0.00463  -0.06301  -0.03075
  22        2S          0.04321   0.00040   0.00005   0.15965   0.07845
  23        2PX        -0.00055   0.00006  -0.00011  -0.01785   0.04244
  24        2PY        -0.00092  -0.00004   0.00013  -0.04205  -0.00542
  25        2PZ        -0.00050   0.00000  -0.00001   0.00207   0.00224
  26 6   C  1S          0.01647   0.01538   0.00323  -0.12459   0.01334
  27        2S         -0.00839  -0.00807  -0.00139   0.32075  -0.03470
  28        2PX        -0.00330  -0.00329  -0.00049  -0.05492   0.06988
  29        2PY        -0.00556   0.00536   0.00105   0.00639  -0.00073
  30        2PZ         0.00038   0.00031   0.00004  -0.01670   0.00478
  31 7   H  1S         -0.00006  -0.00957  -0.00191   0.03246   0.01098
  32 8   H  1S         -0.00002   0.00201  -0.00984   0.01976   0.05573
  33 9   H  1S         -0.00049  -0.00005  -0.00001   0.01528   0.03645
  34 10  H  1S         -0.00938  -0.00014  -0.00010   0.03216   0.00951
  35 11  N  1S          0.00002   0.00001   0.00003  -0.02692  -0.13314
  36        2S         -0.00011  -0.00014   0.00016   0.08871   0.44453
  37        2PX         0.00009   0.00010  -0.00004  -0.01604  -0.05868
  38        2PY        -0.00005   0.00004   0.00007  -0.01387  -0.07445
  39        2PZ        -0.00003  -0.00002   0.00002   0.00247   0.01056
  40 12  H  1S         -0.00001   0.00001  -0.00015   0.01544   0.08463
  41 13  H  1S         -0.00001  -0.00003   0.00010   0.01477   0.08183
  42 14  N  1S          0.00000  -0.00001   0.00000  -0.17312   0.08523
  43        2S          0.00023   0.00017   0.00001   0.58650  -0.29286
  44        2PX         0.00008   0.00005  -0.00002   0.05238  -0.00887
  45        2PY         0.00005  -0.00024  -0.00002  -0.08042   0.04250
  46        2PZ         0.00001   0.00000  -0.00000   0.08636  -0.04284
  47 15  H  1S         -0.00007  -0.00008  -0.00005   0.11495  -0.06412
  48 16  H  1S         -0.00006  -0.00002  -0.00001   0.09431  -0.05133
                          11        12        13        14        15
                           O         O         O         O         O
     Eigenvalues --    -0.65006  -0.60521  -0.56609  -0.49657  -0.45187
   1 1   C  1S          0.07719  -0.13789  -0.05319  -0.11069   0.05077
   2        2S         -0.20575   0.38174   0.15305   0.33031  -0.15835
   3        2PX        -0.01614   0.04090  -0.09392  -0.14305  -0.08554
   4        2PY        -0.03654  -0.00883   0.05135  -0.02881   0.17224
   5        2PZ        -0.00717   0.01133   0.00766   0.02108   0.00163
   6 2   C  1S          0.04410  -0.12809   0.08232   0.10287   0.04742
   7        2S         -0.11851   0.35152  -0.23381  -0.30095  -0.14789
   8        2PX         0.06221  -0.05604  -0.05554  -0.13199   0.07634
   9        2PY        -0.01580  -0.01191  -0.05335  -0.00987   0.17441
  10        2PZ         0.00326  -0.02734   0.01675   0.04573   0.04609
  11 3   C  1S          0.00568   0.01639   0.10453  -0.00210  -0.10902
  12        2S         -0.00935  -0.04491  -0.29308   0.00757   0.34004
  13        2PX         0.12820  -0.00142   0.09458   0.00964  -0.01103
  14        2PY        -0.03468  -0.15186  -0.00824   0.21967   0.01515
  15        2PZ        -0.00758  -0.00278  -0.00008   0.01010   0.01202
  16 4   C  1S          0.07797   0.12742   0.07163  -0.08944   0.05045
  17        2S         -0.20726  -0.35130  -0.20219   0.26158  -0.16161
  18        2PX         0.06002   0.03687  -0.07681   0.10788   0.13691
  19        2PY         0.02836   0.01381   0.06541  -0.01134  -0.18700
  20        2PZ         0.00559   0.01247   0.00333  -0.00752   0.02696
  21 5   C  1S          0.09919   0.10348  -0.08581   0.09166   0.06882
  22        2S         -0.26448  -0.28563   0.24501  -0.27256  -0.21721
  23        2PX        -0.03220  -0.05525  -0.10096   0.12563  -0.10486
  24        2PY         0.03662  -0.02546  -0.05846  -0.00067  -0.19280
  25        2PZ        -0.00375  -0.00062  -0.00191   0.01035   0.01893
  26 6   C  1S          0.05893  -0.01532  -0.11731   0.00240  -0.10345
  27        2S         -0.16096   0.04314   0.33994  -0.00664   0.32872
  28        2PX        -0.11024   0.02006   0.08275   0.01143  -0.00745
  29        2PY        -0.01185  -0.12403   0.03002  -0.22482   0.00192
  30        2PZ         0.00127  -0.00150  -0.00964   0.00218  -0.01011
  31 7   H  1S         -0.04394   0.11234   0.05040   0.18069  -0.12600
  32 8   H  1S         -0.01214   0.10614  -0.07191  -0.16289  -0.12579
  33 9   H  1S         -0.03640  -0.08949  -0.05358   0.11482  -0.11222
  34 10  H  1S         -0.05243  -0.07832   0.07528  -0.13226  -0.13940
  35 11  N  1S         -0.14252   0.01423  -0.09004  -0.02020   0.02535
  36        2S          0.48974  -0.05024   0.32454   0.07515  -0.09722
  37        2PX        -0.01094   0.00364   0.06578   0.01172  -0.11761
  38        2PY        -0.09587  -0.00760  -0.08152   0.02251   0.06361
  39        2PZ         0.00696  -0.00213  -0.00267   0.00378   0.02303
  40 12  H  1S          0.11242  -0.00862   0.10177   0.01736  -0.06572
  41 13  H  1S          0.11084  -0.00760   0.10435   0.01363  -0.08794
  42 14  N  1S         -0.07992   0.01305   0.06680   0.00458   0.02172
  43        2S          0.28322  -0.04647  -0.24919  -0.01627  -0.08614
  44        2PX        -0.03027   0.00527   0.10420  -0.02302   0.16419
  45        2PY        -0.04822  -0.01213   0.06085  -0.06968   0.04944
  46        2PZ         0.04071  -0.00975  -0.03335  -0.01849  -0.00188
  47 15  H  1S          0.07889  -0.00488  -0.10866   0.04256  -0.11464
  48 16  H  1S          0.05902  -0.01614  -0.06979  -0.02512  -0.05210
                          16        17        18        19        20
                           O         O         O         O         O
     Eigenvalues --    -0.39155  -0.36224  -0.35181  -0.32098  -0.31700
   1 1   C  1S          0.00704  -0.03851  -0.02745  -0.01983  -0.01476
   2        2S         -0.01726   0.13210   0.09527   0.06836   0.05048
   3        2PX        -0.10371  -0.13492   0.20870   0.12811   0.23494
   4        2PY        -0.14299  -0.21786  -0.13188   0.22267   0.02522
   5        2PZ        -0.01830   0.03605   0.05012   0.04733  -0.05615
   6 2   C  1S         -0.01582   0.04401  -0.00420  -0.02171  -0.00179
   7        2S          0.05815  -0.14693   0.01534   0.07331   0.01130
   8        2PX         0.13817   0.02376  -0.23841  -0.12435  -0.21121
   9        2PY        -0.16356   0.11475  -0.02246   0.21060  -0.15570
  10        2PZ        -0.07362   0.08625   0.06084   0.14423  -0.06397
  11 3   C  1S         -0.00636  -0.08550  -0.00013   0.00719   0.00322
  12        2S          0.02617   0.30119  -0.00175  -0.01449  -0.00402
  13        2PX         0.16580   0.12196  -0.07690   0.08074   0.13163
  14        2PY         0.04348  -0.04585   0.15451  -0.20475   0.24414
  15        2PZ        -0.03401   0.03675   0.04612   0.10248  -0.06563
  16 4   C  1S         -0.03111   0.06371  -0.00168   0.00654   0.02135
  17        2S          0.11202  -0.21479  -0.00121  -0.01107  -0.07852
  18        2PX         0.20054  -0.02430   0.08026   0.09780   0.29997
  19        2PY         0.17387  -0.11556  -0.12118   0.33505  -0.02235
  20        2PZ        -0.03857   0.02842   0.03925  -0.01166  -0.04364
  21 5   C  1S          0.03032  -0.05993   0.01371   0.01820  -0.00583
  22        2S         -0.09487   0.20545  -0.05046  -0.06033   0.01769
  23        2PX        -0.14256  -0.13962  -0.08165  -0.07978  -0.28776
  24        2PY         0.10601   0.18524  -0.05796   0.14676  -0.11837
  25        2PZ        -0.03499  -0.03910   0.04970  -0.02251  -0.06255
  26 6   C  1S         -0.03896   0.06038   0.03004  -0.00596  -0.00286
  27        2S          0.14281  -0.21390  -0.10321   0.02098  -0.00190
  28        2PX        -0.24655  -0.00732  -0.04101   0.05111   0.17992
  29        2PY         0.02944   0.02739   0.19872  -0.09743   0.19018
  30        2PZ        -0.02758   0.01112   0.11564   0.02799  -0.08470
  31 7   H  1S          0.10737   0.27177   0.04232  -0.19111  -0.10909
  32 8   H  1S          0.18168  -0.16835  -0.11291  -0.22448   0.02029
  33 9   H  1S          0.21398  -0.18635  -0.04995   0.27517   0.08403
  34 10  H  1S          0.07458   0.26484  -0.02026   0.11242   0.07149
  35 11  N  1S          0.01461   0.00497  -0.01148  -0.00140  -0.01559
  36        2S         -0.05899  -0.01910   0.04550   0.00574   0.06433
  37        2PX        -0.12540  -0.21226   0.08311  -0.04209  -0.09847
  38        2PY         0.06259   0.07927   0.00810   0.01020   0.11000
  39        2PZ         0.00418   0.09173   0.01624   0.24129  -0.06177
  40 12  H  1S         -0.07330  -0.05234   0.05273   0.14704  -0.09958
  41 13  H  1S         -0.07209  -0.16569   0.02781  -0.20059  -0.00438
  42 14  N  1S          0.00970   0.00398  -0.01146   0.00154  -0.00067
  43        2S         -0.04162  -0.01855   0.05133  -0.00470  -0.00147
  44        2PX         0.29469  -0.11496  -0.00981  -0.04845  -0.16860
  45        2PY         0.13017  -0.02433   0.33535   0.02827  -0.12127
  46        2PZ         0.04063  -0.02044   0.29308   0.04642  -0.18864
  47 15  H  1S         -0.22366   0.08064  -0.27172  -0.01777   0.22503
  48 16  H  1S         -0.03602   0.01499   0.32962   0.06243  -0.12070
                          21        22        23        24        25
                           O         O         O         O         O
     Eigenvalues --    -0.30930  -0.30727  -0.25490  -0.24508  -0.23071
   1 1   C  1S          0.01720   0.00544   0.02663   0.01055   0.00805
   2        2S         -0.05978  -0.01876  -0.09577  -0.03975  -0.03049
   3        2PX        -0.02533   0.17407  -0.04391  -0.24079   0.06661
   4        2PY        -0.07877  -0.10189  -0.27406   0.09954   0.10855
   5        2PZ         0.00894  -0.03551   0.14195   0.01213   0.25404
   6 2   C  1S         -0.00464  -0.02541  -0.01471  -0.00049  -0.02190
   7        2S          0.02155   0.08957   0.05085   0.00426   0.08884
   8        2PX         0.08154  -0.19306   0.09801   0.21537  -0.04197
   9        2PY        -0.22401   0.08009   0.15634   0.03063  -0.18078
  10        2PZ        -0.00356   0.07438   0.19498  -0.03700   0.18970
  11 3   C  1S          0.01951  -0.00789  -0.00403  -0.01891   0.00312
  12        2S         -0.06833   0.01674   0.00971   0.03895  -0.00437
  13        2PX         0.07134  -0.21610  -0.08658  -0.29845   0.08685
  14        2PY         0.10887   0.06209  -0.22087   0.10113   0.13779
  15        2PZ         0.17800   0.08091   0.11841   0.06330   0.24493
  16 4   C  1S         -0.01493  -0.00835  -0.00734  -0.00090  -0.00673
  17        2S          0.05174   0.02243   0.03994  -0.00240   0.02369
  18        2PX        -0.02531   0.00559   0.09182   0.30366   0.00961
  19        2PY        -0.07615  -0.12421   0.18709  -0.12092  -0.04488
  20        2PZ         0.10185   0.02055   0.08703   0.01757   0.31185
  21 5   C  1S         -0.01079   0.01589  -0.00489   0.02082  -0.00200
  22        2S          0.03560  -0.05491   0.01397  -0.07427   0.01530
  23        2PX         0.04848  -0.03519  -0.12118  -0.29968  -0.02499
  24        2PY        -0.16804   0.13603  -0.26211   0.11557   0.19147
  25        2PZ         0.08468  -0.08042   0.16117  -0.06155   0.29127
  26 6   C  1S         -0.01574   0.02313  -0.01027  -0.00982  -0.02164
  27        2S          0.05421  -0.06641   0.03337   0.02289   0.09134
  28        2PX         0.05654  -0.29945   0.02824   0.10398  -0.09162
  29        2PY         0.08890   0.03894   0.32444  -0.11257  -0.14476
  30        2PZ         0.02790  -0.16277   0.11159   0.04568   0.32140
  31 7   H  1S          0.04109  -0.01820   0.25179   0.03185  -0.15657
  32 8   H  1S          0.17920  -0.13980  -0.12457   0.15034   0.08135
  33 9   H  1S         -0.06003  -0.08085   0.23063   0.05697  -0.10048
  34 10  H  1S         -0.14544   0.10400  -0.19293   0.25747   0.10843
  35 11  N  1S          0.00194   0.00225   0.01732   0.03871  -0.00876
  36        2S         -0.00963  -0.01247  -0.07511  -0.17481   0.03872
  37        2PX         0.01668   0.21301   0.09094   0.34807  -0.05425
  38        2PY         0.01018  -0.05529  -0.08371  -0.11980   0.05623
  39        2PZ         0.46937   0.08616  -0.10564   0.02997  -0.13137
  40 12  H  1S          0.33930   0.16610  -0.03814   0.18757  -0.15178
  41 13  H  1S         -0.34293   0.02830   0.13205   0.12468   0.10255
  42 14  N  1S          0.00306  -0.02566   0.00339   0.02697   0.01759
  43        2S         -0.01454   0.10867  -0.01983  -0.12164  -0.07656
  44        2PX        -0.03708   0.34762  -0.03306  -0.17982   0.07406
  45        2PY        -0.05084  -0.09742  -0.07214  -0.00557  -0.17147
  46        2PZ        -0.03954  -0.22878  -0.10867   0.06313   0.04748
  47 15  H  1S          0.06567  -0.01383   0.13106   0.05813   0.05873
  48 16  H  1S         -0.03996  -0.31432  -0.12081   0.10329  -0.09507
                          26        27        28        29        30
                           O         O         O         O         V
     Eigenvalues --    -0.16039  -0.13962  -0.09400  -0.04139   0.03827
   1 1   C  1S          0.01992   0.01843   0.01248   0.01820  -0.01045
   2        2S         -0.08164  -0.07498  -0.05216  -0.08240   0.05921
   3        2PX         0.07228  -0.02231   0.04903  -0.09187  -0.07589
   4        2PY        -0.07112   0.01987  -0.08516  -0.00152  -0.00350
   5        2PZ         0.20644   0.44382  -0.28916  -0.01194  -0.53703
   6 2   C  1S         -0.00067  -0.02834  -0.01196  -0.03245  -0.03599
   7        2S         -0.00148   0.12512   0.05455   0.14011   0.18902
   8        2PX        -0.08168   0.08726  -0.01983   0.07828   0.10654
   9        2PY         0.06735  -0.20387  -0.03782   0.09724  -0.19711
  10        2PZ        -0.15130   0.48280   0.11111   0.00594   0.53281
  11 3   C  1S          0.00023   0.01003  -0.00247   0.01409  -0.00334
  12        2S         -0.00668  -0.03958   0.01507  -0.05621   0.01255
  13        2PX        -0.07133   0.03788   0.03835  -0.12582   0.01128
  14        2PY         0.00687   0.05411  -0.02314  -0.01855   0.04360
  15        2PZ        -0.42209   0.07614   0.27858   0.02153  -0.11442
  16 4   C  1S          0.01284   0.00309   0.00161   0.01898   0.00954
  17        2S         -0.05705  -0.01743  -0.00493  -0.08728  -0.05047
  18        2PX         0.00396  -0.01437   0.00623  -0.04366   0.01417
  19        2PY        -0.04581  -0.08397   0.01817   0.05810  -0.08857
  20        2PZ        -0.36852  -0.37480   0.04741   0.00245  -0.44727
  21 5   C  1S         -0.00607   0.00167  -0.01488  -0.00493  -0.01157
  22        2S          0.02740  -0.01269   0.06278   0.02316   0.05933
  23        2PX        -0.02974   0.08278   0.00436   0.01584  -0.05176
  24        2PY         0.00302  -0.07650  -0.10401  -0.00687   0.10950
  25        2PZ         0.05643  -0.43179  -0.27050   0.01179   0.55078
  26 6   C  1S         -0.02152  -0.00602  -0.01213   0.00072  -0.00305
  27        2S          0.09236   0.02365   0.04507  -0.00434   0.01530
  28        2PX        -0.13787   0.04914  -0.07418   0.00003  -0.01767
  29        2PY         0.03624  -0.04596   0.03135   0.00099  -0.03375
  30        2PZ         0.42940  -0.05610  -0.21696  -0.01770  -0.04590
  31 7   H  1S          0.01855  -0.02120   0.00035   0.05403  -0.08695
  32 8   H  1S         -0.03548   0.03632  -0.04875   0.01900  -0.13692
  33 9   H  1S          0.01594  -0.01881   0.01581   0.03636   0.00900
  34 10  H  1S         -0.00345   0.00259  -0.03802  -0.01657  -0.03607
  35 11  N  1S         -0.00298   0.00034  -0.00007  -0.08114   0.00903
  36        2S          0.01310  -0.00177   0.00012   0.38300  -0.04815
  37        2PX         0.02519  -0.00532  -0.00659   0.34530   0.03220
  38        2PY         0.00989   0.01141   0.00402   0.83730  -0.00919
  39        2PZ         0.09237  -0.02732  -0.03435  -0.01548  -0.02320
  40 12  H  1S          0.12737  -0.02633  -0.06897  -0.10434   0.04489
  41 13  H  1S         -0.12001   0.02555   0.06484  -0.12024  -0.00058
  42 14  N  1S          0.04389  -0.01151   0.08303   0.00085   0.00633
  43        2S         -0.20301   0.05542  -0.39986  -0.00482  -0.03649
  44        2PX         0.09440  -0.01894   0.10448  -0.00745  -0.03475
  45        2PY        -0.31555   0.06585  -0.46617   0.01002   0.02118
  46        2PZ         0.22704  -0.04911   0.53095  -0.00507  -0.03912
  47 15  H  1S          0.12608  -0.03342   0.12222  -0.00151   0.00121
  48 16  H  1S         -0.07535   0.00675   0.16223   0.00858   0.03904
                          31        32        33        34        35
                           V         V         V         V         V
     Eigenvalues --     0.05939   0.15578   0.19616   0.21050   0.25275
   1 1   C  1S         -0.01111   0.00781  -0.02465   0.02036  -0.01196
   2        2S          0.05723  -0.02844   0.12404  -0.11139   0.07097
   3        2PX         0.02773  -0.04983   0.01210  -0.09245  -0.08137
   4        2PY        -0.03260  -0.08371   0.07630   0.04859   0.11060
   5        2PZ        -0.36845  -0.39885  -0.03700  -0.02141   0.14411
   6 2   C  1S          0.02308  -0.04421   0.01272   0.00469   0.00058
   7        2S         -0.11587   0.24253  -0.06507  -0.03564  -0.00737
   8        2PX        -0.04079   0.08949   0.11477  -0.08733  -0.07449
   9        2PY         0.04506  -0.13613   0.02036  -0.00179   0.04204
  10        2PZ        -0.21344   0.31825   0.06721   0.02338  -0.04209
  11 3   C  1S         -0.02120   0.03019   0.00257   0.08301  -0.00114
  12        2S          0.10592  -0.15399  -0.01879  -0.42142   0.01000
  13        2PX         0.05871  -0.06406   0.05882  -0.58552  -0.04155
  14        2PY        -0.02116  -0.03314   0.00751  -0.04700   0.04064
  15        2PZ         0.60885  -0.44294  -0.05982   0.16140   0.07309
  16 4   C  1S          0.01857  -0.04762   0.02469   0.00141  -0.04004
  17        2S         -0.09402   0.25396  -0.13129  -0.02344   0.22303
  18        2PX        -0.04747   0.00767   0.11901  -0.07406  -0.13640
  19        2PY        -0.02284   0.04416  -0.04204  -0.22504   0.10128
  20        2PZ        -0.38599   0.49116   0.04502  -0.05802  -0.12507
  21 5   C  1S          0.00672   0.03382  -0.03208   0.02798   0.02784
  22        2S         -0.03492  -0.17603   0.16469  -0.15301  -0.14880
  23        2PX         0.08635   0.01742   0.04102  -0.10434  -0.14591
  24        2PY        -0.00308  -0.05972  -0.11347  -0.10589   0.23486
  25        2PZ        -0.23929  -0.48476   0.03523   0.07615   0.08985
  26 6   C  1S         -0.01964  -0.04763   0.08072   0.01987  -0.05189
  27        2S          0.10727   0.24966  -0.42517  -0.10955   0.26806
  28        2PX        -0.06160  -0.11750   0.32820   0.01986  -0.31156
  29        2PY         0.02434   0.00313  -0.02461  -0.03646   0.18962
  30        2PZ         0.60651   0.43367   0.01116  -0.01104  -0.29088
  31 7   H  1S         -0.02665  -0.07563   0.04922   0.07411  -0.03310
  32 8   H  1S          0.04841  -0.21812   0.02637   0.16019   0.07728
  33 9   H  1S          0.04623  -0.13459   0.07589   0.29735  -0.18579
  34 10  H  1S          0.01153   0.07021   0.08137   0.17807  -0.21285
  35 11  N  1S          0.00682  -0.02145   0.01380  -0.16098  -0.01141
  36        2S         -0.03761   0.12215  -0.07970   0.94722   0.06727
  37        2PX         0.01898  -0.02094   0.02442  -0.26589  -0.01353
  38        2PY         0.01970  -0.03325   0.02910  -0.32809  -0.02607
  39        2PZ         0.03134  -0.10085  -0.00909  -0.06695   0.03815
  40 12  H  1S         -0.12125   0.07382   0.05386  -0.44752  -0.07289
  41 13  H  1S          0.15098  -0.20532   0.03127  -0.60825  -0.00497
  42 14  N  1S         -0.02174   0.00698  -0.15440  -0.01079   0.04645
  43        2S          0.11376  -0.04463   0.92493   0.06630  -0.29286
  44        2PX        -0.08481  -0.18802  -0.06394   0.02852  -0.31653
  45        2PY         0.14488   0.16776  -0.15342  -0.02542   0.57331
  46        2PZ        -0.11215  -0.01098   0.56956   0.02630   0.49748
  47 15  H  1S          0.01309   0.09552  -0.51119  -0.04316   0.60896
  48 16  H  1S         -0.20025  -0.19173  -0.80075  -0.02618  -0.59342
                          36        37        38        39        40
                           V         V         V         V         V
     Eigenvalues --     0.30324   0.31313   0.33654   0.34862   0.37654
   1 1   C  1S         -0.03805   0.05483   0.02617   0.02168  -0.16974
   2        2S          0.20806  -0.31267  -0.15084  -0.13654   1.02582
   3        2PX         0.08623  -0.10281  -0.03011  -0.05202  -0.27878
   4        2PY         0.36695  -0.15450  -0.04610   0.27106  -0.00610
   5        2PZ        -0.10986  -0.00620  -0.03263  -0.09047   0.04376
   6 2   C  1S          0.03557   0.01062  -0.01814  -0.00460   0.05324
   7        2S         -0.20641  -0.06678   0.10555   0.01113  -0.31242
   8        2PX         0.14916  -0.31799  -0.04756  -0.11307   0.15677
   9        2PY         0.16275  -0.16163  -0.08887   0.33139   0.13049
  10        2PZ         0.18331   0.02635   0.06042   0.19758   0.12487
  11 3   C  1S          0.03539  -0.03098   0.00422   0.08566   0.01387
  12        2S         -0.20053   0.20141  -0.02370  -0.47441  -0.09259
  13        2PX        -0.00655  -0.33033  -0.03612  -0.28379  -0.11726
  14        2PY         0.06433  -0.00261  -0.03291   0.12832  -0.01042
  15        2PZ        -0.04404  -0.00200  -0.23385   0.00901  -0.07050
  16 4   C  1S          0.00993   0.10414   0.02406  -0.10140   0.03183
  17        2S         -0.06192  -0.61403  -0.14475   0.59395  -0.18192
  18        2PX        -0.00606  -0.30488  -0.05248  -0.07188   0.02764
  19        2PY        -0.09096  -0.20274  -0.13976   0.26327  -0.16533
  20        2PZ         0.05105   0.12767   0.12810  -0.10179   0.11418
  21 5   C  1S          0.03620   0.00237   0.01386   0.05028  -0.12357
  22        2S         -0.21719  -0.01709  -0.08393  -0.28933   0.74166
  23        2PX         0.16448   0.06565   0.09182  -0.30985  -0.29841
  24        2PY        -0.10253  -0.14484  -0.15310   0.16038   0.02360
  25        2PZ        -0.01014   0.03069   0.02030  -0.05594  -0.16693
  26 6   C  1S          0.09474  -0.04059  -0.00420  -0.00728   0.12129
  27        2S         -0.52693   0.22483   0.02211   0.03678  -0.71219
  28        2PX         0.32661  -0.17996   0.01392  -0.02364  -0.40287
  29        2PY         0.24029  -0.21630  -0.10626   0.25708   0.10807
  30        2PZ         0.16885  -0.07376   0.00455   0.04446   0.11181
  31 7   H  1S          0.24735  -0.02480   0.02474   0.30715  -0.70273
  32 8   H  1S          0.24920   0.09874  -0.09183   0.36202   0.23619
  33 9   H  1S          0.11223   0.68195   0.23686  -0.50120   0.23617
  34 10  H  1S          0.28523   0.16623   0.22275  -0.14048  -0.60144
  35 11  N  1S          0.02142   0.05446  -0.00854   0.00319  -0.00473
  36        2S         -0.13384  -0.34362   0.05400  -0.03354   0.02850
  37        2PX        -0.20225  -0.50027   0.03591  -0.55203  -0.09826
  38        2PY         0.13226   0.30752  -0.01917   0.21837   0.04434
  39        2PZ        -0.06683  -0.13821   0.93274   0.22858   0.11164
  40 12  H  1S          0.23909   0.57390  -0.73754   0.13086  -0.04006
  41 13  H  1S          0.10015   0.30427   0.66493   0.40735   0.09367
  42 14  N  1S          0.00930   0.01512   0.00554  -0.01773   0.00262
  43        2S         -0.07369  -0.09155  -0.03617   0.12009  -0.02115
  44        2PX         0.74369  -0.24124   0.03830  -0.17261   0.04556
  45        2PY         0.32107   0.07789   0.09225  -0.29173  -0.03477
  46        2PZ         0.11970   0.02680   0.03418  -0.11038  -0.07135
  47 15  H  1S          0.65398  -0.01521   0.10150  -0.36027   0.00758
  48 16  H  1S          0.05266  -0.08724  -0.03010   0.06690   0.06927
                          41        42        43        44        45
                           V         V         V         V         V
     Eigenvalues --     0.37846   0.40842   0.45211   0.48199   0.49540
   1 1   C  1S          0.11718   0.03358  -0.02830  -0.00756   0.03027
   2        2S         -0.71181  -0.21793   0.17091   0.03813  -0.19228
   3        2PX        -0.22563   0.14972   0.60434  -0.36109  -0.32340
   4        2PY         0.31101   0.21493  -0.02518   0.67789  -0.33150
   5        2PZ        -0.06858  -0.12805  -0.03843  -0.01009  -0.06392
   6 2   C  1S         -0.13051   0.09843   0.07090  -0.04833   0.05009
   7        2S          0.77966  -0.60619  -0.45445   0.30686  -0.33568
   8        2PX        -0.25727  -0.29013   0.30109  -0.25974  -0.68604
   9        2PY         0.22253  -0.11292   0.63491   0.05100   0.26217
  10        2PZ        -0.05301   0.30035   0.28488   0.02345   0.28775
  11 3   C  1S          0.06844  -0.15018   0.07002  -0.01904  -0.04268
  12        2S         -0.41383   0.91813  -0.47490   0.10196   0.27790
  13        2PX         0.12242  -0.17735   0.29594   0.51836   0.02728
  14        2PY         0.27711   0.21123   0.05602   0.13695  -0.13291
  15        2PZ         0.02932  -0.17267  -0.06941  -0.03461  -0.05639
  16 4   C  1S          0.06594   0.10658   0.02622  -0.01997  -0.01417
  17        2S         -0.39184  -0.65338  -0.16456   0.12378   0.09774
  18        2PX         0.50761  -0.27287   0.27719  -0.54536   0.29459
  19        2PY        -0.08313   0.33752  -0.38782  -0.15799   0.46220
  20        2PZ         0.05299   0.13527   0.06663   0.02534  -0.07101
  21 5   C  1S         -0.15827  -0.01369  -0.00231   0.04860  -0.03729
  22        2S          0.95945   0.08339   0.01400  -0.31893   0.24424
  23        2PX         0.17193   0.00023   0.46869  -0.24932   0.10203
  24        2PY         0.10965   0.49790   0.01555  -0.46779  -0.59930
  25        2PZ        -0.07449  -0.16742   0.06900   0.02841   0.11544
  26 6   C  1S          0.03668  -0.03073  -0.07450   0.07913   0.03759
  27        2S         -0.21813   0.19969   0.45091  -0.52504  -0.24091
  28        2PX        -0.14536   0.20610  -0.38730  -0.52517  -0.09589
  29        2PY        -0.27092   0.19737   0.03118   0.28544  -0.41275
  30        2PZ         0.05966   0.07234  -0.10057   0.03571   0.01399
  31 7   H  1S          0.50544   0.35703   0.18451   0.29514  -0.29876
  32 8   H  1S         -0.16022   0.53497   0.55934   0.02930   0.72318
  33 9   H  1S          0.03989   0.21147   0.21774   0.26138  -0.45130
  34 10  H  1S         -0.49706  -0.44478   0.21471   0.32067   0.34753
  35 11  N  1S         -0.00711  -0.00404  -0.00097   0.02173   0.00248
  36        2S          0.04507   0.03386   0.01103  -0.13301  -0.01542
  37        2PX        -0.08798   0.30093   0.08590   0.32951   0.12412
  38        2PY        -0.08119  -0.16204  -0.02743  -0.10525  -0.03601
  39        2PZ        -0.00978   0.04012  -0.00935  -0.08491  -0.02492
  40 12  H  1S          0.00608  -0.18888  -0.04317  -0.04223  -0.02911
  41 13  H  1S         -0.00981  -0.14781  -0.07482  -0.12355  -0.08234
  42 14  N  1S          0.00410  -0.01028   0.03240   0.00788   0.00232
  43        2S         -0.03190   0.06585  -0.20554  -0.04673  -0.01714
  44        2PX         0.04826   0.03824  -0.38471  -0.18654   0.06625
  45        2PY         0.14563  -0.07333  -0.03409  -0.14227   0.12918
  46        2PZ        -0.00559  -0.02750  -0.06188  -0.07661   0.02718
  47 15  H  1S          0.09411  -0.06515  -0.10342  -0.16471   0.10208
  48 16  H  1S         -0.00723   0.02948  -0.01247   0.02524  -0.02208
                          46        47        48
                           V         V         V
     Eigenvalues --     0.55841   0.63803   0.65937
   1 1   C  1S         -0.04032   0.03992  -0.03904
   2        2S          0.28523  -0.26323   0.26483
   3        2PX        -0.67031   0.06830   0.44874
   4        2PY        -0.20661  -0.58447   0.19428
   5        2PZ         0.06804  -0.03654   0.02512
   6 2   C  1S         -0.08908  -0.07087   0.00063
   7        2S          0.59616   0.47945   0.01981
   8        2PX        -0.07411   0.13467   0.65094
   9        2PY         0.28478   0.69384  -0.07233
  10        2PZ        -0.04005   0.07782  -0.09430
  11 3   C  1S          0.00717   0.04329  -0.05306
  12        2S         -0.03906  -0.30693   0.40274
  13        2PX        -0.05327   0.33811  -0.45352
  14        2PY         0.60873   0.73692   0.75630
  15        2PZ         0.02121   0.00003   0.04302
  16 4   C  1S          0.08449  -0.00869   0.08067
  17        2S         -0.57662   0.04058  -0.57018
  18        2PX         0.10376  -0.68193  -0.09992
  19        2PY         0.25003  -0.03444   0.81874
  20        2PZ         0.01598   0.00978  -0.05090
  21 5   C  1S          0.05561   0.02375  -0.04249
  22        2S         -0.38069  -0.16179   0.29395
  23        2PX         0.71627  -0.59826   0.05868
  24        2PY         0.22580   0.01884  -0.55283
  25        2PZ         0.03782  -0.06184   0.08171
  26 6   C  1S         -0.03857  -0.02166   0.04241
  27        2S          0.25698   0.15152  -0.29475
  28        2PX         0.13922   0.39791  -0.42281
  29        2PY         0.74394  -0.48877  -0.27690
  30        2PZ        -0.04510   0.02286  -0.00764
  31 7   H  1S         -0.50032  -0.21481   0.17065
  32 8   H  1S         -0.06731   0.12865  -0.31006
  33 9   H  1S          0.02155   0.22673  -0.21840
  34 10  H  1S          0.29844  -0.18083   0.21718
  35 11  N  1S         -0.00840   0.00340  -0.01469
  36        2S          0.05675  -0.01919   0.10016
  37        2PX        -0.05142   0.06838  -0.11963
  38        2PY        -0.10155  -0.10216  -0.06834
  39        2PZ         0.00491  -0.02321   0.02782
  40 12  H  1S         -0.02062  -0.02347  -0.01891
  41 13  H  1S         -0.02204  -0.05230   0.01019
  42 14  N  1S         -0.00151  -0.01427   0.01402
  43        2S          0.01110   0.09653  -0.09547
  44        2PX        -0.04737   0.16853  -0.09724
  45        2PY        -0.14056   0.09062   0.04599
  46        2PZ        -0.00552   0.05082  -0.02762
  47 15  H  1S         -0.07312   0.07932   0.00787
  48 16  H  1S          0.01400  -0.01494  -0.00127
     Density Matrix:
                           1         2         3         4         5
   1 1   C  1S          2.06664
   2        2S         -0.21688   0.89635
   3        2PX        -0.00175   0.01331   0.59320
   4        2PY         0.00517  -0.01236   0.01091   0.59551
   5        2PZ         0.01475  -0.06180  -0.01920   0.01854   0.83954
   6 2   C  1S          0.02182  -0.05513  -0.10402  -0.00000  -0.02842
   7        2S         -0.05550   0.06138   0.26928  -0.00176   0.11866
   8        2PX         0.11651  -0.32418  -0.45586  -0.00412   0.05666
   9        2PY         0.00379  -0.01043  -0.05522   0.03625  -0.14081
  10        2PZ         0.01554  -0.06304   0.01549  -0.02275   0.48459
  11 3   C  1S         -0.00450   0.01595   0.02180   0.00782   0.00573
  12        2S          0.01377  -0.03853  -0.07467  -0.03714  -0.02761
  13        2PX        -0.01697   0.07704   0.06101   0.00274   0.00173
  14        2PY        -0.01411   0.05228   0.05853   0.03096   0.04192
  15        2PZ         0.00391  -0.01369  -0.02408  -0.00044  -0.08526
  16 4   C  1S         -0.00231   0.00655   0.00295   0.00763   0.00373
  17        2S          0.00703  -0.01821  -0.00961  -0.02800  -0.01902
  18        2PX        -0.00530   0.01980  -0.01250   0.03081   0.00204
  19        2PY        -0.01011   0.03589   0.02348   0.01931  -0.06385
  20        2PZ        -0.01450   0.06446  -0.01426   0.02277  -0.31720
  21 5   C  1S         -0.00505   0.01821  -0.00473   0.02528   0.00585
  22        2S          0.01758  -0.05611   0.01308  -0.09974  -0.02610
  23        2PX        -0.00239   0.00359   0.00562   0.02947   0.02170
  24        2PY        -0.02563   0.10420  -0.02853   0.10689   0.03445
  25        2PZ        -0.00438   0.02423   0.01847  -0.00650   0.00454
  26 6   C  1S          0.02255  -0.05732   0.05667  -0.09639  -0.01947
  27        2S         -0.05727   0.06577  -0.14425   0.26357   0.07839
  28        2PX        -0.05165   0.13320  -0.07222   0.19765   0.00851
  29        2PY         0.09158  -0.23643   0.20781  -0.35226  -0.05068
  30        2PZ         0.01650  -0.06099   0.02161  -0.00496   0.48683
  31 7   H  1S         -0.11599   0.27400  -0.28041  -0.46778   0.00762
  32 8   H  1S          0.02599  -0.09667  -0.11603   0.04309   0.00910
  33 9   H  1S          0.00113  -0.00782  -0.00039  -0.00165  -0.00684
  34 10  H  1S         -0.01730   0.06915  -0.04085   0.08685   0.03121
  35 11  N  1S          0.00167  -0.00419  -0.00912  -0.00178   0.00188
  36        2S         -0.00654   0.01213   0.03962   0.00838  -0.00914
  37        2PX         0.02344  -0.10458  -0.10802   0.00487  -0.00129
  38        2PY         0.01949  -0.09841  -0.08164   0.01250  -0.00865
  39        2PZ        -0.00194   0.00791   0.00743   0.00172  -0.02163
  40 12  H  1S          0.00012  -0.00023  -0.00307   0.00234   0.01261
  41 13  H  1S          0.00093  -0.00183  -0.00939   0.00026  -0.00136
  42 14  N  1S         -0.00204   0.00216  -0.01449  -0.00237  -0.02725
  43        2S          0.00512   0.00798   0.05954   0.02104   0.14008
  44        2PX         0.02315  -0.08512   0.08022  -0.08552  -0.04313
  45        2PY        -0.02693   0.11759  -0.06444   0.07270   0.13727
  46        2PZ         0.01145  -0.04839   0.04160  -0.05792  -0.19601
  47 15  H  1S          0.01189  -0.05160   0.02001  -0.04192  -0.01863
  48 16  H  1S         -0.01437   0.05694  -0.03743   0.03729  -0.12567
                           6         7         8         9        10
   6 2   C  1S          2.06732
   7        2S         -0.21728   0.90664
   8        2PX        -0.00862   0.03178   0.58649
   9        2PY         0.01424  -0.06088  -0.01689   0.63642
  10        2PZ        -0.02387   0.11380   0.02451  -0.08667   0.79232
  11 3   C  1S          0.02405  -0.06151  -0.04749  -0.10949  -0.00751
  12        2S         -0.06095   0.06888   0.11597   0.29539   0.02819
  13        2PX         0.04866  -0.13014  -0.04554  -0.24229   0.05118
  14        2PY         0.09221  -0.21461  -0.17002  -0.36372  -0.04425
  15        2PZ        -0.02598   0.12018   0.07290  -0.13518   0.46592
  16 4   C  1S         -0.00539   0.01622   0.00064   0.02651   0.00226
  17        2S          0.01629  -0.04580   0.00526  -0.09651  -0.00637
  18        2PX         0.00206  -0.00191   0.00184  -0.02140  -0.01226
  19        2PY        -0.02298   0.08275   0.01800   0.10811   0.00872
  20        2PZ         0.00613  -0.02896  -0.00143   0.00736  -0.06755
  21 5   C  1S         -0.00322   0.01089  -0.00499   0.01095  -0.00068
  22        2S          0.01038  -0.03418   0.01722  -0.03774  -0.00051
  23        2PX         0.00237  -0.00754  -0.00648  -0.05718   0.05113
  24        2PY        -0.00521   0.01544  -0.04384   0.03620  -0.06556
  25        2PZ         0.01730  -0.08241  -0.04966   0.11422  -0.32010
  26 6   C  1S         -0.00460   0.01450  -0.02337   0.01030  -0.00275
  27        2S          0.01413  -0.03598   0.08396  -0.04669   0.01199
  28        2PX         0.01465  -0.05854   0.05482  -0.01469   0.01823
  29        2PY        -0.01159   0.03788  -0.06111   0.02763  -0.00387
  30        2PZ        -0.00164  -0.00019  -0.02564   0.01841  -0.05683
  31 7   H  1S          0.02295  -0.08436   0.11680   0.06491   0.00272
  32 8   H  1S         -0.12318   0.30359   0.29790  -0.39583  -0.18881
  33 9   H  1S         -0.01806   0.07049   0.03452   0.09321   0.01788
  34 10  H  1S         -0.00226   0.00800  -0.00798   0.01055  -0.00521
  35 11  N  1S         -0.00267   0.00507   0.01864   0.00200  -0.00092
  36        2S          0.00897  -0.00151  -0.08292  -0.00311   0.00324
  37        2PX        -0.03560   0.15100   0.07690   0.11525  -0.00333
  38        2PY        -0.04344   0.20469   0.04795   0.08388   0.00931
  39        2PZ         0.00263  -0.01117  -0.00615  -0.00779  -0.04897
  40 12  H  1S          0.00718  -0.03176  -0.01103   0.01729  -0.08324
  41 13  H  1S          0.00277  -0.00881   0.00745  -0.01905   0.08562
  42 14  N  1S          0.00154  -0.00380   0.00876  -0.00085  -0.00244
  43        2S         -0.00618   0.01294  -0.04073   0.00392   0.01080
  44        2PX        -0.01580   0.06404  -0.07698  -0.00628   0.01572
  45        2PY         0.01066  -0.04967   0.04799   0.01585  -0.00991
  46        2PZ        -0.00652   0.03015  -0.03482  -0.00853   0.00075
  47 15  H  1S         -0.00091   0.00484  -0.00100   0.00512  -0.00590
  48 16  H  1S          0.00582  -0.02237   0.03183  -0.00220   0.00181
                          11        12        13        14        15
  11 3   C  1S          2.06705
  12        2S         -0.21762   0.89568
  13        2PX         0.01185  -0.00680   0.55589
  14        2PY         0.00168  -0.01371   0.00062   0.60015
  15        2PZ        -0.00125   0.00718   0.04415   0.00598   0.79632
  16 4   C  1S          0.02716  -0.07025   0.04262  -0.09742  -0.01561
  17        2S         -0.07179   0.09570  -0.09016   0.22591   0.06795
  18        2PX        -0.06244   0.16751  -0.04801   0.20648   0.02964
  19        2PY         0.11031  -0.28452   0.18014  -0.33990   0.03466
  20        2PZ        -0.01142   0.04946   0.03737   0.01096   0.50786
  21 5   C  1S         -0.00577   0.01989  -0.01437   0.01535  -0.00211
  22        2S          0.02214  -0.06412   0.06609  -0.05829   0.01060
  23        2PX         0.02837  -0.10632   0.04650  -0.06113  -0.01318
  24        2PY        -0.00728   0.03869  -0.00023   0.02584  -0.02194
  25        2PZ         0.00140  -0.00258  -0.00862  -0.02869  -0.06506
  26 6   C  1S         -0.00459   0.01589  -0.01184  -0.00251   0.00049
  27        2S          0.01693  -0.05830   0.04589   0.01044  -0.00675
  28        2PX         0.01337  -0.04899   0.04221   0.00186   0.02885
  29        2PY        -0.00043   0.00320  -0.00613  -0.05424  -0.02071
  30        2PZ         0.00128  -0.00901  -0.03675   0.02550  -0.28944
  31 7   H  1S         -0.01831   0.06694  -0.05437  -0.07961  -0.02574
  32 8   H  1S          0.02934  -0.12268   0.02079   0.12522  -0.01216
  33 9   H  1S          0.02672  -0.10149   0.00934  -0.11986  -0.01548
  34 10  H  1S         -0.02158   0.08018  -0.03477   0.07928   0.00750
  35 11  N  1S          0.01120  -0.02370  -0.07247  -0.00401   0.01168
  36        2S         -0.02621   0.00170   0.21932   0.02265  -0.03974
  37        2PX         0.09599  -0.30076  -0.54198   0.03801   0.07235
  38        2PY         0.00524  -0.02203  -0.06341   0.06834   0.01407
  39        2PZ        -0.00732   0.01608   0.03843   0.00014   0.05934
  40 12  H  1S          0.02215  -0.09642  -0.14957   0.01547  -0.02204
  41 13  H  1S          0.02173  -0.08429  -0.13568   0.01778   0.06532
  42 14  N  1S         -0.00054   0.00287   0.00222  -0.00101   0.01702
  43        2S          0.00334  -0.01651  -0.00809   0.00582  -0.08600
  44        2PX        -0.00289   0.01071  -0.00945  -0.00722   0.01067
  45        2PY         0.00210  -0.01120  -0.00879   0.00664  -0.07647
  46        2PZ        -0.00298   0.01416   0.00988  -0.01142   0.10743
  47 15  H  1S         -0.00116   0.00483  -0.00110  -0.00400   0.00546
  48 16  H  1S         -0.00021   0.00180   0.01219  -0.00442   0.08887
                          16        17        18        19        20
  16 4   C  1S          2.06579
  17        2S         -0.21065   0.87246
  18        2PX        -0.00434   0.01273   0.58419
  19        2PY        -0.01170   0.05867   0.00740   0.60343
  20        2PZ        -0.00951   0.04576   0.00372   0.03501   0.80271
  21 5   C  1S          0.02309  -0.06144   0.11451   0.00130   0.00117
  22        2S         -0.06037   0.08625  -0.31333   0.00386   0.00702
  23        2PX        -0.10429   0.27250  -0.45553  -0.00109  -0.06506
  24        2PY        -0.00820   0.01818  -0.02115   0.03701   0.08843
  25        2PZ        -0.01696   0.06387  -0.03779   0.07937   0.48911
  26 6   C  1S         -0.00501   0.01558  -0.02392  -0.00848   0.00491
  27        2S          0.01446  -0.03782   0.08282   0.03552  -0.02325
  28        2PX         0.01430  -0.05299   0.04936   0.01495   0.00570
  29        2PY         0.01351  -0.04308   0.06025   0.02997  -0.00635
  30        2PZ         0.00220  -0.01344   0.01652  -0.01670  -0.05665
  31 7   H  1S          0.00017  -0.00117  -0.01075  -0.00474  -0.02525
  32 8   H  1S         -0.01606   0.06191   0.03583  -0.07151   0.02755
  33 9   H  1S         -0.11937   0.31766   0.25786   0.45001  -0.08802
  34 10  H  1S          0.02486  -0.09640   0.11994  -0.05254   0.00567
  35 11  N  1S         -0.00697   0.02717   0.02559  -0.01583   0.00171
  36        2S          0.03158  -0.11934  -0.12269   0.07613  -0.00758
  37        2PX        -0.01118   0.02320   0.06267  -0.04075   0.00113
  38        2PY         0.03108  -0.15370  -0.04998   0.07219  -0.00269
  39        2PZ         0.00120  -0.00407  -0.00566  -0.00419  -0.04405
  40 12  H  1S         -0.01055   0.04091   0.03430  -0.05174  -0.09088
  41 13  H  1S         -0.01548   0.06258   0.04849  -0.03607   0.09679
  42 14  N  1S          0.00338  -0.01283   0.01603   0.00105  -0.00414
  43        2S         -0.01570   0.05834  -0.07854  -0.00620   0.01833
  44        2PX        -0.01384   0.05514  -0.07435  -0.00269  -0.00935
  45        2PY        -0.00432   0.02278  -0.00339   0.00455   0.03310
  46        2PZ         0.00146  -0.00944  -0.00981  -0.00411  -0.05051
  47 15  H  1S          0.01059  -0.04290   0.05319   0.00308  -0.00748
  48 16  H  1S          0.00190  -0.00837   0.00784   0.00192   0.00411
                          21        22        23        24        25
  21 5   C  1S          2.06618
  22        2S         -0.21370   0.88019
  23        2PX         0.00066  -0.00022   0.59120
  24        2PY        -0.00417   0.01933  -0.02932   0.62212
  25        2PZ         0.00257  -0.00737  -0.02787   0.05800   0.80262
  26 6   C  1S          0.02540  -0.06801   0.05443   0.09958  -0.01487
  27        2S         -0.06680   0.09748  -0.13191  -0.26285   0.05562
  28        2PX        -0.05261   0.12696  -0.05450  -0.20910  -0.02773
  29        2PY        -0.09717   0.24962  -0.19867  -0.34938   0.06147
  30        2PZ         0.00036   0.00883  -0.05776   0.09769   0.48388
  31 7   H  1S         -0.01675   0.06484  -0.03822  -0.08187   0.01425
  32 8   H  1S         -0.00095   0.00128   0.00237   0.00416   0.02225
  33 9   H  1S          0.02618  -0.09679  -0.10291  -0.05625  -0.00734
  34 10  H  1S         -0.11078   0.27073  -0.29311   0.46191  -0.10411
  35 11  N  1S          0.00400  -0.01595  -0.01877   0.00059  -0.00615
  36        2S         -0.01870   0.07259   0.09115  -0.00411   0.02944
  37        2PX         0.01547  -0.06023  -0.07776  -0.00331  -0.01428
  38        2PY        -0.00874   0.04513   0.02575   0.00419   0.01950
  39        2PZ        -0.00116   0.00381   0.00769  -0.00005  -0.00442
  40 12  H  1S          0.00801  -0.03507  -0.03154   0.00253  -0.00369
  41 13  H  1S          0.00758  -0.03186  -0.04125  -0.00431  -0.02269
  42 14  N  1S         -0.00731   0.02789  -0.02187  -0.01537  -0.01866
  43        2S          0.03400  -0.12276   0.10568   0.07755   0.09573
  44        2PX         0.02156  -0.07589   0.06785   0.05740  -0.02085
  45        2PY         0.01857  -0.09289   0.00821   0.04032   0.08501
  46        2PZ        -0.00482   0.03297   0.02286  -0.03403  -0.15544
  47 15  H  1S         -0.02553   0.10020  -0.07267  -0.06878   0.01113
  48 16  H  1S          0.00125  -0.00336   0.01838  -0.02399  -0.12124
                          26        27        28        29        30
  26 6   C  1S          2.06650
  27        2S         -0.22292   0.92650
  28        2PX        -0.00566  -0.00285   0.52969
  29        2PY         0.00572  -0.02530   0.01290   0.61312
  30        2PZ        -0.02157   0.09018  -0.05709  -0.01020   0.80550
  31 7   H  1S          0.02701  -0.11031  -0.03477   0.13939   0.00153
  32 8   H  1S         -0.01854   0.07219   0.03919  -0.07554   0.02653
  33 9   H  1S         -0.01819   0.06894   0.03928   0.08170   0.00020
  34 10  H  1S          0.02699  -0.10647  -0.03309  -0.13446   0.01320
  35 11  N  1S         -0.00009   0.00065  -0.00119  -0.00044   0.00101
  36        2S          0.00089  -0.00459   0.00355   0.00219  -0.00499
  37        2PX         0.00286  -0.01227  -0.01728   0.00072  -0.00149
  38        2PY         0.00021  -0.00201  -0.00186  -0.00412  -0.01706
  39        2PZ        -0.00073   0.00323  -0.00065  -0.00026   0.01988
  40 12  H  1S          0.00013  -0.00002  -0.00892   0.00220   0.06210
  41 13  H  1S          0.00089  -0.00520   0.00241  -0.00379  -0.05472
  42 14  N  1S          0.01088  -0.01516   0.05957  -0.00729   0.02988
  43        2S         -0.02197  -0.04792  -0.15243   0.01970  -0.10905
  44        2PX        -0.10965   0.33598  -0.50290   0.00298  -0.05587
  45        2PY         0.02942  -0.11143   0.14198   0.05554  -0.08192
  46        2PZ        -0.03062   0.10112  -0.15300  -0.02319   0.15167
  47 15  H  1S          0.02060  -0.07744   0.12424   0.03254   0.05203
  48 16  H  1S          0.02297  -0.10169   0.12402  -0.01918  -0.01337
                          31        32        33        34        35
  31 7   H  1S          0.59429
  32 8   H  1S         -0.04732   0.57829
  33 9   H  1S          0.02076  -0.04151   0.56853
  34 10  H  1S         -0.04859   0.01467  -0.06194   0.59105
  35 11  N  1S          0.00216   0.01269   0.00582   0.00982   2.08450
  36        2S         -0.00933  -0.05550  -0.02680  -0.04873  -0.34645
  37        2PX         0.05930   0.06340   0.07682   0.04067  -0.02883
  38        2PY         0.04321   0.01901   0.02771  -0.01773  -0.09283
  39        2PZ        -0.00384   0.00246  -0.00234  -0.00244   0.00440
  40 12  H  1S          0.00657   0.01894   0.01686   0.02118  -0.05955
  41 13  H  1S         -0.00202   0.01120   0.00801   0.02448  -0.06451
  42 14  N  1S          0.00762   0.00121   0.00736   0.00668   0.00065
  43        2S         -0.03514  -0.00427  -0.03728  -0.03137  -0.00327
  44        2PX        -0.04030  -0.04576  -0.03204  -0.05914  -0.00245
  45        2PY         0.02712   0.03424  -0.00499   0.01830   0.00015
  46        2PZ        -0.01499  -0.03422   0.00239  -0.02415   0.00001
  47 15  H  1S          0.02508  -0.00646   0.02919   0.01139   0.00149
  48 16  H  1S          0.00561   0.00858   0.00514   0.01147   0.00032
                          36        37        38        39        40
  36        2S          1.52877
  37        2PX         0.13841   0.79852
  38        2PY         0.48225   0.36617   1.55535
  39        2PZ        -0.02176   0.01036  -0.02198   0.67841
  40 12  H  1S          0.11544   0.23065  -0.33454   0.51403   0.62503
  41 13  H  1S          0.14068   0.14306  -0.35436  -0.51620  -0.18804
  42 14  N  1S         -0.00326   0.00365   0.00141  -0.00055  -0.00245
  43        2S          0.01621  -0.01938  -0.00755   0.00311   0.01232
  44        2PX         0.01243  -0.00878  -0.00357  -0.00168  -0.00574
  45        2PY        -0.00029   0.00310   0.00249   0.00272   0.01581
  46        2PZ        -0.00028  -0.00094  -0.00122  -0.00207  -0.02118
  47 15  H  1S         -0.00746   0.00790  -0.00033   0.00007   0.00188
  48 16  H  1S         -0.00167   0.00497   0.00857  -0.00443  -0.01802
                          41        42        43        44        45
  41 13  H  1S          0.61482
  42 14  N  1S          0.00431   2.08938
  43        2S         -0.02178  -0.37092   1.65027
  44        2PX        -0.00004   0.01367  -0.06421   0.70888
  45        2PY        -0.01616  -0.06749   0.36130  -0.10261   1.07058
  46        2PZ         0.02184   0.07665  -0.39337   0.07368  -0.36397
  47 15  H  1S          0.00425  -0.05609   0.09090  -0.25782  -0.60348
  48 16  H  1S          0.01758  -0.04602   0.08441  -0.25946   0.22037
                          46        47        48
  46        2PZ         1.09210
  47 15  H  1S         -0.05347   0.58433
  48 16  H  1S          0.58711  -0.16153   0.63795
    Full Mulliken population analysis:
                           1         2         3         4         5
   1 1   C  1S          2.06664
   2        2S         -0.05387   0.89635
   3        2PX         0.00000   0.00000   0.59320
   4        2PY         0.00000   0.00000   0.00000   0.59551
   5        2PZ         0.00000   0.00000   0.00000   0.00000   0.83954
   6 2   C  1S          0.00000  -0.00173  -0.00542  -0.00000  -0.00005
   7        2S         -0.00174   0.02017   0.09706  -0.00001   0.00141
   8        2PX        -0.00607   0.11685   0.14669   0.00005  -0.00095
   9        2PY        -0.00000   0.00008   0.00062   0.00673   0.00005
  10        2PZ        -0.00003   0.00075  -0.00026   0.00001   0.08983
  11 3   C  1S         -0.00000   0.00003   0.00007   0.00002   0.00000
  12        2S          0.00002  -0.00216  -0.00522  -0.00169  -0.00009
  13        2PX         0.00005  -0.00538  -0.00442  -0.00017  -0.00001
  14        2PY         0.00003  -0.00238  -0.00365  -0.00054  -0.00012
  15        2PZ        -0.00000   0.00004   0.00011   0.00000  -0.00197
  16 4   C  1S          0.00000   0.00000   0.00000   0.00000   0.00000
  17        2S          0.00000  -0.00030  -0.00013  -0.00068  -0.00002
  18        2PX         0.00000  -0.00027   0.00007  -0.00065  -0.00000
  19        2PY         0.00000  -0.00088  -0.00050  -0.00062   0.00009
  20        2PZ         0.00000  -0.00006   0.00001  -0.00003  -0.00196
  21 5   C  1S         -0.00000   0.00002   0.00000   0.00008   0.00000
  22        2S          0.00002  -0.00287  -0.00001  -0.00766  -0.00000
  23        2PX        -0.00000   0.00000   0.00012   0.00003   0.00000
  24        2PY         0.00008  -0.00800  -0.00003  -0.01129  -0.00001
  25        2PZ         0.00000  -0.00000   0.00000   0.00000   0.00010
  26 6   C  1S          0.00000  -0.00181  -0.00153  -0.00435  -0.00006
  27        2S         -0.00181   0.02174   0.02679   0.08178   0.00163
  28        2PX        -0.00139   0.02474  -0.00384   0.04430   0.00013
  29        2PY        -0.00413   0.07336   0.04658   0.06592   0.00127
  30        2PZ        -0.00005   0.00127   0.00032   0.00012   0.09037
  31 7   H  1S         -0.00733   0.13541   0.07192   0.18235   0.00038
  32 8   H  1S          0.00011  -0.00812  -0.01188  -0.00142  -0.00023
  33 9   H  1S          0.00000  -0.00001  -0.00000  -0.00000   0.00000
  34 10  H  1S         -0.00000   0.00041   0.00007   0.00083  -0.00002
  35 11  N  1S          0.00000  -0.00000  -0.00000  -0.00000  -0.00000
  36        2S         -0.00000   0.00001   0.00007   0.00000   0.00000
  37        2PX        -0.00000   0.00015   0.00031  -0.00001  -0.00000
  38        2PY        -0.00000   0.00005   0.00009  -0.00000  -0.00000
  39        2PZ        -0.00000   0.00000   0.00000   0.00000  -0.00001
  40 12  H  1S          0.00000  -0.00000  -0.00000   0.00000   0.00000
  41 13  H  1S          0.00000  -0.00000  -0.00001   0.00000   0.00000
  42 14  N  1S          0.00000   0.00000   0.00002  -0.00000   0.00000
  43        2S          0.00000   0.00021  -0.00228   0.00049  -0.00047
  44        2PX         0.00001  -0.00293  -0.00343  -0.00277   0.00020
  45        2PY         0.00001  -0.00248  -0.00209  -0.00070   0.00039
  46        2PZ         0.00000  -0.00015  -0.00019  -0.00016  -0.00193
  47 15  H  1S          0.00001  -0.00121  -0.00069  -0.00023   0.00009
  48 16  H  1S         -0.00000   0.00045   0.00040   0.00026  -0.00041
                           6         7         8         9        10
   6 2   C  1S          2.06732
   7        2S         -0.05396   0.90664
   8        2PX         0.00000   0.00000   0.58649
   9        2PY         0.00000   0.00000   0.00000   0.63642
  10        2PZ         0.00000   0.00000   0.00000   0.00000   0.79232
  11 3   C  1S          0.00000  -0.00213  -0.00112  -0.00575  -0.00001
  12        2S         -0.00211   0.02401   0.01779   0.10136   0.00035
  13        2PX        -0.00114   0.01997  -0.00515   0.04753  -0.00036
  14        2PY        -0.00484   0.07364   0.03335   0.08653   0.00070
  15        2PZ         0.00005  -0.00149  -0.00052   0.00215   0.09329
  16 4   C  1S         -0.00000   0.00002  -0.00000   0.00007   0.00000
  17        2S          0.00002  -0.00201  -0.00000  -0.00648  -0.00001
  18        2PX         0.00000  -0.00000   0.00003  -0.00003  -0.00000
  19        2PY         0.00006  -0.00555   0.00002  -0.01018  -0.00002
  20        2PZ        -0.00000   0.00003  -0.00000  -0.00001  -0.00120
  21 5   C  1S          0.00000   0.00000   0.00000   0.00001   0.00000
  22        2S          0.00000  -0.00072  -0.00031  -0.00111   0.00000
  23        2PX         0.00000  -0.00013   0.00005  -0.00153  -0.00002
  24        2PY         0.00000  -0.00045  -0.00118  -0.00132  -0.00005
  25        2PZ         0.00000  -0.00004   0.00002   0.00009  -0.00254
  26 6   C  1S         -0.00000   0.00002   0.00006   0.00001  -0.00000
  27        2S          0.00002  -0.00168  -0.00520  -0.00159   0.00001
  28        2PX         0.00004  -0.00362  -0.00390  -0.00073   0.00003
  29        2PY         0.00002  -0.00129  -0.00303  -0.00023   0.00000
  30        2PZ         0.00000   0.00000  -0.00004  -0.00001  -0.00108
  31 7   H  1S          0.00009  -0.00667  -0.01114  -0.00280   0.00001
  32 8   H  1S         -0.00795   0.15168   0.07858   0.12175   0.04588
  33 9   H  1S         -0.00000   0.00031   0.00004   0.00069  -0.00001
  34 10  H  1S         -0.00000   0.00001   0.00001   0.00002   0.00000
  35 11  N  1S         -0.00000   0.00001   0.00005   0.00000   0.00000
  36        2S          0.00001  -0.00006  -0.00484  -0.00010  -0.00001
  37        2PX         0.00005  -0.00793  -0.00487  -0.00521  -0.00002
  38        2PY         0.00003  -0.00607  -0.00217  -0.00074   0.00003
  39        2PZ         0.00000  -0.00004  -0.00003  -0.00002  -0.00080
  40 12  H  1S          0.00001  -0.00086  -0.00041   0.00017  -0.00086
  41 13  H  1S          0.00000  -0.00021   0.00024  -0.00016  -0.00111
  42 14  N  1S          0.00000  -0.00000  -0.00000  -0.00000   0.00000
  43        2S         -0.00000   0.00001   0.00004   0.00000  -0.00000
  44        2PX        -0.00000   0.00006   0.00014  -0.00000  -0.00000
  45        2PY        -0.00000   0.00002   0.00003  -0.00000  -0.00000
  46        2PZ        -0.00000   0.00000   0.00000  -0.00000   0.00000
  47 15  H  1S         -0.00000   0.00000   0.00000   0.00000   0.00000
  48 16  H  1S          0.00000  -0.00001  -0.00001  -0.00000   0.00000
                          11        12        13        14        15
  11 3   C  1S          2.06705
  12        2S         -0.05405   0.89568
  13        2PX         0.00000   0.00000   0.55589
  14        2PY         0.00000   0.00000   0.00000   0.60015
  15        2PZ         0.00000   0.00000   0.00000   0.00000   0.79632
  16 4   C  1S          0.00000  -0.00262  -0.00115  -0.00541   0.00000
  17        2S         -0.00268   0.03477   0.01526   0.07861  -0.00006
  18        2PX        -0.00169   0.02835  -0.00522   0.04385  -0.00002
  19        2PY        -0.00613   0.09900   0.03825   0.07632   0.00004
  20        2PZ        -0.00000   0.00004  -0.00002   0.00001   0.10767
  21 5   C  1S         -0.00000   0.00004   0.00006   0.00004   0.00000
  22        2S          0.00005  -0.00423  -0.00554  -0.00273  -0.00004
  23        2PX         0.00012  -0.00891  -0.00420  -0.00403   0.00007
  24        2PY         0.00002  -0.00181  -0.00001  -0.00023  -0.00006
  25        2PZ         0.00000  -0.00001   0.00004  -0.00008  -0.00180
  26 6   C  1S          0.00000   0.00001   0.00001   0.00000  -0.00000
  27        2S          0.00001  -0.00146  -0.00185  -0.00001   0.00000
  28        2PX         0.00001  -0.00198  -0.00255  -0.00000  -0.00001
  29        2PY        -0.00000   0.00000   0.00001  -0.00052   0.00000
  30        2PZ         0.00000  -0.00000   0.00001  -0.00000  -0.00278
  31 7   H  1S         -0.00000   0.00037   0.00039   0.00048  -0.00000
  32 8   H  1S          0.00019  -0.01334   0.00002  -0.01658   0.00048
  33 9   H  1S          0.00012  -0.00880  -0.00001  -0.01351   0.00020
  34 10  H  1S         -0.00000   0.00053   0.00030   0.00052  -0.00001
  35 11  N  1S          0.00000  -0.00048  -0.00243   0.00001  -0.00005
  36        2S         -0.00048   0.00043   0.06825  -0.00051   0.00157
  37        2PX        -0.00306   0.08152   0.15316   0.00113   0.00381
  38        2PY         0.00001  -0.00043  -0.00189   0.00886  -0.00005
  39        2PZ        -0.00003   0.00055   0.00202  -0.00000   0.00742
  40 12  H  1S          0.00010  -0.00825  -0.01529  -0.00049  -0.00075
  41 13  H  1S          0.00007  -0.00562  -0.01032  -0.00043  -0.00271
  42 14  N  1S          0.00000   0.00000  -0.00000  -0.00000  -0.00000
  43        2S          0.00000  -0.00000   0.00000   0.00000   0.00000
  44        2PX        -0.00000   0.00000   0.00001  -0.00000  -0.00000
  45        2PY        -0.00000   0.00000  -0.00000   0.00000  -0.00000
  46        2PZ        -0.00000   0.00000  -0.00000  -0.00000   0.00000
  47 15  H  1S         -0.00000   0.00000   0.00000   0.00000  -0.00000
  48 16  H  1S         -0.00000   0.00000  -0.00000  -0.00000   0.00000
                          16        17        18        19        20
  16 4   C  1S          2.06579
  17        2S         -0.05232   0.87246
  18        2PX         0.00000   0.00000   0.58419
  19        2PY         0.00000   0.00000   0.00000   0.60343
  20        2PZ         0.00000   0.00000   0.00000   0.00000   0.80271
  21 5   C  1S          0.00000  -0.00194  -0.00600  -0.00000  -0.00000
  22        2S         -0.00191   0.02849   0.11299  -0.00010  -0.00015
  23        2PX        -0.00546   0.09827   0.14522   0.00004   0.00195
  24        2PY        -0.00003   0.00045   0.00074   0.00684  -0.00018
  25        2PZ        -0.00005   0.00136   0.00113  -0.00016   0.09069
  26 6   C  1S         -0.00000   0.00002   0.00005   0.00001  -0.00000
  27        2S          0.00001  -0.00164  -0.00469  -0.00123   0.00000
  28        2PX         0.00003  -0.00300  -0.00312  -0.00074  -0.00000
  29        2PY         0.00002  -0.00149  -0.00297  -0.00038   0.00000
  30        2PZ         0.00000  -0.00000  -0.00001   0.00000  -0.00099
  31 7   H  1S          0.00000  -0.00000   0.00001   0.00001  -0.00000
  32 8   H  1S         -0.00000   0.00043   0.00008   0.00080  -0.00006
  33 9   H  1S         -0.00666   0.14744   0.05984   0.16825   0.00860
  34 10  H  1S          0.00010  -0.00784  -0.01189  -0.00195  -0.00010
  35 11  N  1S         -0.00000   0.00002   0.00004   0.00002  -0.00000
  36        2S          0.00001  -0.00375  -0.00536  -0.00212   0.00003
  37        2PX         0.00001  -0.00091  -0.00294  -0.00154   0.00001
  38        2PY         0.00002  -0.00386  -0.00189  -0.00086   0.00001
  39        2PZ         0.00000  -0.00001  -0.00003   0.00001  -0.00052
  40 12  H  1S         -0.00000   0.00034   0.00037   0.00039  -0.00025
  41 13  H  1S         -0.00000   0.00041   0.00041   0.00022  -0.00034
  42 14  N  1S          0.00000  -0.00000  -0.00000  -0.00000   0.00000
  43        2S         -0.00000   0.00003   0.00010   0.00000  -0.00000
  44        2PX        -0.00000   0.00006   0.00016   0.00000   0.00000
  45        2PY        -0.00000   0.00001   0.00000  -0.00000  -0.00000
  46        2PZ         0.00000  -0.00000   0.00000   0.00000  -0.00001
  47 15  H  1S          0.00000  -0.00001  -0.00001  -0.00000   0.00000
  48 16  H  1S          0.00000  -0.00000  -0.00001  -0.00000   0.00000
                          21        22        23        24        25
  21 5   C  1S          2.06618
  22        2S         -0.05307   0.88019
  23        2PX         0.00000   0.00000   0.59120
  24        2PY         0.00000   0.00000   0.00000   0.62212
  25        2PZ         0.00000   0.00000   0.00000   0.00000   0.80262
  26 6   C  1S          0.00000  -0.00230  -0.00155  -0.00480  -0.00005
  27        2S         -0.00226   0.03347   0.02493   0.08407   0.00113
  28        2PX        -0.00150   0.02400  -0.00338   0.04768  -0.00040
  29        2PY        -0.00469   0.07984   0.04531   0.06607   0.00150
  30        2PZ        -0.00000  -0.00018  -0.00083   0.00239   0.09449
  31 7   H  1S         -0.00000   0.00038   0.00006   0.00079   0.00000
  32 8   H  1S         -0.00000   0.00000   0.00001  -0.00001  -0.00001
  33 9   H  1S          0.00010  -0.00712  -0.00899  -0.00250   0.00005
  34 10  H  1S         -0.00657   0.12963   0.07480   0.16814   0.01232
  35 11  N  1S          0.00000  -0.00000  -0.00000  -0.00000   0.00000
  36        2S         -0.00000   0.00005   0.00014   0.00000  -0.00000
  37        2PX        -0.00000   0.00008   0.00020  -0.00000  -0.00000
  38        2PY        -0.00000   0.00002   0.00003  -0.00000  -0.00000
  39        2PZ        -0.00000   0.00000   0.00000   0.00000  -0.00000
  40 12  H  1S          0.00000  -0.00001  -0.00002  -0.00000  -0.00000
  41 13  H  1S          0.00000  -0.00001  -0.00002   0.00000   0.00000
  42 14  N  1S         -0.00000   0.00003   0.00005   0.00002   0.00000
  43        2S          0.00002  -0.00451  -0.00560  -0.00212  -0.00046
  44        2PX         0.00002  -0.00362  -0.00410  -0.00221   0.00014
  45        2PY         0.00001  -0.00228  -0.00032  -0.00022  -0.00030
  46        2PZ        -0.00000   0.00014  -0.00016   0.00012  -0.00215
  47 15  H  1S         -0.00000   0.00054   0.00053   0.00037  -0.00001
  48 16  H  1S          0.00000  -0.00007  -0.00056   0.00020  -0.00114
                          26        27        28        29        30
  26 6   C  1S          2.06650
  27        2S         -0.05537   0.92650
  28        2PX         0.00000   0.00000   0.52969
  29        2PY         0.00000   0.00000   0.00000   0.61312
  30        2PZ         0.00000   0.00000   0.00000   0.00000   0.80550
  31 7   H  1S          0.00014  -0.01053  -0.00032  -0.01716   0.00000
  32 8   H  1S         -0.00000   0.00040   0.00030   0.00039  -0.00004
  33 9   H  1S         -0.00000   0.00027   0.00020   0.00035  -0.00000
  34 10  H  1S          0.00015  -0.01039  -0.00023  -0.01666  -0.00028
  35 11  N  1S          0.00000   0.00000  -0.00000   0.00000  -0.00000
  36        2S          0.00000  -0.00000   0.00000  -0.00000   0.00000
  37        2PX        -0.00000   0.00000   0.00001   0.00000  -0.00000
  38        2PY         0.00000  -0.00000  -0.00000  -0.00000   0.00000
  39        2PZ        -0.00000   0.00000  -0.00000   0.00000   0.00000
  40 12  H  1S          0.00000  -0.00000  -0.00000  -0.00000   0.00000
  41 13  H  1S          0.00000  -0.00000   0.00000   0.00000   0.00000
  42 14  N  1S          0.00000  -0.00034  -0.00220  -0.00002  -0.00021
  43        2S         -0.00046  -0.01298   0.04984   0.00045   0.00675
  44        2PX        -0.00393   0.09548   0.14248   0.00009   0.00453
  45        2PY        -0.00007   0.00223   0.00429   0.00793  -0.00047
  46        2PZ        -0.00021   0.00544   0.01240  -0.00013   0.01964
  47 15  H  1S          0.00009  -0.00627  -0.01206  -0.00126  -0.00115
  48 16  H  1S          0.00013  -0.01018  -0.01448  -0.00058  -0.00060
                          31        32        33        34        35
  31 7   H  1S          0.59429
  32 8   H  1S         -0.00145   0.57829
  33 9   H  1S          0.00000  -0.00004   0.56853
  34 10  H  1S         -0.00004   0.00000  -0.00220   0.59105
  35 11  N  1S          0.00000   0.00002   0.00000   0.00000   2.08450
  36        2S         -0.00000  -0.00219  -0.00051  -0.00000  -0.08143
  37        2PX        -0.00001  -0.00204  -0.00115  -0.00000   0.00000
  38        2PY        -0.00000  -0.00076   0.00061  -0.00000   0.00000
  39        2PZ        -0.00000  -0.00002   0.00000   0.00000   0.00000
  40 12  H  1S          0.00000   0.00057   0.00008   0.00000  -0.00268
  41 13  H  1S         -0.00000   0.00061   0.00004   0.00000  -0.00283
  42 14  N  1S          0.00000   0.00000   0.00000   0.00001   0.00000
  43        2S         -0.00064  -0.00000  -0.00000  -0.00098  -0.00000
  44        2PX        -0.00060  -0.00000  -0.00000  -0.00155  -0.00000
  45        2PY        -0.00056  -0.00000  -0.00000   0.00061  -0.00000
  46        2PZ        -0.00004   0.00000   0.00000   0.00003   0.00000
  47 15  H  1S          0.00096  -0.00000   0.00000   0.00005   0.00000
  48 16  H  1S          0.00004   0.00000   0.00000   0.00029   0.00000
                          36        37        38        39        40
  36        2S          1.52877
  37        2PX         0.00000   0.79852
  38        2PY         0.00000   0.00000   1.55535
  39        2PZ         0.00000   0.00000   0.00000   0.67841
  40 12  H  1S          0.04947   0.04051   0.06098   0.15886   0.62503
  41 13  H  1S          0.05938   0.02277   0.06535   0.16064  -0.03277
  42 14  N  1S         -0.00000  -0.00000   0.00000   0.00000  -0.00000
  43        2S          0.00000   0.00000  -0.00000  -0.00000   0.00000
  44        2PX         0.00000   0.00000  -0.00000   0.00000  -0.00000
  45        2PY         0.00000   0.00000   0.00000   0.00000  -0.00000
  46        2PZ        -0.00000   0.00000  -0.00000  -0.00000  -0.00000
  47 15  H  1S         -0.00000  -0.00000   0.00000  -0.00000   0.00000
  48 16  H  1S         -0.00000  -0.00000   0.00000  -0.00000  -0.00000
                          41        42        43        44        45
  41 13  H  1S          0.61482
  42 14  N  1S          0.00000   2.08938
  43        2S         -0.00000  -0.08718   1.65027
  44        2PX        -0.00000   0.00000   0.00000   0.70888
  45        2PY         0.00000   0.00000   0.00000   0.00000   1.07058
  46        2PZ        -0.00000   0.00000   0.00000   0.00000   0.00000
  47 15  H  1S          0.00000  -0.00265   0.04006   0.05479   0.20552
  48 16  H  1S          0.00000  -0.00175   0.03272   0.03755   0.02748
                          46        47        48
  46        2PZ         1.09210
  47 15  H  1S          0.00370   0.58433
  48 16  H  1S          0.18696  -0.02663   0.63795
     Gross orbital populations:
                           1
   1 1   C  1S          1.99059
   2        2S          1.19750
   3        2PX         0.93895
   4        2PY         0.94551
   5        2PZ         1.01718
   6 2   C  1S          1.99049
   7        2S          1.19837
   8        2PX         0.92961
   9        2PY         0.96627
  10        2PZ         1.01483
  11 3   C  1S          1.99072
  12        2S          1.16159
  13        2PX         0.83413
  14        2PY         0.94815
  15        2PZ         1.00091
  16 4   C  1S          1.99046
  17        2S          1.18931
  18        2PX         0.93084
  19        2PY         0.96086
  20        2PZ         1.00588
  21 5   C  1S          1.99054
  22        2S          1.18939
  23        2PX         0.93328
  24        2PY         0.96357
  25        2PZ         0.99648
  26 6   C  1S          1.99070
  27        2S          1.17644
  28        2PX         0.82072
  29        2PY         0.94770
  30        2PZ         1.01667
  31 7   H  1S          0.92880
  32 8   H  1S          0.91443
  33 9   H  1S          0.90421
  34 10  H  1S          0.91919
  35 11  N  1S          1.99478
  36        2S          1.60682
  37        2PX         1.07255
  38        2PY         1.67271
  39        2PZ         1.00640
  40 12  H  1S          0.87424
  41 13  H  1S          0.86843
  42 14  N  1S          1.99517
  43        2S          1.66331
  44        2PX         1.01944
  45        2PY         1.30962
  46        2PZ         1.31542
  47 15  H  1S          0.83887
  48 16  H  1S          0.86798
          Condensed to atoms (all electrons):
               1          2          3          4          5          6
     1  C    4.883507   0.464053  -0.027433  -0.005916  -0.029416   0.461355
     2  C    0.464053   4.881263   0.476085  -0.025237  -0.009225  -0.022203
     3  C   -0.027433   0.476085   4.806991   0.497167  -0.033260  -0.011098
     4  C   -0.005916  -0.025237   0.497167   4.823940   0.472174  -0.020090
     5  C   -0.029416  -0.009225  -0.033260   0.472174   4.856166   0.482935
     6  C    0.461355  -0.022203  -0.011098  -0.020090   0.482935   4.830568
     7  H    0.382738  -0.020510   0.001241   0.000019   0.001238  -0.027871
     8  H   -0.021536   0.389937  -0.029230   0.001247  -0.000017   0.001048
     9  H   -0.000011   0.001038  -0.022003   0.377466  -0.018465   0.000821
    10  H    0.001289   0.000048   0.001351  -0.021681   0.378318  -0.027408
    11  N    0.000671  -0.032753   0.319354  -0.023621   0.000509   0.000013
    12  H   -0.000001  -0.001964  -0.024665   0.000847  -0.000026  -0.000000
    13  H   -0.000013  -0.001237  -0.019021   0.000703  -0.000024   0.000002
    14  N   -0.018240   0.000295   0.000015   0.000361  -0.027494   0.330516
    15  H   -0.002026   0.000005   0.000001  -0.000017   0.001426  -0.020652
    16  H    0.000697  -0.000020   0.000000  -0.000013  -0.001576  -0.025719
               7          8          9         10         11         12
     1  C    0.382738  -0.021536  -0.000011   0.001289   0.000671  -0.000001
     2  C   -0.020510   0.389937   0.001038   0.000048  -0.032753  -0.001964
     3  C    0.001241  -0.029230  -0.022003   0.001351   0.319354  -0.024665
     4  C    0.000019   0.001247   0.377466  -0.021681  -0.023621   0.000847
     5  C    0.001238  -0.000017  -0.018465   0.378318   0.000509  -0.000026
     6  C   -0.027871   0.001048   0.000821  -0.027408   0.000013  -0.000000
     7  H    0.594291  -0.001454   0.000001  -0.000039  -0.000011   0.000001
     8  H   -0.001454   0.578294  -0.000041   0.000002  -0.004997   0.000573
     9  H    0.000001  -0.000041   0.568526  -0.002197  -0.001035   0.000077
    10  H   -0.000039   0.000002  -0.002197   0.591054  -0.000008   0.000000
    11  N   -0.000011  -0.004997  -0.001035  -0.000008   6.482684   0.307136
    12  H    0.000001   0.000573   0.000077   0.000000   0.307136   0.625032
    13  H   -0.000000   0.000607   0.000039   0.000001   0.305319  -0.032765
    14  N   -0.001839  -0.000006  -0.000005  -0.001883   0.000000  -0.000000
    15  H    0.000961  -0.000001   0.000000   0.000048  -0.000000   0.000000
    16  H    0.000036   0.000000   0.000000   0.000291  -0.000000  -0.000000
              13         14         15         16
     1  C   -0.000013  -0.018240  -0.002026   0.000697
     2  C   -0.001237   0.000295   0.000005  -0.000020
     3  C   -0.019021   0.000015   0.000001   0.000000
     4  C    0.000703   0.000361  -0.000017  -0.000013
     5  C   -0.000024  -0.027494   0.001426  -0.001576
     6  C    0.000002   0.330516  -0.020652  -0.025719
     7  H   -0.000000  -0.001839   0.000961   0.000036
     8  H    0.000607  -0.000006  -0.000001   0.000000
     9  H    0.000039  -0.000005   0.000000   0.000000
    10  H    0.000001  -0.001883   0.000048   0.000291
    11  N    0.305319   0.000000  -0.000000  -0.000000
    12  H   -0.032765  -0.000000   0.000000  -0.000000
    13  H    0.614821  -0.000000   0.000000   0.000000
    14  N   -0.000000   6.436857   0.301428   0.282960
    15  H    0.000000   0.301428   0.584329  -0.026630
    16  H    0.000000   0.282960  -0.026630   0.637952
 Mulliken charges:
               1
     1  C   -0.089718
     2  C   -0.099576
     3  C    0.064504
     4  C   -0.077350
     5  C   -0.073265
     6  C    0.047783
     7  H    0.071198
     8  H    0.085573
     9  H    0.095787
    10  H    0.080815
    11  N   -0.353260
    12  H    0.125755
    13  H    0.131567
    14  N   -0.302964
    15  H    0.161129
    16  H    0.132020
 Sum of Mulliken charges =  -0.00000
 Mulliken charges with hydrogens summed into heavy atoms:
               1
     1  C   -0.018519
     2  C   -0.014003
     3  C    0.064504
     4  C    0.018437
     5  C    0.007550
     6  C    0.047783
    11  N   -0.095938
    14  N   -0.009815
 Electronic spatial extent (au):  <R**2>=          20865.4718
 Charge=             -0.0000 electrons
 Dipole moment (field-independent basis, Debye):
    X=             -1.3367    Y=             -1.7027    Z=              0.5985  Tot=              2.2459
 Quadrupole moment (field-independent basis, Debye-Ang):
   XX=            -52.2200   YY=            -63.7953   ZZ=            -38.1062
   XY=            -18.3955   XZ=             -7.8465   YZ=             -3.9113
 Traceless Quadrupole moment (field-independent basis, Debye-Ang):
   XX=             -0.8462   YY=            -12.4214   ZZ=             13.2676
   XY=            -18.3955   XZ=             -7.8465   YZ=             -3.9113
 Octapole moment (field-independent basis, Debye-Ang**2):
  XXX=           -698.9362  YYY=          -1035.8832  ZZZ=           -649.9704  XYY=           -390.6469
  XXY=           -423.0346  XXZ=           -288.0989  XZZ=           -262.6720  YZZ=           -287.4161
  YYZ=           -297.0833  XYZ=            -98.3109
 Hexadecapole moment (field-independent basis, Debye-Ang**3):
 XXXX=          -7635.2694 YYYY=         -12920.4784 ZZZZ=          -7048.8147 XXXY=          -5290.0714
 XXXZ=          -3778.4260 YYYX=          -5676.9678 YYYZ=          -5177.5062 ZZZX=          -3687.5811
 ZZZY=          -4452.9110 XXYY=          -4523.7341 XXZZ=          -2793.5666 YYZZ=          -3359.1812
 XXYZ=          -2290.2180 YYXZ=          -2052.4491 ZZXY=          -1961.0804
 N-N= 3.301464848375D+02 E-N=-1.446558178735D+03  KE= 3.323563172463D+02
 Orbital energies and kinetic energies (alpha):
                                 1                 2
   1         O               -13.837341         21.654017
   2         O               -13.766974         21.654087
   3         O                -9.772781         15.584627
   4         O                -9.764819         15.582761
   5         O                -9.748457         15.579730
   6         O                -9.740167         15.586709
   7         O                -9.736367         15.573352
   8         O                -9.733598         15.590242
   9         O                -0.739401          1.569898
  10         O                -0.708508          1.530215
  11         O                -0.650065          1.556961
  12         O                -0.605214          1.479422
  13         O                -0.566086          1.665001
  14         O                -0.496573          1.332883
  15         O                -0.451872          1.378800
  16         O                -0.391553          1.075606
  17         O                -0.362240          1.273589
  18         O                -0.351808          1.160016
  19         O                -0.320979          1.115086
  20         O                -0.317004          1.264373
  21         O                -0.309299          1.136749
  22         O                -0.307272          1.303196
  23         O                -0.254903          1.277707
  24         O                -0.245081          1.459154
  25         O                -0.230706          1.223232
  26         O                -0.160387          1.443980
  27         O                -0.139617          1.361704
  28         O                -0.093995          1.800743
  29         O                -0.041393          1.964319
  30         V                 0.038267          1.761906
  31         V                 0.059389          1.836009
  32         V                 0.155783          2.103323
  33         V                 0.196158          2.528988
  34         V                 0.210499          2.588017
  35         V                 0.252755          2.331242
  36         V                 0.303236          2.549467
  37         V                 0.313128          2.429789
  38         V                 0.336538          2.308188
  39         V                 0.348619          2.600429
  40         V                 0.376536          2.888113
  41         V                 0.378462          3.085134
  42         V                 0.408418          2.914424
  43         V                 0.452109          2.868866
  44         V                 0.481988          2.938587
  45         V                 0.495402          2.664418
  46         V                 0.558411          3.151693
  47         V                 0.638026          3.297545
  48         V                 0.659374          3.372233
 Total kinetic energy from orbitals= 3.323563172463D+02
 Calling FoFJK, ICntrl=      2527 FMM=F ISym2X=0 I1Cent= 0 IOpClX= 0 NMat=1 NMatS=1 NMatT=0.
