 Entering Gaussian System, Link 0=g16
 Initial command:
 /software/gaussian/g16-c01/avx2/g16/l1.exe "/gpfs/fs2/scratch/bweight/software/many_molecule_many_mode_NAMD/src/NAMD/TEST_NVT/TRAJ/traj-84/G16/GS_NEW/Gau-11159.inp" -scrdir="/gpfs/fs2/scratch/bweight/software/many_molecule_many_mode_NAMD/src/NAMD/TEST_NVT/TRAJ/traj-84/G16/GS_NEW/"
 Entering Link 1 = /software/gaussian/g16-c01/avx2/g16/l1.exe PID=     11160.
  
 Copyright (c) 1988-2019, Gaussian, Inc.  All Rights Reserved.
  
 This is part of the Gaussian(R) 16 program.  It is based on
 the Gaussian(R) 09 system (copyright 2009, Gaussian, Inc.),
 the Gaussian(R) 03 system (copyright 2003, Gaussian, Inc.),
 the Gaussian(R) 98 system (copyright 1998, Gaussian, Inc.),
 the Gaussian(R) 94 system (copyright 1995, Gaussian, Inc.),
 the Gaussian 92(TM) system (copyright 1992, Gaussian, Inc.),
 the Gaussian 90(TM) system (copyright 1990, Gaussian, Inc.),
 the Gaussian 88(TM) system (copyright 1988, Gaussian, Inc.),
 the Gaussian 86(TM) system (copyright 1986, Carnegie Mellon
 University), and the Gaussian 82(TM) system (copyright 1983,
 Carnegie Mellon University). Gaussian is a federally registered
 trademark of Gaussian, Inc.
  
 This software contains proprietary and confidential information,
 including trade secrets, belonging to Gaussian, Inc.
  
 This software is provided under written license and may be
 used, copied, transmitted, or stored only in accord with that
 written license.
  
 The following legend is applicable only to US Government
 contracts under FAR:
  
                    RESTRICTED RIGHTS LEGEND
  
 Use, reproduction and disclosure by the US Government is
 subject to restrictions as set forth in subparagraphs (a)
 and (c) of the Commercial Computer Software - Restricted
 Rights clause in FAR 52.227-19.
  
 Gaussian, Inc.
 340 Quinnipiac St., Bldg. 40, Wallingford CT 06492
  
  
 ---------------------------------------------------------------
 Warning -- This program may not be used in any manner that
 competes with the business of Gaussian, Inc. or will provide
 assistance to any competitor of Gaussian, Inc.  The licensee
 of this program is prohibited from giving any competitor of
 Gaussian, Inc. access to this program.  By using this program,
 the user acknowledges that Gaussian, Inc. is engaged in the
 business of creating and licensing software in the field of
 computational chemistry and represents and warrants to the
 licensee that it is not a competitor of Gaussian, Inc. and that
 it will not use this program in any manner prohibited above.
 ---------------------------------------------------------------
  

 Cite this work as:
 Gaussian 16, Revision C.01,
 M. J. Frisch, G. W. Trucks, H. B. Schlegel, G. E. Scuseria, 
 M. A. Robb, J. R. Cheeseman, G. Scalmani, V. Barone, 
 G. A. Petersson, H. Nakatsuji, X. Li, M. Caricato, A. V. Marenich, 
 J. Bloino, B. G. Janesko, R. Gomperts, B. Mennucci, H. P. Hratchian, 
 J. V. Ortiz, A. F. Izmaylov, J. L. Sonnenberg, D. Williams-Young, 
 F. Ding, F. Lipparini, F. Egidi, J. Goings, B. Peng, A. Petrone, 
 T. Henderson, D. Ranasinghe, V. G. Zakrzewski, J. Gao, N. Rega, 
 G. Zheng, W. Liang, M. Hada, M. Ehara, K. Toyota, R. Fukuda, 
 J. Hasegawa, M. Ishida, T. Nakajima, Y. Honda, O. Kitao, H. Nakai, 
 T. Vreven, K. Throssell, J. A. Montgomery, Jr., J. E. Peralta, 
 F. Ogliaro, M. J. Bearpark, J. J. Heyd, E. N. Brothers, K. N. Kudin, 
 V. N. Staroverov, T. A. Keith, R. Kobayashi, J. Normand, 
 K. Raghavachari, A. P. Rendell, J. C. Burant, S. S. Iyengar, 
 J. Tomasi, M. Cossi, J. M. Millam, M. Klene, C. Adamo, R. Cammi, 
 J. W. Ochterski, R. L. Martin, K. Morokuma, O. Farkas, 
 J. B. Foresman, and D. J. Fox, Gaussian, Inc., Wallingford CT, 2019.
 
 ******************************************
 Gaussian 16:  ES64L-G16RevC.01  3-Jul-2019
                11-Jan-2023 
 ******************************************
 %oldchk=../GS_OLD/geometry.chk
 %chk=geometry.chk
 %nprocshared=4
 Will use up to    4 processors via shared memory.
 %mem=5GB
 Copying data from "../GS_OLD/geometry.chk" to current chk file "geometry.chk"
 IOpt=  2 FromEx=T IUOpen= 4 IOptOp= 5 NList=   0 IFRang= 0 IUIn= 4 IUOut= 2.
 -------------------------------------------------------
 # WB97XD/6-311G SCF=XQC FORCE nosym pop=full guess=read
 -------------------------------------------------------
 1/10=7,30=1,38=1/1,3;
 2/12=2,15=1,17=6,18=5,40=1/2;
 3/5=4,6=6,11=2,25=1,30=1,71=1,74=-58,116=-2/1,2,3;
 4/5=1/1;
 5/5=2,8=3,13=1,38=6/2,8;
 6/7=3,28=1/1;
 7/29=1,30=1/1,2,3,16;
 1/10=7,30=1/3;
 99//99;
 -----------
 MD Step 999
 -----------
 Symbolic Z-matrix:
 Charge =  0 Multiplicity = 1
 C                    -0.33548  -0.58088   0.00801 
 H                     0.21449  -1.52641  -0.0263 
 H                    -1.41987  -0.58957  -0.02861 
 C                     0.3328    0.57647   0.00606 
 H                    -0.16177   1.56936  -0.03374 
 H                     1.4468    0.64687  -0.03134 
 

 GradGradGradGradGradGradGradGradGradGradGradGradGradGradGradGradGradGrad
 Berny optimization.
 Initialization pass.
 Trust Radius=3.00D-01 FncErr=1.00D-07 GrdErr=1.00D-07 EigMax=2.50D+02 EigMin=1.00D-04
 Number of steps in this run=      2 maximum allowed number of steps=      2.
 GradGradGradGradGradGradGradGradGradGradGradGradGradGradGradGradGradGrad

                          Input orientation:                          
 ---------------------------------------------------------------------
 Center     Atomic      Atomic             Coordinates (Angstroms)
 Number     Number       Type             X           Y           Z
 ---------------------------------------------------------------------
      1          6           0       -0.335482   -0.580876    0.008008
      2          1           0        0.214494   -1.526406   -0.026296
      3          1           0       -1.419866   -0.589573   -0.028614
      4          6           0        0.332800    0.576466    0.006065
      5          1           0       -0.161775    1.569360   -0.033736
      6          1           0        1.446803    0.646872   -0.031341
 ---------------------------------------------------------------------
                    Distance matrix (angstroms):
                    1          2          3          4          5
     1  C    0.000000
     2  H    1.094384   0.000000
     3  H    1.085037   1.883824   0.000000
     4  C    1.336430   2.106445   2.105395   0.000000
     5  H    2.157645   3.118557   2.498763   1.109967   0.000000
     6  H    2.164591   2.498349   3.121954   1.116853   1.854323
                    6
     6  H    0.000000
 Symmetry turned off by external request.
 Stoichiometry    C2H4
 Framework group  C1[X(C2H4)]
 Deg. of freedom    12
 Full point group                 C1      NOp   1
 Rotational constants (GHZ):         143.3382577          29.6994089          24.6132480
 Standard basis: 6-311G (5D, 7F)
    38 basis functions,    72 primitive gaussians,    38 cartesian basis functions
     8 alpha electrons        8 beta electrons
       nuclear repulsion energy        33.0682950772 Hartrees.
 NAtoms=    6 NActive=    6 NUniq=    6 SFac= 1.00D+00 NAtFMM=   60 NAOKFM=F Big=F
 Integral buffers will be    131072 words long.
 Raffenetti 2 integral format.
 Two-electron integral symmetry is turned off.
 Nuclear repulsion after empirical dispersion term =       33.0674546053 Hartrees.
 One-electron integrals computed using PRISM.
 NBasis=    38 RedAO= T EigKep=  6.40D-03  NBF=    38
 NBsUse=    38 1.00D-06 EigRej= -1.00D+00 NBFU=    38
 Initial guess from the checkpoint file:  "geometry.chk"
 B after Tr=    -0.000173   -0.000276   -0.000741
         Rot=    1.000000    0.000001    0.000001    0.000005 Ang=   0.00 deg.
 Keep R1 ints in memory in canonical form, NReq=4036876.
 Requested convergence on RMS density matrix=1.00D-08 within  32 cycles.
 Requested convergence on MAX density matrix=1.00D-06.
 Requested convergence on             energy=1.00D-06.
 No special actions if energy rises.
 SCF Done:  E(RwB97XD) =  -78.5554534444     A.U. after    8 cycles
            NFock=  8  Conv=0.60D-08     -V/T= 2.0052
 QCSCF skips out because SCF is already converged.

 **********************************************************************

            Population analysis using the SCF Density.

 **********************************************************************

 Alpha  occ. eigenvalues --  -10.29114 -10.28756  -0.86408  -0.67182  -0.55894
 Alpha  occ. eigenvalues --   -0.50995  -0.43566  -0.35722
 Alpha virt. eigenvalues --    0.07999   0.14085   0.16424   0.16985   0.24078
 Alpha virt. eigenvalues --    0.37490   0.39221   0.39905   0.46298   0.48837
 Alpha virt. eigenvalues --    0.49354   0.59114   0.66490   0.69043   0.77182
 Alpha virt. eigenvalues --    0.77631   0.84006   0.95346   2.23177   2.28943
 Alpha virt. eigenvalues --    2.33317   2.40574   2.67142   2.81703   2.87899
 Alpha virt. eigenvalues --    2.95095   3.14149   3.31653  23.35124  23.70697
     Molecular Orbital Coefficients:
                           1         2         3         4         5
                           O         O         O         O         O
     Eigenvalues --   -10.29114 -10.28756  -0.86408  -0.67182  -0.55894
   1 1   C  1S          0.07036   0.55898  -0.08869   0.06642  -0.00029
   2        2S          0.05811   0.46004  -0.14018   0.10639  -0.00047
   3        2PX         0.00016  -0.00000   0.02616   0.03686   0.13828
   4        2PY         0.00028   0.00000   0.04631   0.06128  -0.07497
   5        2PZ         0.00000  -0.00001  -0.00149   0.00218   0.00032
   6        3S          0.00095   0.01463   0.37595  -0.29025   0.00130
   7        3PX        -0.00063   0.00040   0.03451   0.05909   0.21664
   8        3PY        -0.00108   0.00071   0.06073   0.09909  -0.11813
   9        3PZ        -0.00001  -0.00004  -0.00248   0.00389   0.00049
  10        4S          0.00412  -0.01451   0.19188  -0.22572   0.00081
  11        4PX         0.00158  -0.00147   0.00476   0.02374   0.11211
  12        4PY         0.00272  -0.00251   0.00843   0.04074  -0.06179
  13        4PZ        -0.00000   0.00009  -0.00087   0.00197   0.00024
  14 2   H  1S         -0.00004  -0.00007   0.05297  -0.08810   0.10334
  15        2S         -0.00031   0.00009   0.05407  -0.10586   0.13075
  16        3S          0.00074   0.00173  -0.00171  -0.01536   0.04239
  17 3   H  1S         -0.00005  -0.00007   0.05398  -0.09099  -0.10592
  18        2S         -0.00030   0.00007   0.05471  -0.10862  -0.13320
  19        3S          0.00076   0.00176  -0.00176  -0.01607  -0.04316
  20 4   C  1S          0.55899  -0.07055  -0.08665  -0.06863  -0.00010
  21        2S          0.46008  -0.05786  -0.13681  -0.11006  -0.00016
  22        2PX        -0.00001  -0.00016  -0.02787   0.03705   0.11734
  23        2PY        -0.00002  -0.00028  -0.04743   0.06565  -0.07259
  24        2PZ        -0.00000   0.00000  -0.00121  -0.00243   0.00032
  25        3S          0.01420  -0.00269   0.36656   0.30073   0.00041
  26        3PX        -0.00025   0.00072  -0.03489   0.06029   0.18388
  27        3PY        -0.00042   0.00124  -0.05930   0.10639  -0.11287
  28        3PZ        -0.00004  -0.00001  -0.00211  -0.00438   0.00049
  29        4S         -0.01270   0.00771   0.18853   0.23926  -0.00060
  30        4PX         0.00099  -0.00186  -0.00544   0.02627   0.10137
  31        4PY         0.00169  -0.00325  -0.00925   0.04541  -0.06167
  32        4PZ         0.00008  -0.00001  -0.00087  -0.00226   0.00026
  33 5   H  1S         -0.00005  -0.00004   0.04901   0.09289  -0.08847
  34        2S         -0.00000  -0.00031   0.05036   0.11135  -0.11198
  35        3S          0.00177   0.00025  -0.00116   0.01673  -0.03602
  36 6   H  1S         -0.00004  -0.00004   0.04815   0.09143   0.08477
  37        2S         -0.00001  -0.00032   0.04985   0.11005   0.10768
  38        3S          0.00174   0.00024  -0.00121   0.01631   0.03493
                           6         7         8         9        10
                           O         O         O         V         V
     Eigenvalues --    -0.50995  -0.43566  -0.35722   0.07999   0.14085
   1 1   C  1S         -0.00387   0.00013  -0.00110   0.00309  -0.03220
   2        2S         -0.00583   0.00023  -0.00178   0.00512  -0.05161
   3        2PX         0.09443  -0.11018  -0.00397   0.00169  -0.03183
   4        2PY         0.16776   0.06532  -0.00653   0.00255  -0.06340
   5        2PZ         0.00579  -0.00008   0.17940  -0.18882  -0.00237
   6        3S          0.02170  -0.00050   0.00518  -0.01557   0.11163
   7        3PX         0.13716  -0.17574  -0.00563   0.00256  -0.03795
   8        3PY         0.24497   0.10451  -0.00919   0.00382  -0.07862
   9        3PZ         0.00918  -0.00010   0.28863  -0.27787  -0.00387
  10        4S         -0.05130  -0.00256   0.00791  -0.01634   1.19584
  11        4PX         0.06919  -0.10980  -0.00453   0.01462  -0.19448
  12        4PY         0.12441   0.06585  -0.00738   0.02354  -0.37783
  13        4PZ         0.00519  -0.00002   0.26678  -0.69555  -0.01387
  14 2   H  1S         -0.08033  -0.11440   0.00021   0.00477  -0.01559
  15        2S         -0.11084  -0.17657   0.00232   0.00743  -0.04524
  16        3S         -0.04137  -0.08178   0.00142   0.01980  -0.80930
  17 3   H  1S         -0.07903   0.11225   0.00013   0.00479  -0.01247
  18        2S         -0.10848   0.17267   0.00223   0.00756  -0.03772
  19        3S         -0.04018   0.07980   0.00137   0.01966  -0.75798
  20 4   C  1S         -0.00811  -0.00040  -0.00099  -0.00314  -0.03731
  21        2S         -0.01266  -0.00067  -0.00161  -0.00520  -0.05994
  22        2PX        -0.09799   0.12506   0.00377   0.00197   0.04085
  23        2PY        -0.16254  -0.07373   0.00713   0.00384   0.06296
  24        2PZ         0.00626   0.00032   0.17921   0.18940  -0.00396
  25        3S          0.04120   0.00193   0.00478   0.01551   0.13274
  26        3PX        -0.14485   0.20068   0.00525   0.00300   0.04981
  27        3PY        -0.23888  -0.11774   0.01003   0.00584   0.07462
  28        3PZ         0.00991   0.00049   0.28668   0.27751  -0.00595
  29        4S         -0.03215   0.00236   0.00764   0.01926   1.26594
  30        4PX        -0.07546   0.12918   0.00408   0.01506   0.26433
  31        4PY        -0.12325  -0.07512   0.00799   0.02783   0.42064
  32        4PZ         0.00575   0.00030   0.26688   0.69679  -0.02331
  33 5   H  1S         -0.07517  -0.12506   0.00025  -0.00476  -0.01360
  34        2S         -0.10295  -0.19575   0.00249  -0.00808  -0.03999
  35        3S         -0.03838  -0.09231   0.00135  -0.02125  -0.84408
  36 6   H  1S         -0.08011   0.12458   0.00016  -0.00477  -0.01653
  37        2S         -0.11005   0.19575   0.00237  -0.00812  -0.04740
  38        3S         -0.04117   0.09232   0.00127  -0.02154  -0.89670
                          11        12        13        14        15
                           V         V         V         V         V
     Eigenvalues --     0.16424   0.16985   0.24078   0.37490   0.39221
   1 1   C  1S          0.00101  -0.04608   0.00002   0.01018   0.00070
   2        2S          0.00163  -0.07510   0.00003   0.01407   0.00108
   3        2PX         0.09614  -0.02044   0.10052  -0.03613  -0.02297
   4        2PY        -0.05334  -0.03818  -0.05758  -0.06568   0.00984
   5        2PZ         0.00022  -0.00767   0.00011  -0.00522  -0.00023
   6        3S         -0.00354   0.16961   0.00024   0.03285  -0.00009
   7        3PX         0.13804  -0.01195   0.10657  -0.04598  -0.10416
   8        3PY        -0.07753  -0.02523  -0.06174  -0.08844   0.05073
   9        3PZ         0.00031  -0.01062   0.00007  -0.01046  -0.00042
  10        4S         -0.04450   1.46300  -0.01256  -2.67891  -0.14845
  11        4PX         0.57560  -0.12142   1.16972  -1.57855  -0.53841
  12        4PY        -0.31182  -0.21629  -0.66808  -2.75942   0.15905
  13        4PZ         0.00143  -0.05027   0.00177  -0.04843  -0.00308
  14 2   H  1S         -0.02962  -0.02522   0.01391  -0.05624   0.07498
  15        2S         -0.08218  -0.01799  -0.02084  -0.64959   0.75988
  16        3S         -1.02683  -1.02572  -1.55809  -0.33176  -0.31379
  17 3   H  1S          0.02925  -0.02480  -0.01556  -0.04952  -0.07673
  18        2S          0.08176  -0.02015   0.01612  -0.59544  -0.77185
  19        3S          1.08482  -1.02628   1.57924  -0.39393   0.25638
  20 4   C  1S          0.00096   0.04173  -0.00006  -0.02015  -0.00011
  21        2S          0.00153   0.06796  -0.00012  -0.03308  -0.00006
  22        2PX         0.10271  -0.02231  -0.10012  -0.04132  -0.03148
  23        2PY        -0.06172  -0.03701   0.05738  -0.07361   0.01425
  24        2PZ         0.00026   0.00759  -0.00012   0.00408   0.00030
  25        3S         -0.00298  -0.15126   0.00032   0.04357  -0.00286
  26        3PX         0.14785  -0.01725  -0.11386  -0.09329  -0.10916
  27        3PY        -0.08799  -0.02704   0.06433  -0.16892   0.05749
  28        3PZ         0.00037   0.01048  -0.00010   0.00536   0.00053
  29        4S         -0.04667  -1.30660   0.00676   3.36608   0.14289
  30        4PX         0.54226  -0.11103  -1.11716  -1.20378  -0.52387
  31        4PY        -0.33006  -0.19142   0.64799  -2.11030   0.12397
  32        4PZ         0.00156   0.04903  -0.00177   0.04070   0.00215
  33 5   H  1S          0.03189   0.02520   0.00551   0.01051  -0.08166
  34        2S          0.06936   0.02300  -0.03454   0.07241  -0.80380
  35        3S          1.07215   0.92011  -1.50520   0.45387   0.49087
  36 6   H  1S         -0.03202   0.02567  -0.00444   0.00553   0.08719
  37        2S         -0.06980   0.02140   0.03536   0.02848   0.87811
  38        3S         -1.01019   0.92044   1.49343   0.47153  -0.47309
                          16        17        18        19        20
                           V         V         V         V         V
     Eigenvalues --     0.39905   0.46298   0.48837   0.49354   0.59114
   1 1   C  1S         -0.01786   0.01377  -0.04598   0.00006  -0.00064
   2        2S         -0.03147   0.03106  -0.07665   0.00042  -0.00114
   3        2PX         0.02596  -0.06167   0.00985   0.00124   0.00241
   4        2PY         0.04727  -0.10724   0.01290   0.00161   0.00348
   5        2PZ         0.00023  -0.00054   0.00437  -0.15150  -0.19272
   6        3S          0.07469  -0.33831   0.08070  -0.01168  -0.00071
   7        3PX         0.10172  -0.23905  -0.04117   0.00081   0.00811
   8        3PY         0.18871  -0.41442  -0.07970  -0.00061   0.01173
   9        3PZ        -0.00488  -0.00511   0.02039  -0.62734  -0.68578
  10        4S          2.62121   0.00553   3.15205   0.07128   0.08048
  11        4PX         0.21286   0.19683   0.81496   0.02403   0.02402
  12        4PY         0.38988   0.36592   1.40844   0.04450   0.04418
  13        4PZ        -0.00064   0.00374  -0.09500   0.68427   1.24188
  14 2   H  1S         -0.02750  -0.03229  -0.07709  -0.00233  -0.00189
  15        2S         -0.55111  -0.30374  -0.92803  -0.02054  -0.01406
  16        3S          0.29397   0.04448   0.63595   0.02784   0.02647
  17 3   H  1S         -0.03292  -0.03404  -0.07548  -0.00228  -0.00184
  18        2S         -0.59719  -0.32344  -0.90508  -0.02032  -0.01296
  19        3S          0.30170   0.04685   0.61218   0.02720   0.02607
  20 4   C  1S         -0.00162  -0.00435   0.05103   0.00304   0.00078
  21        2S         -0.00624   0.00027   0.08904   0.00555   0.00145
  22        2PX         0.00817   0.05399   0.02876  -0.00015   0.00225
  23        2PY         0.01561   0.09307   0.05129  -0.00063   0.00455
  24        2PZ        -0.00447  -0.00221   0.00453  -0.15282   0.19227
  25        3S          0.08176  -0.27841  -0.24331  -0.02287  -0.00276
  26        3PX        -0.04449   0.23265   0.06185  -0.00020   0.00792
  27        3PY        -0.06953   0.40429   0.10817  -0.00199   0.01589
  28        3PZ        -0.01265  -0.00876   0.01592  -0.63164   0.68205
  29        4S         -0.80957   0.86874  -3.05327  -0.09480  -0.07026
  30        4PX         1.22793  -0.37793   0.61636   0.00967   0.02602
  31        4PY         2.19829  -0.63817   1.05278   0.01700   0.04196
  32        4PZ        -0.03860  -0.02033   0.04659   0.69547  -1.23781
  33 5   H  1S         -0.04750  -0.06583   0.06233   0.00215   0.00182
  34        2S         -0.84120  -0.66901   0.77971   0.03348   0.00677
  35        3S         -0.17259   0.29897  -0.55060  -0.00576  -0.02640
  36 6   H  1S         -0.04194  -0.06507   0.06211   0.00216   0.00185
  37        2S         -0.77510  -0.65835   0.77401   0.03303   0.00698
  38        3S         -0.18854   0.31232  -0.56245  -0.00659  -0.02660
                          21        22        23        24        25
                           V         V         V         V         V
     Eigenvalues --     0.66490   0.69043   0.77182   0.77631   0.84006
   1 1   C  1S          0.00060  -0.00052   0.05398   0.07134   0.00097
   2        2S          0.00125  -0.00113   0.11392   0.15211   0.00221
   3        2PX        -0.12242   0.20467  -0.02143   0.11364  -0.01004
   4        2PY         0.07107  -0.12175  -0.03716   0.18730   0.01293
   5        2PZ        -0.00016   0.00032   0.00098   0.00540   0.00012
   6        3S         -0.00998   0.01337  -0.77688  -1.32259  -0.02319
   7        3PX        -0.58152   0.72486  -0.15885   0.44746  -0.22643
   8        3PY         0.33486  -0.43115  -0.27508   0.72916   0.15877
   9        3PZ        -0.00085   0.00120   0.00371   0.01886   0.00025
  10        4S          0.01540  -0.05186   0.77992   2.45664   0.00319
  11        4PX         1.07541  -0.80428   0.12419  -0.74032   4.49446
  12        4PY        -0.61951   0.48938   0.16025  -1.01991  -2.56414
  13        4PZ         0.00135   0.00033   0.00865  -0.06221   0.00731
  14 2   H  1S          0.02033  -0.06019   0.01178   0.03208  -0.02652
  15        2S          0.09376  -0.65790   0.08428   0.09061  -1.55955
  16        3S         -0.99444   1.14961  -0.14039  -1.11035  -1.23070
  17 3   H  1S         -0.01972   0.05970   0.01182   0.03257   0.02957
  18        2S         -0.10333   0.68173   0.10315   0.05932   1.59227
  19        3S          0.98822  -1.11670  -0.13168  -1.23232   1.22734
  20 4   C  1S          0.00080  -0.00037   0.08516   0.02757   0.00056
  21        2S          0.00164  -0.00071   0.18122   0.05801   0.00113
  22        2PX        -0.16024  -0.17705  -0.09500   0.05611   0.01269
  23        2PY         0.09193   0.09909  -0.16966   0.10211  -0.00123
  24        2PZ        -0.00022  -0.00032   0.00586  -0.00147  -0.00014
  25        3S         -0.01219   0.00071  -1.50821  -0.31382  -0.00478
  26        3PX        -0.71052  -0.58654  -0.34370   0.29221   0.24917
  27        3PY         0.40975   0.32583  -0.61794   0.53079  -0.11271
  28        3PZ        -0.00106  -0.00105   0.02071  -0.00562  -0.00018
  29        4S          0.01067   0.02620   2.70947   0.00211  -0.01627
  30        4PX         1.28941   0.65576   0.50964  -0.27019  -4.16495
  31        4PY        -0.74041  -0.35738   0.97315  -0.69287   2.38257
  32        4PZ         0.00184  -0.00025  -0.06017   0.03185  -0.00648
  33 5   H  1S         -0.02813  -0.05396   0.03493   0.00155  -0.02260
  34        2S         -0.17650  -0.55391   0.06652   0.07273  -1.40166
  35        3S          1.15022   0.91321  -1.13502   0.33418  -1.09050
  36 6   H  1S          0.02862   0.05388   0.03464   0.00201   0.02244
  37        2S          0.17079   0.53186   0.06887   0.02138   1.39265
  38        3S         -1.15265  -0.92891  -1.08217   0.26769   1.10139
                          26        27        28        29        30
                           V         V         V         V         V
     Eigenvalues --     0.95346   2.23177   2.28943   2.33317   2.40574
   1 1   C  1S          0.09574  -0.01049  -0.01458   0.00025  -0.00038
   2        2S          0.19897   0.00100  -0.01496   0.00061  -0.00044
   3        2PX        -0.09188  -0.08055  -0.13315   0.34050  -0.41050
   4        2PY        -0.15909  -0.14999  -0.23125  -0.19397   0.23229
   5        2PZ         0.00018  -0.01518  -0.02026   0.00029  -0.00104
   6        3S         -1.54017  -0.18507  -0.03244  -0.00112  -0.00378
   7        3PX        -0.23597   0.07757   0.21121  -0.40557   0.57260
   8        3PY        -0.40294   0.15584   0.37757   0.23286  -0.32568
   9        3PZ        -0.00288   0.01506   0.02533  -0.00024   0.00126
  10        4S          5.71750  -0.12128  -0.89315  -0.00226  -0.01317
  11        4PX         1.19553   0.05209  -0.18988  -0.03758   0.96775
  12        4PY         1.99876   0.07235  -0.35476   0.01368  -0.53711
  13        4PZ        -0.02106   0.00358   0.00954  -0.00023   0.00223
  14 2   H  1S          0.01528  -0.71635  -0.78477  -0.69736   0.66527
  15        2S         -0.28679   1.02068   1.17799   1.07003  -1.47403
  16        3S         -0.09016  -0.30239  -0.46755  -0.46334   0.37575
  17 3   H  1S          0.01558  -0.70727  -0.78593   0.68799  -0.68342
  18        2S         -0.26467   1.00820   1.18393  -1.05859   1.51139
  19        3S         -0.07444  -0.28327  -0.45575   0.45337  -0.36907
  20 4   C  1S         -0.09399  -0.00986   0.01194   0.00037   0.00019
  21        2S         -0.19500   0.00101   0.01167   0.00046   0.00041
  22        2PX        -0.09295   0.13260  -0.12561   0.30934   0.41300
  23        2PY        -0.16054   0.23186  -0.21054  -0.17919  -0.23771
  24        2PZ         0.00035  -0.01729   0.02076   0.00067   0.00060
  25        3S          1.50677  -0.17023   0.01982   0.00066  -0.00059
  26        3PX        -0.23005  -0.16990   0.21556  -0.38999  -0.57972
  27        3PY        -0.40144  -0.29394   0.35715   0.22409   0.33435
  28        3PZ         0.00415   0.01876  -0.02655  -0.00078  -0.00086
  29        4S         -5.69070  -0.15486   0.88346   0.01376  -0.00110
  30        4PX         1.11683  -0.01463  -0.20032   0.10255  -0.84204
  31        4PY         1.98812  -0.03045  -0.32291  -0.05891   0.49274
  32        4PZ         0.01470   0.00517  -0.00731  -0.00001  -0.00190
  33 5   H  1S         -0.01817  -0.78280   0.68346   0.71574   0.67437
  34        2S          0.29299   1.13528  -1.04256  -1.04307  -1.43398
  35        3S          0.05552  -0.35701   0.40845   0.51911   0.42641
  36 6   H  1S         -0.01819  -0.77683   0.70241  -0.70197  -0.67563
  37        2S          0.31013   1.12474  -1.06554   1.02036   1.43022
  38        3S          0.06260  -0.35591   0.43157  -0.51452  -0.43286
                          31        32        33        34        35
                           V         V         V         V         V
     Eigenvalues --     2.67142   2.81703   2.87899   2.95095   3.14149
   1 1   C  1S          0.00055   0.00285  -0.01307  -0.00004  -0.00954
   2        2S          0.00039   0.00834  -0.04386  -0.00035  -0.02937
   3        2PX         0.00590   0.08265  -0.46533  -0.72932   0.45191
   4        2PY         0.00786   0.14459  -0.84191   0.40897   0.78879
   5        2PZ        -0.92289  -0.92831  -0.15777  -0.00187   0.00749
   6        3S         -0.00127  -0.06943   0.38737   0.00463   0.24753
   7        3PX        -0.00399  -0.14373   0.82809   0.87914  -0.43839
   8        3PY        -0.00472  -0.24994   1.47211  -0.48013  -0.76399
   9        3PZ         0.93738   1.13464   0.19825   0.00245  -0.00965
  10        4S          0.01369   0.16042  -0.87064  -0.01362  -0.48214
  11        4PX        -0.00272   0.11570  -0.71113  -0.66298   0.22491
  12        4PY        -0.00443   0.20226  -1.26430   0.35230   0.38825
  13        4PZ        -0.33715  -0.61357  -0.12594  -0.00190   0.00583
  14 2   H  1S          0.01371  -0.02319   0.26425  -0.37267  -0.21693
  15        2S         -0.01558   0.01479  -0.22090   0.38099   0.16397
  16        3S         -0.00363   0.04692  -0.29997   0.27496   0.06223
  17 3   H  1S          0.01392  -0.02264   0.25514   0.37467  -0.21706
  18        2S         -0.01610   0.01340  -0.20575  -0.37918   0.16386
  19        3S         -0.00402   0.04693  -0.29843  -0.28995   0.06984
  20 4   C  1S          0.00061  -0.00285   0.01367   0.00046  -0.00710
  21        2S          0.00062  -0.00881   0.04803   0.00110  -0.02272
  22        2PX        -0.00846   0.07402  -0.40877  -0.80611  -0.50101
  23        2PY        -0.01678   0.13291  -0.72637   0.44648  -0.88836
  24        2PZ        -0.92648   0.92342   0.16323  -0.00016   0.01543
  25        3S         -0.00370   0.07580  -0.43247  -0.00851   0.19812
  26        3PX         0.00915  -0.13475   0.76956   0.95796   0.53461
  27        3PY         0.01782  -0.23937   1.35709  -0.52259   0.95543
  28        3PZ         0.94220  -1.12962  -0.20564   0.00016  -0.01943
  29        4S          0.01917  -0.16499   0.90702   0.02490  -0.37900
  30        4PX        -0.00126   0.11461  -0.70732  -0.69865  -0.32338
  31        4PY        -0.00344   0.20138  -1.23679   0.37594  -0.58230
  32        4PZ        -0.33972   0.61113   0.13159  -0.00017   0.01517
  33 5   H  1S          0.01342   0.03100  -0.29559   0.41948  -0.26190
  34        2S         -0.01666  -0.02520   0.27059  -0.43347   0.20662
  35        3S         -0.00134  -0.04302   0.27791  -0.23891   0.12224
  36 6   H  1S          0.01357   0.03109  -0.29177  -0.42987  -0.25064
  37        2S         -0.01722  -0.02593   0.27070   0.44295   0.19723
  38        3S         -0.00099  -0.04138   0.26612   0.24177   0.11565
                          36        37        38
                           V         V         V
     Eigenvalues --     3.31653  23.35124  23.70697
   1 1   C  1S         -0.00028  -1.41074  -1.45547
   2        2S         -0.00040   1.50445   1.57396
   3        2PX         0.78711  -0.00652   0.01206
   4        2PY        -0.44010  -0.01080   0.02109
   5        2PZ         0.00159  -0.00062  -0.00028
   6        3S         -0.00049  -0.29485  -0.40074
   7        3PX        -1.12529   0.02432  -0.05588
   8        3PY         0.62594   0.04075  -0.09711
   9        3PZ        -0.00237   0.00176   0.00083
  10        4S         -0.00461   0.27122   0.77214
  11        4PX         1.96457  -0.02674   0.13370
  12        4PY        -1.09324  -0.04578   0.23006
  13        4PZ         0.00403  -0.00290  -0.00347
  14 2   H  1S          0.56219   0.01359   0.00749
  15        2S         -0.87111   0.00742  -0.01513
  16        3S         -0.46527  -0.08460  -0.03972
  17 3   H  1S         -0.57165   0.01495   0.00832
  18        2S          0.88476   0.00728  -0.01501
  19        3S          0.48691  -0.08627  -0.03965
  20 4   C  1S          0.00004  -1.45064   1.41553
  21        2S         -0.00021   1.54717  -1.53093
  22        2PX        -0.70875   0.00585   0.01266
  23        2PY         0.40617   0.01046   0.02162
  24        2PZ        -0.00134  -0.00064   0.00016
  25        3S          0.00410  -0.30370   0.39035
  26        3PX         1.00778  -0.02182  -0.05690
  27        3PY        -0.58518  -0.03864  -0.09795
  28        3PZ         0.00199   0.00183  -0.00040
  29        4S         -0.01712   0.28178  -0.76115
  30        4PX        -1.76646   0.02250   0.13173
  31        4PY         1.03343   0.04094   0.22837
  32        4PZ        -0.00346  -0.00303   0.00258
  33 5   H  1S          0.48120   0.01247  -0.00399
  34        2S         -0.74992   0.00849   0.01322
  35        3S         -0.42051  -0.08247   0.03663
  36 6   H  1S         -0.47754   0.01144  -0.00318
  37        2S          0.74599   0.00935   0.01297
  38        3S          0.41241  -0.08104   0.03631
     Density Matrix:
                           1         2         3         4         5
   1 1   C  1S          0.65940
   2        2S          0.56153   0.49203
   3        2PX        -0.00055  -0.00074   0.08447
   4        2PY        -0.00125  -0.00174   0.00355   0.08795
   5        2PZ         0.00011   0.00017  -0.00014  -0.00033   0.06445
   6        3S         -0.08894  -0.15387   0.00280   0.00620  -0.00027
   7        3PX         0.00086   0.00132   0.13075   0.00109  -0.00011
   8        3PY         0.00125   0.00192   0.00112   0.13145  -0.00030
   9        3PZ         0.00021   0.00035  -0.00024  -0.00053   0.10369
  10        4S         -0.07929  -0.11413  -0.01556  -0.02766   0.00069
  11        4PX         0.00027   0.00161   0.07030  -0.00453  -0.00064
  12        4PY         0.00060   0.00297  -0.00460   0.06548  -0.00111
  13        4PZ        -0.00010  -0.00026  -0.00097  -0.00162   0.09579
  14 2   H  1S         -0.02065  -0.03288   0.03489  -0.06329  -0.00131
  15        2S         -0.02286  -0.03655   0.04914  -0.08786  -0.00096
  16        3S          0.00058  -0.00071   0.02070  -0.03298   0.00001
  17 3   H  1S         -0.02105  -0.03350  -0.07284  -0.00212  -0.00151
  18        2S         -0.02314  -0.03696  -0.10054  -0.00214  -0.00121
  19        3S          0.00060  -0.00068  -0.03840   0.00126  -0.00008
  20 4   C  1S          0.00610   0.00984  -0.01087  -0.01887  -0.00049
  21        2S          0.00980   0.01533  -0.01740  -0.03019  -0.00080
  22        2PX         0.01040   0.01662  -0.01237  -0.03222   0.00052
  23        2PY         0.01808   0.02891  -0.03222  -0.04973   0.00107
  24        2PZ        -0.00055  -0.00089  -0.00047  -0.00066   0.06437
  25        3S         -0.02641  -0.04011   0.04878   0.08477   0.00241
  26        3PX         0.01602   0.02483  -0.01814  -0.04587   0.00066
  27        3PY         0.02784   0.04316  -0.04572  -0.07119   0.00141
  28        3PZ        -0.00093  -0.00149  -0.00081  -0.00116   0.10296
  29        4S          0.00540   0.00401   0.02068   0.03629   0.00285
  30        4PX         0.00307   0.00635  -0.01306  -0.02098   0.00077
  31        4PY         0.00523   0.01090  -0.02098  -0.03732   0.00164
  32        4PZ        -0.00078  -0.00126  -0.00124  -0.00191   0.09582
  33 5   H  1S          0.00419   0.00688  -0.00170  -0.01238  -0.00056
  34        2S          0.00631   0.01049   0.00355  -0.02505  -0.00001
  35        3S          0.00325   0.00475   0.00429  -0.01761   0.00011
  36 6   H  1S          0.00415   0.00682  -0.00988  -0.00765  -0.00058
  37        2S          0.00625   0.01041  -0.02343  -0.00942  -0.00006
  38        3S          0.00321   0.00472  -0.01733  -0.00512   0.00006
                           6         7         8         9        10
   6        3S          0.45259
   7        3PX        -0.00171   0.20269
   8        3PY        -0.00171  -0.00471   0.19696
   9        3PZ        -0.00073  -0.00019  -0.00047   0.16682
  10        4S          0.27274  -0.02636  -0.04746   0.00092   0.18139
  11        4PX        -0.00689   0.10933  -0.01018  -0.00105  -0.01526
  12        4PY        -0.01228  -0.01031   0.09854  -0.00178  -0.02838
  13        4PZ         0.00120  -0.00129  -0.00214   0.15412   0.00247
  14 2   H  1S          0.08787   0.05619  -0.09871  -0.00218   0.06910
  15        2S          0.09784   0.07950  -0.13656  -0.00162   0.08106
  16        3S          0.00609   0.03381  -0.05065   0.00001   0.01099
  17 3   H  1S          0.08959  -0.11405  -0.00171  -0.00248   0.06916
  18        2S          0.09899  -0.15725  -0.00050  -0.00198   0.08009
  19        3S          0.00614  -0.05980   0.00376  -0.00012   0.01020
  20 4   C  1S         -0.02667  -0.01697  -0.02945  -0.00083   0.00520
  21        2S         -0.04036  -0.02636  -0.04579  -0.00135   0.00393
  22        2PX        -0.04650  -0.01758  -0.04570   0.00089  -0.01775
  23        2PY        -0.08087  -0.04572  -0.07078   0.00182  -0.03078
  24        2PZ         0.00263  -0.00064  -0.00086   0.10355   0.00282
  25        3S          0.10283   0.07156   0.12449   0.00404   0.00094
  26        3PX        -0.06717  -0.02594  -0.06485   0.00115  -0.02642
  27        3PY        -0.11675  -0.06468  -0.10128   0.00243  -0.04574
  28        3PZ         0.00436  -0.00113  -0.00155   0.16564   0.00469
  29        4S          0.00175   0.03131   0.05510   0.00474  -0.03258
  30        4PX        -0.02249  -0.01950  -0.02945   0.00127  -0.00657
  31        4PY        -0.03876  -0.02949  -0.05380   0.00270  -0.01088
  32        4PZ         0.00367  -0.00175  -0.00264   0.15415   0.00432
  33 5   H  1S         -0.02044  -0.00064  -0.01771  -0.00082  -0.01491
  34        2S         -0.03132   0.00865  -0.03676   0.00009  -0.01951
  35        3S         -0.01222   0.00819  -0.02644   0.00019  -0.00361
  36 6   H  1S         -0.02025  -0.01491  -0.00928  -0.00085  -0.01507
  37        2S         -0.03108  -0.03592  -0.01062   0.00002  -0.02004
  38        3S         -0.01214  -0.02678  -0.00607   0.00013  -0.00399
                          11        12        13        14        15
  11        4PX         0.06004
  12        4PY        -0.00900   0.05086
  13        4PZ        -0.00155  -0.00254   0.14241
  14 2   H  1S          0.03350  -0.05411  -0.00111   0.08158
  15        2S          0.04822  -0.07474  -0.00035   0.10961   0.14939
  16        3S          0.02098  -0.02761   0.00030   0.03664   0.05221
  17 3   H  1S         -0.06314   0.00170  -0.00126  -0.01313  -0.02472
  18        2S         -0.08745   0.00425  -0.00053  -0.02467  -0.04284
  19        3S         -0.03356   0.00448   0.00023  -0.01807  -0.02734
  20 4   C  1S         -0.00316  -0.00569  -0.00075   0.00425   0.00671
  21        2S         -0.00653  -0.01167  -0.00120   0.00702   0.01121
  22        2PX        -0.01325  -0.01992   0.00124   0.00190  -0.00260
  23        2PY        -0.01997  -0.03674   0.00242   0.01139   0.02409
  24        2PZ        -0.00088  -0.00130   0.09568  -0.00064  -0.00020
  25        3S          0.02315   0.04116   0.00352  -0.02113  -0.03373
  26        3PX        -0.02040  -0.02809   0.00168   0.00104  -0.00718
  27        3PY        -0.02811  -0.05348   0.00334   0.01696   0.03612
  28        3PZ        -0.00145  -0.00216   0.15305  -0.00094  -0.00021
  29        4S          0.00792   0.01484   0.00436  -0.01768  -0.02409
  30        4PX        -0.01491  -0.01229   0.00155  -0.00168  -0.00851
  31        4PY        -0.01237  -0.02949   0.00315   0.01527   0.02715
  32        4PZ        -0.00174  -0.00270   0.14245  -0.00052   0.00031
  33 5   H  1S          0.00210  -0.01585  -0.00041   0.01123   0.02332
  34        2S          0.00938  -0.02767   0.00056   0.02390   0.04454
  35        3S          0.00766  -0.01592   0.00037   0.01677   0.02802
  36 6   H  1S         -0.01464  -0.00574  -0.00043  -0.00912  -0.01821
  37        2S         -0.02839  -0.00513   0.00051  -0.01896  -0.03447
  38        3S         -0.01738  -0.00110   0.00033  -0.01029  -0.01792
                          16        17        18        19        20
  16        3S          0.02088
  17 3   H  1S         -0.01819   0.08252
  18        2S         -0.02740   0.10980   0.14824
  19        3S         -0.01287   0.03614   0.05108   0.02022
  20 4   C  1S          0.00371   0.00430   0.00672   0.00370   0.65948
  21        2S          0.00547   0.00711   0.01120   0.00543   0.56155
  22        2PX        -0.00343   0.00896   0.02211   0.01662   0.00121
  23        2PY         0.01752   0.00745   0.00972   0.00564   0.00193
  24        2PZ         0.00005  -0.00063  -0.00014   0.00009   0.00008
  25        3S         -0.01416  -0.02131  -0.03359  -0.01397  -0.08922
  26        3PX        -0.00696   0.01426   0.03485   0.02600  -0.00048
  27        3PY         0.02642   0.00947   0.01168   0.00697  -0.00100
  28        3PZ         0.00010  -0.00091  -0.00011   0.00018   0.00020
  29        4S         -0.00574  -0.01744  -0.02335  -0.00531  -0.08030
  30        4PX        -0.00707   0.01409   0.02769   0.01711  -0.00020
  31        4PY         0.01591   0.00642   0.00638   0.00182  -0.00022
  32        4PZ         0.00033  -0.00051   0.00037   0.00037  -0.00007
  33 5   H  1S          0.01615  -0.00907  -0.01813  -0.00944  -0.01996
  34        2S          0.02745  -0.01878  -0.03410  -0.01705  -0.02213
  35        3S          0.01472  -0.01019  -0.01771  -0.00906   0.00055
  36 6   H  1S         -0.00953   0.01123   0.02323   0.01589  -0.01976
  37        2S         -0.01733   0.02389   0.04435   0.02708  -0.02211
  38        3S         -0.00922   0.01673   0.02784   0.01451   0.00046
                          21        22        23        24        25
  21        2S          0.49203
  22        2PX         0.00175   0.08235
  23        2PY         0.00276   0.00394   0.08747
  24        2PZ         0.00013   0.00017   0.00022   0.06433
  25        3S         -0.15418  -0.00561  -0.00895  -0.00012   0.45347
  26        3PX        -0.00071   0.12819   0.00210   0.00011  -0.00029
  27        3PY        -0.00151   0.00214   0.13114   0.00008   0.00036
  28        3PZ         0.00033   0.00025   0.00035   0.10290  -0.00063
  29        4S         -0.11605   0.01402   0.02383   0.00072   0.27915
  30        4PX        -0.00147   0.07317  -0.00521   0.00055   0.00625
  31        4PY        -0.00231  -0.00517   0.06705   0.00104   0.01017
  32        4PZ        -0.00019   0.00090   0.00164   0.09574   0.00103
  33 5   H  1S         -0.03180  -0.03316   0.06327  -0.00156   0.08505
  34        2S         -0.03536  -0.04960   0.08847  -0.00126   0.09459
  35        3S         -0.00066  -0.02271   0.03364  -0.00016   0.00572
  36 6   H  1S         -0.03150   0.07085   0.00281  -0.00137   0.08424
  37        2S         -0.03535   0.10119   0.00103  -0.00099   0.09454
  38        3S         -0.00078   0.04064  -0.00303  -0.00006   0.00598
                          26        27        28        29        30
  26        3PX         0.19990
  27        3PY        -0.00248   0.19721
  28        3PZ         0.00014   0.00011   0.16461
  29        4S          0.02583   0.04367   0.00085   0.18821
  30        4PX         0.11458  -0.01094   0.00086   0.01587   0.06680
  31        4PY        -0.01092   0.10141   0.00165   0.02591  -0.01074
  32        4PZ         0.00114   0.00210   0.15316   0.00230   0.00133
  33 5   H  1S         -0.05317   0.09929  -0.00258   0.06728  -0.03455
  34        2S         -0.07998   0.13833  -0.00210   0.07813  -0.05242
  35        3S         -0.03707   0.05193  -0.00025   0.00962  -0.02446
  36 6   H  1S          0.11205   0.00355  -0.00229   0.06755   0.06574
  37        2S          0.15986  -0.00027  -0.00170   0.07936   0.09427
  38        3S          0.06389  -0.00632  -0.00010   0.01037   0.03803
                          31        32        33        34        35
  31        4PY         0.05373
  32        4PZ         0.00258   0.14253
  33 5   H  1S          0.05576  -0.00136   0.08029
  34        2S          0.07782  -0.00062   0.10987   0.15279
  35        3S          0.02934   0.00013   0.03823   0.05572   0.02316
  36 6   H  1S         -0.00201  -0.00121  -0.01241  -0.02605  -0.02001
  37        2S         -0.00645  -0.00041  -0.02614  -0.04855  -0.03188
  38        3S         -0.00650   0.00021  -0.02017  -0.03197  -0.01584
                          36        37        38
  36 6   H  1S          0.07960
  37        2S          0.10959   0.15325
  38        3S          0.03839   0.05620   0.02342
    Full Mulliken population analysis:
                           1         2         3         4         5
   1 1   C  1S          0.65940
   2        2S          0.49327   0.49203
   3        2PX         0.00000   0.00000   0.08447
   4        2PY         0.00000   0.00000   0.00000   0.08795
   5        2PZ         0.00000   0.00000   0.00000   0.00000   0.06445
   6        3S         -0.02928  -0.06444   0.00000   0.00000   0.00000
   7        3PX         0.00000   0.00000   0.08226   0.00000   0.00000
   8        3PY         0.00000   0.00000   0.00000   0.08270   0.00000
   9        3PZ         0.00000   0.00000   0.00000   0.00000   0.06523
  10        4S         -0.01219  -0.02136   0.00000   0.00000   0.00000
  11        4PX         0.00000   0.00000   0.01548   0.00000   0.00000
  12        4PY         0.00000   0.00000   0.00000   0.01442   0.00000
  13        4PZ         0.00000   0.00000   0.00000   0.00000   0.02110
  14 2   H  1S         -0.00024  -0.00034   0.00183   0.00571   0.00000
  15        2S         -0.00168  -0.00321   0.00431   0.01326   0.00001
  16        3S          0.00005  -0.00007   0.00069   0.00190  -0.00000
  17 3   H  1S         -0.00026  -0.00037   0.00792   0.00000   0.00001
  18        2S         -0.00173  -0.00332   0.01775   0.00000   0.00001
  19        3S          0.00005  -0.00006   0.00256  -0.00000   0.00000
  20 4   C  1S          0.00000   0.00000  -0.00002  -0.00006   0.00000
  21        2S          0.00000  -0.00000  -0.00002  -0.00006   0.00000
  22        2PX        -0.00002  -0.00002   0.00011   0.00086   0.00000
  23        2PY        -0.00006  -0.00005   0.00086   0.00198   0.00000
  24        2PZ        -0.00000  -0.00000  -0.00000  -0.00000   0.00042
  25        3S         -0.00060  -0.00101   0.00256   0.00769  -0.00000
  26        3PX        -0.00054  -0.00100   0.00019   0.00557   0.00000
  27        3PY        -0.00164  -0.00301   0.00555   0.01071   0.00000
  28        3PZ        -0.00000  -0.00000  -0.00000  -0.00000   0.00615
  29        4S          0.00034   0.00030   0.00094   0.00285  -0.00000
  30        4PX        -0.00018  -0.00045  -0.00071   0.00145   0.00000
  31        4PY        -0.00053  -0.00134   0.00145   0.00096   0.00000
  32        4PZ        -0.00000  -0.00000  -0.00000  -0.00000   0.00903
  33 5   H  1S          0.00000   0.00000  -0.00000  -0.00000   0.00000
  34        2S          0.00001   0.00002   0.00000  -0.00031   0.00000
  35        3S          0.00008   0.00013   0.00001  -0.00070  -0.00000
  36 6   H  1S          0.00000   0.00000  -0.00000  -0.00000   0.00000
  37        2S          0.00001   0.00002  -0.00023  -0.00006   0.00000
  38        3S          0.00007   0.00013  -0.00057  -0.00012  -0.00000
                           6         7         8         9        10
   6        3S          0.45259
   7        3PX         0.00000   0.20269
   8        3PY         0.00000   0.00000   0.19696
   9        3PZ         0.00000   0.00000   0.00000   0.16682
  10        4S          0.21129   0.00000   0.00000   0.00000   0.18139
  11        4PX         0.00000   0.07144   0.00000   0.00000   0.00000
  12        4PY         0.00000   0.00000   0.06439   0.00000   0.00000
  13        4PZ         0.00000   0.00000   0.00000   0.10071   0.00000
  14 2   H  1S          0.01625   0.01081   0.03265   0.00003   0.01832
  15        2S          0.04134   0.01955   0.05772   0.00002   0.04682
  16        3S          0.00281   0.00395   0.01018  -0.00000   0.00830
  17 3   H  1S          0.01699   0.04438   0.00001   0.00003   0.01851
  18        2S          0.04242   0.07732   0.00000   0.00003   0.04660
  19        3S          0.00285   0.01387  -0.00001   0.00000   0.00774
  20 4   C  1S         -0.00060  -0.00058  -0.00173   0.00000   0.00033
  21        2S         -0.00101  -0.00106  -0.00319   0.00000   0.00030
  22        2PX         0.00244   0.00018   0.00555   0.00000   0.00081
  23        2PY         0.00734   0.00555   0.01065   0.00000   0.00242
  24        2PZ         0.00000  -0.00000  -0.00000   0.00618   0.00000
  25        3S          0.02201   0.01345   0.04051  -0.00000   0.00036
  26        3PX         0.01262  -0.00127   0.01853   0.00000   0.00407
  27        3PY         0.03800   0.01848   0.02845   0.00000   0.01222
  28        3PZ         0.00000  -0.00000  -0.00000   0.03545   0.00000
  29        4S          0.00066   0.00483   0.01472  -0.00000  -0.02048
  30        4PX         0.00632  -0.00401   0.00583   0.00000   0.00199
  31        4PY         0.01887   0.00584   0.00121   0.00000   0.00571
  32        4PZ         0.00000  -0.00000  -0.00000   0.04934   0.00000
  33 5   H  1S         -0.00005  -0.00000  -0.00019   0.00000  -0.00079
  34        2S         -0.00120   0.00006  -0.00319  -0.00000  -0.00325
  35        3S         -0.00198   0.00011  -0.00424  -0.00000  -0.00130
  36 6   H  1S         -0.00005  -0.00012  -0.00005   0.00000  -0.00079
  37        2S         -0.00116  -0.00253  -0.00052  -0.00000  -0.00331
  38        3S         -0.00195  -0.00353  -0.00055  -0.00000  -0.00142
                          11        12        13        14        15
  11        4PX         0.06004
  12        4PY         0.00000   0.05086
  13        4PZ         0.00000   0.00000   0.14241
  14 2   H  1S          0.00630   0.01751   0.00001   0.08158
  15        2S          0.01527   0.04068   0.00001   0.07743   0.14939
  16        3S          0.00520   0.01177  -0.00000   0.01369   0.04119
  17 3   H  1S          0.02365  -0.00001   0.00002  -0.00001  -0.00066
  18        2S          0.05499  -0.00002   0.00001  -0.00066  -0.00543
  19        3S          0.01648  -0.00002  -0.00000  -0.00203  -0.00802
  20 4   C  1S         -0.00018  -0.00057   0.00000   0.00000   0.00002
  21        2S         -0.00046  -0.00144   0.00000   0.00000   0.00003
  22        2PX        -0.00072   0.00138   0.00000  -0.00000   0.00000
  23        2PY         0.00138   0.00094   0.00000  -0.00000  -0.00036
  24        2PZ        -0.00000  -0.00000   0.00902   0.00000   0.00000
  25        3S          0.00651   0.02003  -0.00000  -0.00007  -0.00150
  26        3PX        -0.00420   0.00556   0.00000  -0.00000   0.00004
  27        3PY         0.00556   0.00121   0.00000  -0.00023  -0.00357
  28        3PZ        -0.00000  -0.00000   0.04899   0.00000   0.00000
  29        4S          0.00240   0.00778  -0.00000  -0.00104  -0.00434
  30        4PX        -0.00720   0.00311   0.00000   0.00002   0.00018
  31        4PY         0.00313  -0.00563   0.00000  -0.00243  -0.01026
  32        4PZ        -0.00000  -0.00000   0.08954   0.00000  -0.00000
  33 5   H  1S          0.00002  -0.00233   0.00000   0.00000   0.00000
  34        2S          0.00027  -0.00989  -0.00000   0.00000   0.00016
  35        3S          0.00029  -0.00734  -0.00000   0.00023   0.00147
  36 6   H  1S         -0.00176  -0.00048   0.00000  -0.00000  -0.00004
  37        2S         -0.00832  -0.00104  -0.00000  -0.00004  -0.00091
  38        3S         -0.00660  -0.00029  -0.00000  -0.00046  -0.00248
                          16        17        18        19        20
  16        3S          0.02088
  17 3   H  1S         -0.00204   0.08252
  18        2S         -0.00803   0.07756   0.14824
  19        3S         -0.00671   0.01351   0.04030   0.02022
  20 4   C  1S          0.00009   0.00000   0.00002   0.00009   0.65948
  21        2S          0.00016   0.00000   0.00003   0.00016   0.49329
  22        2PX         0.00001  -0.00000  -0.00028  -0.00058   0.00000
  23        2PY        -0.00074  -0.00000  -0.00008  -0.00013   0.00000
  24        2PZ        -0.00000   0.00000   0.00000  -0.00000   0.00000
  25        3S         -0.00245  -0.00007  -0.00150  -0.00242  -0.02937
  26        3PX         0.00007  -0.00016  -0.00288  -0.00364   0.00000
  27        3PY        -0.00443  -0.00007  -0.00064  -0.00065   0.00000
  28        3PZ        -0.00000   0.00000   0.00000  -0.00000   0.00000
  29        4S         -0.00216  -0.00103  -0.00422  -0.00200  -0.01235
  30        4PX         0.00019  -0.00188  -0.00874  -0.00674   0.00000
  31        4PY        -0.00751  -0.00057  -0.00134  -0.00048   0.00000
  32        4PZ        -0.00000   0.00000  -0.00000  -0.00000   0.00000
  33 5   H  1S          0.00022  -0.00000  -0.00004  -0.00043  -0.00021
  34        2S          0.00144  -0.00004  -0.00090  -0.00236  -0.00157
  35        3S          0.00247  -0.00046  -0.00245  -0.00288   0.00004
  36 6   H  1S         -0.00043   0.00000   0.00000   0.00022  -0.00020
  37        2S         -0.00240   0.00000   0.00015   0.00141  -0.00154
  38        3S         -0.00293   0.00023   0.00145   0.00243   0.00004
                          21        22        23        24        25
  21        2S          0.49203
  22        2PX         0.00000   0.08235
  23        2PY         0.00000   0.00000   0.08747
  24        2PZ         0.00000   0.00000   0.00000   0.06433
  25        3S         -0.06457   0.00000   0.00000   0.00000   0.45347
  26        3PX         0.00000   0.08065   0.00000   0.00000   0.00000
  27        3PY         0.00000   0.00000   0.08250   0.00000   0.00000
  28        3PZ         0.00000   0.00000   0.00000   0.06474   0.00000
  29        4S         -0.02172   0.00000   0.00000   0.00000   0.21625
  30        4PX         0.00000   0.01611   0.00000   0.00000   0.00000
  31        4PY         0.00000   0.00000   0.01477   0.00000   0.00000
  32        4PZ         0.00000   0.00000   0.00000   0.02109   0.00000
  33 5   H  1S         -0.00029   0.00144   0.00552   0.00001   0.01507
  34        2S         -0.00299   0.00379   0.01357   0.00001   0.03902
  35        3S         -0.00006   0.00068   0.00201   0.00000   0.00261
  36 6   H  1S         -0.00027   0.00668   0.00002   0.00000   0.01465
  37        2S         -0.00294   0.01716   0.00001   0.00001   0.03859
  38        3S         -0.00007   0.00271  -0.00001   0.00000   0.00272
                          26        27        28        29        30
  26        3PX         0.19990
  27        3PY         0.00000   0.19721
  28        3PZ         0.00000   0.00000   0.16461
  29        4S          0.00000   0.00000   0.00000   0.18821
  30        4PX         0.07487   0.00000   0.00000   0.00000   0.06680
  31        4PY         0.00000   0.06627   0.00000   0.00000   0.00000
  32        4PZ         0.00000   0.00000   0.10008   0.00000   0.00000
  33 5   H  1S          0.00881   0.03304   0.00003   0.01756   0.00575
  34        2S          0.01727   0.05995   0.00004   0.04457   0.01474
  35        3S          0.00386   0.01085   0.00000   0.00722   0.00541
  36 6   H  1S          0.04104   0.00008   0.00003   0.01750   0.02449
  37        2S          0.07691  -0.00001   0.00003   0.04503   0.05939
  38        3S          0.01490  -0.00009   0.00000   0.00775   0.01890
                          31        32        33        34        35
  31        4PY         0.05373
  32        4PZ         0.00000   0.14253
  33 5   H  1S          0.01865   0.00002   0.08029
  34        2S          0.04394   0.00001   0.07761   0.15279
  35        3S          0.01304  -0.00000   0.01428   0.04396   0.02316
  36 6   H  1S         -0.00005   0.00002  -0.00001  -0.00078  -0.00233
  37        2S         -0.00026   0.00001  -0.00078  -0.00657  -0.00964
  38        3S         -0.00020  -0.00000  -0.00235  -0.00967  -0.00843
                          36        37        38
  36 6   H  1S          0.07960
  37        2S          0.07741   0.15325
  38        3S          0.01434   0.04434   0.02342
     Gross orbital populations:
                           1
   1 1   C  1S          1.10434
   2        2S          0.88586
   3        2PX         0.22741
   4        2PY         0.23672
   5        2PZ         0.16640
   6        3S          0.79308
   7        3PX         0.56164
   8        3PY         0.55637
   9        3PZ         0.42386
  10        4S          0.50230
  11        4PX         0.25898
  12        4PY         0.21059
  13        4PZ         0.41180
  14 2   H  1S          0.27483
  15        2S          0.46641
  16        3S          0.08534
  17 3   H  1S          0.27772
  18        2S          0.46461
  19        3S          0.08271
  20 4   C  1S          1.10442
  21        2S          0.88584
  22        2PX         0.22129
  23        2PY         0.23557
  24        2PZ         0.16580
  25        3S          0.79194
  26        3PX         0.55115
  27        3PY         0.55573
  28        3PZ         0.42015
  29        4S          0.50958
  30        4PX         0.27564
  31        4PY         0.21694
  32        4PZ         0.41167
  33 5   H  1S          0.27087
  34        2S          0.47052
  35        3S          0.09008
  36 6   H  1S          0.26873
  37        2S          0.47146
  38        3S          0.09169
          Condensed to atoms (all electrons):
               1          2          3          4          5          6
     1  C    5.032108   0.387746   0.388399   0.602074  -0.035775  -0.035224
     2  H    0.387746   0.516458  -0.033604  -0.040311   0.005993  -0.009702
     3  H    0.388399  -0.033604   0.513719  -0.039805  -0.009561   0.005893
     4  C    0.602074  -0.040311  -0.039805   5.057346   0.383403   0.382997
     5  H   -0.035775   0.005993  -0.009561   0.383403   0.527958  -0.040548
     6  H   -0.035224  -0.009702   0.005893   0.382997  -0.040548   0.528461
 Mulliken charges:
               1
     1  C   -0.339328
     2  H    0.173421
     3  H    0.174959
     4  C   -0.345704
     5  H    0.168530
     6  H    0.168123
 Sum of Mulliken charges =   0.00000
 Mulliken charges with hydrogens summed into heavy atoms:
               1
     1  C    0.009051
     4  C   -0.009051
 Electronic spatial extent (au):  <R**2>=             83.7454
 Charge=              0.0000 electrons
 Dipole moment (field-independent basis, Debye):
    X=              0.0006    Y=              0.0139    Z=             -0.1224  Tot=              0.1232
 Quadrupole moment (field-independent basis, Debye-Ang):
   XX=            -12.2128   YY=            -12.2173   ZZ=            -15.6689
   XY=              0.0227   XZ=             -0.0007   YZ=             -0.0090
 Traceless Quadrupole moment (field-independent basis, Debye-Ang):
   XX=              1.1535   YY=              1.1490   ZZ=             -2.3025
   XY=              0.0227   XZ=             -0.0007   YZ=             -0.0090
 Octapole moment (field-independent basis, Debye-Ang**2):
  XXX=             -0.3433  YYY=             -0.0927  ZZZ=             -0.0667  XYY=              0.1583
  XXY=             -0.0502  XXZ=             -0.1624  XZZ=             -0.0992  YZZ=             -0.1050
  YYZ=             -0.2152  XYZ=             -0.0459
 Hexadecapole moment (field-independent basis, Debye-Ang**3):
 XXXX=            -34.3315 YYYY=            -55.2195 ZZZZ=            -17.8103 XXXY=             -7.2328
 XXXZ=              0.0176 YYYX=            -10.6955 YYYZ=              0.0246 ZZZX=              0.0275
 ZZZY=              0.0596 XXYY=            -16.2056 XXZZ=             -9.9343 YYZZ=            -13.6498
 XXYZ=              0.0119 YYXZ=              0.0027 ZZXY=             -3.2050
 N-N= 3.306745460531D+01 E-N=-2.478424968463D+02  KE= 7.814910659807D+01
 Orbital energies and kinetic energies (alpha):
                                 1                 2
   1         O               -10.291142         15.979134
   2         O               -10.287560         15.979238
   3         O                -0.864079          1.540816
   4         O                -0.671821          1.269755
   5         O                -0.558941          0.941777
   6         O                -0.509947          1.283209
   7         O                -0.435657          1.041253
   8         O                -0.357221          1.039371
   9         V                 0.079987          1.181768
  10         V                 0.140849          0.590089
  11         V                 0.164243          0.597775
  12         V                 0.169847          0.680207
  13         V                 0.240778          0.584423
  14         V                 0.374899          0.852497
  15         V                 0.392210          0.931897
  16         V                 0.399052          0.779437
  17         V                 0.462982          1.195926
  18         V                 0.488367          1.417927
  19         V                 0.493536          1.300813
  20         V                 0.591141          1.653973
  21         V                 0.664897          1.571814
  22         V                 0.690427          2.145060
  23         V                 0.771820          2.438814
  24         V                 0.776311          2.298831
  25         V                 0.840058          1.082529
  26         V                 0.953456          3.433461
  27         V                 2.231771          3.924369
  28         V                 2.289435          4.030938
  29         V                 2.333169          4.301508
  30         V                 2.405741          4.513815
  31         V                 2.671425          6.301325
  32         V                 2.817031          6.303778
  33         V                 2.878988          6.138102
  34         V                 2.950946          6.227074
  35         V                 3.141491          6.821694
  36         V                 3.316526          6.401672
  37         V                23.351242         60.073811
  38         V                23.706973         60.204841
 Total kinetic energy from orbitals= 7.814910659807D+01
 Calling FoFJK, ICntrl=      2127 FMM=F ISym2X=0 I1Cent= 0 IOpClX= 0 NMat=1 NMatS=1 NMatT=0.
 -------------------------------------------------------------------
 Center     Atomic                   Forces (Hartrees/Bohr)
 Number     Number              X              Y              Z
 -------------------------------------------------------------------
      1        6           0.011695383    0.007982184   -0.004708112
      2        1          -0.008025819    0.004380267    0.002393947
      3        1           0.001957851   -0.004112383    0.002230280
      4        6           0.010800581    0.013790299   -0.005747398
      5        1           0.003302700   -0.016254877    0.002876868
      6        1          -0.019730696   -0.005785490    0.002954416
 -------------------------------------------------------------------
 Cartesian Forces:  Max     0.019730696 RMS     0.008795446

 GradGradGradGradGradGradGradGradGradGradGradGradGradGradGradGradGradGrad
 Berny optimization.
 Search for a local minimum.
 Step number   1 out of a maximum of    2
 All quantities printed in internal units (Hartrees-Bohrs-Radians)
 Second derivative matrix not updated -- first step.
 The second derivative matrix:
                          X1        Y1        Z1        X2        Y2
           X1           0.76191
           Y1           0.09904   0.86431
           Z1           0.00724   0.01067   0.17271
           X2          -0.16511   0.09724   0.00249   0.14251
           Y2           0.10339  -0.28614  -0.00898  -0.11655   0.27498
           Z2           0.00395  -0.01130  -0.05551  -0.00359   0.00931
           X3          -0.35343  -0.00188  -0.01002  -0.00032  -0.00017
           Y3          -0.00798  -0.11031  -0.00239   0.03255   0.01886
           Z3          -0.01276  -0.00232  -0.05666   0.00182   0.00068
           X4          -0.26845  -0.17992  -0.00101   0.02294   0.01332
           Y4          -0.18015  -0.47613  -0.00158  -0.01325  -0.00769
           Z4           0.00155   0.00290  -0.09482  -0.00072  -0.00100
           X5           0.02342  -0.01352   0.00080  -0.00001   0.00001
           Y5           0.01164  -0.00672   0.00110   0.00001  -0.00000
           Z5          -0.00062   0.00039   0.01741   0.00031  -0.00016
           X6           0.00166  -0.00096   0.00049  -0.00001   0.00001
           Y6          -0.02594   0.01498   0.00119   0.00001  -0.00000
           Z6           0.00065  -0.00034   0.01687  -0.00030   0.00016
                          Z2        X3        Y3        Z3        X4
           Z2           0.02901
           X3          -0.00037   0.35354
           Y3           0.00198   0.00217   0.07601
           Z3           0.01058   0.01093   0.00162   0.02980
           X4           0.00068   0.00024  -0.02676  -0.00066   0.70663
           Y4          -0.00036  -0.00014   0.01545   0.00041   0.12477
           Z4           0.01588  -0.00054  -0.00120   0.01632  -0.00630
           X5          -0.00033  -0.00001   0.00001   0.00034  -0.14427
           Y5           0.00021   0.00001  -0.00000  -0.00021   0.09038
           Z5           0.00932   0.00032  -0.00020  -0.00946  -0.00400
           X6          -0.00032  -0.00001   0.00001   0.00033  -0.31710
           Y6           0.00017   0.00001  -0.00000  -0.00017  -0.02179
           Z6          -0.00927  -0.00032   0.00020   0.00941   0.01130
                          Y4        Z4        X5        Y5        Z5
           Y4           0.85662
           Z4          -0.01261   0.17623
           X5           0.08229  -0.00265   0.12297
           Y5          -0.28457   0.00946  -0.10101   0.27532
           Z5           0.01172  -0.05712   0.00356  -0.01010   0.02973
           X6          -0.01352   0.00865  -0.00209  -0.00103   0.00044
           Y6          -0.10367   0.00244   0.03222   0.01599  -0.00165
           Z6           0.00242  -0.05650  -0.00172  -0.00045   0.01012
                          X6        Y6        Z6
           X6           0.31755
           Y6           0.01549   0.07271
           Z6          -0.00960  -0.00198   0.02937
 ITU=  0
     Eigenvalues ---    0.03752   0.04374   0.09134   0.10140   0.13518
     Eigenvalues ---    0.17362   0.26500   0.28912   0.52772   0.69469
     Eigenvalues ---    0.97294   1.56886
 Angle between quadratic step and forces=  36.29 degrees.
 Linear search not attempted -- first point.
 B after Tr=     0.006472    0.007797   -0.012548
         Rot=    1.000000   -0.000011    0.000005   -0.000108 Ang=  -0.01 deg.
 Variable       Old X    -DE/DX   Delta X   Delta X   Delta X     New X
                                 (Linear)    (Quad)   (Total)
    X1       -0.63397   0.01170   0.00000   0.01957   0.02627  -0.60769
    Y1       -1.09770   0.00798   0.00000   0.02249   0.03015  -1.06755
    Z1        0.01513  -0.00471   0.00000  -0.02602  -0.03860  -0.02346
    X2        0.40534  -0.00803   0.00000  -0.03104  -0.02395   0.38139
    Y2       -2.88449   0.00438   0.00000   0.01756   0.02544  -2.85905
    Z2       -0.04969   0.00239   0.00000   0.03223   0.01962  -0.03007
    X3       -2.68316   0.00196   0.00000   0.02356   0.03028  -2.65288
    Y3       -1.11413  -0.00411   0.00000  -0.01335  -0.00612  -1.12025
    Z3       -0.05407   0.00223   0.00000   0.03158   0.01898  -0.03509
    X4        0.62890   0.01080   0.00000   0.00720   0.01344   0.64234
    Y4        1.08936   0.01379   0.00000   0.00981   0.01774   1.10710
    Z4        0.01146  -0.00575   0.00000  -0.02592  -0.03843  -0.02697
    X5       -0.30571   0.00330   0.00000  -0.00661  -0.00076  -0.30647
    Y5        2.96566  -0.01625   0.00000  -0.05000  -0.04227   2.92339
    Z5       -0.06375   0.00288   0.00000   0.03208   0.01960  -0.04416
    X6        2.73406  -0.01973   0.00000  -0.05149  -0.04528   2.68879
    Y6        1.22241  -0.00579   0.00000  -0.03331  -0.02493   1.19748
    Z6       -0.05923   0.00295   0.00000   0.03133   0.01884  -0.04039
         Item               Value     Threshold  Converged?
 Maximum Force            0.019731     0.000450     NO 
 RMS     Force            0.008795     0.000300     NO 
 Maximum Displacement     0.045276     0.001800     NO 
 RMS     Displacement     0.027059     0.001200     NO 
 Predicted change in Energy=-1.826000D-03
 GradGradGradGradGradGradGradGradGradGradGradGradGradGradGradGradGradGrad

 Unable to Open any file for archive entry.
 1\1\GINC-BHD0008\Force\RwB97XD\6-311G\C2H4\BWEIGHT\11-Jan-2023\0\\# WB
 97XD/6-311G SCF=XQC FORCE nosym pop=full guess=read\\MD Step 999\\0,1\
 C,-0.33548177,-0.58087622,0.00800825\H,0.21449424,-1.52640586,-0.02629
 558\H,-1.41986597,-0.58957344,-0.02861379\C,0.33279963,0.57646567,0.00
 606479\H,-0.16177457,1.56936007,-0.03373581\H,1.44680296,0.64687172,-0
 .03134119\\Version=ES64L-G16RevC.01\HF=-78.5554534\RMSD=5.990e-09\RMSF
 =8.795e-03\Dipole=0.0002186,0.005486,-0.0481696\Quadrupole=0.8576024,0
 .8542737,-1.7118761,0.0168657,-0.0004885,-0.006693\PG=C01 [X(C2H4)]\\@
 The archive entry for this job was punched.


 SLITHERY-DITHERY
 FRIEDRICH A. KEKULE
 DREAMT ON A BUS OF THINGS
 FREUD WOULD THINK KEEN.
 MOST OF THE TIME THEY WERE
 HERPETOLOGICAL
 BITING THEIR TAILS IN THE
 SHAPE OF BENZENE.
 Job cpu time:       0 days  0 hours  0 minutes 10.3 seconds.
 Elapsed time:       0 days  0 hours  0 minutes  3.0 seconds.
 File lengths (MBytes):  RWF=    272 Int=      0 D2E=      0 Chk=     32 Scr=     32
 Normal termination of Gaussian 16 at Wed Jan 11 19:42:13 2023.
