 Entering Gaussian System, Link 0=g16
 Initial command:
 /software/gaussian/g16-c01/avx2/g16/l1.exe "/gpfs/fs2/scratch/bweight/software/many_molecule_many_mode_NAMD/src/NAMD/TEST_NVT/TRAJ/traj-49/G16/GS_NEW/Gau-4928.inp" -scrdir="/gpfs/fs2/scratch/bweight/software/many_molecule_many_mode_NAMD/src/NAMD/TEST_NVT/TRAJ/traj-49/G16/GS_NEW/"
 Entering Link 1 = /software/gaussian/g16-c01/avx2/g16/l1.exe PID=      4929.
  
 Copyright (c) 1988-2019, Gaussian, Inc.  All Rights Reserved.
  
 This is part of the Gaussian(R) 16 program.  It is based on
 the Gaussian(R) 09 system (copyright 2009, Gaussian, Inc.),
 the Gaussian(R) 03 system (copyright 2003, Gaussian, Inc.),
 the Gaussian(R) 98 system (copyright 1998, Gaussian, Inc.),
 the Gaussian(R) 94 system (copyright 1995, Gaussian, Inc.),
 the Gaussian 92(TM) system (copyright 1992, Gaussian, Inc.),
 the Gaussian 90(TM) system (copyright 1990, Gaussian, Inc.),
 the Gaussian 88(TM) system (copyright 1988, Gaussian, Inc.),
 the Gaussian 86(TM) system (copyright 1986, Carnegie Mellon
 University), and the Gaussian 82(TM) system (copyright 1983,
 Carnegie Mellon University). Gaussian is a federally registered
 trademark of Gaussian, Inc.
  
 This software contains proprietary and confidential information,
 including trade secrets, belonging to Gaussian, Inc.
  
 This software is provided under written license and may be
 used, copied, transmitted, or stored only in accord with that
 written license.
  
 The following legend is applicable only to US Government
 contracts under FAR:
  
                    RESTRICTED RIGHTS LEGEND
  
 Use, reproduction and disclosure by the US Government is
 subject to restrictions as set forth in subparagraphs (a)
 and (c) of the Commercial Computer Software - Restricted
 Rights clause in FAR 52.227-19.
  
 Gaussian, Inc.
 340 Quinnipiac St., Bldg. 40, Wallingford CT 06492
  
  
 ---------------------------------------------------------------
 Warning -- This program may not be used in any manner that
 competes with the business of Gaussian, Inc. or will provide
 assistance to any competitor of Gaussian, Inc.  The licensee
 of this program is prohibited from giving any competitor of
 Gaussian, Inc. access to this program.  By using this program,
 the user acknowledges that Gaussian, Inc. is engaged in the
 business of creating and licensing software in the field of
 computational chemistry and represents and warrants to the
 licensee that it is not a competitor of Gaussian, Inc. and that
 it will not use this program in any manner prohibited above.
 ---------------------------------------------------------------
  

 Cite this work as:
 Gaussian 16, Revision C.01,
 M. J. Frisch, G. W. Trucks, H. B. Schlegel, G. E. Scuseria, 
 M. A. Robb, J. R. Cheeseman, G. Scalmani, V. Barone, 
 G. A. Petersson, H. Nakatsuji, X. Li, M. Caricato, A. V. Marenich, 
 J. Bloino, B. G. Janesko, R. Gomperts, B. Mennucci, H. P. Hratchian, 
 J. V. Ortiz, A. F. Izmaylov, J. L. Sonnenberg, D. Williams-Young, 
 F. Ding, F. Lipparini, F. Egidi, J. Goings, B. Peng, A. Petrone, 
 T. Henderson, D. Ranasinghe, V. G. Zakrzewski, J. Gao, N. Rega, 
 G. Zheng, W. Liang, M. Hada, M. Ehara, K. Toyota, R. Fukuda, 
 J. Hasegawa, M. Ishida, T. Nakajima, Y. Honda, O. Kitao, H. Nakai, 
 T. Vreven, K. Throssell, J. A. Montgomery, Jr., J. E. Peralta, 
 F. Ogliaro, M. J. Bearpark, J. J. Heyd, E. N. Brothers, K. N. Kudin, 
 V. N. Staroverov, T. A. Keith, R. Kobayashi, J. Normand, 
 K. Raghavachari, A. P. Rendell, J. C. Burant, S. S. Iyengar, 
 J. Tomasi, M. Cossi, J. M. Millam, M. Klene, C. Adamo, R. Cammi, 
 J. W. Ochterski, R. L. Martin, K. Morokuma, O. Farkas, 
 J. B. Foresman, and D. J. Fox, Gaussian, Inc., Wallingford CT, 2019.
 
 ******************************************
 Gaussian 16:  ES64L-G16RevC.01  3-Jul-2019
                11-Jan-2023 
 ******************************************
 %oldchk=../GS_OLD/geometry.chk
 %chk=geometry.chk
 %nprocshared=4
 Will use up to    4 processors via shared memory.
 %mem=5GB
 Copying data from "../GS_OLD/geometry.chk" to current chk file "geometry.chk"
 IOpt=  2 FromEx=T IUOpen= 4 IOptOp= 5 NList=   0 IFRang= 0 IUIn= 4 IUOut= 2.
 -------------------------------------------------------
 # WB97XD/6-311G SCF=XQC FORCE nosym pop=full guess=read
 -------------------------------------------------------
 1/10=7,30=1,38=1/1,3;
 2/12=2,15=1,17=6,18=5,40=1/2;
 3/5=4,6=6,11=2,25=1,30=1,71=1,74=-58,116=-2/1,2,3;
 4/5=1/1;
 5/5=2,8=3,13=1,38=6/2,8;
 6/7=3,28=1/1;
 7/29=1,30=1/1,2,3,16;
 1/10=7,30=1/3;
 99//99;
 -----------
 MD Step 999
 -----------
 Symbolic Z-matrix:
 Charge =  0 Multiplicity = 1
 C                    -0.33706  -0.58245   0.0044 
 H                     0.23219  -1.52538  -0.01047 
 H                    -1.42445  -0.577    -0.01172 
 C                     0.33177   0.57575   0.00312 
 H                    -0.14369   1.56278  -0.01563 
 H                     1.43632   0.65684  -0.01443 
 

 GradGradGradGradGradGradGradGradGradGradGradGradGradGradGradGradGradGrad
 Berny optimization.
 Initialization pass.
 Trust Radius=3.00D-01 FncErr=1.00D-07 GrdErr=1.00D-07 EigMax=2.50D+02 EigMin=1.00D-04
 Number of steps in this run=      2 maximum allowed number of steps=      2.
 GradGradGradGradGradGradGradGradGradGradGradGradGradGradGradGradGradGrad

                          Input orientation:                          
 ---------------------------------------------------------------------
 Center     Atomic      Atomic             Coordinates (Angstroms)
 Number     Number       Type             X           Y           Z
 ---------------------------------------------------------------------
      1          6           0       -0.337060   -0.582450    0.004395
      2          1           0        0.232194   -1.525384   -0.010475
      3          1           0       -1.424454   -0.577004   -0.011717
      4          6           0        0.331771    0.575746    0.003124
      5          1           0       -0.143689    1.562785   -0.015629
      6          1           0        1.436318    0.656839   -0.014426
 ---------------------------------------------------------------------
                    Distance matrix (angstroms):
                    1          2          3          4          5
     1  C    0.000000
     2  H    1.101542   0.000000
     3  H    1.087527   1.908903   0.000000
     4  C    1.337444   2.103532   2.100805   0.000000
     5  H    2.154025   3.110964   2.493806   1.095746   0.000000
     6  H    2.163576   2.492394   3.115508   1.107658   1.821307
                    6
     6  H    0.000000
 Symmetry turned off by external request.
 Stoichiometry    C2H4
 Framework group  C1[X(C2H4)]
 Deg. of freedom    12
 Full point group                 C1      NOp   1
 Rotational constants (GHZ):         144.0266595          29.7248282          24.6419401
 Standard basis: 6-311G (5D, 7F)
    38 basis functions,    72 primitive gaussians,    38 cartesian basis functions
     8 alpha electrons        8 beta electrons
       nuclear repulsion energy        33.1043743389 Hartrees.
 NAtoms=    6 NActive=    6 NUniq=    6 SFac= 1.00D+00 NAtFMM=   60 NAOKFM=F Big=F
 Integral buffers will be    131072 words long.
 Raffenetti 2 integral format.
 Two-electron integral symmetry is turned off.
 Nuclear repulsion after empirical dispersion term =       33.1035341291 Hartrees.
 One-electron integrals computed using PRISM.
 NBasis=    38 RedAO= T EigKep=  6.41D-03  NBF=    38
 NBsUse=    38 1.00D-06 EigRej= -1.00D+00 NBFU=    38
 Initial guess from the checkpoint file:  "geometry.chk"
 B after Tr=    -0.000246   -0.000375   -0.000628
         Rot=    1.000000    0.000009   -0.000003    0.000003 Ang=   0.00 deg.
 Keep R1 ints in memory in canonical form, NReq=4036876.
 Requested convergence on RMS density matrix=1.00D-08 within  32 cycles.
 Requested convergence on MAX density matrix=1.00D-06.
 Requested convergence on             energy=1.00D-06.
 No special actions if energy rises.
 SCF Done:  E(RwB97XD) =  -78.5555348232     A.U. after    8 cycles
            NFock=  8  Conv=0.58D-08     -V/T= 2.0050
 QCSCF skips out because SCF is already converged.

 **********************************************************************

            Population analysis using the SCF Density.

 **********************************************************************

 Alpha  occ. eigenvalues --  -10.28910 -10.28816  -0.86411  -0.67303  -0.55986
 Alpha  occ. eigenvalues --   -0.50947  -0.43643  -0.35694
 Alpha virt. eigenvalues --    0.08014   0.14114   0.16514   0.17032   0.24098
 Alpha virt. eigenvalues --    0.37032   0.39399   0.40267   0.46463   0.48944
 Alpha virt. eigenvalues --    0.49376   0.59122   0.66597   0.69239   0.77416
 Alpha virt. eigenvalues --    0.77497   0.84465   0.95257   2.23094   2.29129
 Alpha virt. eigenvalues --    2.33306   2.40828   2.67139   2.81835   2.87742
 Alpha virt. eigenvalues --    2.95149   3.14329   3.32176  23.35317  23.70684
     Molecular Orbital Coefficients:
                           1         2         3         4         5
                           O         O         O         O         O
     Eigenvalues --   -10.28910 -10.28816  -0.86411  -0.67303  -0.55986
   1 1   C  1S          0.45823  -0.32779  -0.08809   0.06714  -0.00032
   2        2S          0.37725  -0.26962  -0.13925   0.10750  -0.00053
   3        2PX         0.00011   0.00012   0.02614   0.03455   0.13935
   4        2PY         0.00020   0.00020   0.04684   0.05615  -0.07284
   5        2PZ        -0.00000   0.00000  -0.00067   0.00087   0.00019
   6        3S          0.01136  -0.00920   0.37360  -0.29330   0.00144
   7        3PX        -0.00013  -0.00073   0.03487   0.05577   0.21859
   8        3PY        -0.00019  -0.00128   0.06200   0.09188  -0.11541
   9        3PZ        -0.00002   0.00001  -0.00111   0.00159   0.00029
  10        4S         -0.00788   0.01281   0.19163  -0.22516   0.00051
  11        4PX        -0.00003   0.00217   0.00497   0.02237   0.11280
  12        4PY        -0.00005   0.00371   0.00886   0.03828  -0.06054
  13        4PZ         0.00003  -0.00003  -0.00039   0.00082   0.00014
  14 2   H  1S         -0.00007   0.00001   0.05206  -0.08542   0.10271
  15        2S         -0.00014  -0.00028   0.05356  -0.10371   0.13027
  16        3S          0.00175  -0.00063  -0.00190  -0.01459   0.04197
  17 3   H  1S         -0.00008   0.00002   0.05360  -0.08949  -0.10711
  18        2S         -0.00016  -0.00026   0.05455  -0.10760  -0.13469
  19        3S          0.00180  -0.00063  -0.00194  -0.01562  -0.04327
  20 4   C  1S          0.32764   0.45834  -0.08719  -0.06791  -0.00030
  21        2S          0.26983   0.37711  -0.13766  -0.10892  -0.00047
  22        2PX        -0.00012   0.00011  -0.02736   0.03930   0.11636
  23        2PY        -0.00021   0.00020  -0.04598   0.07083  -0.07464
  24        2PZ        -0.00000  -0.00000  -0.00057  -0.00125   0.00019
  25        3S          0.00771   0.01231   0.36856   0.29764   0.00124
  26        3PX         0.00036  -0.00067  -0.03395   0.06347   0.18183
  27        3PY         0.00065  -0.00113  -0.05705   0.11349  -0.11535
  28        3PZ        -0.00002  -0.00001  -0.00101  -0.00221   0.00029
  29        4S         -0.00296  -0.01460   0.18852   0.23566  -0.00006
  30        4PX        -0.00071   0.00196  -0.00526   0.02787   0.10017
  31        4PY        -0.00128   0.00340  -0.00882   0.04837  -0.06270
  32        4PZ         0.00002   0.00003  -0.00041  -0.00111   0.00015
  33 5   H  1S         -0.00008  -0.00002   0.05070   0.09610  -0.08931
  34        2S         -0.00023   0.00021   0.05145   0.11332  -0.11171
  35        3S          0.00142   0.00116  -0.00091   0.01713  -0.03578
  36 6   H  1S         -0.00007  -0.00001   0.04927   0.09325   0.08402
  37        2S         -0.00024   0.00022   0.05060   0.11079   0.10587
  38        3S          0.00137   0.00114  -0.00096   0.01639   0.03430
                           6         7         8         9        10
                           O         O         O         V         V
     Eigenvalues --    -0.50947  -0.43643  -0.35694   0.08014   0.14114
   1 1   C  1S         -0.00207   0.00030  -0.00048   0.00141  -0.03470
   2        2S         -0.00289   0.00051  -0.00078   0.00234  -0.05569
   3        2PX         0.09400  -0.10928  -0.00179   0.00073  -0.03084
   4        2PY         0.17007   0.06500  -0.00290   0.00108  -0.06634
   5        2PZ         0.00255  -0.00005   0.17956  -0.18919  -0.00136
   6        3S          0.01357  -0.00126   0.00226  -0.00713   0.12175
   7        3PX         0.13593  -0.17486  -0.00252   0.00110  -0.03564
   8        3PY         0.24811   0.10449  -0.00406   0.00160  -0.08173
   9        3PZ         0.00406  -0.00007   0.28864  -0.27807  -0.00219
  10        4S         -0.06259  -0.00402   0.00376  -0.00769   1.25982
  11        4PX         0.06789  -0.10911  -0.00199   0.00664  -0.18499
  12        4PY         0.12559   0.06608  -0.00320   0.01055  -0.38516
  13        4PZ         0.00228  -0.00002   0.26678  -0.69642  -0.00737
  14 2   H  1S         -0.08267  -0.11401   0.00010   0.00216  -0.01950
  15        2S         -0.11524  -0.17618   0.00101   0.00335  -0.05150
  16        3S         -0.04300  -0.08146   0.00066   0.00943  -0.86206
  17 3   H  1S         -0.07971   0.11127   0.00007   0.00217  -0.01476
  18        2S         -0.11041   0.17099   0.00097   0.00343  -0.03968
  19        3S         -0.04081   0.07887   0.00064   0.00933  -0.78046
  20 4   C  1S         -0.01003  -0.00057  -0.00047  -0.00140  -0.03491
  21        2S         -0.01581  -0.00095  -0.00077  -0.00232  -0.05604
  22        2PX        -0.09850   0.12661   0.00174   0.00092   0.04113
  23        2PY        -0.16040  -0.07471   0.00332   0.00181   0.05902
  24        2PZ         0.00293   0.00017   0.17908   0.18935  -0.00151
  25        3S          0.04976   0.00271   0.00229   0.00692   0.12322
  26        3PX        -0.14618   0.20191   0.00244   0.00143   0.05097
  27        3PY        -0.23603  -0.11827   0.00469   0.00279   0.06991
  28        3PZ         0.00462   0.00025   0.28688   0.27812  -0.00226
  29        4S         -0.01893   0.00397   0.00329   0.00811   1.21228
  30        4PX        -0.07691   0.12977   0.00193   0.00686   0.27211
  31        4PY        -0.12272  -0.07493   0.00380   0.01279   0.41336
  32        4PZ         0.00270   0.00014   0.26753   0.69739  -0.00958
  33 5   H  1S         -0.07260  -0.12588   0.00010  -0.00217  -0.00922
  34        2S         -0.09799  -0.19521   0.00119  -0.00367  -0.03405
  35        3S         -0.03646  -0.09186   0.00062  -0.00898  -0.79722
  36 6   H  1S         -0.07912   0.12590   0.00007  -0.00217  -0.01385
  37        2S         -0.10752   0.19642   0.00113  -0.00367  -0.04529
  38        3S         -0.04031   0.09250   0.00058  -0.00918  -0.87739
                          11        12        13        14        15
                           V         V         V         V         V
     Eigenvalues --     0.16514   0.17032   0.24098   0.37032   0.39399
   1 1   C  1S          0.00192  -0.04490  -0.00003   0.00767   0.00091
   2        2S          0.00310  -0.07322  -0.00004   0.00988   0.00143
   3        2PX         0.09867  -0.01786  -0.09890  -0.03415  -0.02366
   4        2PY        -0.05316  -0.03625   0.05666  -0.06262   0.00968
   5        2PZ         0.00016  -0.00335  -0.00005  -0.00222  -0.00010
   6        3S         -0.00674   0.16646  -0.00027   0.03715  -0.00107
   7        3PX         0.14062  -0.00864  -0.10366  -0.03943  -0.10626
   8        3PY        -0.07745  -0.02340   0.06048  -0.07623   0.04962
   9        3PZ         0.00023  -0.00463  -0.00002  -0.00454  -0.00018
  10        4S         -0.08196   1.39868   0.01701  -2.34041  -0.16397
  11        4PX         0.59999  -0.10605  -1.17037  -1.49554  -0.52219
  12        4PY        -0.31449  -0.19901   0.66586  -2.60171   0.13594
  13        4PZ         0.00105  -0.02207  -0.00093  -0.02039  -0.00152
  14 2   H  1S         -0.02847  -0.02631  -0.01406  -0.06389   0.07447
  15        2S         -0.08090  -0.01902   0.02603  -0.71061   0.75489
  16        3S         -1.02275  -0.99224   1.52505  -0.23871  -0.31691
  17 3   H  1S          0.02846  -0.02540   0.01659  -0.05715  -0.07593
  18        2S          0.08056  -0.02173  -0.01916  -0.65995  -0.75956
  19        3S          1.12924  -0.97916  -1.55512  -0.32011   0.24556
  20 4   C  1S          0.00115   0.04289   0.00009  -0.01977  -0.00002
  21        2S          0.00183   0.06980   0.00017  -0.03274   0.00011
  22        2PX         0.09961  -0.02368   0.10105  -0.03887  -0.03124
  23        2PY        -0.06078  -0.03960  -0.05788  -0.06883   0.01371
  24        2PZ         0.00012   0.00353   0.00005   0.00169   0.00017
  25        3S         -0.00347  -0.15394  -0.00038   0.04873  -0.00408
  26        3PX         0.14300  -0.01879   0.11556  -0.09197  -0.10941
  27        3PY        -0.08615  -0.02960  -0.06472  -0.16457   0.05806
  28        3PZ         0.00016   0.00488   0.00003   0.00208   0.00031
  29        4S         -0.06157  -1.37671  -0.01299   3.13905   0.16069
  30        4PX         0.52313  -0.12268   1.12720  -1.04799  -0.57345
  31        4PY        -0.32870  -0.21799  -0.65755  -1.83650   0.12988
  32        4PZ         0.00076   0.02295   0.00096   0.01671   0.00107
  33 5   H  1S          0.03074   0.02390  -0.00593   0.00351  -0.08214
  34        2S          0.06574   0.02160   0.03401  -0.01538  -0.80905
  35        3S          1.07591   0.97677   1.55546   0.43732   0.47187
  36 6   H  1S         -0.03163   0.02434   0.00409  -0.00037   0.08839
  37        2S         -0.06707   0.01831  -0.03588  -0.04995   0.89796
  38        3S         -0.99388   0.96276  -1.53414   0.44315  -0.45755
                          16        17        18        19        20
                           V         V         V         V         V
     Eigenvalues --     0.40267   0.46463   0.48944   0.49376   0.59122
   1 1   C  1S         -0.02052  -0.01031   0.04666  -0.00024  -0.00031
   2        2S         -0.03563  -0.02537   0.07831  -0.00026  -0.00056
   3        2PX         0.03191   0.05997  -0.01398   0.00063   0.00110
   4        2PY         0.05847   0.10469  -0.01810   0.00074   0.00150
   5        2PZ         0.00032   0.00010  -0.00285  -0.15215  -0.19238
   6        3S          0.07645   0.33353  -0.10533  -0.00419  -0.00012
   7        3PX         0.11213   0.23863   0.02798   0.00019   0.00369
   8        3PY         0.21132   0.41388   0.06080  -0.00088   0.00505
   9        3PZ        -0.00188   0.00194  -0.01316  -0.62914  -0.68418
  10        4S          3.07647  -0.36662  -3.00712   0.04293   0.03694
  11        4PX         0.43472  -0.30326  -0.82214   0.01401   0.01115
  12        4PY         0.78596  -0.55804  -1.42055   0.02570   0.02071
  13        4PZ         0.00223  -0.00076   0.04692   0.68826   1.24033
  14 2   H  1S         -0.02225   0.03573   0.07398  -0.00144  -0.00086
  15        2S         -0.49126   0.35508   0.87425  -0.01345  -0.00672
  16        3S          0.37198  -0.10688  -0.64701   0.01551   0.01218
  17 3   H  1S         -0.02966   0.03803   0.07152  -0.00139  -0.00082
  18        2S         -0.55555   0.37993   0.84089  -0.01303  -0.00602
  19        3S          0.38704  -0.10667  -0.61189   0.01490   0.01184
  20 4   C  1S          0.00268   0.00055  -0.05081   0.00165   0.00034
  21        2S          0.00072  -0.00671  -0.08827   0.00299   0.00063
  22        2PX         0.01162  -0.05620  -0.02516  -0.00005   0.00105
  23        2PY         0.02173  -0.09619  -0.04649  -0.00024   0.00218
  24        2PZ        -0.00229   0.00117  -0.00293  -0.15237   0.19243
  25        3S          0.07629   0.29438   0.22072  -0.01141  -0.00103
  26        3PX        -0.03827  -0.23681  -0.04976  -0.00018   0.00370
  27        3PY        -0.05586  -0.41076  -0.08867  -0.00115   0.00760
  28        3PZ        -0.00626   0.00462  -0.01109  -0.63081   0.68351
  29        4S         -1.30182  -0.59032   3.17672  -0.05893  -0.03241
  30        4PX         1.42413   0.25509  -0.57905   0.00532   0.01176
  31        4PY         2.56230   0.41265  -0.97997   0.00920   0.01878
  32        4PZ        -0.02102   0.00944  -0.01933   0.69135  -1.23885
  33 5   H  1S         -0.04175   0.06274  -0.06682   0.00140   0.00084
  34        2S         -0.81904   0.65699  -0.86404   0.02135   0.00302
  35        3S         -0.30767  -0.22028   0.52635  -0.00408  -0.01207
  36 6   H  1S         -0.03479   0.06155  -0.06671   0.00141   0.00085
  37        2S         -0.73314   0.64067  -0.85899   0.02117   0.00321
  38        3S         -0.31439  -0.24166   0.55120  -0.00492  -0.01219
                          21        22        23        24        25
                           V         V         V         V         V
     Eigenvalues --     0.66597   0.69239   0.77416   0.77497   0.84465
   1 1   C  1S          0.00107   0.00042   0.06879   0.05597   0.00085
   2        2S          0.00222   0.00096   0.14572   0.11953   0.00201
   3        2PX        -0.14581  -0.18829   0.00683   0.11711  -0.00737
   4        2PY         0.08529   0.11414   0.00970   0.18884   0.01495
   5        2PZ        -0.00011  -0.00017   0.00096   0.00213   0.00008
   6        3S         -0.01822  -0.01483  -1.06606  -1.09149  -0.02457
   7        3PX        -0.65862  -0.65015  -0.04557   0.47922  -0.22509
   8        3PY         0.38067   0.39546  -0.08849   0.76305   0.17347
   9        3PZ        -0.00053  -0.00063   0.00358   0.00734   0.00018
  10        4S          0.03209   0.06846   1.37872   2.16190   0.00030
  11        4PX         1.08269   0.73582  -0.02842  -0.79685   4.57578
  12        4PY        -0.62799  -0.45964  -0.09279  -0.98287  -2.60252
  13        4PZ         0.00061  -0.00039  -0.00291  -0.02733   0.00409
  14 2   H  1S          0.02835   0.05687   0.01865   0.02906  -0.02751
  15        2S          0.19485   0.60829   0.08555   0.07000  -1.59968
  16        3S         -1.10067  -1.03853  -0.40316  -1.00431  -1.23651
  17 3   H  1S         -0.02739  -0.05636   0.01884   0.02981   0.03167
  18        2S         -0.21351  -0.64261   0.11529   0.01660   1.64419
  19        3S          1.08666   0.99497  -0.41679  -1.18065   1.23708
  20 4   C  1S          0.00131   0.00011   0.09019   0.00654   0.00047
  21        2S          0.00267   0.00014   0.19175   0.01314   0.00086
  22        2PX        -0.13835   0.19561  -0.07716   0.07662   0.00816
  23        2PY         0.07936  -0.10751  -0.14131   0.14151   0.00536
  24        2PZ        -0.00009   0.00017   0.00259  -0.00139  -0.00011
  25        3S         -0.01930   0.00629  -1.54892   0.05542   0.00029
  26        3PX        -0.64231   0.67863  -0.25617   0.36374   0.22128
  27        3PY         0.37205  -0.37035  -0.47763   0.67223  -0.07924
  28        3PZ        -0.00047   0.00061   0.00906  -0.00522  -0.00027
  29        4S          0.01381  -0.05532   2.61497  -0.65946  -0.02219
  30        4PX         1.27906  -0.87933   0.40769  -0.35348  -4.11934
  31        4PY        -0.73655   0.46853   0.81267  -0.95685   2.35996
  32        4PZ         0.00098   0.00034  -0.02380   0.02155  -0.00351
  33 5   H  1S         -0.02086   0.05621   0.03372  -0.00628  -0.02407
  34        2S         -0.09386   0.56372   0.10582   0.05819  -1.40592
  35        3S          1.06717  -1.06667  -1.06132   0.63277  -1.08885
  36 6   H  1S          0.02177  -0.05642   0.03329  -0.00550   0.02322
  37        2S          0.08781  -0.52687   0.09641  -0.00994   1.38192
  38        3S         -1.06992   1.10040  -0.98215   0.51413   1.10420
                          26        27        28        29        30
                           V         V         V         V         V
     Eigenvalues --     0.95257   2.23094   2.29129   2.33306   2.40828
   1 1   C  1S          0.09612  -0.00945  -0.01448   0.00045   0.00052
   2        2S          0.19981   0.00270  -0.01381   0.00093   0.00062
   3        2PX        -0.09154  -0.06848  -0.13289   0.35999   0.40225
   4        2PY        -0.15862  -0.13157  -0.23321  -0.20426  -0.22607
   5        2PZ         0.00012  -0.00617  -0.00929   0.00018   0.00058
   6        3S         -1.54836  -0.18939  -0.04441  -0.00091   0.00508
   7        3PX        -0.23573   0.06073   0.20783  -0.43569  -0.56255
   8        3PY        -0.39928   0.13255   0.38096   0.24979   0.31767
   9        3PZ        -0.00112   0.00609   0.01157  -0.00016  -0.00071
  10        4S          5.70891  -0.08095  -0.87248   0.00100   0.01571
  11        4PX         1.22010   0.05547  -0.18642  -0.09354  -1.00047
  12        4PY         1.98899   0.07193  -0.36390   0.04189   0.54774
  13        4PZ        -0.01009   0.00081   0.00429  -0.00021  -0.00131
  14 2   H  1S          0.01527  -0.68652  -0.81837  -0.72487  -0.62675
  15        2S         -0.29056   0.97011   1.21921   1.13843   1.42938
  16        3S         -0.09892  -0.29409  -0.49122  -0.47479  -0.34798
  17 3   H  1S          0.01575  -0.67653  -0.81448   0.71709   0.65135
  18        2S         -0.25122   0.95700   1.22005  -1.13140  -1.48092
  19        3S         -0.07298  -0.27030  -0.46885   0.46230   0.33835
  20 4   C  1S         -0.09364  -0.01141   0.01248   0.00057  -0.00040
  21        2S         -0.19415  -0.00181   0.01324   0.00081  -0.00074
  22        2PX        -0.09279   0.14448  -0.12116   0.28814  -0.42187
  23        2PY        -0.16003   0.24909  -0.19935  -0.16827   0.24429
  24        2PZ         0.00019  -0.00860   0.00939   0.00033  -0.00038
  25        3S          1.49774  -0.16205   0.01140   0.00038  -0.00025
  26        3PX        -0.22862  -0.18531   0.20888  -0.35472   0.58943
  27        3PY        -0.40137  -0.31214   0.33655   0.20369  -0.34164
  28        3PZ         0.00209   0.00924  -0.01192  -0.00034   0.00051
  29        4S         -5.68805  -0.20917   0.89924   0.01857  -0.00292
  30        4PX         1.08961  -0.01477  -0.19587   0.13944   0.85565
  31        4PY         1.98566  -0.03887  -0.30167  -0.07848  -0.51043
  32        4PZ         0.00624   0.00335  -0.00348  -0.00001   0.00120
  33 5   H  1S         -0.01776  -0.80586   0.64732   0.68787  -0.71111
  34        2S          0.28865   1.17867  -0.99670  -0.98282   1.49691
  35        3S          0.05565  -0.35622   0.37784   0.50026  -0.43729
  36 6   H  1S         -0.01765  -0.80198   0.67296  -0.67124   0.70617
  37        2S          0.31920   1.17021  -1.02737   0.95495  -1.47873
  38        3S          0.07133  -0.36229   0.41247  -0.49632   0.44775
                          31        32        33        34        35
                           V         V         V         V         V
     Eigenvalues --     2.67139   2.81835   2.87742   2.95149   3.14329
   1 1   C  1S          0.00023  -0.00136  -0.01366   0.00004  -0.00989
   2        2S          0.00012  -0.00391  -0.04425  -0.00025  -0.03058
   3        2PX         0.00219  -0.03937  -0.48296  -0.71768   0.43731
   4        2PY         0.00255  -0.06908  -0.88047   0.40206   0.75889
   5        2PZ        -0.92675   0.93513  -0.07306  -0.00097   0.00211
   6        3S         -0.00017   0.03230   0.38610   0.00452   0.25830
   7        3PX        -0.00107   0.06801   0.84734   0.86274  -0.40942
   8        3PY        -0.00074   0.11836   1.51256  -0.46806  -0.70646
   9        3PZ         0.94229  -1.14416   0.09169   0.00128  -0.00268
  10        4S          0.00540  -0.07579  -0.88766  -0.01243  -0.51289
  11        4PX        -0.00162  -0.05429  -0.71530  -0.67226   0.19688
  12        4PY        -0.00263  -0.09528  -1.28067   0.35302   0.33046
  13        4PZ        -0.33942   0.62114  -0.05788  -0.00102   0.00122
  14 2   H  1S          0.00625   0.01065   0.25848  -0.37148  -0.20420
  15        2S         -0.00700  -0.00659  -0.21241   0.39126   0.15428
  16        3S         -0.00161  -0.02211  -0.30127   0.27171   0.04250
  17 3   H  1S          0.00635   0.01025   0.24631   0.37242  -0.20797
  18        2S         -0.00725  -0.00555  -0.19050  -0.38768   0.15831
  19        3S         -0.00189  -0.02230  -0.30196  -0.29116   0.05416
  20 4   C  1S          0.00030   0.00131   0.01330   0.00061  -0.00725
  21        2S          0.00035   0.00411   0.04809   0.00143  -0.02207
  22        2PX        -0.00431  -0.03416  -0.39700  -0.81954  -0.51293
  23        2PY        -0.00851  -0.06143  -0.70507   0.45037  -0.91350
  24        2PZ        -0.92290  -0.93850   0.07783  -0.00003   0.00852
  25        3S         -0.00217  -0.03557  -0.43712  -0.01053   0.18783
  26        3PX         0.00486   0.06276   0.76145   0.98189   0.56126
  27        3PY         0.00934   0.11174   1.34453  -0.53237   1.01014
  28        3PZ         0.93760   1.14735  -0.09805   0.00005  -0.01092
  29        4S          0.00964   0.07686   0.90522   0.03043  -0.35399
  30        4PX        -0.00092  -0.05412  -0.71261  -0.70353  -0.35399
  31        4PY        -0.00212  -0.09501  -1.24410   0.37649  -0.64159
  32        4PZ        -0.33696  -0.62193   0.06263  -0.00007   0.00871
  33 5   H  1S          0.00594  -0.01486  -0.29859   0.41832  -0.27824
  34        2S         -0.00744   0.01211   0.27413  -0.42219   0.21903
  35        3S         -0.00075   0.02071   0.28642  -0.25164   0.14367
  36 6   H  1S          0.00602  -0.01493  -0.29475  -0.43269  -0.26337
  37        2S         -0.00774   0.01269   0.27714   0.43657   0.20777
  38        3S         -0.00048   0.01962   0.26959   0.25172   0.13164
                          36        37        38
                           V         V         V
     Eigenvalues --     3.32176  23.35317  23.70684
   1 1   C  1S         -0.00038  -1.41892  -1.44749
   2        2S         -0.00047   1.51336   1.56539
   3        2PX         0.79579  -0.00635   0.01212
   4        2PY        -0.44177  -0.01026   0.02134
   5        2PZ         0.00090  -0.00026  -0.00013
   6        3S         -0.00186  -0.29788  -0.39878
   7        3PX        -1.13683   0.02329  -0.05585
   8        3PY         0.62486   0.03834  -0.09732
   9        3PZ        -0.00134   0.00074   0.00039
  10        4S         -0.00060   0.28008   0.76743
  11        4PX         2.00459  -0.02398   0.13434
  12        4PY        -1.09939  -0.04031   0.23035
  13        4PZ         0.00230  -0.00124  -0.00161
  14 2   H  1S          0.56858   0.01245   0.00686
  15        2S         -0.88955   0.00776  -0.01458
  16        3S         -0.46269  -0.08369  -0.03927
  17 3   H  1S         -0.58166   0.01447   0.00815
  18        2S          0.90845   0.00737  -0.01437
  19        3S          0.49354  -0.08624  -0.03917
  20 4   C  1S          0.00013  -1.44268   1.42365
  21        2S         -0.00015   1.53864  -1.53956
  22        2PX        -0.69798   0.00624   0.01257
  23        2PY         0.40295   0.01138   0.02132
  24        2PZ        -0.00077  -0.00032   0.00007
  25        3S          0.00537  -0.30144   0.39138
  26        3PX         0.99639  -0.02306  -0.05646
  27        3PY        -0.58612  -0.04152  -0.09689
  28        3PZ         0.00117   0.00091  -0.00017
  29        4S         -0.02175   0.27444  -0.76221
  30        4PX        -1.76413   0.02527   0.13006
  31        4PY         1.04869   0.04656   0.22607
  32        4PZ        -0.00205  -0.00148   0.00115
  33 5   H  1S          0.48034   0.01459  -0.00541
  34        2S         -0.74919   0.00771   0.01418
  35        3S         -0.44026  -0.08392   0.03767
  36 6   H  1S         -0.47299   0.01280  -0.00408
  37        2S          0.74021   0.00890   0.01387
  38        3S          0.42340  -0.08145   0.03730
     Density Matrix:
                           1         2         3         4         5
   1 1   C  1S          0.65939
   2        2S          0.56147   0.49193
   3        2PX        -0.00048  -0.00063   0.08415
   4        2PY        -0.00127  -0.00176   0.00381   0.08762
   5        2PZ         0.00005   0.00008  -0.00007  -0.00017   0.06450
   6        3S         -0.08882  -0.15366   0.00248   0.00628  -0.00013
   7        3PX         0.00090   0.00139   0.13038   0.00120  -0.00006
   8        3PY         0.00119   0.00183   0.00125   0.13094  -0.00017
   9        3PZ         0.00009   0.00016  -0.00012  -0.00027   0.10368
  10        4S         -0.07937  -0.11428  -0.01630  -0.02924   0.00038
  11        4PX         0.00026   0.00161   0.06986  -0.00453  -0.00028
  12        4PY         0.00066   0.00313  -0.00458   0.06528  -0.00048
  13        4PZ        -0.00004  -0.00011  -0.00045  -0.00074   0.09582
  14 2   H  1S         -0.02051  -0.03267   0.03482  -0.06262  -0.00055
  15        2S         -0.02302  -0.03682   0.04878  -0.08771  -0.00041
  16        3S          0.00049  -0.00083   0.02031  -0.03315   0.00002
  17 3   H  1S         -0.02108  -0.03355  -0.07254  -0.00207  -0.00066
  18        2S         -0.02339  -0.03735  -0.10026  -0.00268  -0.00054
  19        3S          0.00055  -0.00076  -0.03815   0.00074  -0.00003
  20 4   C  1S          0.00607   0.00979  -0.01091  -0.01892  -0.00022
  21        2S          0.00975   0.01524  -0.01747  -0.03030  -0.00036
  22        2PX         0.01032   0.01649  -0.01248  -0.03216   0.00026
  23        2PY         0.01795   0.02869  -0.03215  -0.04977   0.00054
  24        2PZ        -0.00025  -0.00040  -0.00019  -0.00024   0.06432
  25        3S         -0.02617  -0.03976   0.04895   0.08504   0.00110
  26        3PX         0.01588   0.02459  -0.01833  -0.04603   0.00033
  27        3PY         0.02761   0.04275  -0.04583  -0.07148   0.00072
  28        3PZ        -0.00042  -0.00068  -0.00033  -0.00045   0.10304
  29        4S          0.00536   0.00391   0.02168   0.03819   0.00124
  30        4PX         0.00306   0.00634  -0.01326  -0.02126   0.00038
  31        4PY         0.00514   0.01074  -0.02130  -0.03776   0.00082
  32        4PZ        -0.00035  -0.00056  -0.00053  -0.00080   0.09609
  33 5   H  1S          0.00419   0.00687  -0.00173  -0.01251  -0.00025
  34        2S          0.00616   0.01023   0.00363  -0.02489   0.00003
  35        3S          0.00312   0.00453   0.00439  -0.01729   0.00006
  36 6   H  1S          0.00413   0.00678  -0.00995  -0.00770  -0.00026
  37        2S          0.00609   0.01013  -0.02334  -0.00928   0.00000
  38        3S          0.00308   0.00450  -0.01715  -0.00493   0.00004
                           6         7         8         9        10
   6        3S          0.45201
   7        3PX        -0.00190   0.20233
   8        3PY        -0.00144  -0.00495   0.19620
   9        3PZ        -0.00035  -0.00010  -0.00026   0.16667
  10        4S          0.27318  -0.02718  -0.04969   0.00053   0.18319
  11        4PX        -0.00702   0.10877  -0.01041  -0.00046  -0.01563
  12        4PY        -0.01285  -0.01053   0.09825  -0.00077  -0.03009
  13        4PZ         0.00050  -0.00059  -0.00097   0.15403   0.00120
  14 2   H  1S          0.08734   0.05640  -0.09780  -0.00092   0.06979
  15        2S          0.09856   0.07940  -0.13649  -0.00070   0.08321
  16        3S          0.00635   0.03338  -0.05097   0.00002   0.01188
  17 3   H  1S          0.08979  -0.11365  -0.00137  -0.00109   0.06982
  18        2S          0.10007  -0.15690  -0.00098  -0.00090   0.08167
  19        3S          0.00634  -0.05948   0.00310  -0.00005   0.01068
  20 4   C  1S         -0.02658  -0.01707  -0.02961  -0.00038   0.00499
  21        2S         -0.04021  -0.02654  -0.04609  -0.00062   0.00368
  22        2PX        -0.04615  -0.01772  -0.04546   0.00044  -0.01674
  23        2PY        -0.08027  -0.04543  -0.07069   0.00091  -0.02888
  24        2PZ         0.00119  -0.00026  -0.00031   0.10340   0.00132
  25        3S          0.10209   0.07199   0.12531   0.00186   0.00118
  26        3PX        -0.06652  -0.02616  -0.06488   0.00058  -0.02474
  27        3PY        -0.11558  -0.06457  -0.10146   0.00123  -0.04259
  28        3PZ         0.00197  -0.00047  -0.00058   0.16564   0.00219
  29        4S          0.00232   0.03288   0.05814   0.00207  -0.03183
  30        4PX        -0.02245  -0.01977  -0.02972   0.00063  -0.00581
  31        4PY        -0.03836  -0.02981  -0.05432   0.00135  -0.00913
  32        4PZ         0.00163  -0.00075  -0.00109   0.15446   0.00202
  33 5   H  1S         -0.02040  -0.00050  -0.01777  -0.00037  -0.01383
  34        2S         -0.03052   0.00901  -0.03644   0.00010  -0.01757
  35        3S         -0.01158   0.00842  -0.02600   0.00011  -0.00279
  36 6   H  1S         -0.02011  -0.01497  -0.00910  -0.00039  -0.01413
  37        2S         -0.03029  -0.03576  -0.01012   0.00006  -0.01849
  38        3S         -0.01155  -0.02655  -0.00570   0.00007  -0.00340
                          11        12        13        14        15
  11        4PX         0.05954
  12        4PY        -0.00920   0.05074
  13        4PZ        -0.00069  -0.00110   0.14235
  14 2   H  1S          0.03352  -0.05389  -0.00047   0.08078
  15        2S          0.04807  -0.07500  -0.00016   0.10928   0.14983
  16        3S          0.02073  -0.02781   0.00015   0.03660   0.05237
  17 3   H  1S         -0.06274   0.00175  -0.00055  -0.01333  -0.02444
  18        2S         -0.08697   0.00389  -0.00025  -0.02434  -0.04173
  19        3S         -0.03324   0.00417   0.00011  -0.01766  -0.02662
  20 4   C  1S         -0.00324  -0.00594  -0.00035   0.00422   0.00683
  21        2S         -0.00666  -0.01205  -0.00056   0.00698   0.01141
  22        2PX        -0.01327  -0.01958   0.00060   0.00176  -0.00267
  23        2PY        -0.01961  -0.03654   0.00117   0.01134   0.02424
  24        2PZ        -0.00037  -0.00052   0.09556  -0.00029  -0.00012
  25        3S          0.02347   0.04210   0.00165  -0.02106  -0.03436
  26        3PX        -0.02040  -0.02781   0.00081   0.00110  -0.00687
  27        3PY        -0.02777  -0.05331   0.00163   0.01697   0.03638
  28        3PZ        -0.00061  -0.00086   0.15308  -0.00043  -0.00015
  29        4S          0.00889   0.01703   0.00191  -0.01842  -0.02572
  30        4PX        -0.01497  -0.01225   0.00075  -0.00161  -0.00824
  31        4PY        -0.01238  -0.02959   0.00154   0.01531   0.02737
  32        4PZ        -0.00075  -0.00112   0.14275  -0.00025   0.00009
  33 5   H  1S          0.00227  -0.01580  -0.00018   0.01122   0.02332
  34        2S          0.00967  -0.02730   0.00031   0.02376   0.04427
  35        3S          0.00779  -0.01567   0.00018   0.01660   0.02780
  36 6   H  1S         -0.01460  -0.00540  -0.00019  -0.00916  -0.01829
  37        2S         -0.02812  -0.00449   0.00028  -0.01892  -0.03440
  38        3S         -0.01719  -0.00081   0.00016  -0.01028  -0.01787
                          16        17        18        19        20
  16        3S          0.02093
  17 3   H  1S         -0.01786   0.08218
  18        2S         -0.02673   0.10962   0.14825
  19        3S         -0.01250   0.03592   0.05079   0.02002
  20 4   C  1S          0.00381   0.00430   0.00686   0.00381   0.65948
  21        2S          0.00565   0.00711   0.01143   0.00561   0.56163
  22        2PX        -0.00343   0.00898   0.02226   0.01682   0.00122
  23        2PY         0.01781   0.00733   0.00972   0.00573   0.00179
  24        2PZ         0.00001  -0.00028  -0.00009   0.00004   0.00004
  25        3S         -0.01469  -0.02136  -0.03424  -0.01446  -0.08937
  26        3PX        -0.00678   0.01428   0.03499   0.02620  -0.00048
  27        3PY         0.02680   0.00959   0.01211   0.00728  -0.00114
  28        3PZ         0.00003  -0.00042  -0.00009   0.00007   0.00009
  29        4S         -0.00660  -0.01805  -0.02457  -0.00591  -0.07983
  30        4PX        -0.00692   0.01413   0.02781   0.01723  -0.00020
  31        4PY         0.01612   0.00672   0.00700   0.00214  -0.00017
  32        4PZ         0.00014  -0.00024   0.00013   0.00016  -0.00004
  33 5   H  1S          0.01626  -0.00907  -0.01811  -0.00940  -0.02031
  34        2S          0.02735  -0.01865  -0.03380  -0.01687  -0.02207
  35        3S          0.01461  -0.01013  -0.01751  -0.00895   0.00068
  36 6   H  1S         -0.00956   0.01122   0.02320   0.01594  -0.01992
  37        2S         -0.01729   0.02377   0.04408   0.02694  -0.02196
  38        3S         -0.00919   0.01663   0.02766   0.01441   0.00056
                          21        22        23        24        25
  21        2S          0.49217
  22        2PX         0.00175   0.08314
  23        2PY         0.00254   0.00341   0.08804
  24        2PZ         0.00006   0.00007   0.00007   0.06416
  25        3S         -0.15445  -0.00559  -0.00826  -0.00005   0.45425
  26        3PX        -0.00072   0.12910   0.00171   0.00003  -0.00024
  27        3PY        -0.00173   0.00176   0.13196  -0.00001   0.00110
  28        3PZ         0.00015   0.00010   0.00012   0.10278  -0.00028
  29        4S         -0.11526   0.01294   0.02155   0.00026   0.27699
  30        4PX        -0.00144   0.07381  -0.00522   0.00026   0.00606
  31        4PY        -0.00216  -0.00509   0.06761   0.00048   0.00960
  32        4PZ        -0.00011   0.00041   0.00074   0.09584   0.00054
  33 5   H  1S         -0.03233  -0.03358   0.06438  -0.00076   0.08645
  34        2S         -0.03525  -0.05003   0.08861  -0.00060   0.09431
  35        3S         -0.00048  -0.02301   0.03328  -0.00008   0.00537
  36 6   H  1S         -0.03174   0.07165   0.00271  -0.00066   0.08484
  37        2S         -0.03510   0.10150   0.00039  -0.00045   0.09389
  38        3S         -0.00064   0.04069  -0.00360  -0.00003   0.00568
                          26        27        28        29        30
  26        3PX         0.20077
  27        3PY        -0.00240   0.19833
  28        3PZ         0.00004  -0.00001   0.16465
  29        4S          0.02426   0.04005   0.00029   0.18336
  30        4PX         0.11522  -0.01056   0.00041   0.01504   0.06721
  31        4PY        -0.01043   0.10213   0.00078   0.02346  -0.01031
  32        4PZ         0.00051   0.00096   0.15353   0.00098   0.00063
  33 5   H  1S         -0.05333   0.10068  -0.00125   0.06617  -0.03457
  34        2S         -0.07991   0.13807  -0.00099   0.07499  -0.05219
  35        3S         -0.03721   0.05119  -0.00012   0.00835  -0.02443
  36 6   H  1S          0.11302   0.00373  -0.00109   0.06651   0.06636
  37        2S          0.15989  -0.00075  -0.00078   0.07692   0.09438
  38        3S          0.06376  -0.00693  -0.00005   0.00959   0.03801
                          31        32        33        34        35
  31        4PY         0.05410
  32        4PZ         0.00123   0.14316
  33 5   H  1S          0.05628  -0.00065   0.08180
  34        2S          0.07738  -0.00028   0.11033   0.15136
  35        3S          0.02888   0.00006   0.03801   0.05479   0.02269
  36 6   H  1S         -0.00183  -0.00058  -0.01230  -0.02621  -0.02027
  37        2S         -0.00649  -0.00017  -0.02633  -0.04895  -0.03212
  38        3S         -0.00666   0.00009  -0.02051  -0.03226  -0.01594
                          36        37        38
  36 6   H  1S          0.08059
  37        2S          0.10991   0.15237
  38        3S          0.03840   0.05581   0.02326
    Full Mulliken population analysis:
                           1         2         3         4         5
   1 1   C  1S          0.65939
   2        2S          0.49322   0.49193
   3        2PX         0.00000   0.00000   0.08415
   4        2PY         0.00000   0.00000   0.00000   0.08762
   5        2PZ         0.00000   0.00000   0.00000   0.00000   0.06450
   6        3S         -0.02924  -0.06435   0.00000   0.00000   0.00000
   7        3PX         0.00000   0.00000   0.08202   0.00000   0.00000
   8        3PY         0.00000   0.00000   0.00000   0.08237   0.00000
   9        3PZ         0.00000   0.00000   0.00000   0.00000   0.06523
  10        4S         -0.01220  -0.02139   0.00000   0.00000   0.00000
  11        4PX         0.00000   0.00000   0.01538   0.00000   0.00000
  12        4PY         0.00000   0.00000   0.00000   0.01438   0.00000
  13        4PZ         0.00000   0.00000   0.00000   0.00000   0.02110
  14 2   H  1S         -0.00022  -0.00032   0.00182   0.00543   0.00000
  15        2S         -0.00166  -0.00318   0.00437   0.01301   0.00000
  16        3S          0.00004  -0.00008   0.00070   0.00189  -0.00000
  17 3   H  1S         -0.00025  -0.00036   0.00781  -0.00000   0.00000
  18        2S         -0.00174  -0.00334   0.01766  -0.00000   0.00000
  19        3S          0.00004  -0.00007   0.00254   0.00000   0.00000
  20 4   C  1S          0.00000   0.00000  -0.00002  -0.00006   0.00000
  21        2S          0.00000  -0.00000  -0.00002  -0.00006   0.00000
  22        2PX        -0.00002  -0.00002   0.00011   0.00086   0.00000
  23        2PY        -0.00006  -0.00005   0.00086   0.00197   0.00000
  24        2PZ        -0.00000  -0.00000  -0.00000  -0.00000   0.00042
  25        3S         -0.00059  -0.00099   0.00256   0.00770  -0.00000
  26        3PX        -0.00054  -0.00099   0.00019   0.00557   0.00000
  27        3PY        -0.00162  -0.00297   0.00555   0.01074   0.00000
  28        3PZ        -0.00000  -0.00000  -0.00000  -0.00000   0.00613
  29        4S          0.00034   0.00030   0.00098   0.00300  -0.00000
  30        4PX        -0.00018  -0.00045  -0.00072   0.00147   0.00000
  31        4PY        -0.00052  -0.00132   0.00148   0.00098   0.00000
  32        4PZ        -0.00000  -0.00000  -0.00000  -0.00000   0.00905
  33 5   H  1S          0.00000   0.00000  -0.00000  -0.00000   0.00000
  34        2S          0.00001   0.00002   0.00000  -0.00031  -0.00000
  35        3S          0.00007   0.00012   0.00002  -0.00069  -0.00000
  36 6   H  1S          0.00000   0.00000  -0.00000  -0.00000   0.00000
  37        2S          0.00001   0.00002  -0.00023  -0.00006  -0.00000
  38        3S          0.00007   0.00012  -0.00056  -0.00011  -0.00000
                           6         7         8         9        10
   6        3S          0.45201
   7        3PX         0.00000   0.20233
   8        3PY         0.00000   0.00000   0.19620
   9        3PZ         0.00000   0.00000   0.00000   0.16667
  10        4S          0.21163   0.00000   0.00000   0.00000   0.18319
  11        4PX         0.00000   0.07108   0.00000   0.00000   0.00000
  12        4PY         0.00000   0.00000   0.06420   0.00000   0.00000
  13        4PZ         0.00000   0.00000   0.00000   0.10065   0.00000
  14 2   H  1S          0.01584   0.01101   0.03163   0.00000   0.01837
  15        2S          0.04119   0.01999   0.05691   0.00000   0.04779
  16        3S          0.00292   0.00402   0.01017  -0.00000   0.00895
  17 3   H  1S          0.01692   0.04405  -0.00000   0.00001   0.01864
  18        2S          0.04272   0.07707  -0.00000   0.00001   0.04743
  19        3S          0.00294   0.01381   0.00000   0.00000   0.00810
  20 4   C  1S         -0.00060  -0.00058  -0.00174   0.00000   0.00032
  21        2S         -0.00101  -0.00106  -0.00320   0.00000   0.00028
  22        2PX         0.00241   0.00019   0.00550   0.00000   0.00076
  23        2PY         0.00727   0.00550   0.01062   0.00000   0.00227
  24        2PZ         0.00000  -0.00000  -0.00000   0.00615   0.00000
  25        3S          0.02180   0.01351   0.04071  -0.00000   0.00045
  26        3PX         0.01248  -0.00127   0.01852   0.00000   0.00381
  27        3PY         0.03755   0.01844   0.02851   0.00000   0.01137
  28        3PZ         0.00000  -0.00000  -0.00000   0.03537   0.00000
  29        4S          0.00088   0.00507   0.01553  -0.00000  -0.02000
  30        4PX         0.00631  -0.00406   0.00588   0.00000   0.00176
  31        4PY         0.01867   0.00590   0.00125   0.00000   0.00479
  32        4PZ         0.00000  -0.00000  -0.00000   0.04939   0.00000
  33 5   H  1S         -0.00005  -0.00000  -0.00019   0.00000  -0.00074
  34        2S         -0.00118   0.00007  -0.00319  -0.00000  -0.00295
  35        3S         -0.00189   0.00012  -0.00418  -0.00000  -0.00100
  36 6   H  1S         -0.00005  -0.00013  -0.00005   0.00000  -0.00074
  37        2S         -0.00114  -0.00252  -0.00050  -0.00000  -0.00305
  38        3S         -0.00186  -0.00349  -0.00052  -0.00000  -0.00121
                          11        12        13        14        15
  11        4PX         0.05954
  12        4PY         0.00000   0.05074
  13        4PZ         0.00000   0.00000   0.14235
  14 2   H  1S          0.00648   0.01726   0.00000   0.08078
  15        2S          0.01567   0.04048   0.00000   0.07719   0.14983
  16        3S          0.00530   0.01178  -0.00000   0.01368   0.04132
  17 3   H  1S          0.02351   0.00000   0.00000  -0.00001  -0.00060
  18        2S          0.05473   0.00001   0.00000  -0.00060  -0.00501
  19        3S          0.01635   0.00001  -0.00000  -0.00192  -0.00760
  20 4   C  1S         -0.00019  -0.00060   0.00000   0.00000   0.00002
  21        2S         -0.00047  -0.00148   0.00000   0.00000   0.00003
  22        2PX        -0.00072   0.00136   0.00000  -0.00000   0.00000
  23        2PY         0.00136   0.00094   0.00000  -0.00000  -0.00037
  24        2PZ        -0.00000  -0.00000   0.00900   0.00000   0.00000
  25        3S          0.00659   0.02049  -0.00000  -0.00007  -0.00154
  26        3PX        -0.00419   0.00551   0.00000  -0.00000   0.00003
  27        3PY         0.00550   0.00123   0.00000  -0.00023  -0.00363
  28        3PZ        -0.00000  -0.00000   0.04895   0.00000   0.00000
  29        4S          0.00269   0.00894  -0.00000  -0.00109  -0.00466
  30        4PX        -0.00722   0.00310   0.00000   0.00001   0.00015
  31        4PY         0.00313  -0.00562   0.00000  -0.00245  -0.01038
  32        4PZ        -0.00000  -0.00000   0.08967   0.00000  -0.00000
  33 5   H  1S          0.00003  -0.00234   0.00000   0.00000   0.00000
  34        2S          0.00031  -0.00979  -0.00000   0.00000   0.00016
  35        3S          0.00032  -0.00723  -0.00000   0.00023   0.00147
  36 6   H  1S         -0.00175  -0.00045   0.00000  -0.00000  -0.00004
  37        2S         -0.00821  -0.00092  -0.00000  -0.00004  -0.00093
  38        3S         -0.00650  -0.00021  -0.00000  -0.00047  -0.00249
                          16        17        18        19        20
  16        3S          0.02093
  17 3   H  1S         -0.00194   0.08218
  18        2S         -0.00763   0.07743   0.14825
  19        3S         -0.00641   0.01342   0.04007   0.02002
  20 4   C  1S          0.00010   0.00000   0.00002   0.00010   0.65948
  21        2S          0.00017   0.00000   0.00003   0.00017   0.49336
  22        2PX         0.00001  -0.00000  -0.00029  -0.00060   0.00000
  23        2PY        -0.00075  -0.00000  -0.00008  -0.00013   0.00000
  24        2PZ        -0.00000   0.00000   0.00000  -0.00000   0.00000
  25        3S         -0.00255  -0.00007  -0.00155  -0.00252  -0.02942
  26        3PX         0.00005  -0.00016  -0.00294  -0.00370   0.00000
  27        3PY        -0.00451  -0.00007  -0.00067  -0.00067   0.00000
  28        3PZ        -0.00000   0.00000   0.00000  -0.00000   0.00000
  29        4S         -0.00249  -0.00107  -0.00447  -0.00223  -0.01228
  30        4PX         0.00016  -0.00190  -0.00885  -0.00683   0.00000
  31        4PY        -0.00763  -0.00059  -0.00146  -0.00056   0.00000
  32        4PZ        -0.00000   0.00000  -0.00000  -0.00000   0.00000
  33 5   H  1S          0.00023  -0.00000  -0.00004  -0.00043  -0.00023
  34        2S          0.00145  -0.00004  -0.00091  -0.00235  -0.00161
  35        3S          0.00247  -0.00046  -0.00244  -0.00286   0.00005
  36 6   H  1S         -0.00044   0.00000   0.00000   0.00022  -0.00021
  37        2S         -0.00241   0.00000   0.00016   0.00142  -0.00156
  38        3S         -0.00294   0.00023   0.00146   0.00243   0.00004
                          21        22        23        24        25
  21        2S          0.49217
  22        2PX         0.00000   0.08314
  23        2PY         0.00000   0.00000   0.08804
  24        2PZ         0.00000   0.00000   0.00000   0.06416
  25        3S         -0.06468   0.00000   0.00000   0.00000   0.45425
  26        3PX         0.00000   0.08122   0.00000   0.00000   0.00000
  27        3PY         0.00000   0.00000   0.08302   0.00000   0.00000
  28        3PZ         0.00000   0.00000   0.00000   0.06466   0.00000
  29        4S         -0.02157   0.00000   0.00000   0.00000   0.21459
  30        4PX         0.00000   0.01626   0.00000   0.00000   0.00000
  31        4PY         0.00000   0.00000   0.01489   0.00000   0.00000
  32        4PZ         0.00000   0.00000   0.00000   0.02111   0.00000
  33 5   H  1S         -0.00033   0.00151   0.00602   0.00000   0.01593
  34        2S         -0.00309   0.00379   0.01392   0.00000   0.03977
  35        3S         -0.00005   0.00067   0.00200   0.00000   0.00247
  36 6   H  1S         -0.00030   0.00704   0.00002   0.00000   0.01513
  37        2S         -0.00299   0.01740   0.00000   0.00000   0.03887
  38        3S         -0.00006   0.00271  -0.00002   0.00000   0.00260
                          26        27        28        29        30
  26        3PX         0.20077
  27        3PY         0.00000   0.19833
  28        3PZ         0.00000   0.00000   0.16465
  29        4S          0.00000   0.00000   0.00000   0.18336
  30        4PX         0.07529   0.00000   0.00000   0.00000   0.06721
  31        4PY         0.00000   0.06674   0.00000   0.00000   0.00000
  32        4PZ         0.00000   0.00000   0.10032   0.00000   0.00000
  33 5   H  1S          0.00884   0.03464   0.00001   0.01752   0.00562
  34        2S          0.01695   0.06080   0.00001   0.04326   0.01427
  35        3S          0.00376   0.01073   0.00000   0.00630   0.00523
  36 6   H  1S          0.04211   0.00010   0.00001   0.01740   0.02474
  37        2S          0.07736  -0.00003   0.00001   0.04396   0.05939
  38        3S          0.01484  -0.00012   0.00000   0.00720   0.01881
                          31        32        33        34        35
  31        4PY         0.05410
  32        4PZ         0.00000   0.14316
  33 5   H  1S          0.01898   0.00000   0.08180
  34        2S          0.04392   0.00000   0.07793   0.15136
  35        3S          0.01284  -0.00000   0.01420   0.04323   0.02269
  36 6   H  1S         -0.00005   0.00000  -0.00001  -0.00087  -0.00246
  37        2S         -0.00030   0.00000  -0.00088  -0.00711  -0.01005
  38        3S         -0.00024  -0.00000  -0.00249  -0.01009  -0.00867
                          36        37        38
  36 6   H  1S          0.08059
  37        2S          0.07764   0.15237
  38        3S          0.01435   0.04403   0.02326
     Gross orbital populations:
                           1
   1 1   C  1S          1.10436
   2        2S          0.88586
   3        2PX         0.22666
   4        2PY         0.23568
   5        2PZ         0.16642
   6        3S          0.79218
   7        3PX         0.56107
   8        3PY         0.55443
   9        3PZ         0.42347
  10        4S          0.50662
  11        4PX         0.25873
  12        4PY         0.21179
  13        4PZ         0.41173
  14 2   H  1S          0.27232
  15        2S          0.46752
  16        3S          0.08655
  17 3   H  1S          0.27665
  18        2S          0.46503
  19        3S          0.08276
  20 4   C  1S          1.10439
  21        2S          0.88584
  22        2PX         0.22329
  23        2PY         0.23725
  24        2PZ         0.16550
  25        3S          0.79342
  26        3PX         0.55353
  27        3PY         0.55872
  28        3PZ         0.42011
  29        4S          0.50146
  30        4PX         0.27545
  31        4PY         0.21654
  32        4PZ         0.41271
  33 5   H  1S          0.27554
  34        2S          0.46776
  35        3S          0.08706
  36 6   H  1S          0.27180
  37        2S          0.46973
  38        3S          0.09008
          Condensed to atoms (all electrons):
               1          2          3          4          5          6
     1  C    5.028811   0.387568   0.388591   0.602709  -0.034625  -0.034053
     2  H    0.387568   0.515913  -0.031719  -0.041633   0.006027  -0.009764
     3  H    0.388591  -0.031719   0.512301  -0.041118  -0.009525   0.005916
     4  C    0.602709  -0.041633  -0.041118   5.059833   0.384522   0.383878
     5  H   -0.034625   0.006027  -0.009525   0.384522   0.526587  -0.042624
     6  H   -0.034053  -0.009764   0.005916   0.383878  -0.042624   0.528253
 Mulliken charges:
               1
     1  C   -0.339002
     2  H    0.173608
     3  H    0.175553
     4  C   -0.348192
     5  H    0.169639
     6  H    0.168393
 Sum of Mulliken charges =  -0.00000
 Mulliken charges with hydrogens summed into heavy atoms:
               1
     1  C    0.010160
     4  C   -0.010160
 Electronic spatial extent (au):  <R**2>=             83.6020
 Charge=             -0.0000 electrons
 Dipole moment (field-independent basis, Debye):
    X=              0.0101    Y=              0.0389    Z=             -0.0558  Tot=              0.0688
 Quadrupole moment (field-independent basis, Debye-Ang):
   XX=            -12.2013   YY=            -12.2118   ZZ=            -15.6624
   XY=              0.0186   XZ=             -0.0017   YZ=             -0.0069
 Traceless Quadrupole moment (field-independent basis, Debye-Ang):
   XX=              1.1572   YY=              1.1467   ZZ=             -2.3039
   XY=              0.0186   XZ=             -0.0017   YZ=             -0.0069
 Octapole moment (field-independent basis, Debye-Ang**2):
  XXX=             -0.4277  YYY=              0.0670  ZZZ=             -0.0575  XYY=              0.3207
  XXY=             -0.0114  XXZ=             -0.0807  XZZ=             -0.0857  YZZ=             -0.0579
  YYZ=             -0.1048  XYZ=             -0.0212
 Hexadecapole moment (field-independent basis, Debye-Ang**3):
 XXXX=            -34.2473 YYYY=            -55.1053 ZZZZ=            -17.7861 XXXY=             -7.2559
 XXXZ=              0.0121 YYYX=            -10.6645 YYYZ=              0.0164 ZZZX=              0.0189
 ZZZY=              0.0381 XXYY=            -16.1460 XXZZ=             -9.9094 YYZZ=            -13.6155
 XXYZ=              0.0074 YYXZ=              0.0014 ZZXY=             -3.2013
 N-N= 3.310353412908D+01 E-N=-2.479261870212D+02  KE= 7.816410704033D+01
 Orbital energies and kinetic energies (alpha):
                                 1                 2
   1         O               -10.289098         15.975577
   2         O               -10.288165         15.982413
   3         O                -0.864108          1.538927
   4         O                -0.673032          1.271827
   5         O                -0.559861          0.943109
   6         O                -0.509473          1.286125
   7         O                -0.436427          1.045646
   8         O                -0.356939          1.038430
   9         V                 0.080140          1.181589
  10         V                 0.141141          0.587949
  11         V                 0.165137          0.592269
  12         V                 0.170325          0.678122
  13         V                 0.240982          0.582283
  14         V                 0.370317          0.842667
  15         V                 0.393994          0.935308
  16         V                 0.402669          0.794959
  17         V                 0.464632          1.189000
  18         V                 0.489442          1.418641
  19         V                 0.493764          1.301137
  20         V                 0.591219          1.652644
  21         V                 0.665969          1.573334
  22         V                 0.692390          2.147353
  23         V                 0.774163          2.534450
  24         V                 0.774969          2.208018
  25         V                 0.844648          1.089072
  26         V                 0.952573          3.429636
  27         V                 2.230945          3.933988
  28         V                 2.291292          4.027180
  29         V                 2.333055          4.306660
  30         V                 2.408279          4.519801
  31         V                 2.671393          6.301439
  32         V                 2.818352          6.307991
  33         V                 2.877420          6.137545
  34         V                 2.951488          6.226851
  35         V                 3.143291          6.819568
  36         V                 3.321759          6.401818
  37         V                23.353165         60.074511
  38         V                23.706844         60.204296
 Total kinetic energy from orbitals= 7.816410704033D+01
 Calling FoFJK, ICntrl=      2127 FMM=F ISym2X=0 I1Cent= 0 IOpClX= 0 NMat=1 NMatS=1 NMatT=0.
 -------------------------------------------------------------------
 Center     Atomic                   Forces (Hartrees/Bohr)
 Number     Number              X              Y              Z
 -------------------------------------------------------------------
      1        6           0.014798223    0.008252349   -0.002091870
      2        1          -0.012594857    0.007111982    0.001091104
      3        1           0.003884003   -0.006412996    0.000993101
      4        6           0.010643414    0.008020968   -0.002565497
      5        1          -0.002758158   -0.009304498    0.001239347
      6        1          -0.013972624   -0.007667807    0.001333815
 -------------------------------------------------------------------
 Cartesian Forces:  Max     0.014798223 RMS     0.007798824

 GradGradGradGradGradGradGradGradGradGradGradGradGradGradGradGradGradGrad
 Berny optimization.
 Search for a local minimum.
 Step number   1 out of a maximum of    2
 All quantities printed in internal units (Hartrees-Bohrs-Radians)
 Second derivative matrix not updated -- first step.
 The second derivative matrix:
                          X1        Y1        Z1        X2        Y2
           X1           0.75927
           Y1           0.09596   0.85309
           Z1           0.00315   0.00438   0.16940
           X2          -0.16631   0.09661   0.00104   0.14361
           Y2           0.10189  -0.27672  -0.00381  -0.11559   0.26528
           Z2           0.00167  -0.00481  -0.05401  -0.00154   0.00392
           X3          -0.35094   0.00122  -0.00438   0.00015   0.00009
           Y3          -0.00394  -0.11046  -0.00103   0.03200   0.01931
           Z3          -0.00558  -0.00100  -0.05558   0.00081   0.00032
           X4          -0.26781  -0.17890  -0.00042   0.02255   0.01361
           Y4          -0.17927  -0.47436  -0.00064  -0.01302  -0.00786
           Z4           0.00075   0.00140  -0.09513  -0.00031  -0.00043
           X5           0.02385  -0.01377   0.00039  -0.00000   0.00000
           Y5           0.01149  -0.00663   0.00053   0.00000  -0.00000
           Z5          -0.00026   0.00017   0.01809   0.00013  -0.00007
           X6           0.00192  -0.00111   0.00023  -0.00000   0.00000
           Y6          -0.02612   0.01508   0.00057   0.00000  -0.00000
           Z6           0.00028  -0.00014   0.01722  -0.00013   0.00007
                          Z2        X3        Y3        Z3        X4
           Z2           0.02799
           X3          -0.00015   0.35092
           Y3           0.00089  -0.00139   0.07575
           Z3           0.01051   0.00477   0.00066   0.02903
           X4           0.00033  -0.00013  -0.02668  -0.00032   0.71819
           Y4          -0.00017   0.00007   0.01540   0.00020   0.12362
           Z4           0.01539  -0.00024  -0.00052   0.01614  -0.00310
           X5          -0.00016  -0.00000   0.00000   0.00016  -0.14628
           Y5           0.00010   0.00000  -0.00000  -0.00010   0.09403
           Z5           0.00935   0.00014  -0.00009  -0.00954  -0.00198
           X6          -0.00015  -0.00000   0.00000   0.00016  -0.32652
           Y6           0.00008   0.00000  -0.00000  -0.00008  -0.02568
           Z6          -0.00924  -0.00014   0.00009   0.00943   0.00549
                          Y4        Z4        X5        Y5        Z5
           Y4           0.87277
           Z4          -0.00639   0.17995
           X5           0.08496  -0.00132   0.12488
           Y5          -0.30053   0.00474  -0.10435   0.29121
           Z5           0.00583  -0.05877   0.00175  -0.00507   0.03050
           X6          -0.01636   0.00422  -0.00245  -0.00117   0.00022
           Y6          -0.10542   0.00120   0.03315   0.01596  -0.00077
           Z6           0.00118  -0.05759  -0.00082  -0.00020   0.01037
                          X6        Y6        Z6
           X6           0.32705
           Y6           0.01864   0.07438
           Z6          -0.00467  -0.00099   0.02980
 ITU=  0
     Eigenvalues ---    0.03761   0.04395   0.09440   0.09942   0.13577
     Eigenvalues ---    0.17518   0.26648   0.29153   0.53145   0.70586
     Eigenvalues ---    0.97773   1.56926
 Angle between quadratic step and forces=  33.13 degrees.
 Linear search not attempted -- first point.
 B after Tr=     0.008237    0.008801   -0.005697
         Rot=    1.000000   -0.000005    0.000002   -0.000121 Ang=  -0.01 deg.
 Variable       Old X    -DE/DX   Delta X   Delta X   Delta X     New X
                                 (Linear)    (Quad)   (Total)
    X1       -0.63695   0.01480   0.00000   0.02381   0.03231  -0.60464
    Y1       -1.10067   0.00825   0.00000   0.02510   0.03375  -1.06692
    Z1        0.00831  -0.00209   0.00000  -0.01179  -0.01751  -0.00920
    X2        0.43878  -0.01259   0.00000  -0.05343  -0.04450   0.39428
    Y2       -2.88256   0.00711   0.00000   0.02202   0.03091  -2.85165
    Z2       -0.01979   0.00109   0.00000   0.01459   0.00886  -0.01093
    X3       -2.69183   0.00388   0.00000   0.03435   0.04286  -2.64897
    Y3       -1.09038  -0.00641   0.00000  -0.02846  -0.02030  -1.11068
    Z3       -0.02214   0.00099   0.00000   0.01439   0.00867  -0.01347
    X4        0.62696   0.01064   0.00000   0.01026   0.01823   0.64519
    Y4        1.08800   0.00802   0.00000   0.01135   0.02031   1.10831
    Z4        0.00590  -0.00257   0.00000  -0.01179  -0.01747  -0.01157
    X5       -0.27153  -0.00276   0.00000  -0.03519  -0.02766  -0.29919
    Y5        2.95323  -0.00930   0.00000  -0.03346  -0.02474   2.92850
    Z5       -0.02953   0.00124   0.00000   0.01451   0.00884  -0.02069
    X6        2.71425  -0.01397   0.00000  -0.02918  -0.02123   2.69301
    Y6        1.24125  -0.00767   0.00000  -0.04939  -0.03993   1.20131
    Z6       -0.02726   0.00133   0.00000   0.01428   0.00860  -0.01866
         Item               Value     Threshold  Converged?
 Maximum Force            0.014798     0.000450     NO 
 RMS     Force            0.007799     0.000300     NO 
 Maximum Displacement     0.044501     0.001800     NO 
 RMS     Displacement     0.026303     0.001200     NO 
 Predicted change in Energy=-1.611092D-03
 GradGradGradGradGradGradGradGradGradGradGradGradGradGradGradGradGradGrad

 Unable to Open any file for archive entry.
 1\1\GINC-BHD0010\Force\RwB97XD\6-311G\C2H4\BWEIGHT\11-Jan-2023\0\\# WB
 97XD/6-311G SCF=XQC FORCE nosym pop=full guess=read\\MD Step 999\\0,1\
 C,-0.33705987,-0.58245012,0.00439541\H,0.2321939,-1.52538385,-0.010474
 83\H,-1.42445408,-0.57700379,-0.01171705\C,0.33177149,0.57574625,0.003
 12382\H,-0.14368891,1.56278466,-0.01562851\H,1.4363178,0.65683874,-0.0
 1442634\\Version=ES64L-G16RevC.01\HF=-78.5555348\RMSD=5.801e-09\RMSF=7
 .799e-03\Dipole=0.0039643,0.0152921,-0.02197\Quadrupole=0.8603766,0.85
 25237,-1.7129002,0.0138328,-0.0012513,-0.0051253\PG=C01 [X(C2H4)]\\@
 The archive entry for this job was punched.


 WE HAVE SEEN THAT MAN ON THE AVERAGE DOES NOT LIVE ABOVE
 TWO-AND-TWENTY YEARS.  DURING THESE TWO AND TWENTY
 YEARS HE IS LIABLE TO TWO AND TWENTY THOUSAND EVILS,
 MANY OF WHICH ARE INCURABLE.  YET EVEN IN THIS DREADFUL STATE
 MEN STILL STRUT AND POSE ON THE STAGE OF LIFE.
 THEY MAKE LOVE AT THE RISK OF DESTRUCTION,
 INTRIGUE, CARRY ON WAR, AND FORM PROJECTS, JUST AS IF THEY
 WERE TO LIVE IN LUXURY AND HAPPINESS FOR A THOUSAND
 AGES.

                                              -- VOLTAIRE
 Job cpu time:       0 days  0 hours  0 minutes 47.7 seconds.
 Elapsed time:       0 days  0 hours  0 minutes 17.5 seconds.
 File lengths (MBytes):  RWF=    272 Int=      0 D2E=      0 Chk=     32 Scr=     32
 Normal termination of Gaussian 16 at Wed Jan 11 18:35:21 2023.
