 Entering Gaussian System, Link 0=g16
 Initial command:
 /software/gaussian/g16-c01/avx2/g16/l1.exe "/gpfs/fs2/scratch/bweight/software/many_molecule_many_mode_NAMD/src/NAMD/TEST_NVT/TRAJ/traj-73/G16/GS_NEW/Gau-9470.inp" -scrdir="/gpfs/fs2/scratch/bweight/software/many_molecule_many_mode_NAMD/src/NAMD/TEST_NVT/TRAJ/traj-73/G16/GS_NEW/"
 Entering Link 1 = /software/gaussian/g16-c01/avx2/g16/l1.exe PID=      9471.
  
 Copyright (c) 1988-2019, Gaussian, Inc.  All Rights Reserved.
  
 This is part of the Gaussian(R) 16 program.  It is based on
 the Gaussian(R) 09 system (copyright 2009, Gaussian, Inc.),
 the Gaussian(R) 03 system (copyright 2003, Gaussian, Inc.),
 the Gaussian(R) 98 system (copyright 1998, Gaussian, Inc.),
 the Gaussian(R) 94 system (copyright 1995, Gaussian, Inc.),
 the Gaussian 92(TM) system (copyright 1992, Gaussian, Inc.),
 the Gaussian 90(TM) system (copyright 1990, Gaussian, Inc.),
 the Gaussian 88(TM) system (copyright 1988, Gaussian, Inc.),
 the Gaussian 86(TM) system (copyright 1986, Carnegie Mellon
 University), and the Gaussian 82(TM) system (copyright 1983,
 Carnegie Mellon University). Gaussian is a federally registered
 trademark of Gaussian, Inc.
  
 This software contains proprietary and confidential information,
 including trade secrets, belonging to Gaussian, Inc.
  
 This software is provided under written license and may be
 used, copied, transmitted, or stored only in accord with that
 written license.
  
 The following legend is applicable only to US Government
 contracts under FAR:
  
                    RESTRICTED RIGHTS LEGEND
  
 Use, reproduction and disclosure by the US Government is
 subject to restrictions as set forth in subparagraphs (a)
 and (c) of the Commercial Computer Software - Restricted
 Rights clause in FAR 52.227-19.
  
 Gaussian, Inc.
 340 Quinnipiac St., Bldg. 40, Wallingford CT 06492
  
  
 ---------------------------------------------------------------
 Warning -- This program may not be used in any manner that
 competes with the business of Gaussian, Inc. or will provide
 assistance to any competitor of Gaussian, Inc.  The licensee
 of this program is prohibited from giving any competitor of
 Gaussian, Inc. access to this program.  By using this program,
 the user acknowledges that Gaussian, Inc. is engaged in the
 business of creating and licensing software in the field of
 computational chemistry and represents and warrants to the
 licensee that it is not a competitor of Gaussian, Inc. and that
 it will not use this program in any manner prohibited above.
 ---------------------------------------------------------------
  

 Cite this work as:
 Gaussian 16, Revision C.01,
 M. J. Frisch, G. W. Trucks, H. B. Schlegel, G. E. Scuseria, 
 M. A. Robb, J. R. Cheeseman, G. Scalmani, V. Barone, 
 G. A. Petersson, H. Nakatsuji, X. Li, M. Caricato, A. V. Marenich, 
 J. Bloino, B. G. Janesko, R. Gomperts, B. Mennucci, H. P. Hratchian, 
 J. V. Ortiz, A. F. Izmaylov, J. L. Sonnenberg, D. Williams-Young, 
 F. Ding, F. Lipparini, F. Egidi, J. Goings, B. Peng, A. Petrone, 
 T. Henderson, D. Ranasinghe, V. G. Zakrzewski, J. Gao, N. Rega, 
 G. Zheng, W. Liang, M. Hada, M. Ehara, K. Toyota, R. Fukuda, 
 J. Hasegawa, M. Ishida, T. Nakajima, Y. Honda, O. Kitao, H. Nakai, 
 T. Vreven, K. Throssell, J. A. Montgomery, Jr., J. E. Peralta, 
 F. Ogliaro, M. J. Bearpark, J. J. Heyd, E. N. Brothers, K. N. Kudin, 
 V. N. Staroverov, T. A. Keith, R. Kobayashi, J. Normand, 
 K. Raghavachari, A. P. Rendell, J. C. Burant, S. S. Iyengar, 
 J. Tomasi, M. Cossi, J. M. Millam, M. Klene, C. Adamo, R. Cammi, 
 J. W. Ochterski, R. L. Martin, K. Morokuma, O. Farkas, 
 J. B. Foresman, and D. J. Fox, Gaussian, Inc., Wallingford CT, 2019.
 
 ******************************************
 Gaussian 16:  ES64L-G16RevC.01  3-Jul-2019
                11-Jan-2023 
 ******************************************
 %oldchk=../GS_OLD/geometry.chk
 %chk=geometry.chk
 %nprocshared=4
 Will use up to    4 processors via shared memory.
 %mem=5GB
 Copying data from "../GS_OLD/geometry.chk" to current chk file "geometry.chk"
 IOpt=  2 FromEx=T IUOpen= 4 IOptOp= 5 NList=   0 IFRang= 0 IUIn= 4 IUOut= 2.
 -------------------------------------------------------
 # WB97XD/6-311G SCF=XQC FORCE nosym pop=full guess=read
 -------------------------------------------------------
 1/10=7,30=1,38=1/1,3;
 2/12=2,15=1,17=6,18=5,40=1/2;
 3/5=4,6=6,11=2,25=1,30=1,71=1,74=-58,116=-2/1,2,3;
 4/5=1/1;
 5/5=2,8=3,13=1,38=6/2,8;
 6/7=3,28=1/1;
 7/29=1,30=1/1,2,3,16;
 1/10=7,30=1/3;
 99//99;
 -----------
 MD Step 999
 -----------
 Symbolic Z-matrix:
 Charge =  0 Multiplicity = 1
 C                    -0.33535  -0.5797    0.00635 
 H                     0.21239  -1.53018  -0.02203 
 H                    -1.41997  -0.59997  -0.02374 
 C                     0.33262   0.57721   0.00541 
 H                    -0.16395   1.56689  -0.02639 
 H                     1.44746   0.63632  -0.02452 
 

 GradGradGradGradGradGradGradGradGradGradGradGradGradGradGradGradGradGrad
 Berny optimization.
 Initialization pass.
 Trust Radius=3.00D-01 FncErr=1.00D-07 GrdErr=1.00D-07 EigMax=2.50D+02 EigMin=1.00D-04
 Number of steps in this run=      2 maximum allowed number of steps=      2.
 GradGradGradGradGradGradGradGradGradGradGradGradGradGradGradGradGradGrad

                          Input orientation:                          
 ---------------------------------------------------------------------
 Center     Atomic      Atomic             Coordinates (Angstroms)
 Number     Number       Type             X           Y           Z
 ---------------------------------------------------------------------
      1          6           0       -0.335347   -0.579697    0.006347
      2          1           0        0.212385   -1.530182   -0.022027
      3          1           0       -1.419967   -0.599974   -0.023740
      4          6           0        0.332620    0.577212    0.005412
      5          1           0       -0.163946    1.566890   -0.026389
      6          1           0        1.447457    0.636316   -0.024516
 ---------------------------------------------------------------------
                    Distance matrix (angstroms):
                    1          2          3          4          5
     1  C    0.000000
     2  H    1.097377   0.000000
     3  H    1.085226   1.878793   0.000000
     4  C    1.335896   2.110999   2.111439   0.000000
     5  H    2.153668   3.119856   2.504575   1.107724   0.000000
     6  H    2.158247   2.493817   3.122584   1.116804   1.860804
                    6
     6  H    0.000000
 Symmetry turned off by external request.
 Stoichiometry    C2H4
 Framework group  C1[X(C2H4)]
 Deg. of freedom    12
 Full point group                 C1      NOp   1
 Rotational constants (GHZ):         143.2937037          29.7139095          24.6180347
 Standard basis: 6-311G (5D, 7F)
    38 basis functions,    72 primitive gaussians,    38 cartesian basis functions
     8 alpha electrons        8 beta electrons
       nuclear repulsion energy        33.0704888529 Hartrees.
 NAtoms=    6 NActive=    6 NUniq=    6 SFac= 1.00D+00 NAtFMM=   60 NAOKFM=F Big=F
 Integral buffers will be    131072 words long.
 Raffenetti 2 integral format.
 Two-electron integral symmetry is turned off.
 Nuclear repulsion after empirical dispersion term =       33.0696485951 Hartrees.
 One-electron integrals computed using PRISM.
 NBasis=    38 RedAO= T EigKep=  6.39D-03  NBF=    38
 NBsUse=    38 1.00D-06 EigRej= -1.00D+00 NBFU=    38
 Initial guess from the checkpoint file:  "geometry.chk"
 B after Tr=    -0.000294   -0.000443   -0.000572
         Rot=    1.000000    0.000001    0.000001    0.000005 Ang=   0.00 deg.
 Keep R1 ints in memory in canonical form, NReq=4036876.
 Requested convergence on RMS density matrix=1.00D-08 within  32 cycles.
 Requested convergence on MAX density matrix=1.00D-06.
 Requested convergence on             energy=1.00D-06.
 No special actions if energy rises.
 SCF Done:  E(RwB97XD) =  -78.5558077900     A.U. after    8 cycles
            NFock=  8  Conv=0.57D-08     -V/T= 2.0052
 QCSCF skips out because SCF is already converged.

 **********************************************************************

            Population analysis using the SCF Density.

 **********************************************************************

 Alpha  occ. eigenvalues --  -10.29097 -10.28764  -0.86407  -0.67174  -0.55872
 Alpha  occ. eigenvalues --   -0.51006  -0.43576  -0.35729
 Alpha virt. eigenvalues --    0.08024   0.14085   0.16421   0.16982   0.24083
 Alpha virt. eigenvalues --    0.37647   0.39213   0.39759   0.46309   0.48783
 Alpha virt. eigenvalues --    0.49348   0.59120   0.66488   0.69017   0.77205
 Alpha virt. eigenvalues --    0.77624   0.84201   0.95397   2.23208   2.28916
 Alpha virt. eigenvalues --    2.33300   2.40632   2.67147   2.81743   2.87864
 Alpha virt. eigenvalues --    2.95131   3.14154   3.31698  23.35111  23.70734
     Molecular Orbital Coefficients:
                           1         2         3         4         5
                           O         O         O         O         O
     Eigenvalues --   -10.29097 -10.28764  -0.86407  -0.67174  -0.55872
   1 1   C  1S          0.07611   0.55823  -0.08858   0.06655  -0.00028
   2        2S          0.06284   0.45941  -0.13999   0.10661  -0.00046
   3        2PX         0.00016  -0.00001   0.02619   0.03769   0.13776
   4        2PY         0.00028  -0.00001   0.04646   0.06196  -0.07242
   5        2PZ         0.00000  -0.00000  -0.00118   0.00182   0.00029
   6        3S          0.00110   0.01460   0.37538  -0.29090   0.00123
   7        3PX        -0.00063   0.00040   0.03441   0.06027   0.21555
   8        3PY        -0.00108   0.00072   0.06051   0.10019  -0.11437
   9        3PZ        -0.00001  -0.00003  -0.00197   0.00325   0.00044
  10        4S          0.00400  -0.01454   0.19154  -0.22696   0.00027
  11        4PX         0.00158  -0.00149   0.00485   0.02433   0.11214
  12        4PY         0.00270  -0.00253   0.00843   0.04128  -0.06021
  13        4PZ         0.00000   0.00007  -0.00070   0.00164   0.00022
  14 2   H  1S         -0.00004  -0.00006   0.05249  -0.08808   0.10103
  15        2S         -0.00031   0.00010   0.05363  -0.10594   0.12807
  16        3S          0.00074   0.00172  -0.00162  -0.01543   0.04159
  17 3   H  1S         -0.00005  -0.00007   0.05365  -0.09197  -0.10493
  18        2S         -0.00030   0.00007   0.05440  -0.10955  -0.13186
  19        3S          0.00078   0.00174  -0.00169  -0.01630  -0.04269
  20 4   C  1S          0.55824  -0.07631  -0.08680  -0.06850  -0.00003
  21        2S          0.45946  -0.06260  -0.13707  -0.10983  -0.00003
  22        2PX        -0.00002  -0.00016  -0.02788   0.03644   0.11792
  23        2PY        -0.00003  -0.00028  -0.04743   0.06496  -0.07523
  24        2PZ        -0.00000   0.00000  -0.00101  -0.00191   0.00029
  25        3S          0.01419  -0.00284   0.36730   0.30005   0.00003
  26        3PX        -0.00025   0.00072  -0.03498   0.05942   0.18506
  27        3PY        -0.00041   0.00124  -0.05963   0.10530  -0.11685
  28        3PZ        -0.00003  -0.00001  -0.00175  -0.00346   0.00045
  29        4S         -0.01266   0.00783   0.18880   0.23827  -0.00139
  30        4PX         0.00097  -0.00186  -0.00535   0.02572   0.10149
  31        4PY         0.00168  -0.00328  -0.00924   0.04470  -0.06352
  32        4PZ         0.00007  -0.00001  -0.00071  -0.00178   0.00024
  33 5   H  1S         -0.00005  -0.00004   0.04934   0.09277  -0.09092
  34        2S         -0.00001  -0.00031   0.05070   0.11122  -0.11504
  35        3S          0.00178   0.00024  -0.00125   0.01669  -0.03697
  36 6   H  1S         -0.00004  -0.00004   0.04842   0.09055   0.08574
  37        2S         -0.00000  -0.00033   0.05011   0.10926   0.10909
  38        3S          0.00175   0.00022  -0.00125   0.01616   0.03547
                           6         7         8         9        10
                           O         O         O         V         V
     Eigenvalues --    -0.51006  -0.43576  -0.35729   0.08024   0.14085
   1 1   C  1S         -0.00445   0.00026  -0.00088   0.00251  -0.03241
   2        2S         -0.00676   0.00046  -0.00144   0.00417  -0.05195
   3        2PX         0.09292  -0.11177  -0.00324   0.00143  -0.03008
   4        2PY         0.16815   0.06612  -0.00539   0.00221  -0.06451
   5        2PZ         0.00479  -0.00005   0.17943  -0.18891  -0.00200
   6        3S          0.02430  -0.00117   0.00419  -0.01264   0.11254
   7        3PX         0.13481  -0.17834  -0.00458   0.00216  -0.03519
   8        3PY         0.24587   0.10580  -0.00759   0.00332  -0.08012
   9        3PZ         0.00759  -0.00006   0.28855  -0.27793  -0.00323
  10        4S         -0.04845  -0.00351   0.00638  -0.01345   1.19569
  11        4PX         0.06793  -0.11116  -0.00369   0.01217  -0.18851
  12        4PY         0.12525   0.06716  -0.00611   0.01951  -0.38853
  13        4PZ         0.00430   0.00001   0.26677  -0.69663  -0.01181
  14 2   H  1S         -0.08062  -0.11592   0.00017   0.00388  -0.01604
  15        2S         -0.11117  -0.17926   0.00191   0.00605  -0.04681
  16        3S         -0.04155  -0.08314   0.00115   0.01614  -0.82640
  17 3   H  1S         -0.07804   0.11325   0.00011   0.00389  -0.01151
  18        2S         -0.10689   0.17445   0.00183   0.00623  -0.03557
  19        3S         -0.03955   0.08084   0.00111   0.01607  -0.74919
  20 4   C  1S         -0.00750  -0.00051  -0.00081  -0.00255  -0.03708
  21        2S         -0.01168  -0.00086  -0.00132  -0.00423  -0.05956
  22        2PX        -0.09949   0.12355   0.00304   0.00154   0.04263
  23        2PY        -0.16220  -0.07297   0.00571   0.00299   0.06179
  24        2PZ         0.00499   0.00025   0.17932   0.18943  -0.00313
  25        3S          0.03841   0.00249   0.00389   0.01264   0.13176
  26        3PX        -0.14710   0.19834   0.00424   0.00234   0.05258
  27        3PY        -0.23794  -0.11662   0.00801   0.00454   0.07300
  28        3PZ         0.00791   0.00039   0.28696   0.27762  -0.00473
  29        4S         -0.03546   0.00310   0.00625   0.01559   1.26463
  30        4PX        -0.07656   0.12743   0.00328   0.01193   0.27027
  31        4PY        -0.12229  -0.07363   0.00638   0.02228   0.40972
  32        4PZ         0.00458   0.00022   0.26679   0.69774  -0.01828
  33 5   H  1S         -0.07496  -0.12373   0.00020  -0.00388  -0.01312
  34        2S         -0.10274  -0.19349   0.00201  -0.00659  -0.03831
  35        3S         -0.03821  -0.09113   0.00110  -0.01738  -0.82648
  36 6   H  1S         -0.08108   0.12380   0.00013  -0.00387  -0.01747
  37        2S         -0.11162   0.19438   0.00189  -0.00650  -0.04938
  38        3S         -0.04178   0.09147   0.00103  -0.01746  -0.90474
                          11        12        13        14        15
                           V         V         V         V         V
     Eigenvalues --     0.16421   0.16982   0.24083   0.37647   0.39213
   1 1   C  1S          0.00105  -0.04585  -0.00006   0.01146   0.00191
   2        2S          0.00168  -0.07471  -0.00009   0.01629   0.00327
   3        2PX         0.09714  -0.02148   0.10054  -0.03672  -0.02564
   4        2PY        -0.05282  -0.03808  -0.05772  -0.06816   0.00668
   5        2PZ         0.00013  -0.00627   0.00007  -0.00434  -0.00019
   6        3S         -0.00344   0.16851   0.00021   0.02833  -0.00762
   7        3PX         0.13948  -0.01331   0.10712  -0.04986  -0.11249
   8        3PY        -0.07684  -0.02545  -0.06243  -0.09791   0.03684
   9        3PZ         0.00019  -0.00867   0.00002  -0.00847  -0.00014
  10        4S         -0.05348   1.45452  -0.00410  -2.86135  -0.28867
  11        4PX         0.57499  -0.13090   1.17047  -1.60331  -0.54571
  12        4PY        -0.30330  -0.21327  -0.66070  -2.81040   0.14214
  13        4PZ         0.00091  -0.04103   0.00133  -0.04084  -0.00247
  14 2   H  1S         -0.03009  -0.02507   0.01275  -0.05332   0.07742
  15        2S         -0.08094  -0.01662  -0.02246  -0.61682   0.80042
  16        3S         -1.01791  -1.00733  -1.55671  -0.35307  -0.35217
  17 3   H  1S          0.02930  -0.02489  -0.01498  -0.04497  -0.07545
  18        2S          0.08030  -0.02177   0.01704  -0.55306  -0.74185
  19        3S          1.08627  -1.03538   1.57542  -0.43063   0.25322
  20 4   C  1S          0.00189   0.04205   0.00002  -0.01983   0.00016
  21        2S          0.00304   0.06848   0.00001  -0.03230   0.00066
  22        2PX         0.10118  -0.02319  -0.10003  -0.04254  -0.03080
  23        2PY        -0.06291  -0.03626   0.05730  -0.07482   0.01379
  24        2PZ         0.00031   0.00616  -0.00008   0.00349   0.00044
  25        3S         -0.00625  -0.15291   0.00028   0.03689  -0.01049
  26        3PX         0.14607  -0.01857  -0.11301  -0.09292  -0.10422
  27        3PY        -0.08918  -0.02558   0.06370  -0.16693   0.06456
  28        3PZ         0.00045   0.00851  -0.00005   0.00480   0.00095
  29        4S         -0.08164  -1.31240  -0.00201   3.44907   0.19044
  30        4PX         0.53859  -0.11387  -1.11896  -1.28614  -0.59249
  31        4PY        -0.34171  -0.19143   0.65680  -2.25319  -0.00376
  32        4PZ         0.00193   0.03984  -0.00137   0.03400   0.00342
  33 5   H  1S          0.03200   0.02497   0.00674   0.01448  -0.07783
  34        2S          0.07091   0.02328  -0.03285   0.12649  -0.74438
  35        3S          1.09717   0.91871  -1.50680   0.46438   0.47942
  36 6   H  1S         -0.03145   0.02613  -0.00523   0.00985   0.08879
  37        2S         -0.07047   0.02098   0.03410   0.08009   0.91508
  38        3S         -0.98807   0.93211   1.49798   0.47622  -0.44919
                          16        17        18        19        20
                           V         V         V         V         V
     Eigenvalues --     0.39759   0.46309   0.48783   0.49348   0.59120
   1 1   C  1S         -0.01659   0.01281  -0.04666   0.00035  -0.00052
   2        2S         -0.02957   0.02947  -0.07806   0.00085  -0.00094
   3        2PX         0.02116  -0.06086   0.01165   0.00102   0.00198
   4        2PY         0.04231  -0.10732   0.01584   0.00136   0.00295
   5        2PZ        -0.00012  -0.00059   0.00252  -0.15159  -0.19275
   6        3S          0.07658  -0.33725   0.09249  -0.01002  -0.00034
   7        3PX         0.08866  -0.23843  -0.03310   0.00124   0.00672
   8        3PY         0.18223  -0.41823  -0.06520   0.00063   0.00996
   9        3PZ        -0.00449  -0.00446   0.01226  -0.62775  -0.68570
  10        4S          2.33251   0.03266   3.18411   0.03942   0.06442
  11        4PX         0.04072   0.20416   0.80902   0.01481   0.01864
  12        4PY         0.16782   0.37443   1.38636   0.02750   0.03574
  13        4PZ        -0.00297   0.00147  -0.07186   0.68593   1.24201
  14 2   H  1S         -0.02530  -0.03520  -0.07676  -0.00136  -0.00152
  15        2S         -0.53302  -0.33365  -0.92940  -0.01039  -0.01054
  16        3S          0.23612   0.06370   0.63666   0.01858   0.02153
  17 3   H  1S         -0.04036  -0.03605  -0.07548  -0.00132  -0.00151
  18        2S         -0.67946  -0.34139  -0.90181  -0.01013  -0.01036
  19        3S          0.27452   0.06003   0.61234   0.01827   0.02116
  20 4   C  1S         -0.00355  -0.00307   0.05095   0.00212   0.00062
  21        2S         -0.00935   0.00253   0.08861   0.00388   0.00116
  22        2PX         0.00375   0.05538   0.02768  -0.00026   0.00180
  23        2PY         0.01162   0.09404   0.04913  -0.00077   0.00357
  24        2PZ        -0.00330  -0.00158   0.00269  -0.15280   0.19234
  25        3S          0.08330  -0.28530  -0.23254  -0.01665  -0.00202
  26        3PX        -0.05682   0.23661   0.05511  -0.00043   0.00626
  27        3PY        -0.07499   0.40661   0.09462  -0.00214   0.01245
  28        3PZ        -0.00977  -0.00649   0.00879  -0.63149   0.68237
  29        4S         -0.48716   0.83022  -3.07443  -0.05865  -0.05765
  30        4PX         1.07617  -0.38222   0.63914   0.00482   0.02178
  31        4PY         1.99723  -0.65292   1.10628   0.00896   0.03400
  32        4PZ        -0.02800  -0.01521   0.04311   0.69400  -1.23828
  33 5   H  1S         -0.05369  -0.06314   0.06378   0.00132   0.00150
  34        2S         -0.89269  -0.63425   0.78508   0.02164   0.00630
  35        3S         -0.09679   0.28355  -0.56476  -0.00145  -0.02140
  36 6   H  1S         -0.03825  -0.06314   0.06321   0.00131   0.00149
  37        2S         -0.72302  -0.63598   0.78329   0.02130   0.00594
  38        3S         -0.15961   0.30186  -0.57541  -0.00203  -0.02160
                          21        22        23        24        25
                           V         V         V         V         V
     Eigenvalues --     0.66488   0.69017   0.77205   0.77624   0.84201
   1 1   C  1S          0.00087  -0.00078   0.05708   0.06903   0.00113
   2        2S          0.00183  -0.00166   0.12056   0.14721   0.00265
   3        2PX        -0.12354   0.20321  -0.01670   0.11607  -0.00756
   4        2PY         0.07160  -0.12218  -0.02886   0.18791   0.01587
   5        2PZ        -0.00012   0.00021   0.00095   0.00447   0.00013
   6        3S         -0.01513   0.01781  -0.83550  -1.28850  -0.03156
   7        3PX        -0.58681   0.71735  -0.14162   0.46292  -0.21699
   8        3PY         0.33620  -0.43190  -0.24340   0.73699   0.17192
   9        3PZ        -0.00066   0.00076   0.00347   0.01565   0.00028
  10        4S          0.02188  -0.05098   0.89020   2.43587   0.06745
  11        4PX         1.09749  -0.79294   0.12375  -0.80246   4.48324
  12        4PY        -0.62608   0.50717   0.10810  -0.99699  -2.51964
  13        4PZ         0.00098   0.00106   0.00497  -0.05167   0.00606
  14 2   H  1S          0.02041  -0.06018   0.01328   0.03135  -0.02571
  15        2S          0.08877  -0.64660   0.07716   0.09625  -1.53798
  16        3S         -0.99929   1.15446  -0.19011  -1.07652  -1.22228
  17 3   H  1S         -0.01949   0.05934   0.01355   0.03188   0.02999
  18        2S         -0.10212   0.67405   0.11353   0.04331   1.57994
  19        3S          0.99343  -1.10117  -0.17415  -1.25097   1.21217
  20 4   C  1S          0.00109  -0.00028   0.08627   0.02364   0.00055
  21        2S          0.00225  -0.00055   0.18353   0.04964   0.00100
  22        2PX        -0.15922  -0.17879  -0.09131   0.05888   0.01499
  23        2PY         0.09144   0.09890  -0.16533   0.10929   0.00152
  24        2PZ        -0.00017  -0.00022   0.00460  -0.00132  -0.00013
  25        3S         -0.01738  -0.00093  -1.52008  -0.24391   0.00114
  26        3PX        -0.70596  -0.59415  -0.32505   0.29985   0.26017
  27        3PY         0.40865   0.32500  -0.59666   0.55732  -0.10186
  28        3PZ        -0.00082  -0.00070   0.01624  -0.00487  -0.00016
  29        4S          0.01438   0.02035   2.69843  -0.12655  -0.07794
  30        4PX         1.27040   0.66578   0.46602  -0.23373  -4.19249
  31        4PY        -0.73194  -0.33967   0.95775  -0.74968   2.43864
  32        4PZ         0.00135  -0.00090  -0.04701   0.02749  -0.00567
  33 5   H  1S         -0.02793  -0.05420   0.03505  -0.00008  -0.02397
  34        2S         -0.18111  -0.56473   0.06711   0.08441  -1.42673
  35        3S          1.14415   0.90883  -1.13812   0.39602  -1.10159
  36 6   H  1S          0.02879   0.05432   0.03464   0.00028   0.02269
  37        2S          0.17245   0.54045   0.07540   0.00655   1.40905
  38        3S         -1.14949  -0.94221  -1.05492   0.29314   1.11748
                          26        27        28        29        30
                           V         V         V         V         V
     Eigenvalues --     0.95397   2.23208   2.28916   2.33300   2.40632
   1 1   C  1S          0.09554  -0.01058  -0.01432   0.00040  -0.00049
   2        2S          0.19852   0.00078  -0.01476   0.00080  -0.00069
   3        2PX        -0.09215  -0.08536  -0.13075   0.33602  -0.41476
   4        2PY        -0.15948  -0.16067  -0.23184  -0.18970   0.23051
   5        2PZ         0.00006  -0.01263  -0.01653   0.00029  -0.00087
   6        3S         -1.53588  -0.18336  -0.02987  -0.00041  -0.00401
   7        3PX        -0.23771   0.08469   0.20749  -0.40088   0.57886
   8        3PY        -0.40366   0.17318   0.38038   0.22865  -0.32216
   9        3PZ        -0.00258   0.01264   0.02074  -0.00022   0.00101
  10        4S          5.71793  -0.12845  -0.89436   0.00120  -0.00052
  11        4PX         1.21409   0.05001  -0.18079  -0.01912   0.96907
  12        4PY         1.98666   0.06755  -0.35785   0.00150  -0.52240
  13        4PZ        -0.01592   0.00321   0.00749  -0.00022   0.00204
  14 2   H  1S          0.01549  -0.72744  -0.77583  -0.69221   0.66799
  15        2S         -0.29561   1.03907   1.16414   1.05338  -1.47270
  16        3S         -0.09213  -0.31121  -0.46752  -0.46631   0.38457
  17 3   H  1S          0.01602  -0.71614  -0.77128   0.68883  -0.68845
  18        2S         -0.26133   1.02292   1.16603  -1.05105   1.51688
  19        3S         -0.06433  -0.28879  -0.44500   0.45806  -0.37355
  20 4   C  1S         -0.09419  -0.00981   0.01210   0.00045   0.00027
  21        2S         -0.19546   0.00123   0.01180   0.00058   0.00060
  22        2PX        -0.09294   0.12838  -0.12854   0.31416   0.41018
  23        2PY        -0.16071   0.22199  -0.21431  -0.18285  -0.24026
  24        2PZ         0.00020  -0.01368   0.01678   0.00054   0.00054
  25        3S          1.51044  -0.17252   0.02168   0.00106  -0.00039
  26        3PX        -0.22996  -0.16319   0.22046  -0.39512  -0.57500
  27        3PY        -0.40386  -0.27767   0.36103   0.22758   0.33867
  28        3PZ         0.00316   0.01473  -0.02142  -0.00059  -0.00073
  29        4S         -5.69584  -0.14637   0.88262   0.01351  -0.01469
  30        4PX         1.10235  -0.01603  -0.21030   0.08706  -0.85207
  31        4PY         2.00759  -0.03452  -0.32316  -0.04781   0.51365
  32        4PZ         0.01286   0.00391  -0.00614  -0.00005  -0.00181
  33 5   H  1S         -0.01814  -0.77365   0.69581   0.71744   0.67047
  34        2S          0.28437   1.11932  -1.06121  -1.05268  -1.43810
  35        3S          0.04959  -0.34967   0.41257   0.51527   0.41526
  36 6   H  1S         -0.01796  -0.76942   0.71397  -0.70463  -0.67014
  37        2S          0.31327   1.11118  -1.07891   1.03140   1.42886
  38        3S          0.06912  -0.35114   0.44113  -0.51242  -0.42575
                          31        32        33        34        35
                           V         V         V         V         V
     Eigenvalues --     2.67147   2.81743   2.87864   2.95131   3.14154
   1 1   C  1S          0.00046   0.00233  -0.01316   0.00000  -0.00926
   2        2S          0.00034   0.00688  -0.04455  -0.00031  -0.02865
   3        2PX         0.00526   0.06677  -0.45651  -0.73482   0.46306
   4        2PY         0.00737   0.11806  -0.83535   0.41861   0.79899
   5        2PZ        -0.92295  -0.93258  -0.13035  -0.00136   0.00708
   6        3S         -0.00127  -0.05763   0.39508   0.00500   0.24240
   7        3PX        -0.00392  -0.11696   0.82121   0.88586  -0.45783
   8        3PY        -0.00522  -0.20488   1.47039  -0.49009  -0.78443
   9        3PZ         0.93733   1.14024   0.16394   0.00182  -0.00903
  10        4S          0.01165   0.13198  -0.87912  -0.01205  -0.46991
  11        4PX        -0.00181   0.09451  -0.71068  -0.66584   0.24313
  12        4PY        -0.00285   0.16666  -1.27049   0.35512   0.40890
  13        4PZ        -0.33700  -0.61742  -0.10422  -0.00144   0.00576
  14 2   H  1S          0.01111  -0.01990   0.26860  -0.37983  -0.21852
  15        2S         -0.01277   0.01340  -0.22759   0.38779   0.16532
  16        3S         -0.00271   0.03829  -0.29907   0.27082   0.06590
  17 3   H  1S          0.01131  -0.01966   0.26087   0.37829  -0.22464
  18        2S         -0.01321   0.01230  -0.21375  -0.38258   0.17004
  19        3S         -0.00308   0.03809  -0.29730  -0.28707   0.08038
  20 4   C  1S          0.00049  -0.00233   0.01374   0.00046  -0.00730
  21        2S          0.00048  -0.00720   0.04798   0.00103  -0.02344
  22        2PX        -0.00641   0.06193  -0.42417  -0.80052  -0.49104
  23        2PY        -0.01271   0.10975  -0.74117   0.43842  -0.87967
  24        2PZ        -0.92658   0.92831   0.13323  -0.00010   0.01144
  25        3S         -0.00273   0.06185  -0.43136  -0.00725   0.20433
  26        3PX         0.00677  -0.11193   0.78829   0.95052   0.51683
  27        3PY         0.01317  -0.19708   1.37529  -0.51489   0.93657
  28        3PZ         0.94217  -1.13604  -0.16768   0.00012  -0.01442
  29        4S          0.01499  -0.13524   0.91072   0.02370  -0.39181
  30        4PX        -0.00066   0.09488  -0.71725  -0.69488  -0.30448
  31        4PY        -0.00204   0.16508  -1.24363   0.37525  -0.56206
  32        4PZ        -0.33956   0.61559   0.10701  -0.00016   0.01113
  33 5   H  1S          0.01100   0.02516  -0.29382   0.41361  -0.25981
  34        2S         -0.01354  -0.02008   0.26619  -0.42806   0.20464
  35        3S         -0.00128  -0.03549   0.28041  -0.24271   0.11901
  36 6   H  1S          0.01107   0.02498  -0.28934  -0.42699  -0.24203
  37        2S         -0.01390  -0.02057   0.26563   0.44044   0.18858
  38        3S         -0.00096  -0.03452   0.27075   0.24413   0.10597
                          36        37        38
                           V         V         V
     Eigenvalues --     3.31698  23.35111  23.70734
   1 1   C  1S         -0.00023  -1.41369  -1.45259
   2        2S         -0.00022   1.50759   1.57087
   3        2PX         0.78162  -0.00657   0.01208
   4        2PY        -0.43191  -0.01075   0.02109
   5        2PZ         0.00137  -0.00051  -0.00021
   6        3S         -0.00333  -0.29536  -0.40011
   7        3PX        -1.11922   0.02447  -0.05603
   8        3PY         0.61171   0.04066  -0.09725
   9        3PZ        -0.00209   0.00145   0.00061
  10        4S          0.01398   0.27128   0.77220
  11        4PX         1.96592  -0.02691   0.13478
  12        4PY        -1.06741  -0.04578   0.22944
  13        4PZ         0.00358  -0.00239  -0.00268
  14 2   H  1S          0.55344   0.01328   0.00706
  15        2S         -0.86038   0.00755  -0.01526
  16        3S         -0.45651  -0.08394  -0.03980
  17 3   H  1S         -0.56530   0.01505   0.00796
  18        2S          0.87764   0.00741  -0.01452
  19        3S          0.48656  -0.08635  -0.03899
  20 4   C  1S         -0.00004  -1.44775   1.41850
  21        2S         -0.00044   1.54408  -1.53416
  22        2PX        -0.71416   0.00579   0.01260
  23        2PY         0.41454   0.01042   0.02158
  24        2PZ        -0.00123  -0.00051   0.00014
  25        3S          0.00717  -0.30309   0.39136
  26        3PX         1.01366  -0.02173  -0.05685
  27        3PY        -0.59945  -0.03868  -0.09809
  28        3PZ         0.00184   0.00146  -0.00038
  29        4S         -0.03655   0.28152  -0.76270
  30        4PX        -1.77939   0.02254   0.13099
  31        4PY         1.06753   0.04091   0.22971
  32        4PZ        -0.00321  -0.00242   0.00222
  33 5   H  1S          0.49202   0.01268  -0.00424
  34        2S         -0.76893   0.00847   0.01294
  35        3S         -0.42924  -0.08300   0.03638
  36 6   H  1S         -0.48607   0.01136  -0.00343
  37        2S          0.76134   0.00922   0.01334
  38        3S          0.41338  -0.08101   0.03689
     Density Matrix:
                           1         2         3         4         5
   1 1   C  1S          0.65941
   2        2S          0.56154   0.49205
   3        2PX        -0.00056  -0.00076   0.08444
   4        2PY        -0.00136  -0.00190   0.00365   0.08784
   5        2PZ         0.00009   0.00013  -0.00010  -0.00026   0.06445
   6        3S         -0.08897  -0.15391   0.00283   0.00663  -0.00021
   7        3PX         0.00087   0.00134   0.13068   0.00125  -0.00007
   8        3PY         0.00120   0.00185   0.00130   0.13136  -0.00022
   9        3PZ         0.00017   0.00028  -0.00018  -0.00041   0.10364
  10        4S         -0.07935  -0.11425  -0.01526  -0.02719   0.00055
  11        4PX         0.00024   0.00155   0.07048  -0.00459  -0.00052
  12        4PY         0.00056   0.00290  -0.00473   0.06569  -0.00090
  13        4PZ        -0.00008  -0.00021  -0.00079  -0.00132   0.09578
  14 2   H  1S         -0.02050  -0.03265   0.03487  -0.06312  -0.00108
  15        2S         -0.02272  -0.03634   0.04951  -0.08781  -0.00080
  16        3S          0.00057  -0.00072   0.02107  -0.03307  -0.00000
  17 3   H  1S         -0.02102  -0.03345  -0.07285  -0.00248  -0.00124
  18        2S         -0.02308  -0.03685  -0.10061  -0.00232  -0.00099
  19        3S          0.00061  -0.00066  -0.03851   0.00139  -0.00007
  20 4   C  1S          0.00611   0.00985  -0.01081  -0.01882  -0.00040
  21        2S          0.00983   0.01535  -0.01729  -0.03011  -0.00066
  22        2PX         0.01048   0.01676  -0.01235  -0.03231   0.00039
  23        2PY         0.01817   0.02905  -0.03219  -0.04972   0.00081
  24        2PZ        -0.00043  -0.00070  -0.00041  -0.00059   0.06439
  25        3S         -0.02649  -0.04022   0.04843   0.08451   0.00199
  26        3PX         0.01617   0.02508  -0.01806  -0.04598   0.00050
  27        3PY         0.02801   0.04344  -0.04558  -0.07110   0.00106
  28        3PZ        -0.00074  -0.00119  -0.00070  -0.00104   0.10305
  29        4S          0.00539   0.00402   0.02014   0.03568   0.00233
  30        4PX         0.00313   0.00645  -0.01311  -0.02094   0.00060
  31        4PY         0.00526   0.01095  -0.02092  -0.03705   0.00127
  32        4PZ        -0.00063  -0.00102  -0.00103  -0.00163   0.09578
  33 5   H  1S          0.00420   0.00690  -0.00175  -0.01233  -0.00046
  34        2S          0.00635   0.01055   0.00349  -0.02500  -0.00002
  35        3S          0.00330   0.00482   0.00427  -0.01761   0.00008
  36 6   H  1S          0.00416   0.00684  -0.00976  -0.00759  -0.00048
  37        2S          0.00633   0.01055  -0.02329  -0.00946  -0.00007
  38        3S          0.00328   0.00483  -0.01729  -0.00522   0.00004
                           6         7         8         9        10
   6        3S          0.45271
   7        3PX        -0.00176   0.20256
   8        3PY        -0.00149  -0.00443   0.19697
   9        3PZ        -0.00059  -0.00013  -0.00035   0.16667
  10        4S          0.27313  -0.02595  -0.04706   0.00071   0.18165
  11        4PX        -0.00675   0.10960  -0.01026  -0.00085  -0.01492
  12        4PY        -0.01202  -0.01054   0.09895  -0.00145  -0.02813
  13        4PZ         0.00096  -0.00105  -0.00174   0.15403   0.00197
  14 2   H  1S          0.08726   0.05615  -0.09858  -0.00180   0.06877
  15        2S          0.09725   0.08008  -0.13666  -0.00135   0.08075
  16        3S          0.00610   0.03440  -0.05084  -0.00001   0.01098
  17 3   H  1S          0.08947  -0.11407  -0.00235  -0.00204   0.06902
  18        2S          0.09867  -0.15736  -0.00088  -0.00163   0.07965
  19        3S          0.00606  -0.05999   0.00394  -0.00011   0.00996
  20 4   C  1S         -0.02669  -0.01684  -0.02932  -0.00069   0.00525
  21        2S         -0.04040  -0.02615  -0.04557  -0.00112   0.00396
  22        2PX        -0.04694  -0.01761  -0.04587   0.00068  -0.01834
  23        2PY        -0.08126  -0.04563  -0.07080   0.00138  -0.03139
  24        2PZ         0.00210  -0.00056  -0.00079   0.10355   0.00228
  25        3S          0.10303   0.07087   0.12389   0.00333   0.00101
  26        3PX        -0.06794  -0.02591  -0.06509   0.00088  -0.02738
  27        3PY        -0.11751  -0.06441  -0.10119   0.00185  -0.04677
  28        3PZ         0.00349  -0.00098  -0.00139   0.16571   0.00379
  29        4S          0.00163   0.03041   0.05407   0.00388  -0.03267
  30        4PX        -0.02277  -0.01964  -0.02945   0.00100  -0.00704
  31        4PY        -0.03892  -0.02940  -0.05346   0.00210  -0.01131
  32        4PZ         0.00296  -0.00145  -0.00225   0.15403   0.00350
  33 5   H  1S         -0.02051  -0.00070  -0.01769  -0.00068  -0.01512
  34        2S         -0.03146   0.00860  -0.03675   0.00005  -0.01978
  35        3S         -0.01236   0.00818  -0.02644   0.00015  -0.00371
  36 6   H  1S         -0.02036  -0.01481  -0.00928  -0.00070  -0.01552
  37        2S         -0.03155  -0.03579  -0.01078  -0.00002  -0.02086
  38        3S         -0.01248  -0.02675  -0.00624   0.00009  -0.00437
                          11        12        13        14        15
  11        4PX         0.06036
  12        4PY        -0.00927   0.05130
  13        4PZ        -0.00127  -0.00208   0.14237
  14 2   H  1S          0.03370  -0.05432  -0.00092   0.08132
  15        2S          0.04882  -0.07522  -0.00031   0.10966   0.14999
  16        3S          0.02139  -0.02790   0.00022   0.03693   0.05280
  17 3   H  1S         -0.06327   0.00161  -0.00103  -0.01304  -0.02488
  18        2S         -0.08769   0.00439  -0.00043  -0.02484  -0.04350
  19        3S         -0.03374   0.00470   0.00018  -0.01830  -0.02785
  20 4   C  1S         -0.00309  -0.00566  -0.00061   0.00424   0.00668
  21        2S         -0.00643  -0.01160  -0.00098   0.00700   0.01116
  22        2PX        -0.01305  -0.02003   0.00098   0.00188  -0.00267
  23        2PY        -0.02003  -0.03688   0.00190   0.01145   0.02412
  24        2PZ        -0.00074  -0.00112   0.09571  -0.00051  -0.00015
  25        3S          0.02286   0.04096   0.00287  -0.02106  -0.03359
  26        3PX        -0.02006  -0.02823   0.00133   0.00099  -0.00733
  27        3PY        -0.02812  -0.05361   0.00261   0.01699   0.03611
  28        3PZ        -0.00121  -0.00184   0.15316  -0.00075  -0.00014
  29        4S          0.00749   0.01437   0.00355  -0.01744  -0.02378
  30        4PX        -0.01479  -0.01228   0.00123  -0.00178  -0.00868
  31        4PY        -0.01244  -0.02939   0.00248   0.01511   0.02688
  32        4PZ        -0.00144  -0.00227   0.14238  -0.00041   0.00028
  33 5   H  1S          0.00192  -0.01596  -0.00034   0.01124   0.02337
  34        2S          0.00915  -0.02786   0.00043   0.02391   0.04462
  35        3S          0.00757  -0.01601   0.00030   0.01675   0.02803
  36 6   H  1S         -0.01444  -0.00571  -0.00036  -0.00917  -0.01839
  37        2S         -0.02812  -0.00514   0.00039  -0.01901  -0.03470
  38        3S         -0.01728  -0.00114   0.00027  -0.01028  -0.01797
                          16        17        18        19        20
  16        3S          0.02123
  17 3   H  1S         -0.01841   0.08253
  18        2S         -0.02788   0.10986   0.14842
  19        3S         -0.01319   0.03626   0.05131   0.02039
  20 4   C  1S          0.00366   0.00430   0.00665   0.00364   0.65947
  21        2S          0.00541   0.00709   0.01107   0.00532   0.56155
  22        2PX        -0.00349   0.00907   0.02227   0.01669   0.00121
  23        2PY         0.01752   0.00754   0.00969   0.00551   0.00185
  24        2PZ         0.00004  -0.00050  -0.00009   0.00008   0.00007
  25        3S         -0.01403  -0.02122  -0.03312  -0.01364  -0.08918
  26        3PX        -0.00707   0.01437   0.03503   0.02609  -0.00047
  27        3PY         0.02641   0.00948   0.01146   0.00673  -0.00104
  28        3PZ         0.00009  -0.00073  -0.00006   0.00015   0.00016
  29        4S         -0.00563  -0.01704  -0.02260  -0.00496  -0.08023
  30        4PX        -0.00716   0.01421   0.02786   0.01717  -0.00022
  31        4PY         0.01578   0.00653   0.00643   0.00177  -0.00024
  32        4PZ         0.00027  -0.00040   0.00033   0.00030  -0.00005
  33 5   H  1S          0.01622  -0.00901  -0.01812  -0.00950  -0.02007
  34        2S          0.02755  -0.01866  -0.03405  -0.01713  -0.02226
  35        3S          0.01475  -0.01012  -0.01767  -0.00909   0.00055
  36 6   H  1S         -0.00967   0.01124   0.02334   0.01599  -0.01977
  37        2S         -0.01750   0.02383   0.04443   0.02721  -0.02216
  38        3S         -0.00928   0.01669   0.02781   0.01455   0.00045
                          21        22        23        24        25
  21        2S          0.49202
  22        2PX         0.00174   0.08236
  23        2PY         0.00265   0.00391   0.08759
  24        2PZ         0.00011   0.00015   0.00019   0.06437
  25        3S         -0.15412  -0.00561  -0.00865  -0.00011   0.45328
  26        3PX        -0.00071   0.12823   0.00201   0.00010  -0.00032
  27        3PY        -0.00157   0.00202   0.13122   0.00009   0.00057
  28        3PZ         0.00027   0.00022   0.00030   0.10301  -0.00052
  29        4S         -0.11590   0.01437   0.02437   0.00060   0.27861
  30        4PX        -0.00150   0.07285  -0.00514   0.00045   0.00632
  31        4PY        -0.00236  -0.00503   0.06674   0.00084   0.01039
  32        4PZ        -0.00016   0.00073   0.00133   0.09573   0.00084
  33 5   H  1S         -0.03198  -0.03309   0.06343  -0.00125   0.08554
  34        2S         -0.03557  -0.04921   0.08854  -0.00100   0.09515
  35        3S         -0.00067  -0.02234   0.03356  -0.00012   0.00577
  36 6   H  1S         -0.03152   0.07084   0.00251  -0.00109   0.08430
  37        2S         -0.03544   0.10115   0.00089  -0.00079   0.09480
  38        3S         -0.00081   0.04053  -0.00290  -0.00004   0.00608
                          26        27        28        29        30
  26        3PX         0.19999
  27        3PY        -0.00275   0.19716
  28        3PZ         0.00014   0.00012   0.16485
  29        4S          0.02632   0.04427   0.00072   0.18789
  30        4PX         0.11409  -0.01090   0.00070   0.01616   0.06621
  31        4PY        -0.01073   0.10083   0.00133   0.02619  -0.01048
  32        4PZ         0.00093   0.00170   0.15320   0.00189   0.00107
  33 5   H  1S         -0.05310   0.09943  -0.00206   0.06765  -0.03427
  34        2S         -0.07942   0.13831  -0.00167   0.07857  -0.05174
  35        3S         -0.03651   0.05176  -0.00019   0.00970  -0.02400
  36 6   H  1S          0.11207   0.00297  -0.00183   0.06772   0.06551
  37        2S          0.15981  -0.00065  -0.00136   0.07983   0.09387
  38        3S          0.06372  -0.00618  -0.00007   0.01063   0.03776
                          31        32        33        34        35
  31        4PY         0.05310
  32        4PZ         0.00207   0.14240
  33 5   H  1S          0.05549  -0.00108   0.08047
  34        2S          0.07727  -0.00048   0.10984   0.15235
  35        3S          0.02900   0.00012   0.03798   0.05521   0.02283
  36 6   H  1S         -0.00209  -0.00097  -0.01249  -0.02592  -0.01981
  37        2S         -0.00632  -0.00034  -0.02598  -0.04799  -0.03144
  38        3S         -0.00627   0.00017  -0.01995  -0.03150  -0.01555
                          36        37        38
  36 6   H  1S          0.07959
  37        2S          0.10958   0.15319
  38        3S          0.03831   0.05603   0.02327
    Full Mulliken population analysis:
                           1         2         3         4         5
   1 1   C  1S          0.65941
   2        2S          0.49328   0.49205
   3        2PX         0.00000   0.00000   0.08444
   4        2PY         0.00000   0.00000   0.00000   0.08784
   5        2PZ         0.00000   0.00000   0.00000   0.00000   0.06445
   6        3S         -0.02929  -0.06446   0.00000   0.00000   0.00000
   7        3PX         0.00000   0.00000   0.08221   0.00000   0.00000
   8        3PY         0.00000   0.00000   0.00000   0.08264   0.00000
   9        3PZ         0.00000   0.00000   0.00000   0.00000   0.06520
  10        4S         -0.01220  -0.02138   0.00000   0.00000   0.00000
  11        4PX         0.00000   0.00000   0.01552   0.00000   0.00000
  12        4PY         0.00000   0.00000   0.00000   0.01447   0.00000
  13        4PZ         0.00000   0.00000   0.00000   0.00000   0.02109
  14 2   H  1S         -0.00023  -0.00033   0.00179   0.00564   0.00000
  15        2S         -0.00166  -0.00317   0.00430   0.01324   0.00000
  16        3S          0.00004  -0.00007   0.00070   0.00191   0.00000
  17 3   H  1S         -0.00025  -0.00037   0.00792   0.00001   0.00000
  18        2S         -0.00173  -0.00331   0.01776   0.00001   0.00000
  19        3S          0.00005  -0.00006   0.00256  -0.00000   0.00000
  20 4   C  1S          0.00000   0.00000  -0.00002  -0.00006   0.00000
  21        2S          0.00000  -0.00000  -0.00002  -0.00006   0.00000
  22        2PX        -0.00002  -0.00002   0.00011   0.00087   0.00000
  23        2PY        -0.00006  -0.00005   0.00087   0.00199   0.00000
  24        2PZ        -0.00000  -0.00000  -0.00000  -0.00000   0.00042
  25        3S         -0.00060  -0.00101   0.00254   0.00768  -0.00000
  26        3PX        -0.00055  -0.00101   0.00019   0.00558   0.00000
  27        3PY        -0.00165  -0.00303   0.00554   0.01070   0.00000
  28        3PZ        -0.00000  -0.00000  -0.00000  -0.00000   0.00616
  29        4S          0.00034   0.00030   0.00092   0.00281  -0.00000
  30        4PX        -0.00018  -0.00046  -0.00071   0.00145   0.00000
  31        4PY        -0.00053  -0.00135   0.00145   0.00095   0.00000
  32        4PZ        -0.00000  -0.00000  -0.00000  -0.00000   0.00904
  33 5   H  1S          0.00000   0.00000  -0.00000  -0.00000   0.00000
  34        2S          0.00001   0.00002   0.00000  -0.00032   0.00000
  35        3S          0.00008   0.00013   0.00001  -0.00071  -0.00000
  36 6   H  1S          0.00000   0.00000  -0.00000  -0.00000   0.00000
  37        2S          0.00001   0.00002  -0.00024  -0.00007   0.00000
  38        3S          0.00008   0.00013  -0.00057  -0.00012  -0.00000
                           6         7         8         9        10
   6        3S          0.45271
   7        3PX         0.00000   0.20256
   8        3PY         0.00000   0.00000   0.19697
   9        3PZ         0.00000   0.00000   0.00000   0.16667
  10        4S          0.21159   0.00000   0.00000   0.00000   0.18165
  11        4PX         0.00000   0.07162   0.00000   0.00000   0.00000
  12        4PY         0.00000   0.00000   0.06466   0.00000   0.00000
  13        4PZ         0.00000   0.00000   0.00000   0.10065   0.00000
  14 2   H  1S          0.01601   0.01067   0.03251   0.00002   0.01818
  15        2S          0.04090   0.01952   0.05780   0.00002   0.04653
  16        3S          0.00281   0.00400   0.01025   0.00000   0.00829
  17 3   H  1S          0.01696   0.04437   0.00002   0.00002   0.01847
  18        2S          0.04227   0.07737   0.00001   0.00002   0.04634
  19        3S          0.00281   0.01391  -0.00002   0.00000   0.00756
  20 4   C  1S         -0.00060  -0.00057  -0.00173   0.00000   0.00033
  21        2S         -0.00102  -0.00105  -0.00318   0.00000   0.00030
  22        2PX         0.00246   0.00018   0.00557   0.00000   0.00083
  23        2PY         0.00739   0.00554   0.01066   0.00000   0.00247
  24        2PZ         0.00000  -0.00000  -0.00000   0.00619   0.00000
  25        3S          0.02208   0.01333   0.04035  -0.00000   0.00038
  26        3PX         0.01278  -0.00128   0.01861   0.00000   0.00422
  27        3PY         0.03827   0.01841   0.02842   0.00000   0.01249
  28        3PZ         0.00000  -0.00000  -0.00000   0.03551   0.00000
  29        4S          0.00062   0.00469   0.01445  -0.00000  -0.02054
  30        4PX         0.00640  -0.00405   0.00582   0.00000   0.00213
  31        4PY         0.01895   0.00582   0.00119   0.00000   0.00593
  32        4PZ         0.00000  -0.00000  -0.00000   0.04933   0.00000
  33 5   H  1S         -0.00005  -0.00000  -0.00019   0.00000  -0.00081
  34        2S         -0.00122   0.00006  -0.00323  -0.00000  -0.00332
  35        3S         -0.00201   0.00011  -0.00426  -0.00000  -0.00134
  36 6   H  1S         -0.00005  -0.00013  -0.00005   0.00000  -0.00082
  37        2S         -0.00120  -0.00257  -0.00053   0.00000  -0.00347
  38        3S         -0.00202  -0.00356  -0.00057  -0.00000  -0.00157
                          11        12        13        14        15
  11        4PX         0.06036
  12        4PY         0.00000   0.05130
  13        4PZ         0.00000   0.00000   0.14237
  14 2   H  1S          0.00630   0.01761   0.00001   0.08132
  15        2S          0.01536   0.04106   0.00001   0.07746   0.14999
  16        3S          0.00527   0.01194  -0.00000   0.01380   0.04166
  17 3   H  1S          0.02370  -0.00001   0.00001  -0.00001  -0.00068
  18        2S          0.05515  -0.00005   0.00001  -0.00068  -0.00558
  19        3S          0.01657  -0.00004  -0.00000  -0.00207  -0.00821
  20 4   C  1S         -0.00018  -0.00057   0.00000   0.00000   0.00002
  21        2S         -0.00046  -0.00143   0.00000   0.00000   0.00003
  22        2PX        -0.00071   0.00139   0.00000  -0.00000   0.00000
  23        2PY         0.00139   0.00094   0.00000  -0.00000  -0.00036
  24        2PZ        -0.00000  -0.00000   0.00903   0.00000   0.00000
  25        3S          0.00642   0.01994  -0.00000  -0.00007  -0.00147
  26        3PX        -0.00413   0.00558   0.00000  -0.00000   0.00004
  27        3PY         0.00556   0.00120   0.00000  -0.00022  -0.00353
  28        3PZ        -0.00000  -0.00000   0.04906   0.00000   0.00000
  29        4S          0.00227   0.00754  -0.00000  -0.00102  -0.00426
  30        4PX        -0.00714   0.00310   0.00000   0.00002   0.00019
  31        4PY         0.00314  -0.00562   0.00000  -0.00239  -0.01011
  32        4PZ        -0.00000  -0.00000   0.08953   0.00000  -0.00000
  33 5   H  1S          0.00002  -0.00236   0.00000   0.00000   0.00000
  34        2S          0.00026  -0.01000  -0.00000   0.00000   0.00015
  35        3S          0.00028  -0.00739  -0.00000   0.00023   0.00146
  36 6   H  1S         -0.00176  -0.00048   0.00000  -0.00000  -0.00004
  37        2S         -0.00832  -0.00104  -0.00000  -0.00004  -0.00093
  38        3S         -0.00660  -0.00030  -0.00000  -0.00047  -0.00250
                          16        17        18        19        20
  16        3S          0.02123
  17 3   H  1S         -0.00208   0.08253
  18        2S         -0.00822   0.07760   0.14842
  19        3S         -0.00690   0.01355   0.04048   0.02039
  20 4   C  1S          0.00009   0.00000   0.00002   0.00009   0.65947
  21        2S          0.00016   0.00000   0.00003   0.00016   0.49329
  22        2PX         0.00001  -0.00000  -0.00027  -0.00058   0.00000
  23        2PY        -0.00073  -0.00000  -0.00008  -0.00013   0.00000
  24        2PZ        -0.00000   0.00000   0.00000  -0.00000   0.00000
  25        3S         -0.00242  -0.00007  -0.00145  -0.00235  -0.02936
  26        3PX         0.00007  -0.00016  -0.00285  -0.00362   0.00000
  27        3PY        -0.00441  -0.00007  -0.00063  -0.00063   0.00000
  28        3PZ        -0.00000   0.00000   0.00000  -0.00000   0.00000
  29        4S         -0.00211  -0.00099  -0.00405  -0.00186  -0.01234
  30        4PX         0.00019  -0.00187  -0.00871  -0.00673   0.00000
  31        4PY        -0.00744  -0.00058  -0.00135  -0.00047   0.00000
  32        4PZ        -0.00000   0.00000  -0.00000  -0.00000   0.00000
  33 5   H  1S          0.00022  -0.00000  -0.00004  -0.00042  -0.00021
  34        2S          0.00144  -0.00004  -0.00089  -0.00235  -0.00158
  35        3S          0.00247  -0.00045  -0.00242  -0.00288   0.00004
  36 6   H  1S         -0.00044   0.00000   0.00000   0.00022  -0.00020
  37        2S         -0.00244   0.00000   0.00015   0.00141  -0.00154
  38        3S         -0.00296   0.00023   0.00145   0.00243   0.00004
                          21        22        23        24        25
  21        2S          0.49202
  22        2PX         0.00000   0.08236
  23        2PY         0.00000   0.00000   0.08759
  24        2PZ         0.00000   0.00000   0.00000   0.06437
  25        3S         -0.06454   0.00000   0.00000   0.00000   0.45328
  26        3PX         0.00000   0.08067   0.00000   0.00000   0.00000
  27        3PY         0.00000   0.00000   0.08255   0.00000   0.00000
  28        3PZ         0.00000   0.00000   0.00000   0.06481   0.00000
  29        4S         -0.02169   0.00000   0.00000   0.00000   0.21584
  30        4PX         0.00000   0.01604   0.00000   0.00000   0.00000
  31        4PY         0.00000   0.00000   0.01470   0.00000   0.00000
  32        4PZ         0.00000   0.00000   0.00000   0.02108   0.00000
  33 5   H  1S         -0.00030   0.00146   0.00558   0.00000   0.01525
  34        2S         -0.00303   0.00379   0.01360   0.00000   0.03939
  35        3S         -0.00006   0.00067   0.00200   0.00000   0.00264
  36 6   H  1S         -0.00027   0.00669   0.00001   0.00000   0.01466
  37        2S         -0.00295   0.01716   0.00001   0.00000   0.03870
  38        3S         -0.00008   0.00271  -0.00001   0.00000   0.00276
                          26        27        28        29        30
  26        3PX         0.19999
  27        3PY         0.00000   0.19716
  28        3PZ         0.00000   0.00000   0.16485
  29        4S          0.00000   0.00000   0.00000   0.18789
  30        4PX         0.07455   0.00000   0.00000   0.00000   0.06621
  31        4PY         0.00000   0.06589   0.00000   0.00000   0.00000
  32        4PZ         0.00000   0.00000   0.10011   0.00000   0.00000
  33 5   H  1S          0.00889   0.03319   0.00002   0.01769   0.00574
  34        2S          0.01727   0.05996   0.00002   0.04491   0.01464
  35        3S          0.00382   0.01079   0.00000   0.00728   0.00534
  36 6   H  1S          0.04108   0.00006   0.00002   0.01755   0.02442
  37        2S          0.07695  -0.00002   0.00002   0.04529   0.05918
  38        3S          0.01487  -0.00008   0.00000   0.00795   0.01878
                          31        32        33        34        35
  31        4PY         0.05310
  32        4PZ         0.00000   0.14240
  33 5   H  1S          0.01854   0.00001   0.08047
  34        2S          0.04356   0.00001   0.07759   0.15235
  35        3S          0.01286  -0.00000   0.01419   0.04356   0.02283
  36 6   H  1S         -0.00004   0.00001  -0.00001  -0.00075  -0.00229
  37        2S         -0.00021   0.00001  -0.00076  -0.00640  -0.00944
  38        3S         -0.00017  -0.00000  -0.00231  -0.00946  -0.00824
                          36        37        38
  36 6   H  1S          0.07959
  37        2S          0.07740   0.15319
  38        3S          0.01431   0.04421   0.02327
     Gross orbital populations:
                           1
   1 1   C  1S          1.10435
   2        2S          0.88586
   3        2PX         0.22727
   4        2PY         0.23646
   5        2PZ         0.16638
   6        3S          0.79308
   7        3PX         0.56116
   8        3PY         0.55618
   9        3PZ         0.42363
  10        4S          0.50226
  11        4PX         0.25989
  12        4PY         0.21143
  13        4PZ         0.41176
  14 2   H  1S          0.27404
  15        2S          0.46724
  16        3S          0.08633
  17 3   H  1S          0.27777
  18        2S          0.46478
  19        3S          0.08287
  20 4   C  1S          1.10441
  21        2S          0.88584
  22        2PX         0.22139
  23        2PY         0.23587
  24        2PZ         0.16592
  25        3S          0.79191
  26        3PX         0.55158
  27        3PY         0.55592
  28        3PZ         0.42057
  29        4S          0.50949
  30        4PX         0.27436
  31        4PY         0.21582
  32        4PZ         0.41152
  33 5   H  1S          0.27143
  34        2S          0.47003
  35        3S          0.08931
  36 6   H  1S          0.26869
  37        2S          0.47154
  38        3S          0.09164
          Condensed to atoms (all electrons):
               1          2          3          4          5          6
     1  C    5.034000   0.387249   0.388031   0.602454  -0.036214  -0.035801
     2  H    0.387249   0.518366  -0.034424  -0.039739   0.005992  -0.009827
     3  H    0.388031  -0.034424   0.514594  -0.039187  -0.009491   0.005899
     4  C    0.602454  -0.039739  -0.039187   5.053901   0.383802   0.383363
     5  H   -0.036214   0.005992  -0.009491   0.383802   0.526340  -0.039659
     6  H   -0.035801  -0.009827   0.005899   0.383363  -0.039659   0.527902
 Mulliken charges:
               1
     1  C   -0.339719
     2  H    0.172383
     3  H    0.174578
     4  C   -0.344593
     5  H    0.169229
     6  H    0.168123
 Sum of Mulliken charges =  -0.00000
 Mulliken charges with hydrogens summed into heavy atoms:
               1
     1  C    0.007241
     4  C   -0.007241
 Electronic spatial extent (au):  <R**2>=             83.7376
 Charge=              0.0000 electrons
 Dipole moment (field-independent basis, Debye):
    X=             -0.0027    Y=              0.0100    Z=             -0.0993  Tot=              0.0999
 Quadrupole moment (field-independent basis, Debye-Ang):
   XX=            -12.2106   YY=            -12.2139   ZZ=            -15.6696
   XY=              0.0232   XZ=              0.0003   YZ=             -0.0049
 Traceless Quadrupole moment (field-independent basis, Debye-Ang):
   XX=              1.1541   YY=              1.1508   ZZ=             -2.3049
   XY=              0.0232   XZ=              0.0003   YZ=             -0.0049
 Octapole moment (field-independent basis, Debye-Ang**2):
  XXX=             -0.3070  YYY=             -0.0514  ZZZ=             -0.0621  XYY=              0.0993
  XXY=             -0.0661  XXZ=             -0.1338  XZZ=             -0.0971  YZZ=             -0.0852
  YYZ=             -0.1767  XYZ=             -0.0369
 Hexadecapole moment (field-independent basis, Debye-Ang**3):
 XXXX=            -34.3176 YYYY=            -55.1947 ZZZZ=            -17.8012 XXXY=             -7.2195
 XXXZ=              0.0094 YYYX=            -10.6944 YYYZ=              0.0103 ZZZX=              0.0143
 ZZZY=              0.0321 XXYY=            -16.2072 XXZZ=             -9.9345 YYZZ=            -13.6496
 XXYZ=              0.0071 YYXZ=              0.0010 ZZXY=             -3.2021
 N-N= 3.306964859512D+01 E-N=-2.478477933894D+02  KE= 7.814906866596D+01
 Orbital energies and kinetic energies (alpha):
                                 1                 2
   1         O               -10.290966         15.978950
   2         O               -10.287637         15.979395
   3         O                -0.864070          1.541485
   4         O                -0.671737          1.269740
   5         O                -0.558717          0.941400
   6         O                -0.510065          1.282820
   7         O                -0.435760          1.041332
   8         O                -0.357293          1.039411
   9         V                 0.080239          1.181517
  10         V                 0.140850          0.590199
  11         V                 0.164210          0.597774
  12         V                 0.169820          0.680386
  13         V                 0.240829          0.584131
  14         V                 0.376474          0.856519
  15         V                 0.392131          0.930922
  16         V                 0.397593          0.774235
  17         V                 0.463091          1.193217
  18         V                 0.487834          1.422099
  19         V                 0.493479          1.300392
  20         V                 0.591200          1.654110
  21         V                 0.664881          1.571299
  22         V                 0.690166          2.145582
  23         V                 0.772046          2.455456
  24         V                 0.776242          2.280395
  25         V                 0.842009          1.086043
  26         V                 0.953971          3.436070
  27         V                 2.232080          3.922642
  28         V                 2.289162          4.032496
  29         V                 2.333000          4.300423
  30         V                 2.406319          4.515933
  31         V                 2.671473          6.301575
  32         V                 2.817431          6.305193
  33         V                 2.878641          6.135194
  34         V                 2.951306          6.227292
  35         V                 3.141542          6.822272
  36         V                 3.316985          6.401338
  37         V                23.351111         60.073619
  38         V                23.707342         60.205160
 Total kinetic energy from orbitals= 7.814906866596D+01
 Calling FoFJK, ICntrl=      2127 FMM=F ISym2X=0 I1Cent= 0 IOpClX= 0 NMat=1 NMatS=1 NMatT=0.
 -------------------------------------------------------------------
 Center     Atomic                   Forces (Hartrees/Bohr)
 Number     Number              X              Y              Z
 -------------------------------------------------------------------
      1        6           0.011401816    0.004334696   -0.003899647
      2        1          -0.008083265    0.006377332    0.002008756
      3        1           0.002037095   -0.002849054    0.001833397
      4        6           0.010999438    0.011438364   -0.004589830
      5        1           0.003629594   -0.014921828    0.002280128
      6        1          -0.019984678   -0.004379510    0.002367196
 -------------------------------------------------------------------
 Cartesian Forces:  Max     0.019984678 RMS     0.008258889

 GradGradGradGradGradGradGradGradGradGradGradGradGradGradGradGradGradGrad
 Berny optimization.
 Search for a local minimum.
 Step number   1 out of a maximum of    2
 All quantities printed in internal units (Hartrees-Bohrs-Radians)
 Second derivative matrix not updated -- first step.
 The second derivative matrix:
                          X1        Y1        Z1        X2        Y2
           X1           0.75999
           Y1           0.10380   0.86363
           Z1           0.00604   0.00896   0.17359
           X2          -0.16275   0.09543   0.00204   0.14047
           Y2           0.10190  -0.28447  -0.00731  -0.11474   0.27339
           Z2           0.00322  -0.00919  -0.05541  -0.00292   0.00760
           X3          -0.35321  -0.00450  -0.00819  -0.00065  -0.00036
           Y3          -0.01095  -0.11025  -0.00200   0.03255   0.01871
           Z3          -0.01042  -0.00195  -0.05717   0.00147   0.00053
           X4          -0.26886  -0.18041  -0.00092   0.02294   0.01320
           Y4          -0.18053  -0.47712  -0.00148  -0.01324  -0.00762
           Z4           0.00116   0.00216  -0.09514  -0.00060  -0.00082
           X5           0.02344  -0.01353   0.00064  -0.00001   0.00000
           Y5           0.01175  -0.00678   0.00089   0.00000  -0.00000
           Z5          -0.00052   0.00031   0.01756   0.00025  -0.00014
           X6           0.00139  -0.00080   0.00039  -0.00001   0.00000
           Y6          -0.02597   0.01499   0.00095   0.00000  -0.00000
           Z6           0.00052  -0.00029   0.01657  -0.00025   0.00013
                          Z2        X3        Y3        Z3        X4
           Z2           0.02888
           X3          -0.00032   0.35336
           Y3           0.00159   0.00515   0.07610
           Z3           0.01056   0.00895   0.00140   0.02997
           X4           0.00055   0.00052  -0.02676  -0.00054   0.70903
           Y4          -0.00030  -0.00030   0.01545   0.00033   0.12188
           Z4           0.01586  -0.00045  -0.00099   0.01676  -0.00494
           X5          -0.00027  -0.00001   0.00000   0.00028  -0.14599
           Y5           0.00016   0.00000  -0.00000  -0.00017   0.09143
           Z5           0.00934   0.00027  -0.00016  -0.00955  -0.00323
           X6          -0.00026  -0.00001   0.00000   0.00026  -0.31763
           Y6           0.00014   0.00000  -0.00000  -0.00014  -0.01935
           Z6          -0.00924  -0.00026   0.00016   0.00944   0.00909
                          Y4        Z4        X5        Y5        Z5
           Y4           0.85910
           Z4          -0.00992   0.17572
           X5           0.08356  -0.00213   0.12431
           Y5          -0.28619   0.00765  -0.10232   0.27682
           Z5           0.00949  -0.05722   0.00288  -0.00815   0.02970
           X6          -0.01136   0.00696  -0.00175  -0.00087   0.00034
           Y6          -0.10361   0.00193   0.03228   0.01616  -0.00135
           Z6           0.00190  -0.05598  -0.00140  -0.00038   0.01016
                          X6        Y6        Z6
           X6           0.31800
           Y6           0.01302   0.07247
           Z6          -0.00770  -0.00153   0.02905
 ITU=  0
     Eigenvalues ---    0.03759   0.04373   0.09234   0.10066   0.13520
     Eigenvalues ---    0.17372   0.26586   0.28843   0.52742   0.69559
     Eigenvalues ---    0.97097   1.57157
 Angle between quadratic step and forces=  34.79 degrees.
 Linear search not attempted -- first point.
 B after Tr=     0.006302    0.005533   -0.010148
         Rot=    1.000000   -0.000006    0.000003   -0.000101 Ang=  -0.01 deg.
 Variable       Old X    -DE/DX   Delta X   Delta X   Delta X     New X
                                 (Linear)    (Quad)   (Total)
    X1       -0.63371   0.01140   0.00000   0.01890   0.02542  -0.60829
    Y1       -1.09547   0.00433   0.00000   0.01750   0.02290  -1.07256
    Z1        0.01199  -0.00390   0.00000  -0.02103  -0.03120  -0.01921
    X2        0.40135  -0.00808   0.00000  -0.02989  -0.02301   0.37834
    Y2       -2.89162   0.00638   0.00000   0.02063   0.02624  -2.86538
    Z2       -0.04163   0.00201   0.00000   0.02607   0.01589  -0.02573
    X3       -2.68335   0.00204   0.00000   0.02376   0.03029  -2.65306
    Y3       -1.13379  -0.00285   0.00000  -0.00368   0.00131  -1.13247
    Z3       -0.04486   0.00183   0.00000   0.02550   0.01532  -0.02954
    X4        0.62856   0.01100   0.00000   0.00717   0.01325   0.64181
    Y4        1.09077   0.01144   0.00000   0.00542   0.01108   1.10186
    Z4        0.01023  -0.00459   0.00000  -0.02097  -0.03110  -0.02088
    X5       -0.30981   0.00363   0.00000  -0.00406   0.00165  -0.30816
    Y5        2.96099  -0.01492   0.00000  -0.04991  -0.04444   2.91655
    Z5       -0.04987   0.00228   0.00000   0.02600   0.01588  -0.03398
    X6        2.73530  -0.01998   0.00000  -0.05366  -0.04760   2.68770
    Y6        1.20246  -0.00438   0.00000  -0.02318  -0.01711   1.18536
    Z6       -0.04633   0.00237   0.00000   0.02532   0.01521  -0.03112
         Item               Value     Threshold  Converged?
 Maximum Force            0.019985     0.000450     NO 
 RMS     Force            0.008259     0.000300     NO 
 Maximum Displacement     0.047601     0.001800     NO 
 RMS     Displacement     0.024781     0.001200     NO 
 Predicted change in Energy=-1.582459D-03
 GradGradGradGradGradGradGradGradGradGradGradGradGradGradGradGradGradGrad

 Unable to Open any file for archive entry.
 1\1\GINC-BHD0015\Force\RwB97XD\6-311G\C2H4\BWEIGHT\11-Jan-2023\0\\# WB
 97XD/6-311G SCF=XQC FORCE nosym pop=full guess=read\\MD Step 999\\0,1\
 C,-0.33534691,-0.57969704,0.00634667\H,0.21238507,-1.5301818,-0.022027
 37\H,-1.41996673,-0.59997381,-0.02373987\C,0.3326195,0.57721183,0.0054
 1161\H,-0.16394576,1.56689028,-0.02638938\H,1.44745704,0.63631604,-0.0
 2451608\\Version=ES64L-G16RevC.01\HF=-78.5558078\RMSD=5.665e-09\RMSF=8
 .259e-03\Dipole=-0.0010511,0.0039479,-0.0390823\Quadrupole=0.8580696,0
 .8556011,-1.7136707,0.0172766,0.0002069,-0.0036765\PG=C01 [X(C2H4)]\\@
 The archive entry for this job was punched.


 ASKING DUMB QUESTIONS IS EASIER THAN CORECTING DUMB MISTAKES.
 Job cpu time:       0 days  0 hours  0 minutes 57.1 seconds.
 Elapsed time:       0 days  0 hours  0 minutes 19.6 seconds.
 File lengths (MBytes):  RWF=    272 Int=      0 D2E=      0 Chk=     32 Scr=     32
 Normal termination of Gaussian 16 at Wed Jan 11 16:32:50 2023.
