6
MD Step 0
C  -0.33763715 -0.58748864 0.00000000
H  0.19552659 -1.51519357 0.00000000
H  -1.40763715 -0.58748864 0.00000000
C  0.33763715 0.58748865 0.00000000
H  -0.19552659 1.51519357 0.00000000
H  1.40763715 0.58748865 0.00000000
6
MD Step 1
C  -0.33800570 -0.58783583 -0.00039468
H  0.19788888 -1.51298930 0.00235208
H  -1.40542060 -0.58520700 0.00235089
C  0.33721663 0.58704696 -0.00039466
H  -0.19318905 1.51768831 0.00235201
H  1.41012343 0.58990824 0.00235082
6
MD Step 2
C  -0.33831429 -0.58808261 -0.00078558
H  0.20025187 -1.51111614 0.00468163
H  -1.40354663 -0.58309685 0.00467932
C  0.33675240 0.58651725 -0.00078551
H  -0.19089027 1.52042816 0.00468137
H  1.41279654 0.59243779 0.00467888
6
MD Step 3
C  -0.33856240 -0.58823114 -0.00117562
H  0.20263164 -1.50956678 0.00700591
H  -1.40204179 -0.58114770 0.00700284
C  0.33624658 0.58590058 -0.00117539
H  -0.18860556 1.52340055 0.00700499
H  1.41561108 0.59508489 0.00700086
6
MD Step 4
C  -0.33874639 -0.58828078 -0.00156382
H  0.20501784 -1.50834993 0.00931903
H  -1.40094635 -0.57937126 0.00931599
C  0.33570546 0.58520290 -0.00156318
H  -0.18633126 1.52656432 0.00931643
H  1.41849564 0.59783298 0.00930991
6
MD Step 5
C  -0.33886425 -0.58823279 -0.00194997
H  0.20740144 -1.50746258 0.01161962
H  -1.40028536 -0.57777376 0.01161797
C  0.33513474 0.58443026 -0.00194852
H  -0.18405752 1.52987826 0.01161356
H  1.42138236 0.60066917 0.01160339
6
MD Step 6
C  -0.33891310 -0.58808770 -0.00233208
H  0.20975959 -1.50690551 0.01389552
H  -1.40008301 -0.57637118 0.01389732
C  0.33454203 0.58359129 -0.00232919
H  -0.18178405 1.53328691 0.01388333
H  1.42419329 0.60356904 0.01386769
6
MD Step 7
C  -0.33889117 -0.58784712 -0.00270820
H  0.21206706 -1.50667247 0.01613494
H  -1.40035071 -0.57517809 0.01614301
C  0.33393481 0.58269523 -0.00270303
H  -0.17950948 1.53673271 0.01611294
H  1.42685327 0.60650791 0.01608938
6
MD Step 8
C  -0.33880399 -0.58751993 -0.00308260
H  0.21433338 -1.50671386 0.01836327
H  -1.40104999 -0.57417078 0.01838113
C  0.33331420 0.58174558 -0.00307409
H  -0.17719513 1.54019406 0.01832667
H  1.42932829 0.60949788 0.01829222
6
MD Step 9
C  -0.33865489 -0.58711265 -0.00345636
H  0.21654699 -1.50699408 0.02058665
H  -1.40214989 -0.57334372 0.02061850
C  0.33268437 0.58074952 -0.00344320
H  -0.17482183 1.54362968 0.02052954
H  1.43156966 0.61253137 0.02048070
6
MD Step 10
C  -0.33844522 -0.58662964 -0.00382756
H  0.21867730 -1.50749083 0.02279358
H  -1.40362629 -0.57270795 0.02284423
C  0.33205226 0.57971750 -0.00380824
H  -0.17238881 1.54698117 0.02270893
H  1.43351649 0.61558285 0.02264173
6
MD Step 11
C  -0.33817034 -0.58606902 -0.00418731
H  0.22065162 -1.50821952 0.02493123
H  -1.40548639 -0.57231467 0.02500623
C  0.33143146 0.57866709 -0.00416022
H  -0.16993769 1.55015045 0.02481104
H  1.43507307 0.61858534 0.02472085
6
MD Step 12
C  -0.33784241 -0.58544542 -0.00454263
H  0.22249157 -1.50909803 0.02704145
H  -1.40763311 -0.57211925 0.02714637
C  0.33081931 0.57760000 -0.00450596
H  -0.16741726 1.55313693 0.02687663
H  1.43624632 0.62156666 0.02675884
6
MD Step 13
C  -0.33746408 -0.58476368 -0.00489022
H  0.22415768 -1.51010392 0.02910466
H  -1.41002359 -0.57213721 0.02924529
C  0.33022307 0.57652819 -0.00484208
H  -0.16483952 1.55588202 0.02888532
H  1.43698955 0.62449341 0.02873507
6
MD Step 14
C  -0.33703904 -0.58402940 -0.00522712
H  0.22561378 -1.51121145 0.03110373
H  -1.41260693 -0.57238039 0.03128586
C  0.32964920 0.57546306 -0.00516565
H  -0.16221623 1.55833374 0.03081930
H  1.43726685 0.62733491 0.03063159
6
MD Step 15
C  -0.33657576 -0.58325272 -0.00555465
H  0.22685024 -1.51236966 0.03304680
H  -1.41530283 -0.57283420 0.03327572
C  0.32909949 0.57441147 -0.00547796
H  -0.15953643 1.56047026 0.03268612
H  1.43707642 0.63008622 0.03245626
6
MD Step 16
C  -0.33608128 -0.58244208 -0.00587227
H  0.22784832 -1.51353942 0.03493110
H  -1.41803992 -0.57349370 0.03521153
C  0.32857710 0.57338176 -0.00577855
H  -0.15680269 1.56226415 0.03448263
H  1.43641431 0.63273201 0.03420624
6
MD Step 17
C  -0.33556511 -0.58160824 -0.00618172
H  0.22860491 -1.51466993 0.03676735
H  -1.42073324 -0.57433944 0.03710289
C  0.32808246 0.57237960 -0.00606919
H  -0.15400694 1.56370708 0.03621921
H  1.43529875 0.63527100 0.03589267
6
MD Step 18
C  -0.33502876 -0.58075370 -0.00647644
H  0.22907087 -1.51576145 0.03851756
H  -1.42334815 -0.57539929 0.03891151
C  0.32762375 0.57141825 -0.00634369
H  -0.15119229 1.56474818 0.03785817
H  1.43370799 0.63765400 0.03747783
6
MD Step 19
C  -0.33447943 -0.57988654 -0.00675569
H  0.22923399 -1.51678316 0.04017795
H  -1.42581858 -0.57666605 0.04063255
C  0.32720286 0.57050467 -0.00660156
H  -0.14837077 1.56537703 0.03939595
H  1.43166322 0.63986679 0.03895886
6
MD Step 20
C  -0.33392604 -0.57901645 -0.00702060
H  0.22909614 -1.51769675 0.04175587
H  -1.42807151 -0.57812046 0.04227182
C  0.32681933 0.56964329 -0.00684412
H  -0.14554625 1.56560084 0.04084017
H  1.42920538 0.64190716 0.04034453
6
MD Step 21
C  -0.33337430 -0.57814974 -0.00726923
H  0.22864448 -1.51848591 0.04324066
H  -1.43005731 -0.57976031 0.04381756
C  0.32647523 0.56884084 -0.00706983
H  -0.14274327 1.56541543 0.04218088
H  1.42636570 0.64375590 0.04162564
6
MD Step 22
C  -0.33283237 -0.57729511 -0.00750256
H  0.22788630 -1.51912200 0.04463859
H  -1.43171599 -0.58156583 0.04527426
C  0.32616925 0.56810045 -0.00727991
H  -0.13997236 1.56483995 0.04342496
H  1.42320000 0.64541169 0.04281059
6
MD Step 23
C  -0.33229594 -0.57644858 -0.00770906
H  0.22675995 -1.51965341 0.04588317
H  -1.43306721 -0.58358862 0.04657622
C  0.32591182 0.56743655 -0.00746386
H  -0.13731852 1.56382778 0.04450779
H  1.41969921 0.64680188 0.04383385
6
MD Step 24
C  -0.33177709 -0.57562261 -0.00789461
H  0.22530811 -1.52003239 0.04700943
H  -1.43403686 -0.58577909 0.04775585
C  0.32569580 0.56684583 -0.00762767
H  -0.13476882 1.56243974 0.04546509
H  1.41596246 0.64795616 0.04473357
6
MD Step 25
C  -0.33128415 -0.57482582 -0.00806184
H  0.22355769 -1.52023534 0.04803317
H  -1.43457827 -0.58810622 0.04882690
C  0.32551681 0.56632732 -0.00777417
H  -0.13233156 1.56072362 0.04631377
H  1.41207588 0.64888632 0.04552863
6
MD Step 26
C  -0.33082011 -0.57406138 -0.00820848
H  0.22151063 -1.52027219 0.04894174
H  -1.43468204 -0.59056690 0.04977578
C  0.32537487 0.56588396 -0.00790169
H  -0.13004506 1.55870451 0.04704278
H  1.40810210 0.64957692 0.04620899
6
MD Step 27
C  -0.33038359 -0.57332797 -0.00832832
H  0.21914966 -1.52018038 0.04969993
H  -1.43437029 -0.59318011 0.05056761
C  0.32527341 0.56552159 -0.00800499
H  -0.12797139 1.55639020 0.04761906
H  1.40408506 0.64999131 0.04674151
6
MD Step 28
C  -0.32998331 -0.57263448 -0.00842650
H  0.21652539 -1.51993754 0.05033778
H  -1.43360925 -0.59590016 0.05122996
C  0.32520463 0.56523444 -0.00808921
H  -0.12610945 1.55385789 0.04807388
H  1.40013618 0.65015893 0.04716004
6
MD Step 29
C  -0.32961571 -0.57197734 -0.00849598
H  0.21362175 -1.51959564 0.05081534
H  -1.43244391 -0.59875057 0.05172395
C  0.32517226 0.56502757 -0.00814844
H  -0.12452791 1.55111911 0.04836969
H  1.39629830 0.65004075 0.04742639
6
MD Step 30
C  -0.32929457 -0.57137054 -0.00854882
H  0.21053379 -1.51910271 0.05120189
H  -1.43081970 -0.60164691 0.05211481
C  0.32516162 0.56488728 -0.00819401
H  -0.12318786 1.54829677 0.04857659
H  1.39272205 0.64970754 0.04761477
6
MD Step 31
C  -0.32901480 -0.57080903 -0.00857798
H  0.20725044 -1.51851971 0.05145750
H  -1.42880014 -0.60461317 0.05236401
C  0.32517639 0.56481742 -0.00821999
H  -0.12215783 1.54540689 0.04865698
H  1.38944620 0.64912218 0.04768663
6
MD Step 32
C  -0.32877916 -0.57029576 -0.00858557
H  0.20381429 -1.51785991 0.05159419
H  -1.42640605 -0.60762228 0.05248272
C  0.32521167 0.56481276 -0.00822859
H  -0.12145403 1.54251768 0.04862444
H  1.38655604 0.64830016 0.04765669
6
MD Step 33
C  -0.32858469 -0.56982806 -0.00856850
H  0.20024019 -1.51716944 0.05159437
H  -1.42369631 -0.61067702 0.05245416
C  0.32526783 0.56487264 -0.00821732
H  -0.12112036 1.53966719 0.04846315
H  1.38410029 0.64722816 0.04750863
6
MD Step 34
C  -0.32842854 -0.56940346 -0.00852451
H  0.19654915 -1.51649223 0.05144537
H  -1.42073273 -0.61377576 0.05226669
C  0.32534473 0.56499536 -0.00818446
H  -0.12119349 1.53689656 0.04816201
H  1.38212386 0.64589851 0.04723061
6
MD Step 35
C  -0.32831920 -0.56903112 -0.00846425
H  0.19283514 -1.51580199 0.05120701
H  -1.41751188 -0.61684542 0.05197771
C  0.32543054 0.56516699 -0.00813959
H  -0.12163531 1.53431599 0.04778157
H  1.38073348 0.64437649 0.04688553
6
MD Step 36
C  -0.32824759 -0.56870271 -0.00838037
H  0.18909160 -1.51517490 0.05083767
H  -1.41413823 -0.61991450 0.05154848
C  0.32553102 0.56539060 -0.00807630
H  -0.12250453 1.53192982 0.04728151
H  1.37992192 0.64262672 0.04643047
6
MD Step 37
C  -0.32821533 -0.56842091 -0.00827767
H  0.18537962 -1.51461975 0.05036382
H  -1.41065374 -0.62294442 0.05100533
C  0.32564112 0.56565803 -0.00799877
H  -0.12378794 1.52980442 0.04668887
H  1.37973633 0.64068226 0.04589256
6
MD Step 38
C  -0.32821779 -0.56818240 -0.00815488
H  0.18172583 -1.51417882 0.04977798
H  -1.40713863 -0.62593121 0.05034257
C  0.32576215 0.56596707 -0.00790585
H  -0.12550112 1.52796517 0.04599658
H  1.38017532 0.63854282 0.04526302
6
MD Step 39
C  -0.32825791 -0.56799171 -0.00801937
H  0.17820356 -1.51384514 0.04912063
H  -1.40362806 -0.62882369 0.04960058
C  0.32588801 0.56630783 -0.00780378
H  -0.12760634 1.52647743 0.04524531
H  1.38127062 0.63625661 0.04458254
6
MD Step 40
C  -0.32832989 -0.56784490 -0.00786967
H  0.17483514 -1.51365922 0.04838285
H  -1.40020863 -0.63162103 0.04877259
C  0.32602156 0.56667919 -0.00769098
H  -0.13010933 1.52534795 0.04442590
H  1.38298899 0.63382288 0.04383990
6
MD Step 41
C  -0.32842542 -0.56773582 -0.00770203
H  0.17162775 -1.51367161 0.04754282
H  -1.39698001 -0.63433616 0.04783954
C  0.32616840 0.56708277 -0.00756382
H  -0.13302273 1.52456104 0.04351591
H  1.38526968 0.63122855 0.04301000
6
MD Step 42
C  -0.32853968 -0.56766205 -0.00751657
H  0.16860769 -1.51390704 0.04660056
H  -1.39401777 -0.63696088 0.04680346
C  0.32633092 0.56751697 -0.00742203
H  -0.13633125 1.52411354 0.04251456
H  1.38806110 0.62848314 0.04209023
6
MD Step 43
C  -0.32866969 -0.56762311 -0.00731538
H  0.16580877 -1.51437475 0.04556681
H  -1.39138249 -0.63947673 0.04567671
C  0.32651000 0.56797891 -0.00726703
H  -0.14000283 1.52400390 0.04143175
H  1.39131139 0.62560782 0.04108907
6
MD Step 44
C  -0.32880919 -0.56761545 -0.00709701
H  0.16324166 -1.51509831 0.04443279
H  -1.38914833 -0.64188556 0.04445268
C  0.32671003 0.56846949 -0.00709712
H  -0.14401944 1.52420209 0.04025748
H  1.39493968 0.62260503 0.03999467
6
MD Step 45
C  -0.32895350 -0.56763708 -0.00686137
H  0.16092078 -1.51608774 0.04319741
H  -1.38737366 -0.64418192 0.04313211
C  0.32693414 0.56898870 -0.00691185
H  -0.14835007 1.52467786 0.03898939
H  1.39886574 0.61948588 0.03880320
6
MD Step 46
C  -0.32910745 -0.56769536 -0.00661801
H  0.15891004 -1.51729292 0.04191293
H  -1.38605314 -0.64630663 0.04176759
C  0.32717640 0.56952781 -0.00671923
H  -0.15290498 1.52544787 0.03767966
H  1.40305852 0.61631617 0.03756683
6
MD Step 47
C  -0.32926409 -0.56778590 -0.00636362
H  0.15719747 -1.51872974 0.04056040
H  -1.38524310 -0.64827318 0.04034193
C  0.32744277 0.57009051 -0.00651600
H  -0.15766251 1.52645043 0.03630785
H  1.40741107 0.61309073 0.03626378
6
MD Step 48
C  -0.32941830 -0.56790591 -0.00609621
H  0.15577434 -1.52040046 0.03912845
H  -1.38498050 -0.65008784 0.03884504
C  0.32773767 0.57067940 -0.00630014
H  -0.16259014 1.52762657 0.03486130
H  1.41182278 0.60981273 0.03488042
6
MD Step 49
C  -0.32957019 -0.56805744 -0.00581861
H  0.15465462 -1.52227432 0.03763255
H  -1.38526239 -0.65172990 0.03729284
C  0.32806064 0.57129259 -0.00607394
H  -0.16762575 1.52894102 0.03335497
H  1.41622128 0.60651306 0.03343154
6
MD Step 50
C  -0.32971784 -0.56824020 -0.00553086
H  0.15383245 -1.52433086 0.03607267
H  -1.38608860 -0.65319474 0.03568569
C  0.32841343 0.57193081 -0.00583725
H  -0.17272144 1.53034064 0.03178816
H  1.42052097 0.60320748 0.03191623
6
MD Step 51
C  -0.32985414 -0.56844837 -0.00522678
H  0.15326370 -1.52657938 0.03441480
H  -1.38748061 -0.65451293 0.03399001
C  0.32880301 0.57260057 -0.00558459
H  -0.17786351 1.53173678 0.03012521
H  1.42460570 0.59987774 0.03029848
6
MD Step 52
C  -0.32998395 -0.56868737 -0.00491199
H  0.15296642 -1.52895851 0.03269031
H  -1.38938058 -0.65564862 0.03223657
C  0.32922480 0.57329690 -0.00532092
H  -0.18297184 1.53310791 0.02839802
H  1.42843200 0.59657190 0.02861070
6
MD Step 53
C  -0.33011088 -0.56896090 -0.00459014
H  0.15294439 -1.53141451 0.03091968
H  -1.39173016 -0.65657757 0.03044520
C  0.32967552 0.57401645 -0.00504954
H  -0.18797846 1.53442299 0.02662753
H  1.43195204 0.59332707 0.02687432
6
MD Step 54
C  -0.33023521 -0.56926888 -0.00426088
H  0.15317604 -1.53391394 0.02910121
H  -1.39448377 -0.65729895 0.02861348
C  0.33015507 0.57475932 -0.00477020
H  -0.19283984 1.53563088 0.02481194
H  1.43510255 0.59015770 0.02508800
6
MD Step 55
C  -0.33035181 -0.56960546 -0.00391770
H  0.15360340 -1.53645607 0.02719965
H  -1.39762166 -0.65784716 0.02670547
C  0.33066850 0.57553107 -0.00447733
H  -0.19754939 1.53664956 0.02291477
H  1.43779396 0.58704386 0.02321562
6
MD Step 56
C  -0.33046910 -0.56997754 -0.00356791
H  0.15424336 -1.53896199 0.02525588
H  -1.40103937 -0.65817957 0.02476090
C  0.33120745 0.57632365 -0.00417759
H  -0.20202572 1.53747897 0.02097840
H  1.44002361 0.58404217 0.02130034
6
MD Step 57
C  -0.33058667 -0.57038293 -0.00320930
H  0.15505833 -1.54140645 0.02325838
H  -1.40468092 -0.65830825 0.02276728
C  0.33177188 0.57713759 -0.00386921
H  -0.20624468 1.53807049 0.01899113
H  1.44174431 0.58115553 0.01933102
6
MD Step 58
C  -0.33070293 -0.57081787 -0.00283840
H  0.15600218 -1.54377278 0.02118830
H  -1.40849465 -0.65825402 0.02070477
C  0.33236249 0.57797417 -0.00354927
H  -0.21019376 1.53837344 0.01693366
H  1.44291082 0.57837859 0.01728894
6
MD Step 59
C  -0.33081826 -0.57128013 -0.00245366
H  0.15703944 -1.54603476 0.01903796
H  -1.41241577 -0.65802753 0.01856478
C  0.33297758 0.57883226 -0.00321667
H  -0.21385355 1.53835447 0.01479815
H  1.44349930 0.57571637 0.01516685
6
MD Step 60
C  -0.33094481 -0.57177865 -0.00206590
H  0.15820330 -1.54809919 0.01686784
H  -1.41631003 -0.65757089 0.01640679
C  0.33360347 0.57969842 -0.00288123
H  -0.21713958 1.53805604 0.01264737
H  1.44356576 0.57324184 0.01302815
6
MD Step 61
C  -0.33107146 -0.57229931 -0.00166191
H  0.15939253 -1.55001180 0.01460513
H  -1.42018098 -0.65696409 0.01415738
C  0.33424850 0.58058167 -0.00253133
H  -0.22010877 1.53739113 0.01040616
H  1.44303959 0.57089197 0.01079808
6
MD Step 62
C  -0.33121127 -0.57285142 -0.00125383
H  0.16064892 -1.55167846 0.01231807
H  -1.42389159 -0.65614429 0.01188408
C  0.33489683 0.58146626 -0.00217807
H  -0.22267906 1.53642302 0.00814493
H  1.44200438 0.56874508 0.00854749
6
MD Step 63
C  -0.33136452 -0.57343159 -0.00084091
H  0.16194268 -1.55308237 0.01000299
H  -1.42738268 -0.65512360 0.00958280
C  0.33554438 0.58234833 -0.00182092
H  -0.22484707 1.53514837 0.00585979
H  1.44047976 0.56680549 0.00627281
6
MD Step 64
C  -0.33153400 -0.57403872 -0.00042540
H  0.16326215 -1.55419444 0.00767292
H  -1.43058413 -0.65389857 0.00726627
C  0.33618390 0.58322070 -0.00146201
H  -0.22659777 1.53358733 0.00356393
H  1.43851136 0.56509290 0.00398741
6
MD Step 65
C  -0.33171867 -0.57466786 -0.00000607
H  0.16457743 -1.55501045 0.00532126
H  -1.43345258 -0.65248725 0.00492776
C  0.33681125 0.58407918 -0.00110028
H  -0.22794142 1.53174644 0.00125020
H  1.43613331 0.56360568 0.00168418
6
MD Step 66
C  -0.33191806 -0.57531454 0.00041728
H  0.16586629 -1.55552542 0.00294713
H  -1.43594624 -0.65090314 0.00256645
C  0.33742106 0.58491821 -0.00073555
H  -0.22888771 1.52964446 -0.00108278
H  1.43339373 0.56234646 -0.00063833
6
MD Step 67
C  -0.33213097 -0.57597358 0.00084510
H  0.16710711 -1.55574083 0.00054833
H  -1.43803255 -0.64916236 0.00018028
C  0.33800805 0.58573215 -0.00036737
H  -0.22945291 1.52730483 -0.00343797
H  1.43034683 0.56131501 -0.00298329
6
MD Step 68
C  -0.33236281 -0.57664627 0.00127060
H  0.16832158 -1.55562194 -0.00183659
H  -1.43964573 -0.64724059 -0.00219193
C  0.33856000 0.58650808 -0.00000193
H  -0.22961676 1.52479820 -0.00577669
H  1.42709497 0.56055072 -0.00531232
6
MD Step 69
C  -0.33260672 -0.57732188 0.00169908
H  0.16946468 -1.55520858 -0.00423757
H  -1.44079824 -0.64518425 -0.00457975
C  0.33907623 0.58724460 0.00036582
H  -0.22943338 1.52213099 -0.00813059
H  1.42367602 0.56002237 -0.00765754
6
MD Step 70
C  -0.33286862 -0.57800239 0.00212229
H  0.17057140 -1.55446754 -0.00660752
H  -1.44143317 -0.64296232 -0.00693560
C  0.33954321 0.58792703 0.00072835
H  -0.22888303 1.51939256 -0.01045270
H  1.42021024 0.55977496 -0.00997256
6
MD Step 71
C  -0.33314272 -0.57867834 0.00254349
H  0.17161312 -1.55343692 -0.00896498
H  -1.44156919 -0.64061119 -0.00927752
C  0.33995868 0.58855180 0.00108893
H  -0.22801653 1.51660977 -0.01276326
H  1.41675341 0.55978589 -0.01227825
6
MD Step 72
C  -0.33342719 -0.57934439 0.00296143
H  0.17258949 -1.55213345 -0.01130288
H  -1.44120797 -0.63814187 -0.01159790
C  0.34031646 0.58911102 0.00144665
H  -0.22686212 1.51383873 -0.01505650
H  1.41338792 0.56005706 -0.01456953
6
MD Step 73
C  -0.33372095 -0.57999613 0.00337371
H  0.17350937 -1.55057128 -0.01360741
H  -1.44035316 -0.63555900 -0.01388235
C  0.34060966 0.58959577 0.00179952
H  -0.22544407 1.51114477 -0.01731992
H  1.41020175 0.56059595 -0.01683467
6
MD Step 74
C  -0.33401682 -0.58062344 0.00378370
H  0.17435041 -1.54880206 -0.01589814
H  -1.43905078 -0.63290131 -0.01615003
C  0.34083764 0.59000302 0.00215108
H  -0.22382248 1.50856075 -0.01957507
H  1.40724573 0.56137529 -0.01909575
6
MD Step 75
C  -0.33431420 -0.58122301 0.00418777
H  0.17513317 -1.54683983 -0.01815414
H  -1.43731409 -0.63016667 -0.01837947
C  0.34099362 0.59032320 0.00249818
H  -0.22201786 1.50616068 -0.02180241
H  1.40460664 0.56240760 -0.02133395
6
MD Step 76
C  -0.33460859 -0.58178802 0.00458594
H  0.17585913 -1.54472260 -0.02037552
H  -1.43518544 -0.62737421 -0.02057043
C  0.34107518 0.59055077 0.00284113
H  -0.22007240 1.50399621 -0.02400375
H  1.40234271 0.56368335 -0.02355154
6
MD Step 77
C  -0.33489406 -0.58231068 0.00497934
H  0.17652476 -1.54249735 -0.02256916
H  -1.43272131 -0.62454977 -0.02272967
C  0.34108194 0.59068193 0.00318142
H  -0.21803467 1.50210969 -0.02618775
H  1.40049621 0.56518544 -0.02575731
6
MD Step 78
C  -0.33516457 -0.58278357 0.00536899
H  0.17712883 -1.54021171 -0.02474112
H  -1.42998385 -0.62171807 -0.02486335
C  0.34101438 0.59071343 0.00352035
H  -0.21595104 1.50054042 -0.02836217
H  1.39909962 0.56689688 -0.02795892
6
MD Step 79
C  -0.33541777 -0.58320336 0.00575211
H  0.17769375 -1.53789142 -0.02687511
H  -1.42701821 -0.61888080 -0.02695509
C  0.34087020 0.59063911 0.00385540
H  -0.21384303 1.49934508 -0.03051195
H  1.39819622 0.56882256 -0.03014126
6
MD Step 80
C  -0.33565111 -0.58356709 0.00612604
H  0.17824241 -1.53556259 -0.02895512
H  -1.42387463 -0.61603948 -0.02898899
C  0.34064821 0.59045380 0.00418405
H  -0.21172931 1.49857335 -0.03262216
H  1.39781591 0.57096642 -0.03228911
6
MD Step 81
C  -0.33586036 -0.58387066 0.00648974
H  0.17878859 -1.53326037 -0.03097474
H  -1.42061688 -0.61320469 -0.03095900
C  0.34034990 0.59015510 0.00450529
H  -0.20963414 1.49825736 -0.03468720
H  1.39796501 0.57332220 -0.03439620
6
MD Step 82
C  -0.33603551 -0.58410479 0.00684781
H  0.17931174 -1.53105302 -0.03296177
H  -1.41734589 -0.61042094 -0.03289454
C  0.33998351 0.58974758 0.00482398
H  -0.20761163 1.49838567 -0.03673575
H  1.39860124 0.57584856 -0.03648925
6
MD Step 83
C  -0.33617883 -0.58427291 0.00719306
H  0.17986288 -1.52893436 -0.03487220
H  -1.41409116 -0.60765965 -0.03475153
C  0.33954616 0.58922499 0.00513244
H  -0.20563850 1.49900934 -0.03872350
H  1.39974157 0.57857557 -0.03852369
6
MD Step 84
C  -0.33628899 -0.58437540 0.00752207
H  0.18046967 -1.52691821 -0.03668452
H  -1.41090477 -0.60491421 -0.03650899
C  0.33903961 0.58858622 0.00542674
H  -0.20370865 1.50014625 -0.04062837
H  1.40136718 0.58150987 -0.04047653
6
MD Step 85
C  -0.33635674 -0.58440523 0.00783924
H  0.18111037 -1.52506369 -0.03842541
H  -1.40788600 -0.60222593 -0.03819599
C  0.33847455 0.58783975 0.00571132
H  -0.20185882 1.50175494 -0.04247637
H  1.40339865 0.58460883 -0.04237111
6
MD Step 86
C  -0.33637832 -0.58436122 0.00814413
H  0.18179152 -1.52339609 -0.04009171
H  -1.40510064 -0.59960535 -0.03981100
C  0.33785725 0.58699041 0.00598529
H  -0.20009042 1.50381328 -0.04426289
H  1.40577656 0.58785873 -0.04420100
6
MD Step 87
C  -0.33635022 -0.58424281 0.00843656
H  0.18251634 -1.52193770 -0.04168169
H  -1.40261065 -0.59706375 -0.04135400
C  0.33719475 0.58604462 0.00624792
H  -0.19840120 1.50628760 -0.04598423
H  1.40843208 0.59124340 -0.04596070
6
MD Step 88
C  -0.33626725 -0.58404793 0.00871850
H  0.18327187 -1.52072006 -0.04320757
H  -1.40048500 -0.59462577 -0.04283977
C  0.33649680 0.58501247 0.00650095
H  -0.19679850 1.50912081 -0.04765032
H  1.41127636 0.59473158 -0.04765767
6
MD Step 89
C  -0.33613304 -0.58378349 0.00898442
H  0.18409054 -1.51972166 -0.04463381
H  -1.39873599 -0.59226739 -0.04423304
C  0.33576535 0.58389718 0.00673749
H  -0.19523795 1.51229553 -0.04922261
H  1.41426488 0.59833885 -0.04925333
6
MD Step 90
C  -0.33594717 -0.58345237 0.00923336
H  0.18497339 -1.51894498 -0.04595376
H  -1.39739545 -0.58999305 -0.04552871
C  0.33500738 0.58270793 0.00695581
H  -0.19370117 1.51575818 -0.05069139
H  1.41732187 0.60205070 -0.05073676
6
MD Step 91
C  -0.33571291 -0.58306113 0.00946177
H  0.18593573 -1.51837073 -0.04714401
H  -1.39646809 -0.58778993 -0.04670372
C  0.33422710 0.58145204 0.00715105
H  -0.19215082 1.51946626 -0.05202985
H  1.42038806 0.60586835 -0.05208125
6
MD Step 92
C  -0.33542612 -0.58260879 0.00967368
H  0.18694119 -1.51802439 -0.04823056
H  -1.39599736 -0.58569417 -0.04778679
C  0.33343701 0.58014593 0.00732737
H  -0.19059757 1.52332350 -0.05326055
H  1.42335593 0.60974263 -0.05330710
6
MD Step 93
C  -0.33508785 -0.58209936 0.00986924
H  0.18797599 -1.51790178 -0.04921448
H  -1.39599008 -0.58371646 -0.04878019
C  0.33264530 0.57880243 0.00748443
H  -0.18902674 1.52725609 -0.05438102
H  1.42614633 0.61364848 -0.05441114
6
MD Step 94
C  -0.33470303 -0.58154045 0.01004596
H  0.18904158 -1.51797696 -0.05007946
H  -1.39642390 -0.58184967 -0.04966748
C  0.33185701 0.57743190 0.00761873
H  -0.18740678 1.53120665 -0.05537164
H  1.42870234 0.61757762 -0.05537433
6
MD Step 95
C  -0.33427168 -0.58093442 0.01020659
H  0.19010268 -1.51825511 -0.05084431
H  -1.39730022 -0.58012113 -0.05046886
C  0.33108282 0.57605079 0.00773329
H  -0.18574204 1.53508342 -0.05624787
H  1.43093816 0.62148629 -0.05621106
6
MD Step 96
C  -0.33379792 -0.58028742 0.01035099
H  0.19114159 -1.51871878 -0.05150875
H  -1.39859040 -0.57853852 -0.05118400
C  0.33032982 0.57467244 0.00782768
H  -0.18401965 1.53881584 -0.05700643
H  1.43279443 0.62534970 -0.05691832
6
MD Step 97
C  -0.33328624 -0.57960558 0.01047938
H  0.19213662 -1.51935036 -0.05207540
H  -1.40025868 -0.57711181 -0.05181528
C  0.32960520 0.57331053 0.00790211
H  -0.18223185 1.54233394 -0.05764730
H  1.43421728 0.62914021 -0.05749643
6
MD Step 98
C  -0.33274218 -0.57889575 0.01059172
H  0.19306732 -1.52012784 -0.05254498
H  -1.40225857 -0.57584831 -0.05236257
C  0.32891532 0.57197812 0.00795650
H  -0.18037162 1.54557440 -0.05816897
H  1.43516385 0.63283252 -0.05794465
6
MD Step 99
C  -0.33216869 -0.57816179 0.01069075
H  0.19389343 -1.52104685 -0.05293799
H  -1.40455575 -0.57477404 -0.05284648
C  0.32826933 0.57069106 0.00799459
H  -0.17845437 1.54846006 -0.05858971
H  1.43558155 0.63638234 -0.05828087
6
MD Step 100
C  -0.33158491 -0.57742369 0.01076525
H  0.19466947 -1.52200708 -0.05317946
H  -1.40701528 -0.57382000 -0.05318674
C  0.32765980 0.56944880 0.00800245
H  -0.17640478 1.55101494 -0.05883486
H  1.43552235 0.63984108 -0.05843551
6
MD Step 101
C  -0.33099431 -0.57668528 0.01081830
H  0.19535458 -1.52300406 -0.05329140
H  -1.40959543 -0.57301206 -0.05340476
C  0.32709495 0.56826614 0.00798419
H  -0.17424628 1.55317412 -0.05892527
H  1.43495209 0.64316482 -0.05842957
6
MD Step 102
C  -0.33039917 -0.57594898 0.01085402
H  0.19590063 -1.52404179 -0.05330442
H  -1.41226110 -0.57238340 -0.05353097
C  0.32658379 0.56715835 0.00794568
H  -0.17201388 1.55487217 -0.05889030
H  1.43383848 0.64630245 -0.05829209
6
MD Step 103
C  -0.32981838 -0.57523398 0.01086194
H  0.19636141 -1.52502462 -0.05314746
H  -1.41487633 -0.57186660 -0.05348904
C  0.32611763 0.56612306 0.00787392
H  -0.16964659 1.55615213 -0.05866129
H  1.43225970 0.64930506 -0.05795927
6
MD Step 104
C  -0.32925058 -0.57453864 0.01084946
H  0.19667064 -1.52598009 -0.05287296
H  -1.41742905 -0.57151421 -0.05333185
C  0.32570773 0.56517707 0.00777890
H  -0.16720740 1.55694398 -0.05828967
H  1.43018244 0.65210306 -0.05748160
6
MD Step 105
C  -0.32870389 -0.57387094 0.01081536
H  0.19682301 -1.52687872 -0.05247379
H  -1.41985099 -0.57131941 -0.05305007
C  0.32535463 0.56432625 0.00765964
H  -0.16470439 1.55724524 -0.05776967
H  1.42764220 0.65468766 -0.05685515
6
MD Step 106
C  -0.32818398 -0.57323623 0.01076035
H  0.19680268 -1.52770596 -0.05195599
H  -1.42209061 -0.57128709 -0.05264812
C  0.32506026 0.56357733 0.00751765
H  -0.16216153 1.55704969 -0.05710860
H  1.42467175 0.65703911 -0.05608851
6
MD Step 107
C  -0.32769716 -0.57264047 0.01068420
H  0.19660275 -1.52844338 -0.05131923
H  -1.42409482 -0.57141479 -0.05212397
C  0.32482470 0.56293467 0.00735334
H  -0.15959958 1.55636660 -0.05630800
H  1.42132002 0.65914614 -0.05518471
6
MD Step 108
C  -0.32725233 -0.57209220 0.01058401
H  0.19623793 -1.52905653 -0.05054406
H  -1.42579741 -0.57168038 -0.05145592
C  0.32464399 0.56239814 0.00716360
H  -0.15702356 1.55523308 -0.05535154
H  1.41766400 0.66101858 -0.05412957
6
MD Step 109
C  -0.32685206 -0.57159349 0.01046199
H  0.19569103 -1.52954867 -0.04964641
H  -1.42717359 -0.57209505 -0.05065902
C  0.32451933 0.56197195 0.00695189
H  -0.15447536 1.55366063 -0.05425707
H  1.41375469 0.66263366 -0.05294179
6
MD Step 110
C  -0.32650070 -0.57114818 0.01031824
H  0.19496248 -1.52991173 -0.04862745
H  -1.42819107 -0.57265455 -0.04973331
C  0.32444868 0.56165650 0.00671897
H  -0.15198483 1.55168393 -0.05302853
H  1.40966542 0.66398556 -0.05162655
6
MD Step 111
C  -0.32620292 -0.57076045 0.01015201
H  0.19406185 -1.53013482 -0.04748210
H  -1.42881896 -0.57334762 -0.04867257
C  0.32442821 0.56144975 0.00646446
H  -0.14957779 1.54935209 -0.05166422
H  1.40548240 0.66507695 -0.05018341
6
MD Step 112
C  -0.32595883 -0.57042977 0.00996600
H  0.19297821 -1.53023382 -0.04622928
H  -1.42905769 -0.57418518 -0.04749554
C  0.32445752 0.56135217 0.00619241
H  -0.14730479 1.54669866 -0.05018533
H  1.40127402 0.66588922 -0.04863398
6
MD Step 113
C  -0.32577945 -0.57016690 0.00975242
H  0.19177497 -1.53015699 -0.04481540
H  -1.42884458 -0.57510702 -0.04614691
C  0.32452347 0.56135118 0.00589364
H  -0.14514747 1.54383502 -0.04854413
H  1.39718336 0.66647741 -0.04693244
6
MD Step 114
C  -0.32566199 -0.56996846 0.00951530
H  0.19043900 -1.52993518 -0.04326758
H  -1.42820500 -0.57613047 -0.04465419
C  0.32462608 0.56144607 0.00557359
H  -0.14316623 1.54079960 -0.04676991
H  1.39327620 0.66681901 -0.04510792
6
MD Step 115
C  -0.32560444 -0.56983190 0.00925731
H  0.18896937 -1.52959319 -0.04160335
H  -1.42716351 -0.57726288 -0.04303528
C  0.32476347 0.56163355 0.00523592
H  -0.14141222 1.53764500 -0.04488278
H  1.38962730 0.66690279 -0.04318038
6
MD Step 116
C  -0.32560358 -0.56975358 0.00898152
H  0.18736533 -1.52916122 -0.03984271
H  -1.42575528 -0.57851326 -0.04131075
C  0.32493402 0.56190974 0.00488468
H  -0.13993837 1.53442514 -0.04290504
H  1.38630680 0.66671686 -0.04117163
6
MD Step 117
C  -0.32565813 -0.56973195 0.00868861
H  0.18564452 -1.52865606 -0.03798928
H  -1.42400719 -0.57987415 -0.03948474
C  0.32513335 0.56226730 0.00452091
H  -0.13878046 1.53121212 -0.04084322
H  1.38339649 0.66626702 -0.03908777
6
MD Step 118
C  -0.32576482 -0.56976356 0.00838042
H  0.18381898 -1.52810436 -0.03605440
H  -1.42196113 -0.58134505 -0.03756941
C  0.32535846 0.56269958 0.00414694
H  -0.13797964 1.52807112 -0.03871098
H  1.38096400 0.66555282 -0.03694162
6
MD Step 119
C  -0.32592105 -0.56984583 0.00805757
H  0.18191062 -1.52752648 -0.03404116
H  -1.41965769 -0.58291690 -0.03556869
C  0.32560525 0.56319814 0.00376358
H  -0.13756606 1.52507422 -0.03651371
H  1.37907624 0.66458317 -0.03473763
6
MD Step 120
C  -0.32612487 -0.56997705 0.00771946
H  0.17995056 -1.52693638 -0.03194467
H  -1.41713595 -0.58457251 -0.03347861
C  0.32586866 0.56375308 0.00337016
H  -0.13755833 1.52229820 -0.03424881
H  1.37779681 0.66337577 -0.03247214
6
MD Step 121
C  -0.32637435 -0.57015576 0.00736494
H  0.17797461 -1.52634531 -0.02975629
H  -1.41443705 -0.58629074 -0.03129153
C  0.32614351 0.56435390 0.00296524
H  -0.13796662 1.51981839 -0.03190961
H  1.37717976 0.66195278 -0.03013730
6
MD Step 122
C  -0.32666361 -0.57037667 0.00699607
H  0.17599848 -1.52578570 -0.02748834
H  -1.41162787 -0.58807079 -0.02902103
C  0.32642878 0.56499383 0.00255101
H  -0.13881593 1.51768241 -0.02950923
H  1.37724347 0.66031616 -0.02774478
6
MD Step 123
C  -0.32698322 -0.57063116 0.00661782
H  0.17401943 -1.52530842 -0.02517197
H  -1.40879781 -0.58993018 -0.02669969
C  0.32672725 0.56566964 0.00213292
H  -0.14014326 1.51591053 -0.02707855
H  1.37797179 0.65844969 -0.02532389
6
MD Step 124
C  -0.32732950 -0.57091666 0.00622943
H  0.17207118 -1.52492686 -0.02280117
H  -1.40600176 -0.59184998 -0.02432262
C  0.32703609 0.56637262 0.00170979
H  -0.14194234 1.51454938 -0.02461213
H  1.37936912 0.65637441 -0.02286798
6
MD Step 125
C  -0.32769640 -0.57122842 0.00583210
H  0.17017398 -1.52466566 -0.02038285
H  -1.40330824 -0.59382389 -0.02189781
C  0.32735527 0.56709691 0.00128267
H  -0.14421196 1.51362156 -0.02211662
H  1.38141113 0.65409907 -0.02038262
6