6
MD Step 0
C  -0.33763715 -0.58748864 0.00000000
H  0.19552659 -1.51519357 0.00000000
H  -1.40763715 -0.58748864 0.00000000
C  0.33763715 0.58748865 0.00000000
H  -0.19552659 1.51519357 0.00000000
H  1.40763715 0.58748865 0.00000000
6
MD Step 1
C  -0.33800499 -0.58783583 -0.00039432
H  0.19788574 -1.51299101 0.00234693
H  -1.40542181 -0.58520966 0.00235102
C  0.33721651 0.58704702 -0.00039404
H  -0.19318696 1.51769372 0.00234600
H  1.41011859 0.58990638 0.00235009
6
MD Step 2
C  -0.33830996 -0.58807969 -0.00078194
H  0.20022827 -1.51113689 0.00465400
H  -1.40356636 -0.58311950 0.00466224
C  0.33675507 0.58652029 -0.00078136
H  -0.19090341 1.52042157 0.00465201
H  1.41276964 0.59241674 0.00466008
6
MD Step 3
C  -0.33855080 -0.58822162 -0.00116501
H  0.20256556 -1.50962847 0.00693378
H  -1.40210156 -0.58121230 0.00694651
C  0.33625568 0.58591029 -0.00116400
H  -0.18865594 1.52335992 0.00693029
H  1.41554068 0.59502268 0.00694196
6
MD Step 4
C  -0.33873048 -0.58826755 -0.00154906
H  0.20492611 -1.50843525 0.00921928
H  -1.40102784 -0.57946075 0.00923721
C  0.33571803 0.58521641 -0.00154740
H  -0.18640205 1.52650676 0.00921327
H  1.41840014 0.59774668 0.00922778
6
MD Step 5
C  -0.33884202 -0.58821374 -0.00192890
H  0.20727106 -1.50758386 0.01147929
H  -1.40039951 -0.57790082 0.01150374
C  0.33515281 0.58444968 -0.00192618
H  -0.18416170 1.52979121 0.01146903
H  1.42125087 0.60054612 0.01148510
6
MD Step 6
C  -0.33889135 -0.58806948 -0.00231124
H  0.20962957 -1.50702281 0.01375370
H  -1.40018793 -0.57649638 0.01378657
C  0.33455881 0.58360997 -0.00230685
H  -0.18188263 1.53321004 0.01373656
H  1.42406766 0.60344874 0.01375236
6
MD Step 7
C  -0.33887215 -0.58783186 -0.00268960
H  0.21194949 -1.50677291 0.01600375
H  -1.40043171 -0.57528896 0.01604773
C  0.33394806 0.58271105 -0.00268272
H  -0.17959039 1.53667863 0.01597611
H  1.42674820 0.60640291 0.01598920
6
MD Step 8
C  -0.33878873 -0.58750854 -0.00306711
H  0.21423339 -1.50679178 0.01824781
H  -1.40110001 -0.57426194 0.01830628
C  0.33332290 0.58175764 -0.00305668
H  -0.17725329 1.54016810 0.01820495
H  1.42925094 0.60941361 0.01821230
6
MD Step 9
C  -0.33864469 -0.58710636 -0.00344515
H  0.21647171 -1.50704213 0.02049395
H  -1.40216070 -0.57340792 0.02057094
C  0.33268722 0.58075660 -0.00342988
H  -0.17485018 1.54363879 0.02043002
H  1.43152851 0.61247510 0.02042810
6
MD Step 10
C  -0.33843597 -0.58662429 -0.00381644
H  0.21860214 -1.50753371 0.02269889
H  -1.40362242 -0.57276981 0.02279917
C  0.33205337 0.57972378 -0.00379487
H  -0.17241198 1.54700019 0.02260694
H  1.43348749 0.61552994 0.02259158
6
MD Step 11
C  -0.33816686 -0.58606939 -0.00418108
H  0.22060536 -1.50822875 0.02486315
H  -1.40543943 -0.57234555 0.02499198
C  0.33142602 0.57866781 -0.00415156
H  -0.16992705 1.55020738 0.02473515
H  1.43508517 0.61856443 0.02470178
6
MD Step 12
C  -0.33784165 -0.58544850 -0.00453830
H  0.22245664 -1.50909180 0.02698214
H  -1.40756203 -0.57213696 0.02714509
C  0.33081033 0.57759822 -0.00449904
H  -0.16739047 1.55321304 0.02680908
H  1.43628129 0.62155985 0.02675285
6
MD Step 13
C  -0.33746231 -0.58476576 -0.00488410
H  0.22411274 -1.51010440 0.02903247
H  -1.40995178 -0.57216343 0.02923539
C  0.33021428 0.57652765 -0.00483329
H  -0.16481804 1.55595455 0.02880455
H  1.43702488 0.62447886 0.02872022
6
MD Step 14
C  -0.33703976 -0.58403404 -0.00522284
H  0.22558066 -1.51119766 0.03104024
H  -1.41251460 -0.57239370 0.03128855
C  0.32963707 0.57546024 -0.00515855
H  -0.16217847 1.55842311 0.03074679
H  1.43732314 0.62733399 0.03062944
6
MD Step 15
C  -0.33657896 -0.58325997 -0.00555234
H  0.22683000 -1.51234152 0.03299275
H  -1.41519145 -0.57283397 0.03329160
C  0.32908401 0.57440637 -0.00547267
H  -0.15948157 1.56057593 0.03262261
H  1.43715308 0.63009941 0.03246735
6
MD Step 16
C  -0.33608554 -0.58245060 -0.00587064
H  0.22783376 -1.51350524 0.03487899
H  -1.41791957 -0.57348763 0.03523301
C  0.32855969 0.57337578 -0.00577379
H  -0.15673813 1.56237721 0.03442062
H  1.43650211 0.63275145 0.03422279
6
MD Step 17
C  -0.33556134 -0.58160895 -0.00617167
H  0.22854298 -1.51468386 0.03666364
H  -1.42065998 -0.57438097 0.03707727
C  0.32807229 0.57238181 -0.00605614
H  -0.15398583 1.56377278 0.03610560
H  1.43534250 0.63524291 0.03586041
6
MD Step 18
C  -0.33501730 -0.58074701 -0.00645843
H  0.22896456 -1.51582129 0.03836499
H  -1.42332101 -0.57548579 0.03884128
C  0.32762048 0.57142830 -0.00632278
H  -0.15121198 1.56476822 0.03769569
H  1.43370925 0.63758089 0.03739933
6
MD Step 19
C  -0.33445735 -0.57986948 -0.00672671
H  0.22906606 -1.51690657 0.03995899
H  -1.42585581 -0.57681488 0.04050032
C  0.32720949 0.57052550 -0.00656991
H  -0.14844877 1.56533342 0.03916730
H  1.43160422 0.63973118 0.03881624
6
MD Step 20
C  -0.33388910 -0.57898469 -0.00697620
H  0.22884089 -1.51790936 0.04144450
H  -1.42819850 -0.57835718 0.04205196
C  0.32684020 0.56967919 -0.00679749
H  -0.14570858 1.56546779 0.04051977
H  1.42906111 0.64168339 0.04011136
6
MD Step 21
C  -0.33331861 -0.57809924 -0.00720516
H  0.22827744 -1.51881146 0.04281215
H  -1.43029644 -0.58010885 0.04348572
C  0.32651430 0.56889575 -0.00700421
H  -0.14301475 1.56516933 0.04174452
H  1.42611413 0.64342003 0.04127690
6
MD Step 22
C  -0.33275632 -0.57722404 -0.00741671
H  0.22739556 -1.51957086 0.04408085
H  -1.43207500 -0.58203716 0.04481844
C  0.32622822 0.56817608 -0.00719340
H  -0.14036540 1.56447089 0.04286112
H  1.42283386 0.64495291 0.04233412
6
MD Step 23
C  -0.33221023 -0.57636748 -0.00761194
H  0.22620658 -1.52016225 0.04525755
H  -1.43347880 -0.58412060 0.04605527
C  0.32597987 0.56752225 -0.00736644
H  -0.13777307 1.56339990 0.04387746
H  1.41928636 0.64628300 0.04329252
6
MD Step 24
C  -0.33167996 -0.57552941 -0.00778371
H  0.22467785 -1.52061268 0.04630154
H  -1.43450806 -0.58638429 0.04715545
C  0.32577473 0.56694344 -0.00751708
H  -0.13529981 1.56194264 0.04475464
H  1.41549691 0.64736494 0.04411313
6
MD Step 25
C  -0.33117526 -0.57471985 -0.00793606
H  0.22284434 -1.52089010 0.04723672
H  -1.43510710 -0.58878895 0.04814051
C  0.32560694 0.56643727 -0.00764950
H  -0.13294599 1.56015564 0.04551758
H  1.41156099 0.64821890 0.04482320
6
MD Step 26
C  -0.33069503 -0.57393780 -0.00806230
H  0.22068285 -1.52102909 0.04802509
H  -1.43529071 -0.59135618 0.04897270
C  0.32548065 0.56601075 -0.00775799
H  -0.13077495 1.55803958 0.04613043
H  1.40751752 0.64880463 0.04538675
6
MD Step 27
C  -0.33024945 -0.57319363 -0.00816828
H  0.21824510 -1.52099762 0.04870090
H  -1.43501085 -0.59403591 0.04968347
C  0.32538752 0.56565812 -0.00784837
H  -0.12878034 1.55567201 0.04662853
H  1.40348100 0.64915497 0.04584196
6
MD Step 28
C  -0.32983170 -0.57248050 -0.00824272
H  0.21548789 -1.52086672 0.04919969
H  -1.43432693 -0.59687559 0.05021024
C  0.32533550 0.56538917 -0.00791080
H  -0.12705430 1.55303697 0.04695016
H  1.39947024 0.64920574 0.04612568
6
MD Step 29
C  -0.32945314 -0.57180991 -0.00829419
H  0.21248432 -1.52059872 0.04957121
H  -1.43319372 -0.59980959 0.05059971
C  0.32531315 0.56519401 -0.00795360
H  -0.12557697 1.55023588 0.04714622
H  1.39561869 0.64900761 0.04629197
6
MD Step 30
C  -0.32912074 -0.57118894 -0.00832747
H  0.20928819 -1.52018257 0.04984311
H  -1.43159735 -0.60279428 0.05087750
C  0.32531267 0.56506573 -0.00798154
H  -0.12435047 1.54735090 0.04724586
H  1.39203665 0.64859032 0.04637224
6
MD Step 31
C  -0.32883316 -0.57061639 -0.00833950
H  0.20591083 -1.51965660 0.04999793
H  -1.42957858 -0.60583110 0.05102644
C  0.32533393 0.56500441 -0.00799221
H  -0.12342107 1.54442079 0.04723362
H  1.38878576 0.64793944 0.04635110
6
MD Step 32
C  -0.32858859 -0.57009060 -0.00832749
H  0.20236749 -1.51906138 0.05001999
H  -1.42718568 -0.60892010 0.05103142
C  0.32537667 0.56500937 -0.00798346
H  -0.12283218 1.54148640 0.04709574
H  1.38592378 0.64704310 0.04621463
6
MD Step 33
C  -0.32838857 -0.56961344 -0.00829307
H  0.19869983 -1.51841619 0.04991853
H  -1.42445083 -0.61203718 0.05090124
C  0.32543676 0.56507550 -0.00795704
H  -0.12260090 1.53861255 0.04684293
H  1.38352580 0.64591496 0.04597416
6
MD Step 34
C  -0.32823079 -0.56918305 -0.00823465
H  0.19493249 -1.51776151 0.04968432
H  -1.42143283 -0.61517707 0.05062742
C  0.32551356 0.56520053 -0.00791172
H  -0.12276021 1.53584356 0.04646744
H  1.38163909 0.64455091 0.04562143
6
MD Step 35
C  -0.32811413 -0.56879897 -0.00815263
H  0.19110245 -1.51712851 0.04931963
H  -1.41818639 -0.61832374 0.05021274
C  0.32560501 0.56538017 -0.00784805
H  -0.12332862 1.53323180 0.04597268
H  1.38031130 0.64295891 0.04515951
6
MD Step 36
C  -0.32803773 -0.56846118 -0.00804848
H  0.18725270 -1.51654403 0.04883239
H  -1.41476715 -0.62145615 0.04966569
C  0.32570865 0.56560927 -0.00776738
H  -0.12431526 1.53083058 0.04536745
H  1.37958308 0.64115311 0.04459669
6
MD Step 37
C  -0.32800434 -0.56817356 -0.00792822
H  0.18345156 -1.51601004 0.04825601
H  -1.41121094 -0.62452860 0.04901929
C  0.32581840 0.56587854 -0.00767499
H  -0.12569946 1.52871258 0.04468569
H  1.37950655 0.63917364 0.04396725
6
MD Step 38
C  -0.32800755 -0.56793106 -0.00778877
H  0.17971577 -1.51557941 0.04757274
H  -1.40760958 -0.62754726 0.04825799
C  0.32593747 0.56618759 -0.00756806
H  -0.12750642 1.52689196 0.04391002
H  1.38006736 0.63700992 0.04325168
6
MD Step 39
C  -0.32804558 -0.56773357 -0.00763261
H  0.17609165 -1.51527307 0.04679568
H  -1.40402737 -0.63048834 0.04739592
C  0.32606456 0.56653126 -0.00744852
H  -0.12972510 1.52540547 0.04305355
H  1.38126671 0.63468271 0.04246203
6
MD Step 40
C  -0.32810944 -0.56757407 -0.00745498
H  0.17258357 -1.51515028 0.04589757
H  -1.40057075 -0.63336934 0.04640861
C  0.32620578 0.56691163 -0.00731191
H  -0.13237898 1.52424040 0.04208857
H  1.38305025 0.63217291 0.04156791
6
MD Step 41
C  -0.32819400 -0.56744964 -0.00725551
H  0.16921818 -1.51524257 0.04487577
H  -1.39732105 -0.63618383 0.04529540
C  0.32636362 0.56732712 -0.00715760
H  -0.13546094 1.52339953 0.04101178
H  1.38537469 0.62948677 0.04056411
6
MD Step 42
C  -0.32829925 -0.56736266 -0.00703946
H  0.16605054 -1.51554618 0.04375871
H  -1.39432583 -0.63889474 0.04408565
C  0.32653576 0.56777140 -0.00698980
H  -0.13892661 1.52290771 0.03985102
H  1.38821575 0.62666259 0.03947767
6
MD Step 43
C  -0.32841920 -0.56730975 -0.00680576
H  0.16309743 -1.51608788 0.04253980
H  -1.39166381 -0.64150092 0.04277489
C  0.32672605 0.56824456 -0.00680719
H  -0.14276083 1.52274528 0.03859862
H  1.39150279 0.62370433 0.03829907
6
MD Step 44
C  -0.32855031 -0.56729008 -0.00655587
H  0.16038592 -1.51687521 0.04122631
H  -1.38939367 -0.64398780 0.04137194
C  0.32693623 0.56874479 -0.00661063
H  -0.14692881 1.52289780 0.03726083
H  1.39517001 0.62063078 0.03703327
6
MD Step 45
C  -0.32868500 -0.56729884 -0.00628666
H  0.15791393 -1.51793525 0.03980041
H  -1.38759155 -0.64636673 0.03986104
C  0.32717228 0.56927502 -0.00639700
H  -0.15141598 1.52331743 0.03581828
H  1.39911914 0.61743636 0.03565922
6
MD Step 46
C  -0.32882139 -0.56733682 -0.00600066
H  0.15570656 -1.51925730 0.03827552
H  -1.38629202 -0.64861781 0.03825671
C  0.32743485 0.56983314 -0.00616818
H  -0.15617151 1.52398097 0.03428344
H  1.40327901 0.61414790 0.03418866
6
MD Step 47
C  -0.32895878 -0.56740579 -0.00570105
H  0.15378846 -1.52082048 0.03666894
H  -1.38551450 -0.65071751 0.03657705
C  0.32772372 0.57041667 -0.00592669
H  -0.16113675 1.52486331 0.03267284
H  1.40757973 0.61079700 0.03263767
6
MD Step 48
C  -0.32909663 -0.56750748 -0.00539061
H  0.15217766 -1.52260001 0.03499571
H  -1.38526865 -0.65264491 0.03483772
C  0.32803879 0.57102366 -0.00567472
H  -0.16625211 1.52593228 0.03100094
H  1.41194828 0.60741377 0.03102042
6
MD Step 49
C  -0.32922791 -0.56763694 -0.00506464
H  0.15084626 -1.52460718 0.03322966
H  -1.38559338 -0.65442144 0.03301342
C  0.32838655 0.57165934 -0.00540794
H  -0.17149763 1.52711034 0.02923997
H  1.41627047 0.60398726 0.02930853
6
MD Step 50
C  -0.32935192 -0.56779505 -0.00472433
H  0.14979522 -1.52681452 0.03137749
H  -1.38648100 -0.65603548 0.03111096
C  0.32876749 0.57232328 -0.00512732
H  -0.17681863 1.52835125 0.02739598
H  1.42046849 0.60054017 0.02750813
6
MD Step 51
C  -0.32947462 -0.56798878 -0.00437713
H  0.14905640 -1.52915449 0.02948051
H  -1.38787558 -0.65744036 0.02917121
C  0.32917581 0.57300900 -0.00483940
H  -0.18212445 1.52964324 0.02551102
H  1.42450431 0.59713050 0.02566174
6
MD Step 52
C  -0.32959007 -0.56821299 -0.00401737
H  0.14858488 -1.53162921 0.02750764
H  -1.38978290 -0.65866396 0.02716293
C  0.32961740 0.57372228 -0.00453918
H  -0.18739875 1.53090110 0.02355256
H  1.42827116 0.59374313 0.02373694
6
MD Step 53
C  -0.32970128 -0.56847080 -0.00364811
H  0.14838121 -1.53418837 0.02547619
H  -1.39214824 -0.65968531 0.02510279
C  0.33008946 0.57446034 -0.00422943
H  -0.19257684 1.53209040 0.02153819
H  1.43171831 0.59041177 0.02175184
6
MD Step 54
C  -0.32980710 -0.56876077 -0.00326751
H  0.14841567 -1.53680682 0.02337647
H  -1.39493444 -0.66051183 0.02298038
C  0.33059323 0.57522470 -0.00390864
H  -0.19762362 1.53315172 0.01945766
H  1.43477485 0.58714255 0.01969669
6
MD Step 55
C  -0.32991119 -0.56908565 -0.00287831
H  0.14868157 -1.53943215 0.02122408
H  -1.39807009 -0.66112589 0.02081041
C  0.33112511 0.57601216 -0.00357935
H  -0.20248062 1.53405488 0.01732705
H  1.43740398 0.58396673 0.01758816
6
MD Step 56
C  -0.33001029 -0.56944096 -0.00247568
H  0.14912805 -1.54205390 0.01899300
H  -1.40151957 -0.66155357 0.01856596
C  0.33168802 0.57682624 -0.00323747
H  -0.20713530 1.53473142 0.01511924
H  1.43953496 0.58087284 0.01539977
6
MD Step 57
C  -0.33011802 -0.56983824 -0.00207207
H  0.14979946 -1.54456430 0.01675297
H  -1.40514460 -0.66172390 0.01631590
C  0.33226819 0.57765352 -0.00289432
H  -0.21148068 1.53521552 0.01290645
H  1.44120438 0.57794561 0.01320426
6
MD Step 58
C  -0.33022770 -0.57026878 -0.00165884
H  0.15062060 -1.54697642 0.01445650
H  -1.40892391 -0.66168738 0.01401185
C  0.33287115 0.57850027 -0.00254230
H  -0.21553398 1.53542700 0.01063949
H  1.44233779 0.57515010 0.01095305
6
MD Step 59
C  -0.33034311 -0.57073376 -0.00123822
H  0.15157667 -1.54924377 0.01211655
H  -1.41277351 -0.66143403 0.01166604
C  0.33349179 0.57936190 -0.00218357
H  -0.21925506 1.53535308 0.00833165
H  1.44293211 0.57251154 0.00865992
6
MD Step 60
C  -0.33046714 -0.57123311 -0.00081159
H  0.15264793 -1.55132731 0.00974138
H  -1.41661466 -0.66096007 0.00928609
C  0.33412532 0.58023408 -0.00181953
H  -0.22261339 1.53498235 0.00599137
H  1.44298912 0.57004924 0.00633370
6
MD Step 61
C  -0.33059886 -0.57176276 -0.00037661
H  0.15379371 -1.55321262 0.00731831
H  -1.42039198 -0.66028470 0.00685883
C  0.33477007 0.58111560 -0.00144815
H  -0.22560491 1.53428843 0.00360530
H  1.44249886 0.56776010 0.00396145
6
MD Step 62
C  -0.33074344 -0.57232434 0.00006252
H  0.15501103 -1.55485167 0.00487142
H  -1.42401601 -0.65939102 0.00440803
C  0.33541778 0.58199844 -0.00107336
H  -0.22819320 1.53328889 0.00119794
H  1.44149856 0.56567690 0.00156782
6
MD Step 63
C  -0.33090336 -0.57291667 0.00050401
H  0.15628408 -1.55621457 0.00241115
H  -1.42741585 -0.65827764 0.00194397
C  0.33606213 0.58287646 -0.00069685
H  -0.23036111 1.53199396 -0.00122043
H  1.44002085 0.56381719 -0.00083683
6
MD Step 64
C  -0.33108239 -0.57353967 0.00094436
H  0.15760809 -1.55726635 -0.00004244
H  -1.43051673 -0.65693483 -0.00051323
C  0.33669489 0.58374141 -0.00032185
H  -0.23208700 1.53043019 -0.00362970
H  1.43811701 0.56220681 -0.00323248
6
MD Step 65
C  -0.33127854 -0.57418749 0.00138551
H  0.15894877 -1.55800828 -0.00250003
H  -1.43328202 -0.65538580 -0.00297419
C  0.33731277 0.58458995 0.00005346
H  -0.23338597 1.52859917 -0.00604165
H  1.43581521 0.56083896 -0.00563098
6
MD Step 66
C  -0.33149362 -0.57485794 0.00182503
H  0.16029846 -1.55842181 -0.00494781
H  -1.43565749 -0.65363009 -0.00542476
C  0.33790817 0.58541415 0.00042695
H  -0.23425335 1.52653376 -0.00844287
H  1.43317647 0.55973011 -0.00801928
6
MD Step 67
C  -0.33172134 -0.57554084 0.00226832
H  0.16160675 -1.55853853 -0.00741624
H  -1.43764174 -0.65171370 -0.00789522
C  0.33848081 0.58621335 0.00080377
H  -0.23473484 1.52422784 -0.01086570
H  1.43022383 0.55885045 -0.01042993
6
MD Step 68
C  -0.33197001 -0.57624033 0.00270544
H  0.16291336 -1.55830663 -0.00984857
H  -1.43915279 -0.64959489 -0.01032809
C  0.33901566 0.58697169 0.00117476
H  -0.23479236 1.52176969 -0.01325317
H  1.42707570 0.55825672 -0.01280674
6
MD Step 69
C  -0.33223675 -0.57694962 0.00313735
H  0.16419753 -1.55774261 -0.01225035
H  -1.44018048 -0.64729638 -0.01272842
C  0.33950820 0.58768374 0.00154108
H  -0.23445589 1.51918969 -0.01561226
H  1.42379206 0.55794131 -0.01515729
6
MD Step 70
C  -0.33251728 -0.57766061 0.00356600
H  0.16543534 -1.55687360 -0.01463267
H  -1.44072900 -0.64484741 -0.01510679
C  0.33995501 0.58834488 0.00190480
H  -0.23376543 1.51651733 -0.01795579
H  1.42043092 0.55788960 -0.01749499
6
MD Step 71
C  -0.33281695 -0.57837481 0.00398314
H  0.16666432 -1.55567218 -0.01694796
H  -1.44075190 -0.64221847 -0.01741473
C  0.34034302 0.58894044 0.00225833
H  -0.23270544 1.51384564 -0.02023683
H  1.41711217 0.55814466 -0.01977399
6
MD Step 72
C  -0.33313108 -0.57908400 0.00439022
H  0.16786816 -1.55417219 -0.01920469
H  -1.44026845 -0.63943751 -0.01966014
C  0.34066897 0.58946529 0.00260336
H  -0.23132055 1.51121419 -0.02246566
H  1.41389902 0.55869185 -0.02200524
6
MD Step 73
C  -0.33345380 -0.57977907 0.00478944
H  0.16902855 -1.55241621 -0.02141569
H  -1.43931127 -0.63653743 -0.02185545
C  0.34093085 0.58991519 0.00294235
H  -0.22966260 1.50866047 -0.02465707
H  1.41084861 0.55951091 -0.02420410
6
MD Step 74
C  -0.33378101 -0.58045283 0.00518088
H  0.17014179 -1.55043822 -0.02358163
H  -1.43790904 -0.63353908 -0.02400086
C  0.34112516 0.59028403 0.00327576
H  -0.22777321 1.50623566 -0.02681351
H  1.40802731 0.56059276 -0.02637358
6
MD Step 75
C  -0.33411136 -0.58110120 0.00556151
H  0.17122484 -1.54825681 -0.02568473
H  -1.43607985 -0.63044478 -0.02607804
C  0.34124600 0.59056290 0.00360089
H  -0.22567666 1.50400980 -0.02891867
H  1.40551511 0.56194591 -0.02849804
6
MD Step 76
C  -0.33444267 -0.58171962 0.00592887
H  0.17229336 -1.54589665 -0.02771053
H  -1.43385292 -0.62726023 -0.02807206
C  0.34128883 0.59074391 0.00391561
H  -0.22340106 1.50204848 -0.03095961
H  1.40338152 0.56357466 -0.03056498
6
MD Step 77
C  -0.33476685 -0.58229810 0.00628605
H  0.17333183 -1.54341768 -0.02967737
H  -1.43129801 -0.62402420 -0.03000157
C  0.34125555 0.59082532 0.00422330
H  -0.22100712 1.50038168 -0.03295651
H  1.40165381 0.56544953 -0.03259426
6
MD Step 78
C  -0.33509002 -0.58284120 0.00662197
H  0.17441131 -1.54079589 -0.03151881
H  -1.42840597 -0.62068958 -0.03179891
C  0.34113472 0.59079175 0.00451280
H  -0.21846865 1.49912098 -0.03484349
H  1.40043441 0.56762550 -0.03452103
6
MD Step 79
C  -0.33539682 -0.58333270 0.00694636
H  0.17547880 -1.53813406 -0.03329324
H  -1.42530002 -0.61733501 -0.03352405
C  0.34093701 0.59064982 0.00479426
H  -0.21588288 1.49824664 -0.03668072
H  1.39968709 0.57003140 -0.03640364
6
MD Step 80
C  -0.33568437 -0.58376928 0.00725670
H  0.17655629 -1.53546053 -0.03498512
H  -1.42203367 -0.61396402 -0.03516167
C  0.34066161 0.59039465 0.00506507
H  -0.21326932 1.49780675 -0.03845322
H  1.39943767 0.57266963 -0.03822655
6
MD Step 81
C  -0.33594339 -0.58414182 0.00755658
H  0.17762878 -1.53284035 -0.03661610
H  -1.41870159 -0.61061710 -0.03673493
C  0.34031501 0.59002875 0.00532896
H  -0.21068100 1.49780404 -0.04018326
H  1.39966138 0.57550455 -0.04001013
6
MD Step 82
C  -0.33617371 -0.58445078 0.00784088
H  0.17873453 -1.53028337 -0.03815460
H  -1.41534685 -0.60728037 -0.03821241
C  0.33989564 0.58954682 0.00558034
H  -0.20811277 1.49828595 -0.04183886
H  1.40037440 0.57855320 -0.04172182
6
MD Step 83
C  -0.33636731 -0.58468934 0.00811220
H  0.17986413 -1.52784452 -0.03961607
H  -1.41206074 -0.60398668 -0.03961150
C  0.33941073 0.58895283 0.00582172
H  -0.20560176 1.49924275 -0.04343509
H  1.40153286 0.58178458 -0.04337439
6
MD Step 84
C  -0.33652530 -0.58486028 0.00836465
H  0.18105978 -1.52552296 -0.04096346
H  -1.40888085 -0.60071526 -0.04089538
C  0.33885946 0.58824325 0.00604629
H  -0.20312700 1.50070717 -0.04493352
H  1.40313411 0.58521948 -0.04492886
6
MD Step 85
C  -0.33664193 -0.58496000 0.00859923
H  0.18231990 -1.52335699 -0.04220210
H  -1.40588533 -0.59748731 -0.04207124
C  0.33824885 0.58742313 0.00625456
H  -0.20070465 1.50265858 -0.04633791
H  1.40512193 0.58883509 -0.04638691
6
MD Step 86
C  -0.33671019 -0.58498404 0.00881848
H  0.18363116 -1.52139092 -0.04334737
H  -1.40315844 -0.59433340 -0.04315694
C  0.33758819 0.58650058 0.00644878
H  -0.19835565 1.50505570 -0.04766156
H  1.40742074 0.59259750 -0.04775929
6
MD Step 87
C  -0.33672628 -0.58493142 0.00902251
H  0.18499349 -1.51964899 -0.04439927
H  -1.40076298 -0.59126792 -0.04415443
C  0.33688463 0.58548254 0.00662843
H  -0.19608067 1.50786261 -0.04890185
H  1.40996328 0.59648703 -0.04904151
6
MD Step 88
C  -0.33668688 -0.58480184 0.00921159
H  0.18640329 -1.51815147 -0.04535897
H  -1.39875502 -0.58830572 -0.04506682
C  0.33614584 0.58437741 0.00679312
H  -0.19387719 1.51103300 -0.05005692
H  1.41267594 0.60048176 -0.05022997
6
MD Step 89
C  -0.33658810 -0.58459455 0.00938733
H  0.18784594 -1.51692177 -0.04623612
H  -1.39718958 -0.58546944 -0.04590604
C  0.33538112 0.58319620 0.00694397
H  -0.19174752 1.51450388 -0.05113306
H  1.41547351 0.60455016 -0.05132912
6
MD Step 90
C  -0.33642567 -0.58430838 0.00955243
H  0.18929634 -1.51598551 -0.04704820
H  -1.39611833 -0.58278884 -0.04669219
C  0.33460115 0.58195229 0.00708358
H  -0.18969892 1.51819769 -0.05214417
H  1.41826195 0.60865193 -0.05235064
6
MD Step 91
C  -0.33620521 -0.58395194 0.00970154
H  0.19077924 -1.51530988 -0.04775999
H  -1.39552770 -0.58024035 -0.04738959
C  0.33380774 0.58065112 0.00720491
H  -0.18768409 1.52208428 -0.05305140
H  1.42100094 0.61279862 -0.05325676
6
MD Step 92
C  -0.33592161 -0.58352289 0.00983997
H  0.19224664 -1.51492705 -0.04840667
H  -1.39546190 -0.57787005 -0.04803646
C  0.33301441 0.57931067 0.00731386
H  -0.18572462 1.52605934 -0.05388609
H  1.42358212 0.61693066 -0.05407627
6
MD Step 93
C  -0.33558576 -0.58303468 0.00995950
H  0.19373715 -1.51477475 -0.04893406
H  -1.39586261 -0.57563435 -0.04857650
C  0.33221954 0.57793452 0.00739997
H  -0.18375294 1.53010559 -0.05459085
H  1.42599037 0.62107722 -0.05475447
6
MD Step 94
C  -0.33519996 -0.58249187 0.01006060
H  0.19522995 -1.51484362 -0.04934558
H  -1.39671687 -0.57354650 -0.04901361
C  0.33143093 0.57653629 0.00746338
H  -0.18175902 1.53414751 -0.05516573
H  1.42815784 0.62520952 -0.05529135
6
MD Step 95
C  -0.33476753 -0.58189970 0.01014364
H  0.19670285 -1.51511996 -0.04964434
H  -1.39800001 -0.57161886 -0.04935101
C  0.33065609 0.57512977 0.00750428
H  -0.17973357 1.53811061 -0.05561074
H  1.43002284 0.62929887 -0.05568711
6
MD Step 96
C  -0.33429338 -0.58126468 0.01020842
H  0.19813649 -1.51558237 -0.04982928
H  -1.39967264 -0.56985899 -0.04958703
C  0.32990149 0.57372809 0.00752209
H  -0.17766473 1.54192674 -0.05592213
H  1.43153472 0.63332080 -0.05593882
6
MD Step 97
C  -0.33377563 -0.58058614 0.01026135
H  0.19946512 -1.51625201 -0.04994526
H  -1.40173157 -0.56831905 -0.04976805
C  0.32918091 0.57235183 0.00752489
H  -0.17558793 1.54548576 -0.05614155
H  1.43260521 0.63720553 -0.05608657
6
MD Step 98
C  -0.33322500 -0.57987579 0.01029833
H  0.20069354 -1.51707640 -0.04996562
H  -1.40409390 -0.56697960 -0.04986491
C  0.32849566 0.57100937 0.00750761
H  -0.17347059 1.54875338 -0.05624089
H  1.43322587 0.64095511 -0.05610469
6
MD Step 99
C  -0.33265025 -0.57914312 0.01031746
H  0.20181167 -1.51801620 -0.04987869
H  -1.40668521 -0.56583512 -0.04986392
C  0.32784904 0.56971108 0.00746800
H  -0.17129766 1.55168621 -0.05620732
H  1.43338255 0.64455753 -0.05598215
6
MD Step 100
C  -0.33205813 -0.57839532 0.01031898
H  0.20279521 -1.51904578 -0.04968775
H  -1.40944141 -0.56489374 -0.04976698
C  0.32724630 0.56846917 0.00740673
H  -0.16907171 1.55423268 -0.05604307
H  1.43305576 0.64798707 -0.05572226
6
MD Step 101
C  -0.33146257 -0.57764672 0.01029707
H  0.20366285 -1.52009731 -0.04935366
H  -1.41225397 -0.56412098 -0.04953129
C  0.32668503 0.56728812 0.00731658
H  -0.16675687 1.55639033 -0.05570981
H  1.43227726 0.65126134 -0.05528998
6
MD Step 102
C  -0.33086313 -0.57689687 0.01025868
H  0.20434728 -1.52119070 -0.04892582
H  -1.41510154 -0.56356791 -0.04920659
C  0.32617700 0.56618605 0.00720688
H  -0.16440686 1.55807725 -0.05525536
H  1.43100121 0.65431176 -0.05473244
6
MD Step 103
C  -0.33026874 -0.57615475 0.01020249
H  0.20483987 -1.52228996 -0.04839616
H  -1.41790660 -0.56322808 -0.04878257
C  0.32572368 0.56517065 0.00707636
H  -0.16202233 1.55927655 -0.05467241
H  1.42924818 0.65712841 -0.05404422
6
MD Step 104
C  -0.32968527 -0.57542612 0.01012975
H  0.20511630 -1.52337821 -0.04777477
H  -1.42061160 -0.56311133 -0.04826789
C  0.32532886 0.56425140 0.00692721
H  -0.15962459 1.55996234 -0.05397150
H  1.42703100 0.65968546 -0.05323697
6
MD Step 105
C  -0.32912504 -0.57472333 0.01003578
H  0.20519585 -1.52439943 -0.04703006
H  -1.42312139 -0.56318563 -0.04762800
C  0.32498859 0.56342981 0.00675390
H  -0.15719746 1.56015859 -0.05312373
H  1.42441307 0.66200031 -0.05228449
6
MD Step 106
C  -0.32859008 -0.57404811 0.00992478
H  0.20503999 -1.52536031 -0.04619200
H  -1.42540635 -0.56347744 -0.04689225
C  0.32470848 0.56271613 0.00656237
H  -0.15478731 1.55983810 -0.05215948
H  1.42140700 0.66403188 -0.05121764
6
MD Step 107
C  -0.32808921 -0.57340917 0.00979447
H  0.20465749 -1.52622602 -0.04524558
H  -1.42739826 -0.56396812 -0.04604372
C  0.32448581 0.56211190 0.00635031
H  -0.15239953 1.55902689 -0.05106647
H  1.41807852 0.66578581 -0.05002597
6
MD Step 108
C  -0.32763055 -0.57281451 0.00964271
H  0.20405940 -1.52696561 -0.04417675
H  -1.42903644 -0.56463855 -0.04506673
C  0.32431728 0.56161746 0.00611565
H  -0.15004289 1.55775921 -0.04983360
H  1.41450099 0.66726924 -0.04870002
6
MD Step 109
C  -0.32722517 -0.57227520 0.00946420
H  0.20328226 -1.52752954 -0.04294891
H  -1.43024585 -0.56544669 -0.04392269
C  0.32419508 0.56122810 0.00585215
H  -0.14770674 1.55609997 -0.04842877
H  1.41077706 0.66851384 -0.04720976
6
MD Step 110
C  -0.32687037 -0.57178814 0.00926544
H  0.20228595 -1.52795161 -0.04160685
H  -1.43103990 -0.56642812 -0.04265664
C  0.32412438 0.56095091 0.00556850
H  -0.14546101 1.55404302 -0.04689753
H  1.40693617 0.66947342 -0.04560061
6
MD Step 111
C  -0.32656816 -0.57135512 0.00904801
H  0.20106722 -1.52823601 -0.04016135
H  -1.43140705 -0.56758430 -0.04127901
C  0.32410407 0.56078609 0.00526716
H  -0.14334441 1.55162350 -0.04525316
H  1.40304635 0.67013766 -0.04388640
6
MD Step 112
C  -0.32632217 -0.57097965 0.00881143
H  0.19964062 -1.52837623 -0.03860855
H  -1.43132991 -0.56890142 -0.03978547
C  0.32412999 0.56073012 0.00494789
H  -0.14138280 1.54889838 -0.04349515
H  1.39919415 0.67051298 -0.04206729
6
MD Step 113
C  -0.32612938 -0.57065841 0.00856058
H  0.19798788 -1.52840514 -0.03698124
H  -1.43083570 -0.57040001 -0.03820914
C  0.32420365 0.56078410 0.00461710
H  -0.13963831 1.54589574 -0.04165784
H  1.39543319 0.67057197 -0.04017741
6
MD Step 114
C  -0.32599335 -0.57039492 0.00829366
H  0.19613875 -1.52831442 -0.03526655
H  -1.42991524 -0.57205546 -0.03653703
C  0.32431855 0.56094054 0.00427292
H  -0.13812941 1.54269420 -0.03973217
H  1.39186290 0.67033431 -0.03820799
6
MD Step 115
C  -0.32591341 -0.57018842 0.00801207
H  0.19410483 -1.52812000 -0.03347310
H  -1.42858889 -0.57386300 -0.03477808
C  0.32447151 0.56119434 0.00391729
H  -0.13689516 1.53935626 -0.03772942
H  1.38856103 0.66980050 -0.03617003
6
MD Step 116
C  -0.32588910 -0.57003848 0.00771636
H  0.19190638 -1.52783504 -0.03160339
H  -1.42687944 -0.57581127 -0.03293524
C  0.32465821 0.56153848 0.00355101
H  -0.13596802 1.53595380 -0.03565504
H  1.38560835 0.66897873 -0.03406858
6
MD Step 117
C  -0.32591207 -0.56993666 0.00741367
H  0.18952248 -1.52751879 -0.02970427
H  -1.42486112 -0.57793104 -0.03105631
C  0.32488177 0.56197236 0.00318273
H  -0.13542183 1.53251747 -0.03355643
H  1.38303753 0.66783513 -0.03195001
6
MD Step 118
C  -0.32598781 -0.56988888 0.00709766
H  0.18702293 -1.52714466 -0.02773270
H  -1.42252699 -0.58016519 -0.02909867
C  0.32513037 0.56248017 0.00280508
H  -0.13524111 1.52916639 -0.03139491
H  1.38096246 0.66642588 -0.02977511
6
MD Step 119
C  -0.32611519 -0.56989443 0.00676749
H  0.18444320 -1.52672408 -0.02568233
H  -1.41991331 -0.58249172 -0.02705677
C  0.32539861 0.56305168 0.00241715
H  -0.13544284 1.52598223 -0.02916647
H  1.37945179 0.66477208 -0.02753890
6
MD Step 120
C  -0.32629264 -0.56995237 0.00642210
H  0.18182171 -1.52626877 -0.02354529
H  -1.41706179 -0.58488687 -0.02492366
C  0.32568127 0.56367628 0.00201769
H  -0.13603863 1.52304454 -0.02686536
H  1.37856380 0.66289713 -0.02523451
6
MD Step 121
C  -0.32650991 -0.57005306 0.00606808
H  0.17914884 -1.52584062 -0.02136346
H  -1.41406935 -0.58737515 -0.02274240
C  0.32598203 0.56435161 0.00161412
H  -0.13708362 1.52037846 -0.02453322
H  1.37829429 0.66077593 -0.02290220
6
MD Step 122
C  -0.32676877 -0.57019938 0.00570007
H  0.17649187 -1.52542608 -0.01910153
H  -1.41096147 -0.58990559 -0.02047860
C  0.32629221 0.56506292 0.00120028
H  -0.13855211 1.51807770 -0.02213686
H  1.37870047 0.65846028 -0.02050771
6
MD Step 123
C  -0.32706243 -0.57038570 0.00532045
H  0.17386907 -1.52506075 -0.01677395
H  -1.40781688 -0.59247592 -0.01814772
C  0.32661208 0.56580412 0.00077864
H  -0.14046058 1.51617780 -0.01969081
H  1.37977474 0.65595316 -0.01806445
6
MD Step 124
C  -0.32737916 -0.57060158 0.00493598
H  0.17127092 -1.52480701 -0.01442285
H  -1.40474433 -0.59511120 -0.01579296
C  0.32694721 0.56657435 0.00035644
H  -0.14284572 1.51467635 -0.01723624
H  1.38146622 0.65323048 -0.01561247
6
MD Step 125
C  -0.32771771 -0.57084740 0.00454311
H  0.16875161 -1.52466145 -0.01202537
H  -1.40178853 -0.59777265 -0.01339218
C  0.32729278 0.56736278 -0.00007041
H  -0.14567297 1.51362370 -0.01475066