6
MD Step 0
C  -0.33763715 -0.58748864 0.00000000
H  0.19552659 -1.51519357 0.00000000
H  -1.40763715 -0.58748864 0.00000000
C  0.33763715 0.58748865 0.00000000
H  -0.19552659 1.51519357 0.00000000
H  1.40763715 0.58748865 0.00000000
6
MD Step 1
C  -0.33800582 -0.58783565 -0.00039455
H  0.19789065 -1.51298989 0.00235091
H  -1.40542072 -0.58520834 0.00235050
C  0.33721645 0.58704679 -0.00039451
H  -0.19318597 1.51768955 0.00235078
H  1.41012211 0.58990877 0.00235037
6
MD Step 2
C  -0.33831895 -0.58808669 -0.00078977
H  0.20028187 -1.51109081 0.00470575
H  -1.40352040 -0.58307306 0.00470503
C  0.33674761 0.58651246 -0.00078967
H  -0.19085765 1.52045712 0.00470538
H  1.41282041 0.59246533 0.00470447
6
MD Step 3
C  -0.33857323 -0.58824112 -0.00118579
H  0.20269979 -1.50950576 0.00706528
H  -1.40197990 -0.58108893 0.00706458
C  0.33623554 0.58588954 -0.00118551
H  -0.18853345 1.52346693 0.00706418
H  1.41566951 0.59514925 0.00706241
6
MD Step 4
C  -0.33875823 -0.58829158 -0.00157493
H  0.20509415 -1.50828370 0.00938361
H  -1.40088036 -0.57930774 0.00938374
C  0.33569333 0.58519072 -0.00157422
H  -0.18624965 1.52663752 0.00938076
H  1.41855728 0.59790387 0.00937736
6
MD Step 5
C  -0.33888363 -0.58825102 -0.00196871
H  0.20752565 -1.50735185 0.01172917
H  -1.40017716 -0.57766597 0.01173149
C  0.33511497 0.58441034 -0.00196715
H  -0.18392665 1.52999743 0.01172275
H  1.42148557 0.60078603 0.01171645
6
MD Step 6
C  -0.33893801 -0.58811147 -0.00235665
H  0.20992104 -1.50676176 0.01403934
H  -1.39994596 -0.57623020 0.01404597
C  0.33451660 0.58356557 -0.00235361
H  -0.18161457 1.53344031 0.01402664
H  1.42432512 0.60372065 0.01401556
6
MD Step 7
C  -0.33892439 -0.58787939 -0.00274166
H  0.21228401 -1.50647844 0.01633131
H  -1.40016993 -0.57498613 0.01634509
C  0.33390089 0.58266082 -0.00273627
H  -0.17928309 1.53693731 0.01630855
H  1.42702914 0.60671188 0.01629022
6
MD Step 8
C  -0.33884299 -0.58755836 -0.00312279
H  0.21459295 -1.50648383 0.01859927
H  -1.40084283 -0.57394140 0.01862383
C  0.33327427 0.58170487 -0.00311398
H  -0.17692471 1.54043519 0.01856156
H  1.42953158 0.60974038 0.01853288
6
MD Step 9
C  -0.33868991 -0.58714772 -0.00349392
H  0.21679346 -1.50678530 0.02080656
H  -1.40197707 -0.57313335 0.02084636
C  0.33264815 0.58071214 -0.00348038
H  -0.17456302 1.54384961 0.02074791
H  1.43174050 0.61275560 0.02070513
6
MD Step 10
C  -0.33846846 -0.58665370 -0.00385500
H  0.21886605 -1.50734911 0.02295284
H  -1.40353645 -0.57256179 0.02301299
C  0.33202752 0.57969115 -0.00383523
H  -0.17218617 1.54713361 0.02286617
H  1.43360691 0.61574326 0.02280501
6
MD Step 11
C  -0.33818755 -0.58608796 -0.00421060
H  0.22081792 -1.50811004 0.02506537
H  -1.40544613 -0.57219774 0.02515131
C  0.33141243 0.57864599 -0.00418293
H  -0.16975598 1.55026981 0.02494248
H  1.43511674 0.61871669 0.02485845
6
MD Step 12
C  -0.33785322 -0.58545889 -0.00456150
H  0.22263333 -1.50902289 0.02714872
H  -1.40764504 -0.57203371 0.02726605
C  0.33080638 0.57758456 -0.00452409
H  -0.16725856 1.55322076 0.02698044
H  1.43624062 0.62166660 0.02686885
6
MD Step 13
C  -0.33746691 -0.58477009 -0.00490306
H  0.22426514 -1.51007246 0.02917571
H  -1.41009667 -0.57209269 0.02933029
C  0.33021784 0.57652005 -0.00485405
H  -0.16471358 1.55592069 0.02895212
H  1.43692525 0.62455213 0.02880798
6
MD Step 14
C  -0.33703616 -0.58403094 -0.00523612
H  0.22569930 -1.51121040 0.03115143
H  -1.41272649 -0.57236420 0.03134887
C  0.32964946 0.57546007 -0.00517360
H  -0.16211076 1.55834034 0.03086190
H  1.43715805 0.62736502 0.03068035
6
MD Step 15
C  -0.33656448 -0.58324655 -0.00555687
H  0.22689598 -1.51241559 0.03305385
H  -1.41548329 -0.57286362 0.03329960
C  0.32910802 0.57441649 -0.00547904
H  -0.15946929 1.56042811 0.03268734
H  1.43690797 0.63007033 0.03246345
6
MD Step 16
C  -0.33606262 -0.58242903 -0.00586844
H  0.22785803 -1.51362687 0.03490188
H  -1.41827280 -0.57356428 0.03520043
C  0.32859295 0.57339396 -0.00577348
H  -0.15677023 1.56217872 0.03444688
H  1.43619380 0.63267460 0.03417637
6
MD Step 17
C  -0.33553756 -0.58158655 -0.00616990
H  0.22856660 -1.51480877 0.03669050
H  -1.42102465 -0.57446218 0.03704552
C  0.32810725 0.57240071 -0.00605614
H  -0.15402121 1.56356865 0.03613536
H  1.43501912 0.63516109 0.03581447
6
MD Step 18
C  -0.33499149 -0.58072225 -0.00645530
H  0.22897607 -1.51595767 0.03838526
H  -1.42369955 -0.57558150 0.03880000
C  0.32765839 0.57144934 -0.00632140
H  -0.15126191 1.56455107 0.03771864
H  1.43336683 0.63748437 0.03734365
6
MD Step 19
C  -0.33443143 -0.57984399 -0.00672360
H  0.22907259 -1.51704397 0.03998075
H  -1.42623198 -0.57691643 0.04045737
C  0.32724847 0.57054701 -0.00656852
H  -0.14850601 1.56511452 0.03919159
H  1.43125773 0.63962890 0.03875952
6
MD Step 20
C  -0.33386065 -0.57895571 -0.00697003
H  0.22882361 -1.51806331 0.04144973
H  -1.42858217 -0.57848175 0.04198984
C  0.32688270 0.56970382 -0.00679321
H  -0.14579170 1.56523248 0.04052778
H  1.42869978 0.64155836 0.04003582
6
MD Step 21
C  -0.33329433 -0.57807320 -0.00720225
H  0.22827223 -1.51894286 0.04283770
H  -1.43064296 -0.58021910 0.04344023
C  0.32655354 0.56891700 -0.00700310
H  -0.14308790 1.56495757 0.04177287
H  1.42578201 0.64331004 0.04122052
6
MD Step 22
C  -0.33273783 -0.57720234 -0.00741822
H  0.22740845 -1.51967073 0.04413352
H  -1.43237041 -0.58212560 0.04479618
C  0.32626249 0.56819247 -0.00719661
H  -0.14042240 1.56429250 0.04291667
H  1.42254471 0.64486575 0.04230437
6
MD Step 23
C  -0.33219730 -0.57634966 -0.00761715
H  0.22623286 -1.52023276 0.04533319
H  -1.43372108 -0.58419062 0.04605236
C  0.32600935 0.56753417 -0.00737337
H  -0.13781842 1.56325345 0.04395630
H  1.41904237 0.64621547 0.04328563
6
MD Step 24
C  -0.33168025 -0.57552305 -0.00780027
H  0.22476098 -1.52060831 0.04644436
H  -1.43464834 -0.58639151 0.04721458
C  0.32579155 0.56694332 -0.00753488
H  -0.13529007 1.56187423 0.04490044
H  1.41534729 0.64736185 0.04417470
6
MD Step 25
C  -0.33118822 -0.57472432 -0.00796316
H  0.22297948 -1.52081435 0.04744216
H  -1.43514680 -0.58873743 0.04825757
C  0.32561155 0.56642570 -0.00767750
H  -0.13288567 1.56016213 0.04572594
H  1.41150482 0.64827622 0.04494883
6
MD Step 26
C  -0.33073290 -0.57396548 -0.00811272
H  0.22094300 -1.52080847 0.04836685
H  -1.43515558 -0.59117288 0.04921853
C  0.32546054 0.56597549 -0.00780797
H  -0.13059110 1.55819449 0.04647388
H  1.40762928 0.64899582 0.04565213
6
MD Step 27
C  -0.33030894 -0.57324133 -0.00823877
H  0.21861164 -1.52065148 0.04916020
H  -1.43472153 -0.59373973 0.05004054
C  0.32534595 0.56560244 -0.00791736
H  -0.12849093 1.55595553 0.04708843
H  1.40373998 0.64946086 0.04622778
6
MD Step 28
C  -0.32992486 -0.57256062 -0.00834643
H  0.21603592 -1.52032201 0.04985199
H  -1.43381350 -0.59639277 0.05075095
C  0.32526023 0.56530094 -0.00801075
H  -0.12658400 1.55352116 0.04760050
H  1.39994544 0.64970021 0.04670925
6
MD Step 29
C  -0.32957688 -0.57191970 -0.00842866
H  0.21319998 -1.51987298 0.05040221
H  -1.43247938 -0.59915592 0.05131077
C  0.32520739 0.56507624 -0.00808216
H  -0.12493867 1.55090147 0.04797233
H  1.39628504 0.64967429 0.04705813
6
MD Step 30
C  -0.32927096 -0.57132478 -0.00848954
H  0.21015369 -1.51929887 0.05083441
H  -1.43071315 -0.60199039 0.05174174
C  0.32518068 0.56492240 -0.00813565
H  -0.12356073 1.54817240 0.04822878
H  1.39286007 0.64940779 0.04730133
6
MD Step 31
C  -0.32900247 -0.57077139 -0.00852273
H  0.20689014 -1.51865769 0.05111258
H  -1.42857721 -0.60491664 0.05200918
C  0.32518341 0.56484280 -0.00816587
H  -0.12251442 1.54535244 0.04833597
H  1.38970953 0.64886704 0.04740407
6
MD Step 32
C  -0.32877410 -0.57026251 -0.00853043
H  0.20345290 -1.51796274 0.05124949
H  -1.42609403 -0.60790715 0.05212504
C  0.32521081 0.56483224 -0.00817515
H  -0.12181484 1.54250930 0.04830806
H  1.38691628 0.64806787 0.04738159
6
MD Step 33
C  -0.32858480 -0.56979746 -0.00851168
H  0.19986919 -1.51724863 0.05123973
H  -1.42331225 -0.61095273 0.05208436
C  0.32526136 0.56488813 -0.00816294
H  -0.12149339 1.53969223 0.04814124
H  1.38453865 0.64700887 0.04722990
6
MD Step 34
C  -0.32844183 -0.56938406 -0.00847518
H  0.19622167 -1.51649836 0.05113241
H  -1.42023392 -0.61399064 0.05193418
C  0.32532475 0.56499857 -0.00813716
H  -0.12152527 1.53700294 0.04788550
H  1.38268071 0.64574372 0.04700111
6
MD Step 35
C  -0.32833881 -0.56901655 -0.00841587
H  0.19251645 -1.51577461 0.05089880
H  -1.41694610 -0.61703606 0.05164780
C  0.32540422 0.56516454 -0.00809350
H  -0.12195976 1.53446229 0.04751349
H  1.38135809 0.64424905 0.04666609
6
MD Step 36
C  -0.32827842 -0.56869851 -0.00833913
H  0.18881837 -1.51508288 0.05056882
H  -1.41348373 -0.62004653 0.05125465
C  0.32549367 0.56537725 -0.00803674
H  -0.12278424 1.53214501 0.04705588
H  1.38063275 0.64256056 0.04625604
6
MD Step 37
C  -0.32825735 -0.56842774 -0.00824464
H  0.18516014 -1.51446126 0.05014028
H  -1.40991943 -0.62301237 0.05075386
C  0.32559305 0.56563347 -0.00796658
H  -0.12401371 1.53008783 0.04651113
H  1.38052094 0.64068239 0.04576816
6
MD Step 38
C  -0.32827545 -0.56820545 -0.00813610
H  0.18159603 -1.51392527 0.04963325
H  -1.40630791 -0.62590245 0.05016604
C  0.32569918 0.56592647 -0.00788612
H  -0.12563602 1.52834266 0.04589964
H  1.38104671 0.63864140 0.04522234
6
MD Step 39
C  -0.32832565 -0.56802624 -0.00801042
H  0.17814121 -1.51352725 0.04902982
H  -1.40274510 -0.62872449 0.04947572
C  0.32581594 0.56625632 -0.00779244
H  -0.12767154 1.52691524 0.04520352
H  1.38218111 0.63642693 0.04459834
6
MD Step 40
C  -0.32840517 -0.56788924 -0.00786951
H  0.17483678 -1.51328958 0.04833986
H  -1.39930038 -0.63145925 0.04869419
C  0.32594312 0.56661883 -0.00768692
H  -0.13010721 1.52583038 0.04443239
H  1.38390864 0.63405670 0.04390439
6
MD Step 41
C  -0.32850838 -0.56779098 -0.00771253
H  0.17170626 -1.51324687 0.04755788
H  -1.39605805 -0.63410361 0.04781811
C  0.32608361 0.56701290 -0.00756846
H  -0.13293936 1.52508842 0.04358021
H  1.38618479 0.63153373 0.04313249
6
MD Step 42
C  -0.32862585 -0.56772444 -0.00753480
H  0.16874890 -1.51345127 0.04665703
H  -1.39312134 -0.63667675 0.04682353
C  0.32624428 0.56744152 -0.00743257
H  -0.13617989 1.52465892 0.04261903
H  1.38893123 0.62884032 0.04225199
6
MD Step 43
C  -0.32875655 -0.56769109 -0.00734048
H  0.16601012 -1.51390032 0.04565981
H  -1.39053880 -0.63914864 0.04573425
C  0.32642396 0.56789983 -0.00728254
H  -0.13978534 1.52455234 0.04157062
H  1.39210927 0.62600928 0.04128360
6
MD Step 44
C  -0.32890187 -0.56769486 -0.00713616
H  0.16354496 -1.51457272 0.04460192
H  -1.38833894 -0.64147635 0.04458682
C  0.32661942 0.56838111 -0.00712370
H  -0.14369319 1.52478401 0.04047017
H  1.39568492 0.62308766 0.04026198
6
MD Step 45
C  -0.32905190 -0.56772852 -0.00691620
H  0.16133653 -1.51550964 0.04345137
H  -1.38661056 -0.64368591 0.04335186
C  0.32683889 0.56889060 -0.00695071
H  -0.14790412 1.52529286 0.03928404
H  1.39954844 0.62005530 0.03915126
6
MD Step 46
C  -0.32920404 -0.56779202 -0.00668228
H  0.15940445 -1.51670507 0.04221676
H  -1.38539136 -0.64576265 0.04203924
C  0.32708368 0.56942697 -0.00676466
H  -0.15237319 1.52605185 0.03801990
H  1.40362641 0.61693379 0.03795820
6
MD Step 47
C  -0.32934947 -0.56787901 -0.00642888
H  0.15772434 -1.51818643 0.04086731
H  -1.38474724 -0.64773222 0.04062009
C  0.32736153 0.56999586 -0.00656045
H  -0.15709157 1.52698828 0.03664514
H  1.40780284 0.61370595 0.03664868
6
MD Step 48
C  -0.32949437 -0.56799765 -0.00616568
H  0.15635159 -1.51988992 0.03945593
H  -1.38464613 -0.64953533 0.03914721
C  0.32766576 0.57058874 -0.00634626
H  -0.16196228 1.52810991 0.03521307
H  1.41204660 0.61043988 0.03527639
6
MD Step 49
C  -0.32962903 -0.56814015 -0.00588483
H  0.15524024 -1.52184332 0.03793927
H  -1.38514040 -0.65121093 0.03757852
C  0.32800555 0.57121362 -0.00611507
H  -0.16698395 1.52932342 0.03367836
H  1.41622958 0.60710726 0.03379497
6
MD Step 50
C  -0.32975749 -0.56831184 -0.00559219
H  0.15441627 -1.52399202 0.03634961
H  -1.38619182 -0.65272116 0.03594608
C  0.32837688 0.57186554 -0.00587191
H  -0.17207678 1.53061036 0.03207354
H  1.42030379 0.60375671 0.03223730
6
MD Step 51
C  -0.32988012 -0.56851399 -0.00528901
H  0.15387622 -1.52630206 0.03469398
H  -1.38777456 -0.65405416 0.03425674
C  0.32877948 0.57254374 -0.00561785
H  -0.17718606 1.53192587 0.03040541
H  1.42419970 0.60041175 0.03061034
6
MD Step 52
C  -0.32999747 -0.56874761 -0.00497602
H  0.15361008 -1.52873824 0.03297657
H  -1.38985341 -0.65520141 0.03251428
C  0.32921309 0.57324775 -0.00535355
H  -0.18226014 1.53322252 0.02867807
H  1.42785018 0.59709324 0.02891851
6
MD Step 53
C  -0.33010399 -0.56900721 -0.00464694
H  0.15356559 -1.53130125 0.03116304
H  -1.39242115 -0.65619433 0.03068398
C  0.32968341 0.57398349 -0.00507353
H  -0.18728783 1.53441506 0.02685597
H  1.43115507 0.59378306 0.02712640
6
MD Step 54
C  -0.33019941 -0.56929202 -0.00430042
H  0.15371514 -1.53396141 0.02924640
H  -1.39543236 -0.65703704 0.02875804
C  0.33019095 0.57475181 -0.00477673
H  -0.19223182 1.53544874 0.02493183
H  1.43404982 0.59049063 0.02522725
6
MD Step 55
C  -0.33029038 -0.56960750 -0.00394181
H  0.15406630 -1.53664938 0.02725692
H  -1.39879480 -0.65769617 0.02676558
C  0.33072938 0.57554675 -0.00446811
H  -0.19701913 1.53631039 0.02293703
H  1.43651649 0.58726285 0.02325324
6
MD Step 56
C  -0.33038238 -0.56995752 -0.00357490
H  0.15461589 -1.53930404 0.02521620
H  -1.40241861 -0.65814811 0.02472704
C  0.33129330 0.57636340 -0.00415125
H  -0.20158868 1.53698215 0.02089412
H  1.43853688 0.58413735 0.02122766
6
MD Step 57
C  -0.33047545 -0.57034021 -0.00319765
H  0.15532670 -1.54189758 0.02311362
H  -1.40624263 -0.65840345 0.02263080
C  0.33188224 0.57720194 -0.00382458
H  -0.20591592 1.53741795 0.01879228
H  1.44006846 0.58111843 0.01914032
6
MD Step 58
C  -0.33057919 -0.57076270 -0.00281793
H  0.15621615 -1.54434754 0.02099355
H  -1.41014752 -0.65841771 0.02052007
C  0.33248599 0.57805264 -0.00349536
H  -0.20992395 1.53763293 0.01667764
H  1.44113382 0.57826513 0.01703807
6
MD Step 59
C  -0.33069271 -0.57122150 -0.00243281
H  0.15724038 -1.54663500 0.01884021
H  -1.41407536 -0.65820946 0.01837822
C  0.33310409 0.57891564 -0.00316116
H  -0.21360174 1.53758634 0.01453412
H  1.44170272 0.57557459 0.01490538
6
MD Step 60
C  -0.33081425 -0.57171201 -0.00203863
H  0.15835164 -1.54874796 0.01663400
H  -1.41797373 -0.65780275 0.01618492
C  0.33373628 0.57979126 -0.00281895
H  -0.21694681 1.53723932 0.01234157
H  1.44174988 0.57303890 0.01272257
6
MD Step 61
C  -0.33095071 -0.57223784 -0.00164101
H  0.15955442 -1.55062561 0.01440670
H  -1.42174082 -0.65717055 0.01397121
C  0.33437330 0.58067050 -0.00247394
H  -0.21990902 1.53661148 0.01013289
H  1.44131169 0.57070088 0.01052303
6
MD Step 62
C  -0.33109941 -0.57279304 -0.00123597
H  0.16080012 -1.55226545 0.01213679
H  -1.42533342 -0.65634197 0.01171511
C  0.33501449 0.58155309 -0.00212274
H  -0.22249778 1.53567431 0.00788578
H  1.44037889 0.56854811 0.00828474
6
MD Step 63
C  -0.33126976 -0.57338331 -0.00083247
H  0.16211390 -1.55359631 0.00987469
H  -1.42864063 -0.65527408 0.00946659
C  0.33564676 0.58242591 -0.00177354
H  -0.22465413 1.53447893 0.00565209
H  1.43902446 0.56663953 0.00605989
6
MD Step 64
C  -0.33145414 -0.57399752 -0.00042232
H  0.16342550 -1.55464949 0.00757489
H  -1.43165578 -0.65402353 0.00718001
C  0.33627294 0.58329192 -0.00141898
H  -0.22642226 1.53298502 0.00338471
H  1.43723160 0.56493559 0.00380142
6
MD Step 65
C  -0.33165163 -0.57463102 -0.00000470
H  0.16470801 -1.55541928 0.00523316
H  -1.43433719 -0.65260619 0.00485110
C  0.33688867 0.58414659 -0.00105838
H  -0.22780943 1.53120061 0.00107891
H  1.43503380 0.56343703 0.00150458
6
MD Step 66
C  -0.33186659 -0.57528431 0.00041527
H  0.16596993 -1.55587133 0.00287855
H  -1.43661681 -0.65100532 0.00250892
C  0.33748379 0.58497933 -0.00069641
H  -0.22879423 1.52917375 -0.00123604
H  1.43250630 0.56217670 -0.00080141
6
MD Step 67
C  -0.33209794 -0.57595247 0.00083761
H  0.16719269 -1.55600583 0.00051116
H  -1.43846402 -0.64923487 0.00015378
C  0.33805289 0.58578417 -0.00033299
H  -0.22938977 1.52692909 -0.00356070
H  1.42970175 0.56115675 -0.00311735
6
MD Step 68
C  -0.33234319 -0.57662922 0.00126333
H  0.16835433 -1.55583391 -0.00187446
H  -1.43986228 -0.64731559 -0.00221952
C  0.33859146 0.58655587 0.00003287
H  -0.22961972 1.52449119 -0.00590155
H  1.42667311 0.56037215 -0.00545008
6
MD Step 69
C  -0.33260794 -0.57731632 0.00168463
H  0.16948555 -1.55532125 -0.00423389
H  -1.44075303 -0.64521844 -0.00456614
C  0.33908662 0.58728041 0.00039407
H  -0.22946169 1.52194047 -0.00821413
H  1.42352913 0.55986679 -0.00775557
6
MD Step 70
C  -0.33288487 -0.57800283 0.00210647
H  0.17054627 -1.55451237 -0.00659541
H  -1.44116044 -0.64298919 -0.00691397
C  0.33953790 0.58795611 0.00075542
H  -0.22897144 1.51928823 -0.01052853
H  1.42030794 0.55960971 -0.01006445
6
MD Step 71
C  -0.33317771 -0.57868888 0.00252210
H  0.17156647 -1.55338864 -0.00892017
H  -1.44104958 -0.64060618 -0.00922358
C  0.33993378 0.58856976 0.00111075
H  -0.22814048 1.51661774 -0.01280639
H  1.41711800 0.55963625 -0.01233902
6
MD Step 72
C  -0.33348316 -0.57936786 0.00293145
H  0.17253998 -1.55197502 -0.01120774
H  -1.44043349 -0.63808739 -0.01149406
C  0.34026959 0.58911475 0.00146024
H  -0.22700266 1.51397651 -0.01504874
H  1.41402886 0.55994169 -0.01458096
6
MD Step 73
C  -0.33380126 -0.58003665 0.00333066
H  0.17348510 -1.55027872 -0.01343581
H  -1.43931214 -0.63542911 -0.01370251
C  0.34053747 0.58958088 0.00180045
H  -0.22557240 1.51143637 -0.01723438
H  1.41113056 0.56054208 -0.01676981
6
MD Step 74
C  -0.33412620 -0.58068662 0.00372138
H  0.17439055 -1.54834306 -0.01561388
H  -1.43772660 -0.63266021 -0.01585800
C  0.34073555 0.58996361 0.00213323
H  -0.22389833 1.50903814 -0.01937452
H  1.40847715 0.56142030 -0.01891730
6
MD Step 75
C  -0.33444932 -0.58130669 0.00410773
H  0.17523276 -1.54622940 -0.01776588
H  -1.43574093 -0.62982442 -0.01798433
C  0.34086510 0.59026119 0.00246283
H  -0.22204502 1.50680808 -0.02149510
H  1.40610263 0.56254365 -0.02104963
6
MD Step 76
C  -0.33477799 -0.58190195 0.00447746
H  0.17608620 -1.54390539 -0.01982015
H  -1.43333044 -0.62686874 -0.02000890
C  0.34091210 0.59045611 0.00277752
H  -0.21998086 1.50486785 -0.02352497
H  1.40413092 0.56397467 -0.02309662
6
MD Step 77
C  -0.33510433 -0.58246287 0.00483330
H  0.17693938 -1.54142928 -0.02179243
H  -1.43056654 -0.62382855 -0.02194742
C  0.34087817 0.59054631 0.00308017
H  -0.21776206 1.50324824 -0.02548153
H  1.40258797 0.56568708 -0.02507572
6
MD Step 78
C  -0.33541621 -0.58297612 0.00518187
H  0.17775874 -1.53888475 -0.02372194
H  -1.42755136 -0.62076281 -0.02383977
C  0.34076988 0.59053443 0.00337760
H  -0.21546719 1.50195232 -0.02740591
H  1.40146528 0.56763022 -0.02702728
6
MD Step 79
C  -0.33571527 -0.58344258 0.00551603
H  0.17859418 -1.53627354 -0.02556591
H  -1.42430989 -0.61764727 -0.02564270
C  0.34058095 0.59041008 0.00366269
H  -0.21308987 1.50106075 -0.02925586
H  1.40082608 0.56983508 -0.02890940
6
MD Step 80
C  -0.33599351 -0.58385401 0.00583803
H  0.17944000 -1.53365407 -0.02733767
H  -1.42092859 -0.61451390 -0.02737026
C  0.34031555 0.59017335 0.00393782
H  -0.21067730 1.50059101 -0.03104577
H  1.40066443 0.57227550 -0.03073551
6
MD Step 81
C  -0.33624535 -0.58420514 0.00614772
H  0.18030545 -1.53106939 -0.02903600
H  -1.41748271 -0.61137944 -0.02902186
C  0.33997637 0.58982295 0.00420278
H  -0.20825819 1.50056755 -0.03277492
H  1.40097651 0.57493922 -0.03250398
6
MD Step 82
C  -0.33646326 -0.58448928 0.00644690
H  0.18118773 -1.52857294 -0.03067153
H  -1.41406139 -0.60827196 -0.03060939
C  0.33956903 0.58936083 0.00445937
H  -0.20586887 1.50099418 -0.03445424
H  1.40173411 0.57780125 -0.03422422
6
MD Step 83
C  -0.33664573 -0.58470621 0.00673175
H  0.18211788 -1.52618120 -0.03222057
H  -1.41071929 -0.60518419 -0.03210956
C  0.33909417 0.58878436 0.00470335
H  -0.20350629 1.50189983 -0.03605952
H  1.40293193 0.58087026 -0.03587133
6
MD Step 84
C  -0.33678309 -0.58484807 0.00700658
H  0.18307610 -1.52395751 -0.03370904
H  -1.40755966 -0.60215815 -0.03355044
C  0.33856156 0.58810066 0.00493903
H  -0.20121226 1.50325351 -0.03761628
H  1.40450352 0.58410416 -0.03746846
6
MD Step 85
C  -0.33687069 -0.58491236 0.00727126
H  0.18406808 -1.52193421 -0.03513593
H  -1.40465493 -0.59920792 -0.03493254
C  0.33797703 0.58731366 0.00516599
H  -0.19899641 1.50504122 -0.03912237
H  1.40640018 0.58748697 -0.03901183
6
MD Step 86
C  -0.33690615 -0.58489917 0.00752410
H  0.18510761 -1.52012899 -0.03649020
H  -1.40206179 -0.59633670 -0.03624600
C  0.33734524 0.58642693 0.00538195
H  -0.19685338 1.50724909 -0.04056512
H  1.40857541 0.59101177 -0.04048752
6
MD Step 87
C  -0.33688588 -0.58480761 0.00776515
H  0.18619520 -1.51856564 -0.03777181
H  -1.39984065 -0.59355801 -0.03749242
C  0.33667310 0.58544721 0.00558651
H  -0.19478426 1.50984264 -0.04194259
H  1.41096523 0.59465954 -0.04189204
6
MD Step 88
C  -0.33680599 -0.58463665 0.00799552
H  0.18732216 -1.51726917 -0.03898735
H  -1.39804946 -0.59089129 -0.03868033
C  0.33596893 0.58438363 0.00578044
H  -0.19279267 1.51277189 -0.04325915
H  1.41349445 0.59840358 -0.04322801
6
MD Step 89
C  -0.33666573 -0.58438840 0.00821421
H  0.18849030 -1.51624566 -0.04013023
H  -1.39672216 -0.58834204 -0.03980434
C  0.33523900 0.58324423 0.00596211
H  -0.19086556 1.51599237 -0.04450561
H  1.41609843 0.60222940 -0.04448532
6
MD Step 90
C  -0.33646237 -0.58406297 0.00842295
H  0.18968095 -1.51551312 -0.04121149
H  -1.39589843 -0.58593279 -0.04087745
C  0.33449261 0.58204105 0.00613307
H  -0.18900481 1.51943532 -0.04569030
H  1.41869392 0.60610389 -0.04567069
6
MD Step 91
C  -0.33620077 -0.58366790 0.00861744
H  0.19091141 -1.51504482 -0.04220335
H  -1.39556613 -0.58364656 -0.04187166
C  0.33373257 0.58078050 0.00628784
H  -0.18717154 1.52306572 -0.04678259
H  1.42123740 0.61003196 -0.04675409
6
MD Step 92
C  -0.33587840 -0.58320311 0.00880114
H  0.19214587 -1.51485910 -0.04312854
H  -1.39575072 -0.58151630 -0.04281165
C  0.33297006 0.57947820 0.00643012
H  -0.18537615 1.52679425 -0.04780228
H  1.42363687 0.61396725 -0.04775372
6
MD Step 93
C  -0.33549893 -0.58267449 0.00897281
H  0.19337647 -1.51493850 -0.04397929
H  -1.39643387 -0.57954391 -0.04368981
C  0.33221100 0.57814523 0.00655812
H  -0.18359820 1.53055992 -0.04873879
H  1.42583460 0.61789334 -0.04865916
6
MD Step 94
C  -0.33506606 -0.58208768 0.00913203
H  0.19458721 -1.51526664 -0.04475382
H  -1.39759047 -0.57773663 -0.04450454
C  0.33146209 0.57679403 0.00667122
H  -0.18182356 1.53429511 -0.04958766
H  1.42777185 0.62178747 -0.04946599
6
MD Step 95
C  -0.33459127 -0.58145580 0.00927228
H  0.19580070 -1.51578234 -0.04540968
H  -1.39914314 -0.57606065 -0.04521114
C  0.33072294 0.57543049 0.00676136
H  -0.17999872 1.53797347 -0.05030438
H  1.42943627 0.62566727 -0.05013209
6
MD Step 96
C  -0.33408143 -0.58078711 0.00939188
H  0.19700620 -1.51645318 -0.04593662
H  -1.40103702 -0.57451372 -0.04579839
C  0.32999828 0.57406594 0.00682644
H  -0.17810371 1.54153843 -0.05087672
H  1.43078957 0.62951814 -0.05064624
6
MD Step 97
C  -0.33354424 -0.58009045 0.00948910
H  0.19819273 -1.51724348 -0.04632375
H  -1.40320879 -0.57309233 -0.04625398
C  0.32929241 0.57271152 0.00686427
H  -0.17611991 1.54493707 -0.05129223
H  1.43180089 0.63332625 -0.05099726
6
MD Step 98
C  -0.33298051 -0.57936749 0.00956883
H  0.19930450 -1.51816015 -0.04660505
H  -1.40563352 -0.57183666 -0.04661248
C  0.32861681 0.57138555 0.00688099
H  -0.17407526 1.54807624 -0.05158279
H  1.43240228 0.63703349 -0.05121625
6
MD Step 99
C  -0.33239811 -0.57862681 0.00963002
H  0.20032539 -1.51916905 -0.04677460
H  -1.40824167 -0.57074662 -0.04686637
C  0.32797580 0.57009930 0.00687550
H  -0.17196100 1.55090768 -0.05174154
H  1.43257367 0.64062210 -0.05129765
6
MD Step 100
C  -0.33180122 -0.57787312 0.00967520
H  0.20121572 -1.52025939 -0.04685092
H  -1.41098456 -0.56984522 -0.04703353
C  0.32737729 0.56886746 0.00685122
H  -0.16979516 1.55336528 -0.05178581
H  1.43227968 0.64405106 -0.05125910
6
MD Step 101
C  -0.33119733 -0.57711427 0.00970409
H  0.20195549 -1.52140146 -0.04683371
H  -1.41379297 -0.56913586 -0.04711214
C  0.32682547 0.56770086 0.00680827
H  -0.16758023 1.55540864 -0.05171491
H  1.43151285 0.64729921 -0.05110103
6
MD Step 102
C  -0.33060054 -0.57636483 0.00971058
H  0.20256599 -1.52252623 -0.04668238
H  -1.41655776 -0.56858141 -0.04705823
C  0.32631719 0.56660287 0.00673931
H  -0.16528239 1.55704466 -0.05148963
H  1.43031475 0.65038674 -0.05078723
6
MD Step 103
C  -0.33001231 -0.57562634 0.00969980
H  0.20299436 -1.52364173 -0.04643327
H  -1.41924780 -0.56821900 -0.04690797
C  0.32586152 0.56558852 0.00665128
H  -0.16294601 1.55821248 -0.05114560
H  1.42866044 0.65325920 -0.05035319
6
MD Step 104
C  -0.32944180 -0.57490819 0.00966980
H  0.20323798 -1.52470971 -0.04607420
H  -1.42178693 -0.56803708 -0.04664712
C  0.32545876 0.56466379 0.00654223
H  -0.16057105 1.55890744 -0.05067194
H  1.42658207 0.65591194 -0.04978974
6
MD Step 105
C  -0.32889605 -0.57421756 0.00962028
H  0.20328584 -1.52570487 -0.04560400
H  -1.42411412 -0.56803370 -0.04627295
C  0.32511033 0.56383529 0.00641225
H  -0.15817117 1.55912271 -0.05006878
H  1.42411020 0.65833137 -0.04909839
6
MD Step 106
C  -0.32837963 -0.57355909 0.00955276
H  0.20311728 -1.52661688 -0.04503425
H  -1.42618616 -0.56821799 -0.04579600
C  0.32481904 0.56311044 0.00626387
H  -0.15577507 1.55884790 -0.04934871
H  1.42127204 0.66049345 -0.04829257
6
MD Step 107
C  -0.32790268 -0.57294311 0.00946341
H  0.20275149 -1.52740151 -0.04433908
H  -1.42792911 -0.56856152 -0.04518837
C  0.32458072 0.56248926 0.00609275
H  -0.15337782 1.55811814 -0.04848885
H  1.41814001 0.66241324 -0.04735136
6
MD Step 108
C  -0.32746786 -0.57237227 0.00935457
H  0.20216884 -1.52805966 -0.04353529
H  -1.42931815 -0.56907615 -0.04446626
C  0.32439761 0.56197738 0.00590240
H  -0.15101831 1.55693556 -0.04750740
H  1.41475282 0.66406599 -0.04629359
6
MD Step 109
C  -0.32708069 -0.57185216 0.00922552
H  0.20137446 -1.52857429 -0.04261789
H  -1.43031457 -0.56975142 -0.04362359
C  0.32426758 0.56157548 0.00569233
H  -0.14871654 1.55533225 -0.04640201
H  1.41117782 0.66545072 -0.04511804
6
MD Step 110
C  -0.32674087 -0.57138238 0.00908016
H  0.20034520 -1.52896342 -0.04161405
H  -1.43091920 -0.57060689 -0.04268745
C  0.32419320 0.56128807 0.00546796
H  -0.14652551 1.55331730 -0.04520109
H  1.40745758 0.66653715 -0.04385335
6
MD Step 111
C  -0.32645668 -0.57097138 0.00891403
H  0.19911819 -1.52919202 -0.04049308
H  -1.43108406 -0.57160493 -0.04162599
C  0.32416674 0.56110888 0.00522419
H  -0.14444396 1.55096433 -0.04387809
H  1.40369683 0.66735435 -0.04247430
6
MD Step 112
C  -0.32622794 -0.57061886 0.00872969
H  0.19768658 -1.52927589 -0.03927238
H  -1.43081700 -0.57275352 -0.04045659
C  0.32418793 0.56103813 0.00496461
H  -0.14251838 1.54830737 -0.04245236
H  1.39995757 0.66788630 -0.04100041
6
MD Step 113
C  -0.32605866 -0.57032893 0.00852517
H  0.19607732 -1.52920419 -0.03793830
H  -1.43010400 -0.57402961 -0.03916528
C  0.32425085 0.56106970 0.00468722
H  -0.14076614 1.54541737 -0.04091372
H  1.39633478 0.66814972 -0.03942202
6
MD Step 114
C  -0.32594904 -0.57010177 0.00830136
H  0.19430182 -1.52898837 -0.03649614
H  -1.42895845 -0.57542772 -0.03775753
C  0.32435239 0.56119940 0.00439337
H  -0.13922333 1.54235239 -0.03927009
H  1.39290577 0.66814463 -0.03774704
6
MD Step 115
C  -0.32589467 -0.56993289 0.00806266
H  0.19235112 -1.52866659 -0.03497486
H  -1.42742571 -0.57696458 -0.03626293
C  0.32449317 0.56142583 0.00408862
H  -0.13794880 1.53915193 -0.03755192
H  1.38972375 0.66784962 -0.03600537
6
MD Step 116
C  -0.32589240 -0.56981916 0.00781167
H  0.19023126 -1.52826789 -0.03339094
H  -1.42554693 -0.57864407 -0.03469862
C  0.32467156 0.56174461 0.00377625
H  -0.13698851 1.53587110 -0.03577759
H  1.38685165 0.66725733 -0.03421481
6
MD Step 117
C  -0.32594286 -0.56976145 0.00754677
H  0.18797825 -1.52779666 -0.03173290
H  -1.42334334 -0.58044222 -0.03305355
C  0.32488123 0.56214606 0.00345449
H  -0.13635983 1.53259441 -0.03393853
H  1.38437541 0.66638962 -0.03236637
6
MD Step 118
C  -0.32604482 -0.56975879 0.00726750
H  0.18562284 -1.52726706 -0.02999673
H  -1.42085084 -0.58234177 -0.03132441
C  0.32511717 0.56262110 0.00312287
H  -0.13608519 1.52939943 -0.03203310
H  1.38236704 0.66526234 -0.03045767
6
MD Step 119
C  -0.32619604 -0.56980937 0.00697365
H  0.18319586 -1.52669707 -0.02818014
H  -1.41811397 -0.58432674 -0.02950973
C  0.32537495 0.56316056 0.00278115
H  -0.13618568 1.52636049 -0.03006104
H  1.38088798 0.66389077 -0.02848754
6
MD Step 120
C  -0.32638847 -0.56990556 0.00666995
H  0.18069769 -1.52613794 -0.02631306
H  -1.41521527 -0.58641227 -0.02764061
C  0.32565586 0.56376038 0.00243472
H  -0.13670992 1.52351695 -0.02805276
H  1.37995732 0.66225931 -0.02648511
6
MD Step 121
C  -0.32661876 -0.57004469 0.00635616
H  0.17816166 -1.52561004 -0.02439303
H  -1.41221031 -0.58858163 -0.02571556
C  0.32595621 0.56441124 0.00208322
H  -0.13767033 1.52093491 -0.02600715
H  1.37961393 0.66038520 -0.02444818
6
MD Step 122
C  -0.32688487 -0.57022565 0.00603036
H  0.17563230 -1.52512331 -0.02240678
H  -1.40914785 -0.59080727 -0.02372220
C  0.32627096 0.56510223 0.00172431
H  -0.13906329 1.51868431 -0.02391216
H  1.37989417 0.65829714 -0.02236372
6
MD Step 123
C  -0.32718527 -0.57044799 0.00568972
H  0.17315967 -1.52468211 -0.02033554
H  -1.40607425 -0.59305623 -0.02164262
C  0.32659471 0.56582201 0.00135468
H  -0.14087360 1.51683184 -0.02175002
H  1.38082529 0.65602985 -0.02021305
6
MD Step 124
C  -0.32751248 -0.57070536 0.00533682
H  0.17075924 -1.52432419 -0.01819505
H  -1.40307199 -0.59532952 -0.01949361
C  0.32692844 0.56656552 0.00097698
H  -0.14311306 1.51539993 -0.01953613
H  1.38238525 0.65358426 -0.01801055
6
MD Step 125
C  -0.32786026 -0.57099284 0.00497282
H  0.16845445 -1.52407709 -0.01599212
H  -1.40021500 -0.59761956 -0.01728283
C  0.32727216 0.56732698 0.00059227
H  -0.14577751 1.51440854 -0.01727694
H  1.38454592 0.65097057 -0.01576188
6