 Entering Gaussian System, Link 0=g16
 Initial command:
 /software/gaussian/g16-c01/avx2/g16/l1.exe "/gpfs/fs2/scratch/bweight/software/many_molecule_many_mode_NAMD/src/NAMD/TEST_NVT/TRAJ/traj-64/G16/GS_NEW/Gau-25750.inp" -scrdir="/gpfs/fs2/scratch/bweight/software/many_molecule_many_mode_NAMD/src/NAMD/TEST_NVT/TRAJ/traj-64/G16/GS_NEW/"
 Entering Link 1 = /software/gaussian/g16-c01/avx2/g16/l1.exe PID=     25751.
  
 Copyright (c) 1988-2019, Gaussian, Inc.  All Rights Reserved.
  
 This is part of the Gaussian(R) 16 program.  It is based on
 the Gaussian(R) 09 system (copyright 2009, Gaussian, Inc.),
 the Gaussian(R) 03 system (copyright 2003, Gaussian, Inc.),
 the Gaussian(R) 98 system (copyright 1998, Gaussian, Inc.),
 the Gaussian(R) 94 system (copyright 1995, Gaussian, Inc.),
 the Gaussian 92(TM) system (copyright 1992, Gaussian, Inc.),
 the Gaussian 90(TM) system (copyright 1990, Gaussian, Inc.),
 the Gaussian 88(TM) system (copyright 1988, Gaussian, Inc.),
 the Gaussian 86(TM) system (copyright 1986, Carnegie Mellon
 University), and the Gaussian 82(TM) system (copyright 1983,
 Carnegie Mellon University). Gaussian is a federally registered
 trademark of Gaussian, Inc.
  
 This software contains proprietary and confidential information,
 including trade secrets, belonging to Gaussian, Inc.
  
 This software is provided under written license and may be
 used, copied, transmitted, or stored only in accord with that
 written license.
  
 The following legend is applicable only to US Government
 contracts under FAR:
  
                    RESTRICTED RIGHTS LEGEND
  
 Use, reproduction and disclosure by the US Government is
 subject to restrictions as set forth in subparagraphs (a)
 and (c) of the Commercial Computer Software - Restricted
 Rights clause in FAR 52.227-19.
  
 Gaussian, Inc.
 340 Quinnipiac St., Bldg. 40, Wallingford CT 06492
  
  
 ---------------------------------------------------------------
 Warning -- This program may not be used in any manner that
 competes with the business of Gaussian, Inc. or will provide
 assistance to any competitor of Gaussian, Inc.  The licensee
 of this program is prohibited from giving any competitor of
 Gaussian, Inc. access to this program.  By using this program,
 the user acknowledges that Gaussian, Inc. is engaged in the
 business of creating and licensing software in the field of
 computational chemistry and represents and warrants to the
 licensee that it is not a competitor of Gaussian, Inc. and that
 it will not use this program in any manner prohibited above.
 ---------------------------------------------------------------
  

 Cite this work as:
 Gaussian 16, Revision C.01,
 M. J. Frisch, G. W. Trucks, H. B. Schlegel, G. E. Scuseria, 
 M. A. Robb, J. R. Cheeseman, G. Scalmani, V. Barone, 
 G. A. Petersson, H. Nakatsuji, X. Li, M. Caricato, A. V. Marenich, 
 J. Bloino, B. G. Janesko, R. Gomperts, B. Mennucci, H. P. Hratchian, 
 J. V. Ortiz, A. F. Izmaylov, J. L. Sonnenberg, D. Williams-Young, 
 F. Ding, F. Lipparini, F. Egidi, J. Goings, B. Peng, A. Petrone, 
 T. Henderson, D. Ranasinghe, V. G. Zakrzewski, J. Gao, N. Rega, 
 G. Zheng, W. Liang, M. Hada, M. Ehara, K. Toyota, R. Fukuda, 
 J. Hasegawa, M. Ishida, T. Nakajima, Y. Honda, O. Kitao, H. Nakai, 
 T. Vreven, K. Throssell, J. A. Montgomery, Jr., J. E. Peralta, 
 F. Ogliaro, M. J. Bearpark, J. J. Heyd, E. N. Brothers, K. N. Kudin, 
 V. N. Staroverov, T. A. Keith, R. Kobayashi, J. Normand, 
 K. Raghavachari, A. P. Rendell, J. C. Burant, S. S. Iyengar, 
 J. Tomasi, M. Cossi, J. M. Millam, M. Klene, C. Adamo, R. Cammi, 
 J. W. Ochterski, R. L. Martin, K. Morokuma, O. Farkas, 
 J. B. Foresman, and D. J. Fox, Gaussian, Inc., Wallingford CT, 2019.
 
 ******************************************
 Gaussian 16:  ES64L-G16RevC.01  3-Jul-2019
                11-Jan-2023 
 ******************************************
 %oldchk=../GS_OLD/geometry.chk
 %chk=geometry.chk
 %nprocshared=4
 Will use up to    4 processors via shared memory.
 %mem=5GB
 Copying data from "../GS_OLD/geometry.chk" to current chk file "geometry.chk"
 IOpt=  2 FromEx=T IUOpen= 4 IOptOp= 5 NList=   0 IFRang= 0 IUIn= 4 IUOut= 2.
 -------------------------------------------------------
 # WB97XD/6-311G SCF=XQC FORCE nosym pop=full guess=read
 -------------------------------------------------------
 1/10=7,30=1,38=1/1,3;
 2/12=2,15=1,17=6,18=5,40=1/2;
 3/5=4,6=6,11=2,25=1,30=1,71=1,74=-58,116=-2/1,2,3;
 4/5=1/1;
 5/5=2,8=3,13=1,38=6/2,8;
 6/7=3,28=1/1;
 7/29=1,30=1/1,2,3,16;
 1/10=7,30=1/3;
 99//99;
 -----------
 MD Step 999
 -----------
 Symbolic Z-matrix:
 Charge =  0 Multiplicity = 1
 C                    -0.33544  -0.57989   0.00764 
 H                     0.21747  -1.53224  -0.02672 
 H                    -1.42431  -0.59663  -0.02923 
 C                     0.33324   0.57792   0.00633 
 H                    -0.16093   1.56279  -0.03276 
 H                     1.44141   0.63701  -0.03027 
 

 GradGradGradGradGradGradGradGradGradGradGradGradGradGradGradGradGradGrad
 Berny optimization.
 Initialization pass.
 Trust Radius=3.00D-01 FncErr=1.00D-07 GrdErr=1.00D-07 EigMax=2.50D+02 EigMin=1.00D-04
 Number of steps in this run=      2 maximum allowed number of steps=      2.
 GradGradGradGradGradGradGradGradGradGradGradGradGradGradGradGradGradGrad

                          Input orientation:                          
 ---------------------------------------------------------------------
 Center     Atomic      Atomic             Coordinates (Angstroms)
 Number     Number       Type             X           Y           Z
 ---------------------------------------------------------------------
      1          6           0       -0.335438   -0.579887    0.007638
      2          1           0        0.217469   -1.532244   -0.026718
      3          1           0       -1.424311   -0.596625   -0.029227
      4          6           0        0.333243    0.577919    0.006331
      5          1           0       -0.160935    1.562787   -0.032761
      6          1           0        1.441413    0.637015   -0.030268
 ---------------------------------------------------------------------
                    Distance matrix (angstroms):
                    1          2          3          4          5
     1  C    0.000000
     2  H    1.101758   0.000000
     3  H    1.089626   1.889665   0.000000
     4  C    1.337030   2.113595   2.114193   0.000000
     5  H    2.150148   3.118084   2.501838   1.102590   0.000000
     6  H    2.153946   2.490730   3.119974   1.110347   1.850561
                    6
     6  H    0.000000
 Symmetry turned off by external request.
 Stoichiometry    C2H4
 Framework group  C1[X(C2H4)]
 Deg. of freedom    12
 Full point group                 C1      NOp   1
 Rotational constants (GHZ):         143.1713820          29.7059519          24.6126473
 Standard basis: 6-311G (5D, 7F)
    38 basis functions,    72 primitive gaussians,    38 cartesian basis functions
     8 alpha electrons        8 beta electrons
       nuclear repulsion energy        33.0671846349 Hartrees.
 NAtoms=    6 NActive=    6 NUniq=    6 SFac= 1.00D+00 NAtFMM=   60 NAOKFM=F Big=F
 Integral buffers will be    131072 words long.
 Raffenetti 2 integral format.
 Two-electron integral symmetry is turned off.
 Nuclear repulsion after empirical dispersion term =       33.0663433028 Hartrees.
 One-electron integrals computed using PRISM.
 NBasis=    38 RedAO= T EigKep=  6.41D-03  NBF=    38
 NBsUse=    38 1.00D-06 EigRej= -1.00D+00 NBFU=    38
 Initial guess from the checkpoint file:  "geometry.chk"
 B after Tr=    -0.000272   -0.000489   -0.000751
         Rot=    1.000000    0.000001    0.000001    0.000002 Ang=   0.00 deg.
 Keep R1 ints in memory in canonical form, NReq=4036876.
 Requested convergence on RMS density matrix=1.00D-08 within  32 cycles.
 Requested convergence on MAX density matrix=1.00D-06.
 Requested convergence on             energy=1.00D-06.
 No special actions if energy rises.
 SCF Done:  E(RwB97XD) =  -78.5558683740     A.U. after    8 cycles
            NFock=  8  Conv=0.72D-08     -V/T= 2.0052
 QCSCF skips out because SCF is already converged.

 **********************************************************************

            Population analysis using the SCF Density.

 **********************************************************************

 Alpha  occ. eigenvalues --  -10.28999 -10.28855  -0.86390  -0.67193  -0.55886
 Alpha  occ. eigenvalues --   -0.50964  -0.43623  -0.35707
 Alpha virt. eigenvalues --    0.07991   0.14087   0.16441   0.17000   0.24090
 Alpha virt. eigenvalues --    0.37529   0.39280   0.39784   0.46403   0.48788
 Alpha virt. eigenvalues --    0.49364   0.59113   0.66522   0.69022   0.77303
 Alpha virt. eigenvalues --    0.77522   0.84082   0.95305   2.23197   2.28984
 Alpha virt. eigenvalues --    2.33240   2.40552   2.67139   2.81715   2.87886
 Alpha virt. eigenvalues --    2.95164   3.14093   3.31719  23.35160  23.70654
     Molecular Orbital Coefficients:
                           1         2         3         4         5
                           O         O         O         O         O
     Eigenvalues --   -10.28999 -10.28855  -0.86390  -0.67193  -0.55886
   1 1   C  1S          0.18235   0.53308  -0.08817   0.06703  -0.00029
   2        2S          0.15027   0.43867  -0.13934   0.10738  -0.00047
   3        2PX         0.00016  -0.00004   0.02637   0.03662   0.13643
   4        2PY         0.00027  -0.00006   0.04672   0.06004  -0.07209
   5        2PZ        -0.00000  -0.00001  -0.00142   0.00215   0.00038
   6        3S          0.00389   0.01408   0.37370  -0.29304   0.00124
   7        3PX        -0.00054   0.00052   0.03469   0.05877   0.21371
   8        3PY        -0.00091   0.00092   0.06095   0.09747  -0.11393
   9        3PZ        -0.00002  -0.00003  -0.00238   0.00387   0.00056
  10        4S          0.00111  -0.01499   0.19141  -0.22841   0.00035
  11        4PX         0.00125  -0.00177   0.00504   0.02383   0.11156
  12        4PY         0.00214  -0.00301   0.00868   0.04033  -0.06017
  13        4PZ         0.00002   0.00009  -0.00086   0.00197   0.00028
  14 2   H  1S         -0.00005  -0.00005   0.05187  -0.08731   0.10016
  15        2S         -0.00028   0.00015   0.05319  -0.10551   0.12725
  16        3S          0.00105   0.00153  -0.00167  -0.01525   0.04123
  17 3   H  1S         -0.00006  -0.00006   0.05300  -0.09119  -0.10373
  18        2S         -0.00028   0.00012   0.05397  -0.10914  -0.13066
  19        3S          0.00108   0.00155  -0.00173  -0.01611  -0.04221
  20 4   C  1S          0.53303  -0.18253  -0.08714  -0.06807   0.00001
  21        2S          0.43876  -0.15003  -0.13762  -0.10916   0.00003
  22        2PX        -0.00004  -0.00016  -0.02746   0.03765   0.11924
  23        2PY        -0.00008  -0.00027  -0.04680   0.06667  -0.07564
  24        2PZ        -0.00000   0.00000  -0.00127  -0.00243   0.00037
  25        3S          0.01341  -0.00553   0.36870   0.29822  -0.00013
  26        3PX        -0.00010   0.00075  -0.03447   0.06099   0.18688
  27        3PY        -0.00015   0.00129  -0.05888   0.10748  -0.11742
  28        3PZ        -0.00004   0.00000  -0.00218  -0.00435   0.00057
  29        4S         -0.01093   0.01013   0.18918   0.23668  -0.00148
  30        4PX         0.00058  -0.00201  -0.00524   0.02622   0.10204
  31        4PY         0.00099  -0.00354  -0.00901   0.04545  -0.06366
  32        4PZ         0.00008  -0.00003  -0.00087  -0.00222   0.00030
  33 5   H  1S         -0.00007  -0.00003   0.05016   0.09346  -0.09204
  34        2S         -0.00007  -0.00030   0.05131   0.11146  -0.11612
  35        3S          0.00181  -0.00011  -0.00119   0.01674  -0.03733
  36 6   H  1S         -0.00006  -0.00003   0.04936   0.09159   0.08706
  37        2S         -0.00007  -0.00032   0.05082   0.10984   0.11037
  38        3S          0.00178  -0.00013  -0.00118   0.01628   0.03588
                           6         7         8         9        10
                           O         O         O         V         V
     Eigenvalues --    -0.50964  -0.43623  -0.35707   0.07991   0.14087
   1 1   C  1S         -0.00395   0.00024  -0.00107   0.00309  -0.03388
   2        2S         -0.00595   0.00042  -0.00175   0.00513  -0.05436
   3        2PX         0.09363  -0.11226  -0.00399   0.00180  -0.03082
   4        2PY         0.16834   0.06672  -0.00654   0.00272  -0.06553
   5        2PZ         0.00583  -0.00010   0.17939  -0.18899  -0.00287
   6        3S          0.02216  -0.00106   0.00509  -0.01554   0.11854
   7        3PX         0.13595  -0.17952  -0.00564   0.00272  -0.03587
   8        3PY         0.24618   0.10691  -0.00920   0.00407  -0.08087
   9        3PZ         0.00924  -0.00013   0.28823  -0.27777  -0.00457
  10        4S         -0.05192  -0.00355   0.00795  -0.01718   1.22783
  11        4PX         0.06842  -0.11187  -0.00453   0.01507  -0.19220
  12        4PY         0.12530   0.06779  -0.00738   0.02392  -0.39257
  13        4PZ         0.00524  -0.00002   0.26684  -0.69545  -0.01644
  14 2   H  1S         -0.08073  -0.11648   0.00020   0.00476  -0.01744
  15        2S         -0.11186  -0.18050   0.00227   0.00746  -0.04832
  16        3S         -0.04186  -0.08374   0.00138   0.02024  -0.84654
  17 3   H  1S         -0.07892   0.11363   0.00015   0.00478  -0.01315
  18        2S         -0.10866   0.17542   0.00223   0.00771  -0.03802
  19        3S         -0.04027   0.08127   0.00136   0.02017  -0.77364
  20 4   C  1S         -0.00805  -0.00051  -0.00100  -0.00307  -0.03573
  21        2S         -0.01259  -0.00085  -0.00163  -0.00509  -0.05737
  22        2PX        -0.09927   0.12313   0.00373   0.00182   0.04132
  23        2PY        -0.16164  -0.07304   0.00701   0.00361   0.06065
  24        2PZ         0.00614   0.00032   0.17916   0.18925  -0.00340
  25        3S          0.04088   0.00249   0.00481   0.01525   0.12639
  26        3PX        -0.14683   0.19706   0.00521   0.00279   0.05106
  27        3PY        -0.23730  -0.11642   0.00987   0.00552   0.07207
  28        3PZ         0.00972   0.00048   0.28696   0.27765  -0.00518
  29        4S         -0.03092   0.00282   0.00751   0.01792   1.23642
  30        4PX        -0.07648   0.12598   0.00405   0.01431   0.26514
  31        4PY        -0.12226  -0.07321   0.00790   0.02694   0.40508
  32        4PZ         0.00563   0.00028   0.26711   0.69620  -0.02044
  33 5   H  1S         -0.07418  -0.12359   0.00023  -0.00470  -0.01180
  34        2S         -0.10126  -0.19258   0.00246  -0.00791  -0.03665
  35        3S         -0.03773  -0.09052   0.00134  -0.02035  -0.80867
  36 6   H  1S         -0.08056   0.12337   0.00017  -0.00471  -0.01580
  37        2S         -0.11045   0.19293   0.00237  -0.00782  -0.04723
  38        3S         -0.04139   0.09053   0.00129  -0.02043  -0.88198
                          11        12        13        14        15
                           V         V         V         V         V
     Eigenvalues --     0.16441   0.17000   0.24090   0.37529   0.39280
   1 1   C  1S          0.00076  -0.04506  -0.00006   0.01073   0.00178
   2        2S          0.00120  -0.07344  -0.00009   0.01510   0.00304
   3        2PX         0.09839  -0.02148   0.09991  -0.03654  -0.02637
   4        2PY        -0.05398  -0.03651  -0.05737  -0.06779   0.00726
   5        2PZ         0.00015  -0.00755   0.00011  -0.00529  -0.00026
   6        3S         -0.00240   0.16593   0.00020   0.02915  -0.00705
   7        3PX         0.14110  -0.01368   0.10665  -0.04819  -0.11260
   8        3PY        -0.07820  -0.02384  -0.06212  -0.09460   0.03862
   9        3PZ         0.00022  -0.01044   0.00006  -0.01042  -0.00029
  10        4S         -0.04339   1.41808  -0.00425  -2.76314  -0.27025
  11        4PX         0.58060  -0.12789   1.16449  -1.58240  -0.53888
  12        4PY        -0.30939  -0.19930  -0.65767  -2.77170   0.12978
  13        4PZ         0.00102  -0.04942   0.00187  -0.04920  -0.00334
  14 2   H  1S         -0.03008  -0.02530   0.01224  -0.05580   0.07717
  15        2S         -0.07997  -0.01701  -0.02454  -0.64064   0.79429
  16        3S         -1.03087  -0.97601  -1.53828  -0.32526  -0.36314
  17 3   H  1S          0.02901  -0.02547  -0.01448  -0.04757  -0.07629
  18        2S          0.07894  -0.02283   0.01889  -0.57772  -0.75310
  19        3S          1.08518  -1.01761   1.55685  -0.40394   0.26675
  20 4   C  1S          0.00201   0.04284   0.00003  -0.01974   0.00001
  21        2S          0.00324   0.06976   0.00003  -0.03220   0.00038
  22        2PX         0.09953  -0.02428  -0.10052  -0.04180  -0.03007
  23        2PY        -0.06205  -0.03700   0.05758  -0.07355   0.01348
  24        2PZ         0.00042   0.00757  -0.00011   0.00415   0.00049
  25        3S         -0.00671  -0.15525   0.00025   0.03737  -0.00943
  26        3PX         0.14359  -0.01973  -0.11337  -0.09262  -0.10439
  27        3PY        -0.08781  -0.02599   0.06398  -0.16644   0.06342
  28        3PZ         0.00060   0.01046  -0.00007   0.00555   0.00102
  29        4S         -0.08429  -1.35412  -0.00387   3.38704   0.19191
  30        4PX         0.53367  -0.12295  -1.12490  -1.24006  -0.60350
  31        4PY        -0.33871  -0.19989   0.65964  -2.17134   0.02156
  32        4PZ         0.00256   0.04917  -0.00184   0.04047   0.00398
  33 5   H  1S          0.03174   0.02426   0.00717   0.01239  -0.07838
  34        2S          0.07086   0.02158  -0.03140   0.09588  -0.75699
  35        3S          1.09642   0.94018  -1.52700   0.46074   0.46384
  36 6   H  1S         -0.03090   0.02571  -0.00587   0.00777   0.08785
  37        2S         -0.07009   0.02014   0.03206   0.05065   0.90603
  38        3S         -0.98305   0.96652   1.52118   0.47366  -0.42670
                          16        17        18        19        20
                           V         V         V         V         V
     Eigenvalues --     0.39784   0.46403   0.48788   0.49364   0.59113
   1 1   C  1S         -0.01757   0.01035   0.04752   0.00040  -0.00067
   2        2S         -0.03112   0.02541   0.07993   0.00097  -0.00121
   3        2PX         0.02330  -0.05990  -0.01443   0.00130   0.00246
   4        2PY         0.04568  -0.10590  -0.02087   0.00168   0.00359
   5        2PZ         0.00002  -0.00066  -0.00319  -0.15196  -0.19253
   6        3S          0.07792  -0.33271  -0.11333  -0.01184  -0.00001
   7        3PX         0.09337  -0.23923   0.02161   0.00172   0.00836
   8        3PY         0.18801  -0.42017   0.04493   0.00084   0.01212
   9        3PZ        -0.00509  -0.00514  -0.01571  -0.62870  -0.68461
  10        4S          2.45673   0.21959  -3.13494   0.04794   0.07776
  11        4PX         0.12010   0.26342  -0.80853   0.01784   0.02259
  12        4PY         0.29048   0.47493  -1.38588   0.03359   0.04398
  13        4PZ        -0.00164  -0.00080   0.08762   0.68693   1.24047
  14 2   H  1S         -0.02512  -0.03881   0.07463  -0.00166  -0.00186
  15        2S         -0.52544  -0.37569   0.89726  -0.01258  -0.01267
  16        3S          0.26958   0.10634  -0.64070   0.02272   0.02648
  17 3   H  1S         -0.03858  -0.03943   0.07343  -0.00161  -0.00185
  18        2S         -0.65438  -0.38001   0.87086  -0.01234  -0.01251
  19        3S          0.30439   0.10116  -0.61761   0.02240   0.02594
  20 4   C  1S         -0.00224  -0.00043  -0.05074   0.00260   0.00075
  21        2S         -0.00724   0.00705  -0.08783   0.00476   0.00139
  22        2PX         0.00565   0.05679  -0.02555  -0.00035   0.00222
  23        2PY         0.01403   0.09661  -0.04518  -0.00102   0.00441
  24        2PZ        -0.00414  -0.00189  -0.00339  -0.15249   0.19239
  25        3S          0.08095  -0.29645   0.21327  -0.02012  -0.00213
  26        3PX        -0.05197   0.24001  -0.04460  -0.00069   0.00769
  27        3PY        -0.06970   0.41235  -0.07600  -0.00303   0.01533
  28        3PZ        -0.01210  -0.00794  -0.01142  -0.63078   0.68305
  29        4S         -0.62807   0.66098   3.14822  -0.07352  -0.07102
  30        4PX         1.14342  -0.32601  -0.64368   0.00582   0.02641
  31        4PY         2.10227  -0.55888  -1.11509   0.01092   0.04094
  32        4PZ        -0.03658  -0.01708  -0.05409   0.69320  -1.23863
  33 5   H  1S         -0.05191  -0.05984  -0.06677   0.00167   0.00184
  34        2S         -0.87886  -0.60359  -0.82966   0.02741   0.00823
  35        3S         -0.14053   0.24100   0.56891  -0.00166  -0.02621
  36 6   H  1S         -0.03828  -0.06000  -0.06618   0.00166   0.00183
  37        2S         -0.72765  -0.60725  -0.82773   0.02694   0.00772
  38        3S         -0.19412   0.25754   0.57832  -0.00223  -0.02634
                          21        22        23        24        25
                           V         V         V         V         V
     Eigenvalues --     0.66522   0.69022   0.77303   0.77522   0.84082
   1 1   C  1S          0.00083  -0.00080   0.06537   0.06067   0.00116
   2        2S          0.00176  -0.00168   0.13832   0.12953   0.00272
   3        2PX        -0.13671   0.19464  -0.00137   0.11733  -0.00842
   4        2PY         0.07956  -0.11705  -0.00444   0.19038   0.01599
   5        2PZ        -0.00021   0.00028   0.00181   0.00520   0.00014
   6        3S         -0.01519   0.01761  -0.99585  -1.16354  -0.03169
   7        3PX        -0.63054   0.67506  -0.07994   0.47625  -0.22521
   8        3PY         0.36281  -0.40686  -0.14643   0.76139   0.17468
   9        3PZ        -0.00106   0.00102   0.00655   0.01817   0.00023
  10        4S          0.02560  -0.04829   1.22776   2.28149   0.06519
  11        4PX         1.11662  -0.72591   0.02094  -0.80586   4.48468
  12        4PY        -0.64024   0.46776  -0.00643  -1.00435  -2.52006
  13        4PZ         0.00139   0.00110  -0.00234  -0.06306   0.00837
  14 2   H  1S          0.02450  -0.05862   0.01707   0.02969  -0.02508
  15        2S          0.13892  -0.63077   0.08337   0.07855  -1.53773
  16        3S         -1.05747   1.08270  -0.32110  -1.03770  -1.21443
  17 3   H  1S         -0.02363   0.05777   0.01748   0.03023   0.02936
  18        2S         -0.15520   0.65624   0.11036   0.02369   1.57883
  19        3S          1.04913  -1.03069  -0.33186  -1.20787   1.20572
  20 4   C  1S          0.00107  -0.00029   0.08889   0.01256   0.00063
  21        2S          0.00221  -0.00058   0.18902   0.02595   0.00118
  22        2PX        -0.14717  -0.18882  -0.08343   0.07076   0.01361
  23        2PY         0.08490   0.10500  -0.14960   0.13037   0.00179
  24        2PZ        -0.00020  -0.00030   0.00547  -0.00236  -0.00015
  25        3S         -0.01641  -0.00027  -1.54118  -0.04725  -0.00046
  26        3PX        -0.66821  -0.64203  -0.28525   0.34134   0.24893
  27        3PY         0.38832   0.35383  -0.51820   0.63108  -0.09767
  28        3PZ        -0.00101  -0.00100   0.01924  -0.00863  -0.00014
  29        4S          0.01046   0.01634   2.63884  -0.47523  -0.07904
  30        4PX         1.25359   0.74713   0.44522  -0.30061  -4.18648
  31        4PY        -0.72538  -0.38901   0.86010  -0.87005   2.43383
  32        4PZ         0.00190  -0.00076  -0.05280   0.04112  -0.00750
  33 5   H  1S         -0.02429  -0.05595   0.03435  -0.00441  -0.02390
  34        2S         -0.13692  -0.58233   0.08817   0.07287  -1.42830
  35        3S          1.09812   0.99090  -1.08265   0.54167  -1.10908
  36 6   H  1S          0.02515   0.05602   0.03410  -0.00402   0.02284
  37        2S          0.13203   0.56020   0.08654  -0.00328   1.41322
  38        3S         -1.10145  -1.02210  -1.02305   0.43254   1.12602
                          26        27        28        29        30
                           V         V         V         V         V
     Eigenvalues --     0.95305   2.23197   2.28984   2.33240   2.40552
   1 1   C  1S          0.09559  -0.01000  -0.01407   0.00038  -0.00046
   2        2S          0.19862   0.00167  -0.01392   0.00077  -0.00065
   3        2PX        -0.09185  -0.08379  -0.13164   0.34338  -0.40912
   4        2PY        -0.15892  -0.15715  -0.23149  -0.19447   0.22752
   5        2PZ         0.00009  -0.01500  -0.02048   0.00043  -0.00113
   6        3S         -1.53843  -0.18455  -0.03490  -0.00039  -0.00395
   7        3PX        -0.23536   0.08401   0.20913  -0.41469   0.57252
   8        3PY        -0.39957   0.17094   0.38067   0.23742  -0.31870
   9        3PZ        -0.00305   0.01512   0.02572  -0.00036   0.00136
  10        4S          5.71754  -0.10846  -0.88617  -0.00095  -0.00064
  11        4PX         1.21102   0.04899  -0.18291  -0.03365   0.96027
  12        4PY         1.98554   0.06420  -0.36085   0.00826  -0.51857
  13        4PZ        -0.01983   0.00328   0.00894  -0.00030   0.00262
  14 2   H  1S          0.01581  -0.71772  -0.78364  -0.70913   0.65202
  15        2S         -0.29554   1.02217   1.17309   1.08688  -1.44554
  16        3S         -0.09314  -0.31054  -0.47329  -0.47807   0.37863
  17 3   H  1S          0.01626  -0.70640  -0.78302   0.70247  -0.67144
  18        2S         -0.26257   1.00680   1.18093  -1.07995   1.48799
  19        3S         -0.06670  -0.28836  -0.45383   0.46756  -0.36789
  20 4   C  1S         -0.09416  -0.01048   0.01243   0.00043   0.00025
  21        2S         -0.19537   0.00014   0.01259   0.00052   0.00057
  22        2PX        -0.09253   0.13024  -0.12715   0.30627   0.41429
  23        2PY        -0.15994   0.22458  -0.21033  -0.17881  -0.24262
  24        2PZ         0.00025  -0.01718   0.02031   0.00073   0.00071
  25        3S          1.51010  -0.17035   0.01858   0.00128  -0.00061
  26        3PX        -0.22876  -0.16359   0.21679  -0.37984  -0.57961
  27        3PY        -0.40087  -0.27836   0.35374   0.21983   0.34136
  28        3PZ         0.00396   0.01835  -0.02587  -0.00081  -0.00097
  29        4S         -5.70155  -0.16786   0.89072   0.01533  -0.01525
  30        4PX         1.10246  -0.01921  -0.20729   0.09615  -0.85501
  31        4PY         2.00219  -0.03665  -0.31954  -0.05480   0.51384
  32        4PZ         0.01568   0.00548  -0.00768  -0.00000  -0.00229
  33 5   H  1S         -0.01779  -0.78192   0.68471   0.70376   0.68749
  34        2S          0.28523   1.13343  -1.04681  -1.02589  -1.46411
  35        3S          0.05500  -0.34946   0.40429   0.50401   0.42317
  36 6   H  1S         -0.01760  -0.77853   0.70576  -0.68711  -0.68680
  37        2S          0.31265   1.12759  -1.06934   0.99940   1.45553
  38        3S          0.07401  -0.35039   0.43412  -0.49843  -0.43237
                          31        32        33        34        35
                           V         V         V         V         V
     Eigenvalues --     2.67139   2.81715   2.87886   2.95164   3.14093
   1 1   C  1S          0.00055   0.00286  -0.01331  -0.00003  -0.00926
   2        2S          0.00040   0.00839  -0.04452  -0.00043  -0.02873
   3        2PX         0.00655   0.08148  -0.45579  -0.73613   0.45857
   4        2PY         0.00878   0.14368  -0.83743   0.41636   0.79413
   5        2PZ        -0.92464  -0.92645  -0.15797  -0.00218   0.00800
   6        3S         -0.00146  -0.07001   0.39289   0.00609   0.24347
   7        3PX        -0.00496  -0.14233   0.81723   0.88562  -0.44919
   8        3PY        -0.00622  -0.24885   1.46734  -0.48491  -0.77365
   9        3PZ         0.93975   1.13265   0.19857   0.00287  -0.01012
  10        4S          0.01416   0.16066  -0.87631  -0.01481  -0.47445
  11        4PX        -0.00207   0.11475  -0.70562  -0.67255   0.23324
  12        4PY        -0.00330   0.20203  -1.26375   0.35424   0.39777
  13        4PZ        -0.33838  -0.61269  -0.12616  -0.00223   0.00631
  14 2   H  1S          0.01368  -0.02398   0.26790  -0.38209  -0.21648
  15        2S         -0.01573   0.01607  -0.22696   0.39510   0.16480
  16        3S         -0.00308   0.04628  -0.29637   0.26568   0.06216
  17 3   H  1S          0.01393  -0.02371   0.25900   0.38227  -0.22082
  18        2S         -0.01632   0.01480  -0.21220  -0.39147   0.16716
  19        3S         -0.00355   0.04602  -0.29341  -0.28339   0.07505
  20 4   C  1S          0.00060  -0.00282   0.01342   0.00045  -0.00753
  21        2S          0.00060  -0.00870   0.04727   0.00108  -0.02357
  22        2PX        -0.00781   0.07503  -0.41716  -0.80144  -0.49306
  23        2PY        -0.01571   0.13329  -0.73351   0.43712  -0.88471
  24        2PZ        -0.92472   0.92543   0.16232   0.00011   0.01469
  25        3S         -0.00344   0.07456  -0.42555  -0.00804   0.20279
  26        3PX         0.00819  -0.13580   0.77965   0.95634   0.52200
  27        3PY         0.01619  -0.23943   1.36493  -0.51403   0.94753
  28        3PZ         0.94000  -1.13145  -0.20433  -0.00017  -0.01864
  29        4S          0.01843  -0.16291   0.89502   0.02557  -0.38625
  30        4PX        -0.00061   0.11519  -0.71159  -0.69570  -0.30919
  31        4PY        -0.00238   0.20060  -1.23721   0.37102  -0.57410
  32        4PZ        -0.33854   0.61179   0.13048   0.00006   0.01440
  33 5   H  1S          0.01335   0.03016  -0.29271   0.41072  -0.26302
  34        2S         -0.01638  -0.02391   0.26513  -0.42091   0.20695
  35        3S         -0.00175  -0.04356   0.28261  -0.24781   0.12327
  36 6   H  1S          0.01345   0.02990  -0.28651  -0.42526  -0.24463
  37        2S         -0.01688  -0.02440   0.26239   0.43413   0.18959
  38        3S         -0.00144  -0.04250   0.27265   0.25162   0.10978
                          36        37        38
                           V         V         V
     Eigenvalues --     3.31719  23.35160  23.70654
   1 1   C  1S         -0.00025  -1.41981  -1.44659
   2        2S         -0.00027   1.51420   1.56439
   3        2PX         0.78112  -0.00644   0.01219
   4        2PY        -0.43059  -0.01053   0.02126
   5        2PZ         0.00185  -0.00061  -0.00025
   6        3S         -0.00275  -0.29722  -0.39846
   7        3PX        -1.11593   0.02379  -0.05605
   8        3PY         0.60947   0.03949  -0.09721
   9        3PZ        -0.00277   0.00174   0.00075
  10        4S          0.01191   0.27567   0.76906
  11        4PX         1.95391  -0.02529   0.13472
  12        4PY        -1.06174  -0.04310   0.22937
  13        4PZ         0.00473  -0.00288  -0.00328
  14 2   H  1S          0.54938   0.01271   0.00653
  15        2S         -0.85390   0.00773  -0.01485
  16        3S         -0.44955  -0.08347  -0.03946
  17 3   H  1S         -0.56175   0.01445   0.00742
  18        2S          0.87161   0.00764  -0.01415
  19        3S          0.47892  -0.08582  -0.03866
  20 4   C  1S         -0.00009  -1.44177   1.42459
  21        2S         -0.00050   1.53766  -1.54064
  22        2PX        -0.71662   0.00606   0.01252
  23        2PY         0.41394   0.01082   0.02146
  24        2PZ        -0.00155  -0.00064   0.00018
  25        3S          0.00724  -0.30153   0.39235
  26        3PX         1.01847  -0.02253  -0.05648
  27        3PY        -0.59947  -0.03989  -0.09744
  28        3PZ         0.00232   0.00184  -0.00047
  29        4S         -0.03729   0.27756  -0.76347
  30        4PX        -1.78187   0.02410   0.13044
  31        4PY         1.06538   0.04349   0.22860
  32        4PZ        -0.00409  -0.00302   0.00273
  33 5   H  1S          0.49447   0.01339  -0.00490
  34        2S         -0.76927   0.00812   0.01345
  35        3S         -0.43508  -0.08349   0.03708
  36 6   H  1S         -0.49036   0.01225  -0.00420
  37        2S          0.76385   0.00884   0.01388
  38        3S          0.42114  -0.08169   0.03763
     Density Matrix:
                           1         2         3         4         5
   1 1   C  1S          0.65941
   2        2S          0.56151   0.49199
   3        2PX        -0.00059  -0.00079   0.08406
   4        2PY        -0.00140  -0.00195   0.00379   0.08763
   5        2PZ         0.00010   0.00016  -0.00013  -0.00033   0.06444
   6        3S         -0.08894  -0.15384   0.00294   0.00680  -0.00024
   7        3PX         0.00085   0.00130   0.13025   0.00138  -0.00009
   8        3PY         0.00116   0.00178   0.00143   0.13109  -0.00029
   9        3PZ         0.00020   0.00034  -0.00023  -0.00052   0.10354
  10        4S         -0.07956  -0.11462  -0.01552  -0.02765   0.00072
  11        4PX         0.00022   0.00154   0.07042  -0.00458  -0.00063
  12        4PY         0.00054   0.00290  -0.00470   0.06566  -0.00110
  13        4PZ        -0.00010  -0.00025  -0.00097  -0.00162   0.09581
  14 2   H  1S         -0.02040  -0.03249   0.03470  -0.06280  -0.00130
  15        2S         -0.02274  -0.03638   0.04936  -0.08782  -0.00096
  16        3S          0.00053  -0.00077   0.02100  -0.03322  -0.00000
  17 3   H  1S         -0.02092  -0.03329  -0.07248  -0.00245  -0.00151
  18        2S         -0.02311  -0.03690  -0.10055  -0.00243  -0.00122
  19        3S          0.00057  -0.00071  -0.03859   0.00126  -0.00010
  20 4   C  1S          0.00609   0.00982  -0.01078  -0.01877  -0.00049
  21        2S          0.00979   0.01530  -0.01725  -0.03004  -0.00081
  22        2PX         0.01047   0.01675  -0.01242  -0.03228   0.00049
  23        2PY         0.01814   0.02900  -0.03215  -0.04972   0.00101
  24        2PZ        -0.00053  -0.00087  -0.00049  -0.00070   0.06434
  25        3S         -0.02637  -0.04003   0.04831   0.08432   0.00244
  26        3PX         0.01616   0.02506  -0.01814  -0.04605   0.00062
  27        3PY         0.02799   0.04338  -0.04565  -0.07122   0.00134
  28        3PZ        -0.00090  -0.00146  -0.00086  -0.00123   0.10305
  29        4S          0.00541   0.00405   0.02042   0.03617   0.00281
  30        4PX         0.00311   0.00641  -0.01315  -0.02105   0.00074
  31        4PY         0.00523   0.01089  -0.02104  -0.03724   0.00160
  32        4PZ        -0.00077  -0.00124  -0.00127  -0.00195   0.09589
  33 5   H  1S          0.00421   0.00691  -0.00177  -0.01229  -0.00057
  34        2S          0.00632   0.01049   0.00344  -0.02490  -0.00001
  35        3S          0.00327   0.00478   0.00423  -0.01752   0.00011
  36 6   H  1S          0.00417   0.00685  -0.00972  -0.00760  -0.00059
  37        2S          0.00630   0.01049  -0.02318  -0.00945  -0.00007
  38        3S          0.00325   0.00478  -0.01717  -0.00520   0.00006
                           6         7         8         9        10
   6        3S          0.45252
   7        3PX        -0.00163   0.20215
   8        3PY        -0.00125  -0.00435   0.19663
   9        3PZ        -0.00071  -0.00016  -0.00044   0.16637
  10        4S          0.27430  -0.02636  -0.04777   0.00094   0.18361
  11        4PX        -0.00674   0.10965  -0.01031  -0.00103  -0.01520
  12        4PY        -0.01204  -0.01057   0.09895  -0.00175  -0.02866
  13        4PZ         0.00116  -0.00129  -0.00212   0.15394   0.00247
  14 2   H  1S          0.08685   0.05601  -0.09818  -0.00216   0.06903
  15        2S          0.09736   0.08005  -0.13679  -0.00164   0.08158
  16        3S          0.00618   0.03439  -0.05111  -0.00002   0.01127
  17 3   H  1S          0.08906  -0.11364  -0.00224  -0.00248   0.06927
  18        2S          0.09882  -0.15748  -0.00096  -0.00202   0.08050
  19        3S          0.00615  -0.06020   0.00380  -0.00015   0.01025
  20 4   C  1S         -0.02660  -0.01680  -0.02926  -0.00085   0.00522
  21        2S         -0.04027  -0.02610  -0.04549  -0.00137   0.00394
  22        2PX        -0.04692  -0.01776  -0.04579   0.00084  -0.01813
  23        2PY        -0.08119  -0.04555  -0.07080   0.00173  -0.03100
  24        2PZ         0.00257  -0.00068  -0.00092   0.10338   0.00283
  25        3S          0.10260   0.07073   0.12365   0.00408   0.00092
  26        3PX        -0.06790  -0.02608  -0.06514   0.00108  -0.02702
  27        3PY        -0.11743  -0.06447  -0.10138   0.00231  -0.04614
  28        3PZ         0.00427  -0.00119  -0.00164   0.16558   0.00470
  29        4S          0.00158   0.03083   0.05482   0.00469  -0.03272
  30        4PX        -0.02270  -0.01974  -0.02958   0.00123  -0.00674
  31        4PY        -0.03880  -0.02955  -0.05374   0.00264  -0.01081
  32        4PZ         0.00362  -0.00178  -0.00269   0.15407   0.00434
  33 5   H  1S         -0.02054  -0.00067  -0.01765  -0.00083  -0.01497
  34        2S         -0.03133   0.00861  -0.03664   0.00008  -0.01943
  35        3S         -0.01225   0.00815  -0.02633   0.00019  -0.00354
  36 6   H  1S         -0.02040  -0.01480  -0.00925  -0.00085  -0.01539
  37        2S         -0.03141  -0.03572  -0.01071   0.00001  -0.02050
  38        3S         -0.01234  -0.02661  -0.00620   0.00013  -0.00418
                          11        12        13        14        15
  11        4PX         0.06052
  12        4PY        -0.00935   0.05138
  13        4PZ        -0.00155  -0.00252   0.14247
  14 2   H  1S          0.03372  -0.05422  -0.00111   0.08086
  15        2S          0.04896  -0.07544  -0.00039   0.10954   0.15051
  16        3S          0.02145  -0.02809   0.00027   0.03702   0.05314
  17 3   H  1S         -0.06318   0.00167  -0.00126  -0.01308  -0.02488
  18        2S         -0.08795   0.00437  -0.00055  -0.02483  -0.04349
  19        3S         -0.03391   0.00465   0.00021  -0.01825  -0.02785
  20 4   C  1S         -0.00312  -0.00570  -0.00075   0.00423   0.00672
  21        2S         -0.00647  -0.01166  -0.00120   0.00699   0.01122
  22        2PX        -0.01304  -0.02003   0.00121   0.00181  -0.00274
  23        2PY        -0.02001  -0.03684   0.00235   0.01147   0.02426
  24        2PZ        -0.00090  -0.00132   0.09567  -0.00063  -0.00020
  25        3S          0.02295   0.04107   0.00353  -0.02103  -0.03377
  26        3PX        -0.01997  -0.02833   0.00163   0.00101  -0.00724
  27        3PY        -0.02819  -0.05363   0.00324   0.01704   0.03634
  28        3PZ        -0.00148  -0.00219   0.15323  -0.00092  -0.00021
  29        4S          0.00787   0.01497   0.00429  -0.01766  -0.02425
  30        4PX        -0.01471  -0.01239   0.00152  -0.00168  -0.00847
  31        4PY        -0.01254  -0.02949   0.00310   0.01518   0.02707
  32        4PZ        -0.00176  -0.00272   0.14260  -0.00051   0.00031
  33 5   H  1S          0.00192  -0.01586  -0.00042   0.01122   0.02340
  34        2S          0.00913  -0.02767   0.00054   0.02381   0.04457
  35        3S          0.00754  -0.01592   0.00037   0.01665   0.02796
  36 6   H  1S         -0.01434  -0.00570  -0.00044  -0.00917  -0.01844
  37        2S         -0.02792  -0.00510   0.00050  -0.01891  -0.03461
  38        3S         -0.01716  -0.00114   0.00034  -0.01018  -0.01785
                          16        17        18        19        20
  16        3S          0.02141
  17 3   H  1S         -0.01837   0.08205
  18        2S         -0.02790   0.10975   0.14896
  19        3S         -0.01321   0.03634   0.05163   0.02055
  20 4   C  1S          0.00368   0.00429   0.00667   0.00365   0.65947
  21        2S          0.00544   0.00707   0.01111   0.00535   0.56157
  22        2PX        -0.00353   0.00913   0.02244   0.01683   0.00114
  23        2PY         0.01767   0.00749   0.00970   0.00556   0.00176
  24        2PZ         0.00004  -0.00061  -0.00013   0.00009   0.00009
  25        3S         -0.01416  -0.02116  -0.03326  -0.01373  -0.08922
  26        3PX        -0.00703   0.01441   0.03520   0.02625  -0.00052
  27        3PY         0.02663   0.00952   0.01164   0.00687  -0.00108
  28        3PZ         0.00009  -0.00090  -0.00010   0.00017   0.00020
  29        4S         -0.00583  -0.01728  -0.02311  -0.00518  -0.08007
  30        4PX        -0.00706   0.01419   0.02788   0.01720  -0.00021
  31        4PY         0.01590   0.00663   0.00666   0.00190  -0.00024
  32        4PZ         0.00032  -0.00050   0.00038   0.00037  -0.00007
  33 5   H  1S          0.01630  -0.00901  -0.01817  -0.00953  -0.02021
  34        2S          0.02759  -0.01858  -0.03400  -0.01711  -0.02226
  35        3S          0.01474  -0.01005  -0.01758  -0.00905   0.00060
  36 6   H  1S         -0.00970   0.01122   0.02338   0.01607  -0.01995
  37        2S         -0.01748   0.02373   0.04437   0.02723  -0.02218
  38        3S         -0.00922   0.01657   0.02770   0.01451   0.00051
                          21        22        23        24        25
  21        2S          0.49207
  22        2PX         0.00163   0.08283
  23        2PY         0.00251   0.00371   0.08774
  24        2PZ         0.00014   0.00017   0.00022   0.06429
  25        3S         -0.15421  -0.00529  -0.00824  -0.00015   0.45357
  26        3PX        -0.00078   0.12877   0.00184   0.00012  -0.00007
  27        3PY        -0.00164   0.00184   0.13147   0.00009   0.00081
  28        3PZ         0.00034   0.00026   0.00035   0.10297  -0.00064
  29        4S         -0.11562   0.01397   0.02376   0.00069   0.27782
  30        4PX        -0.00146   0.07283  -0.00507   0.00055   0.00620
  31        4PY        -0.00233  -0.00496   0.06687   0.00104   0.01025
  32        4PZ        -0.00021   0.00090   0.00163   0.09579   0.00107
  33 5   H  1S         -0.03219  -0.03337   0.06373  -0.00156   0.08607
  34        2S         -0.03556  -0.04942   0.08853  -0.00124   0.09513
  35        3S         -0.00061  -0.02237   0.03343  -0.00015   0.00564
  36 6   H  1S         -0.03180   0.07132   0.00245  -0.00136   0.08503
  37        2S         -0.03548   0.10126   0.00075  -0.00097   0.09492
  38        3S         -0.00074   0.04037  -0.00297  -0.00004   0.00596
                          26        27        28        29        30
  26        3PX         0.20051
  27        3PY        -0.00281   0.19755
  28        3PZ         0.00016   0.00013   0.16492
  29        4S          0.02556   0.04314   0.00083   0.18610
  30        4PX         0.11385  -0.01067   0.00087   0.01557   0.06574
  31        4PY        -0.01050   0.10100   0.00166   0.02546  -0.01018
  32        4PZ         0.00114   0.00209   0.15343   0.00228   0.00133
  33 5   H  1S         -0.05338   0.09979  -0.00256   0.06738  -0.03420
  34        2S         -0.07948   0.13813  -0.00207   0.07772  -0.05140
  35        3S         -0.03641   0.05151  -0.00023   0.00939  -0.02375
  36 6   H  1S          0.11259   0.00294  -0.00226   0.06745   0.06546
  37        2S          0.15965  -0.00075  -0.00165   0.07884   0.09328
  38        3S          0.06333  -0.00620  -0.00007   0.01020   0.03735
                          31        32        33        34        35
  31        4PY         0.05316
  32        4PZ         0.00258   0.14277
  33 5   H  1S          0.05555  -0.00134   0.08100
  34        2S          0.07699  -0.00059   0.10998   0.15177
  35        3S          0.02880   0.00015   0.03785   0.05479   0.02259
  36 6   H  1S         -0.00201  -0.00119  -0.01250  -0.02594  -0.01981
  37        2S         -0.00618  -0.00038  -0.02599  -0.04786  -0.03127
  38        3S         -0.00618   0.00023  -0.01992  -0.03131  -0.01539
                          36        37        38
  36 6   H  1S          0.08023
  37        2S          0.10976   0.15252
  38        3S          0.03812   0.05546   0.02294
    Full Mulliken population analysis:
                           1         2         3         4         5
   1 1   C  1S          0.65941
   2        2S          0.49325   0.49199
   3        2PX         0.00000   0.00000   0.08406
   4        2PY         0.00000   0.00000   0.00000   0.08763
   5        2PZ         0.00000   0.00000   0.00000   0.00000   0.06444
   6        3S         -0.02928  -0.06443   0.00000   0.00000   0.00000
   7        3PX         0.00000   0.00000   0.08195   0.00000   0.00000
   8        3PY         0.00000   0.00000   0.00000   0.08247   0.00000
   9        3PZ         0.00000   0.00000   0.00000   0.00000   0.06514
  10        4S         -0.01223  -0.02145   0.00000   0.00000   0.00000
  11        4PX         0.00000   0.00000   0.01551   0.00000   0.00000
  12        4PY         0.00000   0.00000   0.00000   0.01446   0.00000
  13        4PZ         0.00000   0.00000   0.00000   0.00000   0.02110
  14 2   H  1S         -0.00022  -0.00032   0.00176   0.00549   0.00000
  15        2S         -0.00164  -0.00314   0.00429   0.01315   0.00001
  16        3S          0.00004  -0.00007   0.00070   0.00192   0.00000
  17 3   H  1S         -0.00025  -0.00035   0.00773   0.00000   0.00001
  18        2S         -0.00171  -0.00328   0.01765   0.00001   0.00001
  19        3S          0.00005  -0.00007   0.00257  -0.00000   0.00000
  20 4   C  1S          0.00000   0.00000  -0.00002  -0.00006   0.00000
  21        2S          0.00000  -0.00000  -0.00002  -0.00005   0.00000
  22        2PX        -0.00002  -0.00002   0.00011   0.00086   0.00000
  23        2PY        -0.00006  -0.00005   0.00086   0.00198   0.00000
  24        2PZ        -0.00000  -0.00000  -0.00000  -0.00000   0.00042
  25        3S         -0.00059  -0.00100   0.00253   0.00764  -0.00000
  26        3PX        -0.00055  -0.00101   0.00019   0.00558   0.00000
  27        3PY        -0.00164  -0.00302   0.00553   0.01070   0.00000
  28        3PZ        -0.00000  -0.00000  -0.00000  -0.00000   0.00614
  29        4S          0.00034   0.00031   0.00093   0.00284  -0.00000
  30        4PX        -0.00018  -0.00046  -0.00071   0.00146   0.00000
  31        4PY        -0.00053  -0.00134   0.00146   0.00096   0.00000
  32        4PZ        -0.00000  -0.00000  -0.00000  -0.00000   0.00903
  33 5   H  1S          0.00000   0.00000  -0.00000  -0.00000   0.00000
  34        2S          0.00001   0.00002   0.00000  -0.00032   0.00000
  35        3S          0.00008   0.00013   0.00001  -0.00070  -0.00000
  36 6   H  1S          0.00000   0.00000  -0.00000  -0.00000   0.00000
  37        2S          0.00001   0.00002  -0.00024  -0.00007   0.00000
  38        3S          0.00008   0.00013  -0.00057  -0.00012  -0.00000
                           6         7         8         9        10
   6        3S          0.45252
   7        3PX         0.00000   0.20215
   8        3PY         0.00000   0.00000   0.19663
   9        3PZ         0.00000   0.00000   0.00000   0.16637
  10        4S          0.21250   0.00000   0.00000   0.00000   0.18361
  11        4PX         0.00000   0.07165   0.00000   0.00000   0.00000
  12        4PY         0.00000   0.00000   0.06466   0.00000   0.00000
  13        4PZ         0.00000   0.00000   0.00000   0.10059   0.00000
  14 2   H  1S          0.01574   0.01062   0.03205   0.00003   0.01817
  15        2S          0.04068   0.01956   0.05759   0.00002   0.04685
  16        3S          0.00284   0.00402   0.01030   0.00000   0.00849
  17 3   H  1S          0.01669   0.04385   0.00001   0.00003   0.01846
  18        2S          0.04206   0.07722   0.00001   0.00003   0.04667
  19        3S          0.00285   0.01398  -0.00001   0.00000   0.00776
  20 4   C  1S         -0.00060  -0.00057  -0.00172   0.00000   0.00033
  21        2S         -0.00101  -0.00105  -0.00316   0.00000   0.00030
  22        2PX         0.00246   0.00019   0.00555   0.00000   0.00082
  23        2PY         0.00736   0.00552   0.01064   0.00000   0.00244
  24        2PZ         0.00000  -0.00000  -0.00000   0.00616   0.00000
  25        3S          0.02193   0.01328   0.04020  -0.00000   0.00035
  26        3PX         0.01275  -0.00127   0.01861   0.00000   0.00417
  27        3PY         0.03818   0.01842   0.02848   0.00000   0.01232
  28        3PZ         0.00000  -0.00000  -0.00000   0.03538   0.00000
  29        4S          0.00060   0.00476   0.01464  -0.00000  -0.02056
  30        4PX         0.00638  -0.00406   0.00585   0.00000   0.00204
  31        4PY         0.01888   0.00585   0.00122   0.00000   0.00567
  32        4PZ         0.00000  -0.00000  -0.00000   0.04929   0.00000
  33 5   H  1S         -0.00006  -0.00000  -0.00019   0.00000  -0.00081
  34        2S         -0.00122   0.00006  -0.00324  -0.00000  -0.00328
  35        3S         -0.00200   0.00011  -0.00425  -0.00000  -0.00128
  36 6   H  1S         -0.00005  -0.00013  -0.00006   0.00000  -0.00082
  37        2S         -0.00121  -0.00259  -0.00053  -0.00000  -0.00344
  38        3S         -0.00201  -0.00355  -0.00057  -0.00000  -0.00151
                          11        12        13        14        15
  11        4PX         0.06052
  12        4PY         0.00000   0.05138
  13        4PZ         0.00000   0.00000   0.14247
  14 2   H  1S          0.00633   0.01754   0.00001   0.08086
  15        2S          0.01549   0.04112   0.00001   0.07738   0.15051
  16        3S          0.00533   0.01202  -0.00000   0.01383   0.04192
  17 3   H  1S          0.02366  -0.00001   0.00002  -0.00001  -0.00066
  18        2S          0.05534  -0.00004   0.00001  -0.00065  -0.00545
  19        3S          0.01668  -0.00004  -0.00000  -0.00203  -0.00812
  20 4   C  1S         -0.00018  -0.00057   0.00000   0.00000   0.00002
  21        2S         -0.00046  -0.00144   0.00000   0.00000   0.00003
  22        2PX        -0.00071   0.00139   0.00000  -0.00000   0.00000
  23        2PY         0.00139   0.00095   0.00000  -0.00000  -0.00035
  24        2PZ        -0.00000  -0.00000   0.00901   0.00000   0.00000
  25        3S          0.00645   0.01999  -0.00000  -0.00007  -0.00147
  26        3PX        -0.00411   0.00561   0.00000  -0.00000   0.00004
  27        3PY         0.00558   0.00122   0.00000  -0.00022  -0.00353
  28        3PZ        -0.00000  -0.00000   0.04902   0.00000   0.00000
  29        4S          0.00238   0.00785  -0.00000  -0.00102  -0.00433
  30        4PX        -0.00710   0.00313   0.00000   0.00001   0.00017
  31        4PY         0.00317  -0.00562   0.00000  -0.00239  -0.01016
  32        4PZ        -0.00000  -0.00000   0.08960   0.00000  -0.00000
  33 5   H  1S          0.00002  -0.00236   0.00000   0.00000   0.00000
  34        2S          0.00027  -0.00997  -0.00000   0.00000   0.00016
  35        3S          0.00028  -0.00736  -0.00000   0.00023   0.00147
  36 6   H  1S         -0.00176  -0.00048   0.00000  -0.00000  -0.00004
  37        2S         -0.00829  -0.00104  -0.00000  -0.00004  -0.00094
  38        3S         -0.00655  -0.00030  -0.00000  -0.00047  -0.00249
                          16        17        18        19        20
  16        3S          0.02141
  17 3   H  1S         -0.00205   0.08205
  18        2S         -0.00813   0.07753   0.14896
  19        3S         -0.00686   0.01358   0.04073   0.02055
  20 4   C  1S          0.00009   0.00000   0.00002   0.00009   0.65947
  21        2S          0.00016   0.00000   0.00003   0.00016   0.49331
  22        2PX         0.00001  -0.00000  -0.00027  -0.00059   0.00000
  23        2PY        -0.00074  -0.00000  -0.00008  -0.00013   0.00000
  24        2PZ        -0.00000   0.00000   0.00000  -0.00000   0.00000
  25        3S         -0.00243  -0.00007  -0.00145  -0.00235  -0.02937
  26        3PX         0.00006  -0.00015  -0.00284  -0.00364   0.00000
  27        3PY        -0.00444  -0.00007  -0.00063  -0.00064   0.00000
  28        3PZ        -0.00000   0.00000   0.00000  -0.00000   0.00000
  29        4S         -0.00218  -0.00100  -0.00412  -0.00193  -0.01231
  30        4PX         0.00018  -0.00186  -0.00870  -0.00674   0.00000
  31        4PY        -0.00749  -0.00058  -0.00139  -0.00050   0.00000
  32        4PZ        -0.00000   0.00000  -0.00000  -0.00000   0.00000
  33 5   H  1S          0.00023  -0.00000  -0.00004  -0.00043  -0.00022
  34        2S          0.00145  -0.00004  -0.00089  -0.00235  -0.00160
  35        3S          0.00248  -0.00045  -0.00242  -0.00287   0.00005
  36 6   H  1S         -0.00044   0.00000   0.00000   0.00022  -0.00021
  37        2S         -0.00244   0.00000   0.00015   0.00142  -0.00157
  38        3S         -0.00296   0.00023   0.00145   0.00243   0.00004
                          21        22        23        24        25
  21        2S          0.49207
  22        2PX         0.00000   0.08283
  23        2PY         0.00000   0.00000   0.08774
  24        2PZ         0.00000   0.00000   0.00000   0.06429
  25        3S         -0.06458   0.00000   0.00000   0.00000   0.45357
  26        3PX         0.00000   0.08101   0.00000   0.00000   0.00000
  27        3PY         0.00000   0.00000   0.08271   0.00000   0.00000
  28        3PZ         0.00000   0.00000   0.00000   0.06478   0.00000
  29        4S         -0.02164   0.00000   0.00000   0.00000   0.21523
  30        4PX         0.00000   0.01604   0.00000   0.00000   0.00000
  31        4PY         0.00000   0.00000   0.01473   0.00000   0.00000
  32        4PZ         0.00000   0.00000   0.00000   0.02110   0.00000
  33 5   H  1S         -0.00031   0.00151   0.00574   0.00001   0.01557
  34        2S         -0.00306   0.00383   0.01368   0.00001   0.03969
  35        3S         -0.00006   0.00067   0.00199   0.00000   0.00259
  36 6   H  1S         -0.00029   0.00693   0.00001   0.00000   0.01505
  37        2S         -0.00300   0.01732   0.00001   0.00001   0.03913
  38        3S         -0.00007   0.00269  -0.00001   0.00000   0.00272
                          26        27        28        29        30
  26        3PX         0.20051
  27        3PY         0.00000   0.19755
  28        3PZ         0.00000   0.00000   0.16492
  29        4S          0.00000   0.00000   0.00000   0.18610
  30        4PX         0.07440   0.00000   0.00000   0.00000   0.06574
  31        4PY         0.00000   0.06600   0.00000   0.00000   0.00000
  32        4PZ         0.00000   0.00000   0.10026   0.00000   0.00000
  33 5   H  1S          0.00902   0.03361   0.00003   0.01772   0.00573
  34        2S          0.01734   0.06006   0.00004   0.04460   0.01453
  35        3S          0.00380   0.01073   0.00000   0.00706   0.00527
  36 6   H  1S          0.04177   0.00006   0.00003   0.01760   0.02442
  37        2S          0.07718  -0.00002   0.00003   0.04497   0.05876
  38        3S          0.01476  -0.00008   0.00000   0.00765   0.01852
                          31        32        33        34        35
  31        4PY         0.05316
  32        4PZ         0.00000   0.14277
  33 5   H  1S          0.01856   0.00002   0.08100
  34        2S          0.04337   0.00001   0.07769   0.15177
  35        3S          0.01274  -0.00000   0.01414   0.04323   0.02259
  36 6   H  1S         -0.00004   0.00001  -0.00001  -0.00078  -0.00232
  37        2S         -0.00021   0.00001  -0.00078  -0.00653  -0.00949
  38        3S         -0.00016  -0.00000  -0.00233  -0.00950  -0.00821
                          36        37        38
  36 6   H  1S          0.08023
  37        2S          0.07753   0.15252
  38        3S          0.01424   0.04376   0.02294
     Gross orbital populations:
                           1
   1 1   C  1S          1.10436
   2        2S          0.88585
   3        2PX         0.22628
   4        2PY         0.23582
   5        2PZ         0.16630
   6        3S          0.79252
   7        3PX         0.55995
   8        3PY         0.55517
   9        3PZ         0.42305
  10        4S          0.50557
  11        4PX         0.26090
  12        4PY         0.21210
  13        4PZ         0.41182
  14 2   H  1S          0.27261
  15        2S          0.46815
  16        3S          0.08723
  17 3   H  1S          0.27628
  18        2S          0.46576
  19        3S          0.08376
  20 4   C  1S          1.10440
  21        2S          0.88584
  22        2PX         0.22262
  23        2PY         0.23630
  24        2PZ         0.16578
  25        3S          0.79253
  26        3PX         0.55322
  27        3PY         0.55686
  28        3PZ         0.42063
  29        4S          0.50648
  30        4PX         0.27283
  31        4PY         0.21537
  32        4PZ         0.41209
  33 5   H  1S          0.27306
  34        2S          0.46902
  35        3S          0.08823
  36 6   H  1S          0.27069
  37        2S          0.47038
  38        3S          0.09018
          Condensed to atoms (all electrons):
               1          2          3          4          5          6
     1  C    5.034970   0.386764   0.387563   0.602099  -0.036050  -0.035649
     2  H    0.386764   0.519047  -0.033956  -0.040047   0.006006  -0.009829
     3  H    0.387563  -0.033956   0.515240  -0.039458  -0.009497   0.005911
     4  C    0.602099  -0.040047  -0.039458   5.054019   0.384329   0.384017
     5  H   -0.036050   0.006006  -0.009497   0.384329   0.525482  -0.039955
     6  H   -0.035649  -0.009829   0.005911   0.384017  -0.039955   0.526749
 Mulliken charges:
               1
     1  C   -0.339696
     2  H    0.172016
     3  H    0.174198
     4  C   -0.344960
     5  H    0.169686
     6  H    0.168756
 Sum of Mulliken charges =   0.00000
 Mulliken charges with hydrogens summed into heavy atoms:
               1
     1  C    0.006518
     4  C   -0.006518
 Electronic spatial extent (au):  <R**2>=             83.7289
 Charge=             -0.0000 electrons
 Dipole moment (field-independent basis, Debye):
    X=              0.0027    Y=              0.0180    Z=             -0.1216  Tot=              0.1229
 Quadrupole moment (field-independent basis, Debye-Ang):
   XX=            -12.2063   YY=            -12.2218   ZZ=            -15.6691
   XY=              0.0156   XZ=              0.0004   YZ=             -0.0071
 Traceless Quadrupole moment (field-independent basis, Debye-Ang):
   XX=              1.1594   YY=              1.1439   ZZ=             -2.3034
   XY=              0.0156   XZ=              0.0004   YZ=             -0.0071
 Octapole moment (field-independent basis, Debye-Ang**2):
  XXX=             -0.3098  YYY=              0.0011  ZZZ=             -0.0670  XYY=              0.1447
  XXY=             -0.0483  XXZ=             -0.1615  XZZ=             -0.0823  YZZ=             -0.0614
  YYZ=             -0.2132  XYZ=             -0.0451
 Hexadecapole moment (field-independent basis, Debye-Ang**3):
 XXXX=            -34.2978 YYYY=            -55.2209 ZZZZ=            -17.8127 XXXY=             -7.2280
 XXXZ=              0.0136 YYYX=            -10.6999 YYYZ=              0.0140 ZZZX=              0.0174
 ZZZY=              0.0415 XXYY=            -16.2039 XXZZ=             -9.9284 YYZZ=            -13.6467
 XXYZ=              0.0097 YYXZ=              0.0003 ZZXY=             -3.1991
 N-N= 3.306634330278D+01 E-N=-2.478415527568D+02  KE= 7.814929777005D+01
 Orbital energies and kinetic energies (alpha):
                                 1                 2
   1         O               -10.289991         15.977316
   2         O               -10.288547         15.981081
   3         O                -0.863902          1.539861
   4         O                -0.671934          1.270488
   5         O                -0.558863          0.940853
   6         O                -0.509644          1.283207
   7         O                -0.436229          1.042769
   8         O                -0.357066          1.039074
   9         V                 0.079906          1.181825
  10         V                 0.140867          0.589464
  11         V                 0.164406          0.596113
  12         V                 0.170003          0.680339
  13         V                 0.240897          0.583695
  14         V                 0.375289          0.854659
  15         V                 0.392800          0.932243
  16         V                 0.397836          0.777892
  17         V                 0.464029          1.189479
  18         V                 0.487878          1.425756
  19         V                 0.493636          1.301100
  20         V                 0.591135          1.653637
  21         V                 0.665216          1.569992
  22         V                 0.690218          2.148313
  23         V                 0.773033          2.506998
  24         V                 0.775221          2.231572
  25         V                 0.840817          1.084112
  26         V                 0.953053          3.429860
  27         V                 2.231973          3.924258
  28         V                 2.289840          4.030931
  29         V                 2.332396          4.301411
  30         V                 2.405524          4.513827
  31         V                 2.671387          6.301171
  32         V                 2.817145          6.303958
  33         V                 2.878864          6.137616
  34         V                 2.951640          6.226934
  35         V                 3.140926          6.821723
  36         V                 3.317195          6.402972
  37         V                23.351604         60.074019
  38         V                23.706543         60.204462
 Total kinetic energy from orbitals= 7.814929777005D+01
 Calling FoFJK, ICntrl=      2127 FMM=F ISym2X=0 I1Cent= 0 IOpClX= 0 NMat=1 NMatS=1 NMatT=0.
 -------------------------------------------------------------------
 Center     Atomic                   Forces (Hartrees/Bohr)
 Number     Number              X              Y              Z
 -------------------------------------------------------------------
      1        6           0.010862223    0.003671520   -0.004861500
      2        1          -0.009937119    0.008438891    0.002497172
      3        1           0.004972909   -0.003347351    0.002310649
      4        6           0.008304474    0.007832150   -0.005473124
      5        1           0.002054249   -0.012203706    0.002710723
      6        1          -0.016256736   -0.004391504    0.002816081
 -------------------------------------------------------------------
 Cartesian Forces:  Max     0.016256736 RMS     0.007396810

 GradGradGradGradGradGradGradGradGradGradGradGradGradGradGradGradGradGrad
 Berny optimization.
 Search for a local minimum.
 Step number   1 out of a maximum of    2
 All quantities printed in internal units (Hartrees-Bohrs-Radians)
 Second derivative matrix not updated -- first step.
 The second derivative matrix:
                          X1        Y1        Z1        X2        Y2
           X1           0.75274
           Y1           0.10323   0.85596
           Z1           0.00729   0.01061   0.17166
           X2          -0.16172   0.09425   0.00240   0.13951
           Y2           0.10039  -0.27977  -0.00871  -0.11330   0.26878
           Z2           0.00383  -0.01097  -0.05479  -0.00347   0.00904
           X3          -0.34798  -0.00360  -0.00985  -0.00056  -0.00031
           Y3          -0.00973  -0.10941  -0.00239   0.03221   0.01863
           Z3          -0.01255  -0.00233  -0.05654   0.00178   0.00065
           X4          -0.26798  -0.17948  -0.00112   0.02279   0.01321
           Y4          -0.17958  -0.47505  -0.00178  -0.01316  -0.00763
           Z4           0.00142   0.00267  -0.09445  -0.00072  -0.00098
           X5           0.02353  -0.01359   0.00080  -0.00001   0.00001
           Y5           0.01178  -0.00680   0.00110   0.00001  -0.00000
           Z5          -0.00061   0.00037   0.01754   0.00030  -0.00016
           X6           0.00141  -0.00082   0.00048  -0.00001   0.00001
           Y6          -0.02609   0.01507   0.00118   0.00001  -0.00000
           Z6           0.00063  -0.00034   0.01658  -0.00030   0.00016
                          Z2        X3        Y3        Z3        X4
           Z2           0.02858
           X3          -0.00038   0.34813
           Y3           0.00193   0.00414   0.07542
           Z3           0.01046   0.01077   0.00166   0.02967
           X4           0.00067   0.00043  -0.02663  -0.00066   0.71660
           Y4          -0.00037  -0.00025   0.01538   0.00040   0.11948
           Z4           0.01566  -0.00054  -0.00120   0.01651  -0.00622
           X5          -0.00033  -0.00001   0.00001   0.00034  -0.14765
           Y5           0.00020   0.00001  -0.00000  -0.00021   0.09333
           Z5           0.00928   0.00032  -0.00020  -0.00948  -0.00408
           X6          -0.00031  -0.00001   0.00001   0.00032  -0.32419
           Y6           0.00017   0.00001  -0.00000  -0.00017  -0.01991
           Z6          -0.00918  -0.00032   0.00020   0.00938   0.01142
                          Y4        Z4        X5        Y5        Z5
           Y4           0.86268
           Z4          -0.01252   0.17631
           X5           0.08522  -0.00270   0.12594
           Y5          -0.29074   0.00962  -0.10424   0.28126
           Z5           0.01190  -0.05759   0.00364  -0.01024   0.03000
           X6          -0.01171   0.00876  -0.00180  -0.00088   0.00043
           Y6          -0.10465   0.00241   0.03260   0.01629  -0.00168
           Z6           0.00237  -0.05644  -0.00175  -0.00047   0.01025
                          X6        Y6        Z6
           X6           0.32460
           Y6           0.01339   0.07329
           Z6          -0.00968  -0.00191   0.02941
 ITU=  0
     Eigenvalues ---    0.03738   0.04373   0.09134   0.10133   0.13510
     Eigenvalues ---    0.17416   0.26419   0.28906   0.52765   0.69942
     Eigenvalues ---    0.96964   1.56654
 Angle between quadratic step and forces=  34.59 degrees.
 Linear search not attempted -- first point.
 B after Tr=     0.005941    0.005133   -0.012463
         Rot=    1.000000   -0.000015    0.000008   -0.000109 Ang=  -0.01 deg.
 Variable       Old X    -DE/DX   Delta X   Delta X   Delta X     New X
                                 (Linear)    (Quad)   (Total)
    X1       -0.63389   0.01086   0.00000   0.01876   0.02494  -0.60894
    Y1       -1.09583   0.00367   0.00000   0.01741   0.02241  -1.07342
    Z1        0.01443  -0.00486   0.00000  -0.02593  -0.03844  -0.02400
    X2        0.41096  -0.00994   0.00000  -0.03892  -0.03235   0.37861
    Y2       -2.89552   0.00844   0.00000   0.02453   0.02974  -2.86578
    Z2       -0.05049   0.00250   0.00000   0.03200   0.01946  -0.03103
    X3       -2.69156   0.00497   0.00000   0.03157   0.03776  -2.65379
    Y3       -1.12746  -0.00335   0.00000  -0.00935  -0.00480  -1.13226
    Z3       -0.05523   0.00231   0.00000   0.03150   0.01895  -0.03628
    X4        0.62974   0.00830   0.00000   0.00582   0.01152   0.64125
    Y4        1.09211   0.00783   0.00000   0.00386   0.00913   1.10124
    Z4        0.01196  -0.00547   0.00000  -0.02565  -0.03807  -0.02611
    X5       -0.30412   0.00205   0.00000  -0.01116  -0.00585  -0.30998
    Y5        2.95324  -0.01220   0.00000  -0.04233  -0.03727   2.91597
    Z5       -0.06191   0.00271   0.00000   0.03176   0.01938  -0.04253
    X6        2.72387  -0.01626   0.00000  -0.04170  -0.03602   2.68785
    Y6        1.20378  -0.00439   0.00000  -0.02494  -0.01921   1.18457
    Z6       -0.05720   0.00282   0.00000   0.03110   0.01872  -0.03848
         Item               Value     Threshold  Converged?
 Maximum Force            0.016257     0.000450     NO 
 RMS     Force            0.007397     0.000300     NO 
 Maximum Displacement     0.038436     0.001800     NO 
 RMS     Displacement     0.026034     0.001200     NO 
 Predicted change in Energy=-1.501088D-03
 GradGradGradGradGradGradGradGradGradGradGradGradGradGradGradGradGradGrad

 Unable to Open any file for archive entry.
 1\1\GINC-BHD0012\Force\RwB97XD\6-311G\C2H4\BWEIGHT\11-Jan-2023\0\\# WB
 97XD/6-311G SCF=XQC FORCE nosym pop=full guess=read\\MD Step 999\\0,1\
 C,-0.33543759,-0.57988662,0.00763844\H,0.21746936,-1.53224434,-0.02671
 821\H,-1.42431088,-0.59662509,-0.02922694\C,0.33324304,0.57791884,0.00
 63308\H,-0.16093453,1.5627874,-0.03276116\H,1.44141252,0.63701481,-0.0
 3026769\\Version=ES64L-G16RevC.01\HF=-78.5558684\RMSD=7.187e-09\RMSF=7
 .397e-03\Dipole=0.0010579,0.0070773,-0.0478371\Quadrupole=0.8620063,0.
 8504987,-1.712505,0.0115848,0.0003004,-0.0052932\PG=C01 [X(C2H4)]\\@
 The archive entry for this job was punched.


 CONFIDENCE IS WHAT YOU FEEL BEFORE YOU FULLY
 COMPREHEND THE SITUATION.
 Job cpu time:       0 days  0 hours  0 minutes 49.3 seconds.
 Elapsed time:       0 days  0 hours  0 minutes 16.1 seconds.
 File lengths (MBytes):  RWF=    272 Int=      0 D2E=      0 Chk=     32 Scr=     32
 Normal termination of Gaussian 16 at Wed Jan 11 18:35:17 2023.
