 Entering Gaussian System, Link 0=g16
 Initial command:
 /software/gaussian/g16-c01/avx2/g16/l1.exe "/gpfs/fs2/scratch/bweight/software/many_molecule_many_mode_NAMD/src/NAMD/TEST_NVT/TRAJ/traj-33/G16/GS_NEW/Gau-22667.inp" -scrdir="/gpfs/fs2/scratch/bweight/software/many_molecule_many_mode_NAMD/src/NAMD/TEST_NVT/TRAJ/traj-33/G16/GS_NEW/"
 Entering Link 1 = /software/gaussian/g16-c01/avx2/g16/l1.exe PID=     22668.
  
 Copyright (c) 1988-2019, Gaussian, Inc.  All Rights Reserved.
  
 This is part of the Gaussian(R) 16 program.  It is based on
 the Gaussian(R) 09 system (copyright 2009, Gaussian, Inc.),
 the Gaussian(R) 03 system (copyright 2003, Gaussian, Inc.),
 the Gaussian(R) 98 system (copyright 1998, Gaussian, Inc.),
 the Gaussian(R) 94 system (copyright 1995, Gaussian, Inc.),
 the Gaussian 92(TM) system (copyright 1992, Gaussian, Inc.),
 the Gaussian 90(TM) system (copyright 1990, Gaussian, Inc.),
 the Gaussian 88(TM) system (copyright 1988, Gaussian, Inc.),
 the Gaussian 86(TM) system (copyright 1986, Carnegie Mellon
 University), and the Gaussian 82(TM) system (copyright 1983,
 Carnegie Mellon University). Gaussian is a federally registered
 trademark of Gaussian, Inc.
  
 This software contains proprietary and confidential information,
 including trade secrets, belonging to Gaussian, Inc.
  
 This software is provided under written license and may be
 used, copied, transmitted, or stored only in accord with that
 written license.
  
 The following legend is applicable only to US Government
 contracts under FAR:
  
                    RESTRICTED RIGHTS LEGEND
  
 Use, reproduction and disclosure by the US Government is
 subject to restrictions as set forth in subparagraphs (a)
 and (c) of the Commercial Computer Software - Restricted
 Rights clause in FAR 52.227-19.
  
 Gaussian, Inc.
 340 Quinnipiac St., Bldg. 40, Wallingford CT 06492
  
  
 ---------------------------------------------------------------
 Warning -- This program may not be used in any manner that
 competes with the business of Gaussian, Inc. or will provide
 assistance to any competitor of Gaussian, Inc.  The licensee
 of this program is prohibited from giving any competitor of
 Gaussian, Inc. access to this program.  By using this program,
 the user acknowledges that Gaussian, Inc. is engaged in the
 business of creating and licensing software in the field of
 computational chemistry and represents and warrants to the
 licensee that it is not a competitor of Gaussian, Inc. and that
 it will not use this program in any manner prohibited above.
 ---------------------------------------------------------------
  

 Cite this work as:
 Gaussian 16, Revision C.01,
 M. J. Frisch, G. W. Trucks, H. B. Schlegel, G. E. Scuseria, 
 M. A. Robb, J. R. Cheeseman, G. Scalmani, V. Barone, 
 G. A. Petersson, H. Nakatsuji, X. Li, M. Caricato, A. V. Marenich, 
 J. Bloino, B. G. Janesko, R. Gomperts, B. Mennucci, H. P. Hratchian, 
 J. V. Ortiz, A. F. Izmaylov, J. L. Sonnenberg, D. Williams-Young, 
 F. Ding, F. Lipparini, F. Egidi, J. Goings, B. Peng, A. Petrone, 
 T. Henderson, D. Ranasinghe, V. G. Zakrzewski, J. Gao, N. Rega, 
 G. Zheng, W. Liang, M. Hada, M. Ehara, K. Toyota, R. Fukuda, 
 J. Hasegawa, M. Ishida, T. Nakajima, Y. Honda, O. Kitao, H. Nakai, 
 T. Vreven, K. Throssell, J. A. Montgomery, Jr., J. E. Peralta, 
 F. Ogliaro, M. J. Bearpark, J. J. Heyd, E. N. Brothers, K. N. Kudin, 
 V. N. Staroverov, T. A. Keith, R. Kobayashi, J. Normand, 
 K. Raghavachari, A. P. Rendell, J. C. Burant, S. S. Iyengar, 
 J. Tomasi, M. Cossi, J. M. Millam, M. Klene, C. Adamo, R. Cammi, 
 J. W. Ochterski, R. L. Martin, K. Morokuma, O. Farkas, 
 J. B. Foresman, and D. J. Fox, Gaussian, Inc., Wallingford CT, 2019.
 
 ******************************************
 Gaussian 16:  ES64L-G16RevC.01  3-Jul-2019
                11-Jan-2023 
 ******************************************
 %oldchk=../GS_OLD/geometry.chk
 %chk=geometry.chk
 %nprocshared=4
 Will use up to    4 processors via shared memory.
 %mem=5GB
 Copying data from "../GS_OLD/geometry.chk" to current chk file "geometry.chk"
 IOpt=  2 FromEx=T IUOpen= 4 IOptOp= 5 NList=   0 IFRang= 0 IUIn= 4 IUOut= 2.
 -------------------------------------------------------
 # WB97XD/6-311G SCF=XQC FORCE nosym pop=full guess=read
 -------------------------------------------------------
 1/10=7,30=1,38=1/1,3;
 2/12=2,15=1,17=6,18=5,40=1/2;
 3/5=4,6=6,11=2,25=1,30=1,71=1,74=-58,116=-2/1,2,3;
 4/5=1/1;
 5/5=2,8=3,13=1,38=6/2,8;
 6/7=3,28=1/1;
 7/29=1,30=1/1,2,3,16;
 1/10=7,30=1/3;
 99//99;
 -----------
 MD Step 999
 -----------
 Symbolic Z-matrix:
 Charge =  0 Multiplicity = 1
 C                    -0.33527  -0.58092   0.00477 
 H                     0.20942  -1.52744  -0.01207 
 H                    -1.42003  -0.59047  -0.01316 
 C                     0.33322   0.57675   0.00334 
 H                    -0.16901   1.56589  -0.01563 
 H                     1.44522   0.64284  -0.01456 
 

 GradGradGradGradGradGradGradGradGradGradGradGradGradGradGradGradGradGrad
 Berny optimization.
 Initialization pass.
 Trust Radius=3.00D-01 FncErr=1.00D-07 GrdErr=1.00D-07 EigMax=2.50D+02 EigMin=1.00D-04
 Number of steps in this run=      2 maximum allowed number of steps=      2.
 GradGradGradGradGradGradGradGradGradGradGradGradGradGradGradGradGradGrad

                          Input orientation:                          
 ---------------------------------------------------------------------
 Center     Atomic      Atomic             Coordinates (Angstroms)
 Number     Number       Type             X           Y           Z
 ---------------------------------------------------------------------
      1          6           0       -0.335266   -0.580917    0.004767
      2          1           0        0.209418   -1.527445   -0.012066
      3          1           0       -1.420033   -0.590472   -0.013163
      4          6           0        0.333218    0.576755    0.003341
      5          1           0       -0.169006    1.565894   -0.015631
      6          1           0        1.445223    0.642838   -0.014564
 ---------------------------------------------------------------------
                    Distance matrix (angstroms):
                    1          2          3          4          5
     1  C    0.000000
     2  H    1.092190   0.000000
     3  H    1.084957   1.879636   0.000000
     4  C    1.336816   2.107894   2.106319   0.000000
     5  H    2.153336   3.116402   2.492988   1.109498   0.000000
     6  H    2.160576   2.497468   3.119414   1.114110   1.859507
                    6
     6  H    0.000000
 Symmetry turned off by external request.
 Stoichiometry    C2H4
 Framework group  C1[X(C2H4)]
 Deg. of freedom    12
 Full point group                 C1      NOp   1
 Rotational constants (GHZ):         143.4160472          29.7255456          24.6248088
 Standard basis: 6-311G (5D, 7F)
    38 basis functions,    72 primitive gaussians,    38 cartesian basis functions
     8 alpha electrons        8 beta electrons
       nuclear repulsion energy        33.0830496933 Hartrees.
 NAtoms=    6 NActive=    6 NUniq=    6 SFac= 1.00D+00 NAtFMM=   60 NAOKFM=F Big=F
 Integral buffers will be    131072 words long.
 Raffenetti 2 integral format.
 Two-electron integral symmetry is turned off.
 Nuclear repulsion after empirical dispersion term =       33.0822086089 Hartrees.
 One-electron integrals computed using PRISM.
 NBasis=    38 RedAO= T EigKep=  6.40D-03  NBF=    38
 NBsUse=    38 1.00D-06 EigRej= -1.00D+00 NBFU=    38
 Initial guess from the checkpoint file:  "geometry.chk"
 B after Tr=    -0.000200   -0.000285   -0.000733
         Rot=    1.000000    0.000004   -0.000001    0.000003 Ang=   0.00 deg.
 Keep R1 ints in memory in canonical form, NReq=4036876.
 Requested convergence on RMS density matrix=1.00D-08 within  32 cycles.
 Requested convergence on MAX density matrix=1.00D-06.
 Requested convergence on             energy=1.00D-06.
 No special actions if energy rises.
 SCF Done:  E(RwB97XD) =  -78.5559729106     A.U. after    8 cycles
            NFock=  8  Conv=0.61D-08     -V/T= 2.0051
 QCSCF skips out because SCF is already converged.

 **********************************************************************

            Population analysis using the SCF Density.

 **********************************************************************

 Alpha  occ. eigenvalues --  -10.29082 -10.28716  -0.86405  -0.67198  -0.55942
 Alpha  occ. eigenvalues --   -0.50959  -0.43642  -0.35708
 Alpha virt. eigenvalues --    0.08026   0.14100   0.16458   0.17018   0.24082
 Alpha virt. eigenvalues --    0.37551   0.39328   0.39747   0.46357   0.48840
 Alpha virt. eigenvalues --    0.49363   0.59120   0.66539   0.69152   0.77219
 Alpha virt. eigenvalues --    0.77660   0.84481   0.95316   2.23157   2.28999
 Alpha virt. eigenvalues --    2.33314   2.40788   2.67137   2.81816   2.87709
 Alpha virt. eigenvalues --    2.95206   3.14097   3.32043  23.35206  23.70710
     Molecular Orbital Coefficients:
                           1         2         3         4         5
                           O         O         O         O         O
     Eigenvalues --   -10.29082 -10.28716  -0.86405  -0.67198  -0.55942
   1 1   C  1S          0.06867   0.55919  -0.08865   0.06650  -0.00028
   2        2S          0.05672   0.46021  -0.14011   0.10652  -0.00047
   3        2PX         0.00016  -0.00000   0.02611   0.03703   0.13688
   4        2PY         0.00028  -0.00000   0.04609   0.06210  -0.07589
   5        2PZ         0.00000  -0.00000  -0.00075   0.00108   0.00013
   6        3S          0.00091   0.01463   0.37567  -0.29066   0.00132
   7        3PX        -0.00063   0.00039   0.03432   0.05930   0.21438
   8        3PY        -0.00109   0.00070   0.06033   0.10014  -0.11926
   9        3PZ        -0.00001  -0.00002  -0.00125   0.00192   0.00020
  10        4S          0.00417  -0.01450   0.19160  -0.22591   0.00117
  11        4PX         0.00158  -0.00145   0.00475   0.02392   0.11121
  12        4PY         0.00274  -0.00250   0.00845   0.04125  -0.06242
  13        4PZ        -0.00000   0.00005  -0.00043   0.00096   0.00010
  14 2   H  1S         -0.00004  -0.00007   0.05309  -0.08890   0.10320
  15        2S         -0.00031   0.00009   0.05411  -0.10652   0.13016
  16        3S          0.00073   0.00174  -0.00165  -0.01549   0.04204
  17 3   H  1S         -0.00005  -0.00008   0.05393  -0.09111  -0.10471
  18        2S         -0.00031   0.00007   0.05464  -0.10868  -0.13146
  19        3S          0.00074   0.00176  -0.00168  -0.01606  -0.04250
  20 4   C  1S          0.55920  -0.06886  -0.08667  -0.06866  -0.00009
  21        2S          0.46025  -0.05647  -0.13685  -0.11010  -0.00014
  22        2PX        -0.00001  -0.00016  -0.02773   0.03688   0.11892
  23        2PY        -0.00002  -0.00028  -0.04730   0.06489  -0.07178
  24        2PZ        -0.00000   0.00000  -0.00056  -0.00116   0.00013
  25        3S          0.01422  -0.00265   0.36667   0.30083   0.00038
  26        3PX        -0.00025   0.00071  -0.03488   0.05992   0.18628
  27        3PY        -0.00042   0.00124  -0.05934   0.10515  -0.11181
  28        3PZ        -0.00002  -0.00000  -0.00098  -0.00209   0.00020
  29        4S         -0.01275   0.00765   0.18862   0.23850  -0.00033
  30        4PX         0.00101  -0.00186  -0.00550   0.02601   0.10230
  31        4PY         0.00171  -0.00324  -0.00930   0.04480  -0.06094
  32        4PZ         0.00004  -0.00001  -0.00041  -0.00107   0.00010
  33 5   H  1S         -0.00005  -0.00004   0.04918   0.09227  -0.08892
  34        2S         -0.00000  -0.00031   0.05055   0.11078  -0.11247
  35        3S          0.00178   0.00025  -0.00117   0.01656  -0.03609
  36 6   H  1S         -0.00005  -0.00004   0.04849   0.09149   0.08633
  37        2S         -0.00001  -0.00032   0.05016   0.11008   0.10938
  38        3S          0.00175   0.00025  -0.00123   0.01626   0.03531
                           6         7         8         9        10
                           O         O         O         V         V
     Eigenvalues --    -0.50959  -0.43642  -0.35708   0.08026   0.14100
   1 1   C  1S         -0.00426   0.00004  -0.00055   0.00151  -0.03222
   2        2S         -0.00647   0.00007  -0.00090   0.00250  -0.05165
   3        2PX         0.09544  -0.11114  -0.00191   0.00083  -0.03294
   4        2PY         0.16709   0.06597  -0.00313   0.00125  -0.06248
   5        2PZ         0.00277  -0.00004   0.17943  -0.18899  -0.00118
   6        3S          0.02347  -0.00003   0.00263  -0.00758   0.11176
   7        3PX         0.13894  -0.17711  -0.00270   0.00126  -0.03965
   8        3PY         0.24401   0.10543  -0.00439   0.00188  -0.07719
   9        3PZ         0.00440  -0.00006   0.28867  -0.27818  -0.00192
  10        4S         -0.04876  -0.00188   0.00381  -0.00819   1.19531
  11        4PX         0.07040  -0.11037  -0.00220   0.00704  -0.20240
  12        4PY         0.12410   0.06590  -0.00358   0.01142  -0.37647
  13        4PZ         0.00251  -0.00002   0.26701  -0.69667  -0.00707
  14 2   H  1S         -0.07943  -0.11502   0.00008   0.00235  -0.01472
  15        2S         -0.10940  -0.17723   0.00113   0.00370  -0.04334
  16        3S         -0.04085  -0.08206   0.00067   0.00963  -0.80116
  17 3   H  1S         -0.07936   0.11316   0.00006   0.00236  -0.01264
  18        2S         -0.10885   0.17390   0.00111   0.00374  -0.03875
  19        3S         -0.04041   0.08030   0.00066   0.00956  -0.76906
  20 4   C  1S         -0.00771  -0.00032  -0.00046  -0.00150  -0.03735
  21        2S         -0.01202  -0.00052  -0.00075  -0.00248  -0.06000
  22        2PX        -0.09742   0.12444   0.00186   0.00095   0.03941
  23        2PY        -0.16351  -0.07338   0.00349   0.00184   0.06370
  24        2PZ         0.00308   0.00014   0.17931   0.18957  -0.00188
  25        3S          0.03937   0.00151   0.00221   0.00743   0.13286
  26        3PX        -0.14376   0.19963   0.00259   0.00145   0.04766
  27        3PY        -0.24023  -0.11720   0.00491   0.00280   0.07576
  28        3PZ         0.00486   0.00022   0.28690   0.27784  -0.00283
  29        4S         -0.03406   0.00161   0.00373   0.00879   1.27034
  30        4PX        -0.07465   0.12762   0.00200   0.00736   0.25604
  31        4PY        -0.12387  -0.07465   0.00388   0.01345   0.42147
  32        4PZ         0.00280   0.00014   0.26704   0.69794  -0.01096
  33 5   H  1S         -0.07582  -0.12480   0.00013  -0.00226  -0.01439
  34        2S         -0.10406  -0.19501   0.00117  -0.00378  -0.04146
  35        3S         -0.03887  -0.09169   0.00066  -0.01011  -0.85387
  36 6   H  1S         -0.07998   0.12391   0.00010  -0.00227  -0.01622
  37        2S         -0.10994   0.19425   0.00114  -0.00384  -0.04628
  38        3S         -0.04110   0.09134   0.00063  -0.01028  -0.88767
                          11        12        13        14        15
                           V         V         V         V         V
     Eigenvalues --     0.16458   0.17018   0.24082   0.37551   0.39328
   1 1   C  1S          0.00072  -0.04599   0.00006   0.01083   0.00044
   2        2S          0.00116  -0.07494   0.00008   0.01520   0.00061
   3        2PX         0.09578  -0.02064   0.10041  -0.03720  -0.02283
   4        2PY        -0.05411  -0.03840  -0.05747  -0.06679   0.01112
   5        2PZ         0.00010  -0.00372   0.00006  -0.00259  -0.00010
   6        3S         -0.00261   0.16898   0.00023   0.03063   0.00175
   7        3PX         0.13739  -0.01238   0.10664  -0.04967  -0.10340
   8        3PY        -0.07831  -0.02547  -0.06154  -0.09368   0.05476
   9        3PZ         0.00013  -0.00517   0.00005  -0.00520  -0.00020
  10        4S         -0.02979   1.46423  -0.01570  -2.76317  -0.12163
  11        4PX         0.57159  -0.12043   1.17147  -1.59298  -0.53714
  12        4PY        -0.31639  -0.21871  -0.67319  -2.78108   0.17686
  13        4PZ         0.00064  -0.02440   0.00083  -0.02272  -0.00136
  14 2   H  1S         -0.02937  -0.02502   0.01391  -0.05400   0.07550
  15        2S         -0.08061  -0.01798  -0.02277  -0.62622   0.76455
  16        3S         -1.03714  -1.03024  -1.56278  -0.35561  -0.31089
  17 3   H  1S          0.02901  -0.02470  -0.01513  -0.04815  -0.07729
  18        2S          0.08011  -0.01893   0.01882  -0.57747  -0.78123
  19        3S          1.07650  -1.02520   1.58330  -0.40658   0.26570
  20 4   C  1S          0.00052   0.04184  -0.00009  -0.01985  -0.00011
  21        2S          0.00082   0.06813  -0.00015  -0.03243  -0.00012
  22        2PX         0.10289  -0.02193  -0.09980  -0.04182  -0.03133
  23        2PY        -0.06068  -0.03696   0.05721  -0.07485   0.01424
  24        2PZ         0.00009   0.00363  -0.00005   0.00205   0.00012
  25        3S         -0.00150  -0.15188   0.00030   0.03920  -0.00100
  26        3PX         0.14774  -0.01650  -0.11276  -0.09285  -0.11074
  27        3PY        -0.08668  -0.02687   0.06390  -0.16887   0.05653
  28        3PZ         0.00013   0.00499  -0.00005   0.00270   0.00021
  29        4S         -0.02835  -1.30928   0.00912   3.39816   0.11711
  30        4PX         0.54928  -0.11126  -1.12574  -1.24671  -0.51369
  31        4PY        -0.32559  -0.19058   0.64845  -2.18629   0.15216
  32        4PZ         0.00054   0.02353  -0.00080   0.02160   0.00094
  33 5   H  1S          0.03134   0.02536   0.00607   0.01336  -0.08153
  34        2S          0.06880   0.02212  -0.03558   0.10334  -0.80873
  35        3S          1.06406   0.92254  -1.50822   0.45648   0.47543
  36 6   H  1S         -0.03156   0.02562  -0.00540   0.00824   0.08643
  37        2S         -0.06939   0.02137   0.03587   0.06054   0.86983
  38        3S         -1.02685   0.92376   1.49766   0.47619  -0.45914
                          16        17        18        19        20
                           V         V         V         V         V
     Eigenvalues --     0.39747   0.46357   0.48840   0.49363   0.59120
   1 1   C  1S         -0.01696   0.01363  -0.04626  -0.00007  -0.00031
   2        2S         -0.03008   0.03084  -0.07719   0.00004  -0.00055
   3        2PX         0.02435  -0.06200   0.01054   0.00064   0.00115
   4        2PY         0.04378  -0.10721   0.01459   0.00085   0.00166
   5        2PZ         0.00000  -0.00028   0.00245  -0.15157  -0.19270
   6        3S          0.07437  -0.33865   0.08368  -0.00560  -0.00034
   7        3PX         0.09946  -0.24131  -0.03763   0.00034   0.00386
   8        3PY         0.18109  -0.41636  -0.07292  -0.00034   0.00557
   9        3PZ        -0.00252  -0.00238   0.01117  -0.62779  -0.68576
  10        4S          2.44977  -0.01298   3.19807   0.04424   0.03895
  11        4PX         0.14014   0.19106   0.81238   0.01425   0.01203
  12        4PY         0.24954   0.35602   1.40971   0.02619   0.02167
  13        4PZ        -0.00194   0.00091  -0.04840   0.68593   1.24198
  14 2   H  1S         -0.02982  -0.03285  -0.07717  -0.00129  -0.00093
  15        2S         -0.57747  -0.30861  -0.92977  -0.01193  -0.00686
  16        3S          0.27153   0.04516   0.63461   0.01527   0.01293
  17 3   H  1S         -0.03341  -0.03479  -0.07557  -0.00127  -0.00090
  18        2S         -0.60524  -0.33150  -0.91120  -0.01190  -0.00619
  19        3S          0.27474   0.04948   0.61324   0.01496   0.01275
  20 4   C  1S         -0.00286  -0.00398   0.05103   0.00157   0.00039
  21        2S         -0.00823   0.00095   0.08892   0.00286   0.00073
  22        2PX         0.00688   0.05372   0.02874  -0.00000   0.00113
  23        2PY         0.01300   0.09345   0.05112  -0.00016   0.00225
  24        2PZ        -0.00199  -0.00099   0.00245  -0.15293   0.19224
  25        3S          0.08239  -0.28127  -0.23908  -0.01140  -0.00140
  26        3PX        -0.04556   0.23272   0.05949  -0.00001   0.00396
  27        3PY        -0.07421   0.40666   0.10462  -0.00071   0.00782
  28        3PZ        -0.00571  -0.00406   0.00881  -0.63196   0.68207
  29        4S         -0.61723   0.87798  -3.07515  -0.05441  -0.03453
  30        4PX         1.15934  -0.39394   0.64059   0.00759   0.01214
  31        4PY         2.06711  -0.66593   1.09021   0.01305   0.01999
  32        4PZ        -0.01830  -0.00887   0.02057   0.69366  -1.23771
  33 5   H  1S         -0.04832  -0.06479   0.06247   0.00114   0.00088
  34        2S         -0.83732  -0.65718   0.77773   0.01733   0.00360
  35        3S         -0.13940   0.29860  -0.55863  -0.00454  -0.01278
  36 6   H  1S         -0.04427  -0.06380   0.06242   0.00115   0.00090
  37        2S         -0.78953  -0.64235   0.77056   0.01708   0.00381
  38        3S         -0.15336   0.30748  -0.56914  -0.00488  -0.01285
                          21        22        23        24        25
                           V         V         V         V         V
     Eigenvalues --     0.66539   0.69152   0.77219   0.77660   0.84481
   1 1   C  1S          0.00038  -0.00041   0.05253   0.07254   0.00079
   2        2S          0.00079  -0.00090   0.11085   0.15465   0.00175
   3        2PX        -0.12189   0.20547  -0.02369   0.11220  -0.00868
   4        2PY         0.07083  -0.12122  -0.04162   0.18750   0.00916
   5        2PZ        -0.00008   0.00016   0.00043   0.00262   0.00004
   6        3S         -0.00624   0.01081  -0.75044  -1.33926  -0.01644
   7        3PX        -0.58018   0.73073  -0.16753   0.43871  -0.22186
   8        3PY         0.33511  -0.43071  -0.29327   0.72789   0.14330
   9        3PZ        -0.00040   0.00060   0.00168   0.00911   0.00008
  10        4S          0.01094  -0.04791   0.73293   2.47111  -0.03249
  11        4PX         1.08317  -0.85778   0.12209  -0.70034   4.49558
  12        4PY        -0.62669   0.50638   0.20356  -1.04472  -2.58312
  13        4PZ         0.00067  -0.00013   0.00468  -0.03010   0.00331
  14 2   H  1S          0.01986  -0.05981   0.01115   0.03222  -0.02788
  15        2S          0.09003  -0.64315   0.08906   0.08830  -1.57113
  16        3S         -0.99369   1.15940  -0.10669  -1.13487  -1.22704
  17 3   H  1S         -0.01946   0.05946   0.01111   0.03268   0.03004
  18        2S         -0.09715   0.66248   0.09420   0.07297   1.59767
  19        3S          0.98816  -1.13882  -0.10810  -1.21909   1.22990
  20 4   C  1S          0.00058  -0.00043   0.08450   0.02938   0.00062
  21        2S          0.00116  -0.00084   0.17983   0.06187   0.00131
  22        2PX        -0.16078  -0.17649  -0.09712   0.05460   0.00976
  23        2PY         0.09232   0.09977  -0.17129   0.09802  -0.00238
  24        2PZ        -0.00010  -0.00015   0.00286  -0.00068  -0.00005
  25        3S         -0.00821   0.00252  -1.50032  -0.34608  -0.00914
  26        3PX        -0.71254  -0.58663  -0.35432   0.28762   0.23925
  27        3PY         0.41039   0.33002  -0.62630   0.51442  -0.11952
  28        3PZ        -0.00047  -0.00051   0.01013  -0.00262  -0.00006
  29        4S          0.00666   0.02351   2.69841   0.06718   0.01658
  30        4PX         1.28474   0.68163   0.53961  -0.29173  -4.22201
  31        4PY        -0.73700  -0.38702   0.97203  -0.64973   2.39710
  32        4PZ         0.00083   0.00016  -0.02915   0.01479  -0.00279
  33 5   H  1S         -0.02858  -0.05377   0.03480   0.00210  -0.02352
  34        2S         -0.18055  -0.54311   0.07092   0.06454  -1.42610
  35        3S          1.15530   0.92541  -1.13002   0.29720  -1.10404
  36 6   H  1S          0.02883   0.05353   0.03464   0.00256   0.02405
  37        2S          0.17767   0.52538   0.06848   0.03133   1.42342
  38        3S         -1.15589  -0.92945  -1.10389   0.25449   1.11024
                          26        27        28        29        30
                           V         V         V         V         V
     Eigenvalues --     0.95316   2.23157   2.28999   2.33314   2.40788
   1 1   C  1S          0.09566  -0.01074  -0.01459   0.00013  -0.00030
   2        2S          0.19877   0.00049  -0.01511   0.00044  -0.00029
   3        2PX        -0.09174  -0.08494  -0.13324   0.33482  -0.41442
   4        2PY        -0.15887  -0.15568  -0.22803  -0.19202   0.23677
   5        2PZ         0.00016  -0.00756  -0.00987   0.00010  -0.00047
   6        3S         -1.53828  -0.18315  -0.03086  -0.00152  -0.00344
   7        3PX        -0.23466   0.08452   0.21207  -0.39767   0.57655
   8        3PY        -0.40210   0.16399   0.37212   0.22966  -0.33156
   9        3PZ        -0.00126   0.00755   0.01226  -0.00008   0.00058
  10        4S          5.71909  -0.12971  -0.89705  -0.00544  -0.01849
  11        4PX         1.18318   0.05012  -0.19417  -0.02501   0.98275
  12        4PY         2.00199   0.06976  -0.34980   0.00747  -0.55436
  13        4PZ        -0.01113   0.00199   0.00477  -0.00007   0.00095
  14 2   H  1S          0.01533  -0.72361  -0.77426  -0.69419   0.67237
  15        2S         -0.28367   1.03220   1.16468   1.05931  -1.49313
  16        3S         -0.08804  -0.30537  -0.45867  -0.46136   0.37359
  17 3   H  1S          0.01553  -0.71606  -0.78040   0.68019  -0.68789
  18        2S         -0.26862   1.02248   1.17529  -1.04050   1.52432
  19        3S         -0.07862  -0.28884  -0.45492   0.45019  -0.36928
  20 4   C  1S         -0.09413  -0.00986   0.01215   0.00030   0.00012
  21        2S         -0.19530   0.00104   0.01179   0.00034   0.00025
  22        2PX        -0.09277   0.12850  -0.12633   0.31498   0.41312
  23        2PY        -0.16018   0.22605  -0.21203  -0.18207  -0.23575
  24        2PZ         0.00024  -0.00809   0.01008   0.00031   0.00024
  25        3S          1.50944  -0.17119   0.02231   0.00054  -0.00077
  26        3PX        -0.23018  -0.16264   0.21477  -0.39602  -0.57946
  27        3PY        -0.40012  -0.28448   0.35847   0.22789   0.33093
  28        3PZ         0.00217   0.00874  -0.01291  -0.00038  -0.00036
  29        4S         -5.69352  -0.14778   0.88443   0.01382   0.00434
  30        4PX         1.12845  -0.01694  -0.19681   0.08659  -0.87477
  31        4PY         1.98546  -0.03133  -0.32812  -0.05164   0.50277
  32        4PZ         0.00613   0.00229  -0.00338  -0.00001  -0.00077
  33 5   H  1S         -0.01799  -0.77665   0.69285   0.72181   0.66605
  34        2S          0.29347   1.12371  -1.05341  -1.05893  -1.43310
  35        3S          0.06119  -0.35373   0.41506   0.51990   0.41365
  36 6   H  1S         -0.01807  -0.77000   0.71264  -0.70636  -0.66825
  37        2S          0.30462   1.11290  -1.08043   1.03405   1.43338
  38        3S          0.06253  -0.35046   0.43459  -0.51333  -0.41705
                          31        32        33        34        35
                           V         V         V         V         V
     Eigenvalues --     2.67137   2.81816   2.87709   2.95206   3.14097
   1 1   C  1S          0.00028   0.00143  -0.01324  -0.00008  -0.00947
   2        2S          0.00023   0.00419  -0.04453  -0.00038  -0.02907
   3        2PX         0.00299   0.04138  -0.46919  -0.73581   0.45386
   4        2PY         0.00407   0.07202  -0.84240   0.40964   0.79792
   5        2PZ        -0.92287  -0.93852  -0.07951  -0.00095   0.00370
   6        3S         -0.00094  -0.03490   0.39349   0.00450   0.24453
   7        3PX        -0.00227  -0.07208   0.83654   0.88778  -0.44322
   8        3PY        -0.00288  -0.12494   1.47980  -0.48256  -0.78079
   9        3PZ         0.93726   1.14751   0.09959   0.00123  -0.00492
  10        4S          0.00732   0.08045  -0.88033  -0.01450  -0.47373
  11        4PX        -0.00107   0.05834  -0.72009  -0.66875   0.22925
  12        4PY        -0.00169   0.10150  -1.27408   0.35567   0.40433
  13        4PZ        -0.33678  -0.62226  -0.06281  -0.00094   0.00316
  14 2   H  1S          0.00665  -0.01188   0.26536  -0.37527  -0.22142
  15        2S         -0.00760   0.00763  -0.22167   0.38338   0.16752
  16        3S         -0.00170   0.02365  -0.30334   0.27675   0.06874
  17 3   H  1S          0.00674  -0.01158   0.25630   0.37926  -0.21775
  18        2S         -0.00785   0.00701  -0.20731  -0.38364   0.16376
  19        3S         -0.00188   0.02370  -0.30167  -0.29053   0.07195
  20 4   C  1S          0.00028  -0.00142   0.01386   0.00042  -0.00728
  21        2S          0.00027  -0.00440   0.04835   0.00106  -0.02324
  22        2PX        -0.00398   0.03740  -0.41626  -0.80024  -0.49916
  23        2PY        -0.00785   0.06736  -0.74600   0.44604  -0.88062
  24        2PZ        -0.92679   0.93420   0.08177  -0.00001   0.00735
  25        3S         -0.00149   0.03784  -0.43414  -0.00868   0.20190
  26        3PX         0.00411  -0.06795   0.78063   0.95255   0.52966
  27        3PY         0.00800  -0.12095   1.38388  -0.52165   0.94020
  28        3PZ         0.94251  -1.14329  -0.10318  -0.00002  -0.00914
  29        4S          0.00860  -0.08254   0.91561   0.02433  -0.38620
  30        4PX        -0.00035   0.05763  -0.71275  -0.69949  -0.31688
  31        4PY        -0.00126   0.10164  -1.25222   0.37596  -0.56543
  32        4PZ        -0.33956   0.62046   0.06585   0.00000   0.00697
  33 5   H  1S          0.00647   0.01560  -0.29328   0.41881  -0.25631
  34        2S         -0.00794  -0.01263   0.26587  -0.43361   0.20099
  35        3S         -0.00071  -0.02189   0.28306  -0.24136   0.11616
  36 6   H  1S          0.00656   0.01572  -0.28978  -0.42704  -0.24865
  37        2S         -0.00825  -0.01299   0.26588   0.44080   0.19471
  38        3S         -0.00059  -0.02104   0.27096   0.24568   0.11323
                          36        37        38
                           V         V         V
     Eigenvalues --     3.32043  23.35206  23.70710
   1 1   C  1S         -0.00029  -1.41161  -1.45462
   2        2S         -0.00048   1.50540   1.57303
   3        2PX         0.78074  -0.00654   0.01205
   4        2PY        -0.43937  -0.01093   0.02106
   5        2PZ         0.00068  -0.00031  -0.00015
   6        3S          0.00117  -0.29510  -0.40030
   7        3PX        -1.11679   0.02431  -0.05573
   8        3PY         0.62772   0.04101  -0.09686
   9        3PZ        -0.00101   0.00086   0.00045
  10        4S         -0.01428   0.27104   0.77156
  11        4PX         1.96967  -0.02679   0.13282
  12        4PY        -1.11180  -0.04616   0.22979
  13        4PZ         0.00173  -0.00143  -0.00180
  14 2   H  1S          0.56142   0.01393   0.00762
  15        2S         -0.87578   0.00737  -0.01503
  16        3S         -0.47217  -0.08484  -0.03968
  17 3   H  1S         -0.56929   0.01498   0.00832
  18        2S          0.88711   0.00729  -0.01519
  19        3S          0.48809  -0.08600  -0.03994
  20 4   C  1S          0.00005  -1.44981   1.41639
  21        2S         -0.00011   1.54632  -1.53185
  22        2PX        -0.71428   0.00590   0.01264
  23        2PY         0.40584   0.01045   0.02159
  24        2PZ        -0.00054  -0.00031   0.00007
  25        3S          0.00238  -0.30375   0.39049
  26        3PX         1.01719  -0.02188  -0.05680
  27        3PY        -0.58338  -0.03851  -0.09773
  28        3PZ         0.00079   0.00088  -0.00015
  29        4S         -0.00736   0.28251  -0.76090
  30        4PX        -1.80259   0.02233   0.13222
  31        4PY         1.03828   0.04057   0.22801
  32        4PZ        -0.00141  -0.00144   0.00114
  33 5   H  1S          0.48771   0.01245  -0.00420
  34        2S         -0.76545   0.00841   0.01339
  35        3S         -0.42497  -0.08243   0.03705
  36 6   H  1S         -0.48637   0.01174  -0.00350
  37        2S          0.76470   0.00926   0.01289
  38        3S          0.42223  -0.08147   0.03639
     Density Matrix:
                           1         2         3         4         5
   1 1   C  1S          0.65941
   2        2S          0.56154   0.49206
   3        2PX        -0.00059  -0.00079   0.08451
   4        2PY        -0.00125  -0.00173   0.00347   0.08804
   5        2PZ         0.00005   0.00008  -0.00007  -0.00016   0.06441
   6        3S         -0.08898  -0.15393   0.00293   0.00615  -0.00012
   7        3PX         0.00084   0.00129   0.13077   0.00106  -0.00005
   8        3PY         0.00126   0.00193   0.00107   0.13158  -0.00014
   9        3PZ         0.00010   0.00017  -0.00012  -0.00025   0.10362
  10        4S         -0.07925  -0.11406  -0.01531  -0.02714   0.00032
  11        4PX         0.00027   0.00158   0.07045  -0.00450  -0.00032
  12        4PY         0.00055   0.00290  -0.00454   0.06557  -0.00054
  13        4PZ        -0.00006  -0.00014  -0.00046  -0.00077   0.09584
  14 2   H  1S         -0.02071  -0.03297   0.03485  -0.06353  -0.00065
  15        2S         -0.02286  -0.03655   0.04908  -0.08795  -0.00046
  16        3S          0.00060  -0.00068   0.02072  -0.03294   0.00000
  17 3   H  1S         -0.02103  -0.03346  -0.07290  -0.00204  -0.00073
  18        2S         -0.02309  -0.03688  -0.10062  -0.00194  -0.00057
  19        3S          0.00061  -0.00067  -0.03848   0.00139  -0.00004
  20 4   C  1S          0.00609   0.00981  -0.01085  -0.01880  -0.00022
  21        2S          0.00978   0.01528  -0.01737  -0.03009  -0.00037
  22        2PX         0.01041   0.01664  -0.01242  -0.03217   0.00027
  23        2PY         0.01812   0.02898  -0.03223  -0.04975   0.00054
  24        2PZ        -0.00028  -0.00045  -0.00021  -0.00029   0.06436
  25        3S         -0.02634  -0.03999   0.04871   0.08445   0.00111
  26        3PX         0.01605   0.02488  -0.01821  -0.04576   0.00035
  27        3PY         0.02793   0.04331  -0.04574  -0.07121   0.00073
  28        3PZ        -0.00047  -0.00075  -0.00037  -0.00052   0.10298
  29        4S          0.00537   0.00399   0.02055   0.03586   0.00138
  30        4PX         0.00308   0.00637  -0.01298  -0.02092   0.00038
  31        4PY         0.00530   0.01101  -0.02092  -0.03731   0.00081
  32        4PZ        -0.00039  -0.00063  -0.00059  -0.00090   0.09585
  33 5   H  1S          0.00419   0.00688  -0.00167  -0.01232  -0.00026
  34        2S          0.00636   0.01057   0.00354  -0.02502  -0.00001
  35        3S          0.00328   0.00481   0.00425  -0.01766   0.00006
  36 6   H  1S          0.00416   0.00683  -0.00987  -0.00765  -0.00027
  37        2S          0.00628   0.01045  -0.02345  -0.00942  -0.00003
  38        3S          0.00324   0.00475  -0.01735  -0.00514   0.00004
                           6         7         8         9        10
   6        3S          0.45277
   7        3PX        -0.00159   0.20267
   8        3PY        -0.00176  -0.00463   0.19714
   9        3PZ        -0.00033  -0.00009  -0.00021   0.16671
  10        4S          0.27260  -0.02606  -0.04666   0.00042   0.18074
  11        4PX        -0.00678   0.10951  -0.01007  -0.00051  -0.01514
  12        4PY        -0.01206  -0.01013   0.09865  -0.00087  -0.02783
  13        4PZ         0.00064  -0.00061  -0.00101   0.15418   0.00119
  14 2   H  1S          0.08812   0.05602  -0.09903  -0.00107   0.06893
  15        2S          0.09781   0.07926  -0.13662  -0.00078   0.08051
  16        3S          0.00602   0.03379  -0.05058   0.00000   0.01072
  17 3   H  1S          0.08947  -0.11414  -0.00163  -0.00121   0.06890
  18        2S          0.09877  -0.15736  -0.00028  -0.00095   0.07970
  19        3S          0.00612  -0.05992   0.00392  -0.00006   0.01011
  20 4   C  1S         -0.02657  -0.01692  -0.02932  -0.00038   0.00522
  21        2S         -0.04020  -0.02629  -0.04558  -0.00062   0.00395
  22        2PX        -0.04654  -0.01770  -0.04564   0.00046  -0.01796
  23        2PY        -0.08111  -0.04579  -0.07089   0.00092  -0.03136
  24        2PZ         0.00134  -0.00028  -0.00037   0.10354   0.00137
  25        3S          0.10242   0.07138   0.12388   0.00186   0.00095
  26        3PX        -0.06727  -0.02609  -0.06473   0.00060  -0.02674
  27        3PY        -0.11722  -0.06481  -0.10142   0.00124  -0.04665
  28        3PZ         0.00221  -0.00051  -0.00068   0.16567   0.00228
  29        4S          0.00170   0.03106   0.05432   0.00230  -0.03246
  30        4PX        -0.02254  -0.01939  -0.02940   0.00064  -0.00674
  31        4PY        -0.03907  -0.02946  -0.05385   0.00133  -0.01145
  32        4PZ         0.00185  -0.00082  -0.00124   0.15419   0.00209
  33 5   H  1S         -0.02047  -0.00066  -0.01770  -0.00039  -0.01519
  34        2S         -0.03159   0.00854  -0.03680   0.00004  -0.02005
  35        3S         -0.01240   0.00808  -0.02653   0.00010  -0.00387
  36 6   H  1S         -0.02029  -0.01492  -0.00932  -0.00040  -0.01522
  37        2S         -0.03119  -0.03597  -0.01070   0.00001  -0.02025
  38        3S         -0.01221  -0.02680  -0.00612   0.00007  -0.00406
                          11        12        13        14        15
  11        4PX         0.06022
  12        4PY        -0.00887   0.05088
  13        4PZ        -0.00075  -0.00123   0.14260
  14 2   H  1S          0.03341  -0.05420  -0.00055   0.08182
  15        2S          0.04808  -0.07464  -0.00016   0.10970   0.14919
  16        3S          0.02095  -0.02752   0.00014   0.03662   0.05209
  17 3   H  1S         -0.06329   0.00168  -0.00062  -0.01311  -0.02476
  18        2S         -0.08764   0.00426  -0.00025  -0.02472  -0.04298
  19        3S         -0.03366   0.00449   0.00011  -0.01815  -0.02744
  20 4   C  1S         -0.00317  -0.00566  -0.00035   0.00424   0.00667
  21        2S         -0.00655  -0.01162  -0.00056   0.00701   0.01113
  22        2PX        -0.01324  -0.02006   0.00062   0.00189  -0.00269
  23        2PY        -0.02015  -0.03676   0.00119   0.01148   0.02416
  24        2PZ        -0.00042  -0.00062   0.09577  -0.00032  -0.00010
  25        3S          0.02321   0.04101   0.00164  -0.02108  -0.03347
  26        3PX        -0.02035  -0.02830   0.00084   0.00101  -0.00735
  27        3PY        -0.02838  -0.05349   0.00165   0.01705   0.03619
  28        3PZ        -0.00069  -0.00103   0.15323  -0.00047  -0.00010
  29        4S          0.00790   0.01452   0.00212  -0.01740  -0.02358
  30        4PX        -0.01474  -0.01243   0.00076  -0.00159  -0.00841
  31        4PY        -0.01246  -0.02944   0.00153   0.01532   0.02715
  32        4PZ        -0.00084  -0.00131   0.14261  -0.00026   0.00016
  33 5   H  1S          0.00198  -0.01573  -0.00019   0.01122   0.02335
  34        2S          0.00916  -0.02750   0.00026   0.02385   0.04449
  35        3S          0.00752  -0.01588   0.00019   0.01675   0.02796
  36 6   H  1S         -0.01458  -0.00593  -0.00020  -0.00910  -0.01819
  37        2S         -0.02829  -0.00542   0.00024  -0.01889  -0.03435
  38        3S         -0.01733  -0.00125   0.00017  -0.01022  -0.01779
                          16        17        18        19        20
  16        3S          0.02083
  17 3   H  1S         -0.01825   0.08255
  18        2S         -0.02751   0.10986   0.14834
  19        3S         -0.01294   0.03623   0.05121   0.02030
  20 4   C  1S          0.00367   0.00429   0.00669   0.00366   0.65947
  21        2S          0.00539   0.00708   0.01115   0.00538   0.56155
  22        2PX        -0.00351   0.00901   0.02218   0.01666   0.00115
  23        2PY         0.01752   0.00745   0.00968   0.00561   0.00189
  24        2PZ         0.00002  -0.00031  -0.00007   0.00004   0.00004
  25        3S         -0.01395  -0.02125  -0.03346  -0.01385  -0.08921
  26        3PX        -0.00709   0.01430   0.03492   0.02604  -0.00051
  27        3PY         0.02641   0.00946   0.01161   0.00693  -0.00100
  28        3PZ         0.00004  -0.00046  -0.00005   0.00007   0.00010
  29        4S         -0.00550  -0.01727  -0.02315  -0.00524  -0.08024
  30        4PX        -0.00703   0.01397   0.02749   0.01701  -0.00018
  31        4PY         0.01589   0.00636   0.00628   0.00179  -0.00022
  32        4PZ         0.00015  -0.00025   0.00019   0.00017  -0.00003
  33 5   H  1S          0.01618  -0.00910  -0.01820  -0.00949  -0.01999
  34        2S          0.02745  -0.01880  -0.03415  -0.01707  -0.02218
  35        3S          0.01468  -0.01017  -0.01766  -0.00904   0.00054
  36 6   H  1S         -0.00953   0.01122   0.02322   0.01592  -0.01987
  37        2S         -0.01727   0.02386   0.04429   0.02708  -0.02223
  38        3S         -0.00916   0.01671   0.02777   0.01448   0.00047
                          21        22        23        24        25
  21        2S          0.49203
  22        2PX         0.00165   0.08250
  23        2PY         0.00270   0.00394   0.08747
  24        2PZ         0.00006   0.00008   0.00011   0.06432
  25        3S         -0.15416  -0.00534  -0.00878  -0.00007   0.45342
  26        3PX        -0.00077   0.12836   0.00206   0.00005  -0.00010
  27        3PY        -0.00152   0.00211   0.13111   0.00004   0.00040
  28        3PZ         0.00017   0.00012   0.00017   0.10292  -0.00032
  29        4S         -0.11593   0.01410   0.02408   0.00037   0.27875
  30        4PX        -0.00145   0.07287  -0.00510   0.00026   0.00625
  31        4PY        -0.00231  -0.00510   0.06693   0.00050   0.01019
  32        4PZ        -0.00008   0.00045   0.00081   0.09578   0.00045
  33 5   H  1S         -0.03185  -0.03336   0.06320  -0.00075   0.08517
  34        2S         -0.03546  -0.04963   0.08840  -0.00062   0.09486
  35        3S         -0.00068  -0.02254   0.03361  -0.00007   0.00579
  36 6   H  1S         -0.03168   0.07101   0.00286  -0.00067   0.08475
  37        2S         -0.03553   0.10112   0.00129  -0.00050   0.09504
  38        3S         -0.00078   0.04041  -0.00280  -0.00003   0.00600
                          26        27        28        29        30
  26        3PX         0.20006
  27        3PY        -0.00261   0.19711
  28        3PZ         0.00007   0.00006   0.16468
  29        4S          0.02577   0.04390   0.00045   0.18771
  30        4PX         0.11404  -0.01079   0.00042   0.01572   0.06608
  31        4PY        -0.01086   0.10119   0.00080   0.02604  -0.01057
  32        4PZ         0.00057   0.00104   0.15326   0.00113   0.00065
  33 5   H  1S         -0.05353   0.09913  -0.00124   0.06739  -0.03447
  34        2S         -0.08009   0.13817  -0.00103   0.07845  -0.05204
  35        3S         -0.03681   0.05186  -0.00012   0.00980  -0.02411
  36 6   H  1S          0.11221   0.00356  -0.00111   0.06772   0.06546
  37        2S          0.15961   0.00004  -0.00085   0.07948   0.09355
  38        3S          0.06348  -0.00598  -0.00005   0.01033   0.03754
                          31        32        33        34        35
  31        4PY         0.05350
  32        4PZ         0.00126   0.14264
  33 5   H  1S          0.05561  -0.00065   0.08033
  34        2S          0.07760  -0.00031   0.10987   0.15267
  35        3S          0.02923   0.00007   0.03814   0.05552   0.02300
  36 6   H  1S         -0.00191  -0.00058  -0.01250  -0.02593  -0.01982
  37        2S         -0.00615  -0.00021  -0.02602  -0.04802  -0.03144
  38        3S         -0.00627   0.00011  -0.01997  -0.03153  -0.01555
                          36        37        38
  36 6   H  1S          0.07985
  37        2S          0.10962   0.15284
  38        3S          0.03816   0.05571   0.02310
    Full Mulliken population analysis:
                           1         2         3         4         5
   1 1   C  1S          0.65941
   2        2S          0.49328   0.49206
   3        2PX         0.00000   0.00000   0.08451
   4        2PY         0.00000   0.00000   0.00000   0.08804
   5        2PZ         0.00000   0.00000   0.00000   0.00000   0.06441
   6        3S         -0.02929  -0.06447   0.00000   0.00000   0.00000
   7        3PX         0.00000   0.00000   0.08227   0.00000   0.00000
   8        3PY         0.00000   0.00000   0.00000   0.08278   0.00000
   9        3PZ         0.00000   0.00000   0.00000   0.00000   0.06519
  10        4S         -0.01218  -0.02135   0.00000   0.00000   0.00000
  11        4PX         0.00000   0.00000   0.01551   0.00000   0.00000
  12        4PY         0.00000   0.00000   0.00000   0.01444   0.00000
  13        4PZ         0.00000   0.00000   0.00000   0.00000   0.02111
  14 2   H  1S         -0.00024  -0.00034   0.00183   0.00581   0.00000
  15        2S         -0.00169  -0.00323   0.00429   0.01335   0.00000
  16        3S          0.00005  -0.00006   0.00069   0.00190  -0.00000
  17 3   H  1S         -0.00025  -0.00037   0.00793   0.00000   0.00000
  18        2S         -0.00173  -0.00331   0.01777   0.00000   0.00000
  19        3S          0.00005  -0.00006   0.00256  -0.00000   0.00000
  20 4   C  1S          0.00000   0.00000  -0.00002  -0.00006   0.00000
  21        2S          0.00000  -0.00000  -0.00002  -0.00006   0.00000
  22        2PX        -0.00002  -0.00002   0.00011   0.00086   0.00000
  23        2PY        -0.00006  -0.00005   0.00086   0.00198   0.00000
  24        2PZ        -0.00000  -0.00000  -0.00000  -0.00000   0.00042
  25        3S         -0.00059  -0.00100   0.00255   0.00766  -0.00000
  26        3PX        -0.00054  -0.00100   0.00019   0.00555   0.00000
  27        3PY        -0.00164  -0.00302   0.00555   0.01071   0.00000
  28        3PZ        -0.00000  -0.00000  -0.00000  -0.00000   0.00614
  29        4S          0.00034   0.00030   0.00093   0.00282  -0.00000
  30        4PX        -0.00018  -0.00045  -0.00070   0.00145   0.00000
  31        4PY        -0.00054  -0.00136   0.00145   0.00096   0.00000
  32        4PZ        -0.00000  -0.00000  -0.00000  -0.00000   0.00903
  33 5   H  1S          0.00000   0.00000  -0.00000  -0.00000   0.00000
  34        2S          0.00001   0.00002   0.00000  -0.00032   0.00000
  35        3S          0.00008   0.00013   0.00001  -0.00071  -0.00000
  36 6   H  1S          0.00000   0.00000  -0.00000  -0.00000   0.00000
  37        2S          0.00001   0.00002  -0.00024  -0.00007   0.00000
  38        3S          0.00007   0.00013  -0.00057  -0.00012  -0.00000
                           6         7         8         9        10
   6        3S          0.45277
   7        3PX         0.00000   0.20267
   8        3PY         0.00000   0.00000   0.19714
   9        3PZ         0.00000   0.00000   0.00000   0.16671
  10        4S          0.21118   0.00000   0.00000   0.00000   0.18074
  11        4PX         0.00000   0.07156   0.00000   0.00000   0.00000
  12        4PY         0.00000   0.00000   0.06447   0.00000   0.00000
  13        4PZ         0.00000   0.00000   0.00000   0.10075   0.00000
  14 2   H  1S          0.01639   0.01074   0.03299   0.00001   0.01832
  15        2S          0.04146   0.01936   0.05800   0.00001   0.04658
  16        3S          0.00278   0.00392   0.01019  -0.00000   0.00811
  17 3   H  1S          0.01697   0.04444   0.00001   0.00001   0.01845
  18        2S          0.04233   0.07741   0.00000   0.00001   0.04637
  19        3S          0.00284   0.01390  -0.00001   0.00000   0.00768
  20 4   C  1S         -0.00060  -0.00057  -0.00172   0.00000   0.00033
  21        2S         -0.00101  -0.00106  -0.00317   0.00000   0.00030
  22        2PX         0.00244   0.00018   0.00553   0.00000   0.00082
  23        2PY         0.00735   0.00555   0.01066   0.00000   0.00247
  24        2PZ         0.00000  -0.00000  -0.00000   0.00617   0.00000
  25        3S          0.02190   0.01341   0.04029  -0.00000   0.00036
  26        3PX         0.01263  -0.00127   0.01849   0.00000   0.00412
  27        3PY         0.03812   0.01851   0.02849   0.00000   0.01246
  28        3PZ         0.00000  -0.00000  -0.00000   0.03542   0.00000
  29        4S          0.00064   0.00479   0.01451  -0.00000  -0.02040
  30        4PX         0.00633  -0.00399   0.00582   0.00000   0.00204
  31        4PY         0.01902   0.00583   0.00122   0.00000   0.00601
  32        4PZ         0.00000  -0.00000  -0.00000   0.04934   0.00000
  33 5   H  1S         -0.00005  -0.00000  -0.00019   0.00000  -0.00081
  34        2S         -0.00122   0.00006  -0.00323  -0.00000  -0.00336
  35        3S         -0.00202   0.00010  -0.00428  -0.00000  -0.00139
  36 6   H  1S         -0.00005  -0.00013  -0.00005   0.00000  -0.00080
  37        2S         -0.00118  -0.00257  -0.00052  -0.00000  -0.00336
  38        3S         -0.00197  -0.00355  -0.00056  -0.00000  -0.00145
                          11        12        13        14        15
  11        4PX         0.06022
  12        4PY         0.00000   0.05088
  13        4PZ         0.00000   0.00000   0.14260
  14 2   H  1S          0.00624   0.01759   0.00000   0.08182
  15        2S          0.01510   0.04074   0.00000   0.07749   0.14919
  16        3S          0.00515   0.01175  -0.00000   0.01368   0.04110
  17 3   H  1S          0.02372  -0.00001   0.00000  -0.00001  -0.00068
  18        2S          0.05513  -0.00002   0.00000  -0.00067  -0.00550
  19        3S          0.01653  -0.00002  -0.00000  -0.00205  -0.00808
  20 4   C  1S         -0.00018  -0.00057   0.00000   0.00000   0.00002
  21        2S         -0.00047  -0.00143   0.00000   0.00000   0.00003
  22        2PX        -0.00072   0.00139   0.00000  -0.00000   0.00000
  23        2PY         0.00140   0.00095   0.00000  -0.00000  -0.00036
  24        2PZ        -0.00000  -0.00000   0.00902   0.00000   0.00000
  25        3S          0.00652   0.01996  -0.00000  -0.00007  -0.00148
  26        3PX        -0.00419   0.00560   0.00000  -0.00000   0.00004
  27        3PY         0.00562   0.00122   0.00000  -0.00023  -0.00357
  28        3PZ        -0.00000  -0.00000   0.04903   0.00000   0.00000
  29        4S          0.00239   0.00762  -0.00000  -0.00102  -0.00424
  30        4PX        -0.00711   0.00314   0.00000   0.00001   0.00019
  31        4PY         0.00315  -0.00561   0.00000  -0.00244  -0.01025
  32        4PZ        -0.00000  -0.00000   0.08962   0.00000  -0.00000
  33 5   H  1S          0.00002  -0.00233   0.00000   0.00000   0.00000
  34        2S          0.00025  -0.00988  -0.00000   0.00000   0.00016
  35        3S          0.00027  -0.00733  -0.00000   0.00023   0.00147
  36 6   H  1S         -0.00177  -0.00049   0.00000  -0.00000  -0.00004
  37        2S         -0.00833  -0.00110  -0.00000  -0.00004  -0.00091
  38        3S         -0.00659  -0.00033  -0.00000  -0.00046  -0.00246
                          16        17        18        19        20
  16        3S          0.02083
  17 3   H  1S         -0.00206   0.08255
  18        2S         -0.00810   0.07760   0.14834
  19        3S         -0.00677   0.01354   0.04040   0.02030
  20 4   C  1S          0.00009   0.00000   0.00002   0.00009   0.65947
  21        2S          0.00016   0.00000   0.00003   0.00016   0.49329
  22        2PX         0.00001  -0.00000  -0.00028  -0.00058   0.00000
  23        2PY        -0.00074  -0.00000  -0.00008  -0.00013   0.00000
  24        2PZ        -0.00000   0.00000   0.00000  -0.00000   0.00000
  25        3S         -0.00241  -0.00007  -0.00149  -0.00240  -0.02936
  26        3PX         0.00007  -0.00016  -0.00288  -0.00364   0.00000
  27        3PY        -0.00442  -0.00007  -0.00064  -0.00065   0.00000
  28        3PZ        -0.00000   0.00000   0.00000  -0.00000   0.00000
  29        4S         -0.00207  -0.00102  -0.00417  -0.00197  -0.01234
  30        4PX         0.00020  -0.00186  -0.00866  -0.00670   0.00000
  31        4PY        -0.00750  -0.00056  -0.00132  -0.00047   0.00000
  32        4PZ        -0.00000   0.00000  -0.00000  -0.00000   0.00000
  33 5   H  1S          0.00023  -0.00000  -0.00004  -0.00043  -0.00021
  34        2S          0.00144  -0.00004  -0.00092  -0.00238  -0.00157
  35        3S          0.00247  -0.00046  -0.00246  -0.00289   0.00004
  36 6   H  1S         -0.00043   0.00000   0.00000   0.00022  -0.00020
  37        2S         -0.00239   0.00000   0.00015   0.00142  -0.00156
  38        3S         -0.00292   0.00023   0.00145   0.00243   0.00004
                          21        22        23        24        25
  21        2S          0.49203
  22        2PX         0.00000   0.08250
  23        2PY         0.00000   0.00000   0.08747
  24        2PZ         0.00000   0.00000   0.00000   0.06432
  25        3S         -0.06456   0.00000   0.00000   0.00000   0.45342
  26        3PX         0.00000   0.08075   0.00000   0.00000   0.00000
  27        3PY         0.00000   0.00000   0.08248   0.00000   0.00000
  28        3PZ         0.00000   0.00000   0.00000   0.06475   0.00000
  29        4S         -0.02170   0.00000   0.00000   0.00000   0.21595
  30        4PX         0.00000   0.01605   0.00000   0.00000   0.00000
  31        4PY         0.00000   0.00000   0.01474   0.00000   0.00000
  32        4PZ         0.00000   0.00000   0.00000   0.02109   0.00000
  33 5   H  1S         -0.00029   0.00148   0.00551   0.00000   0.01511
  34        2S         -0.00300   0.00385   0.01352   0.00000   0.03916
  35        3S         -0.00006   0.00068   0.00200   0.00000   0.00265
  36 6   H  1S         -0.00028   0.00679   0.00002   0.00000   0.01485
  37        2S         -0.00298   0.01721   0.00001   0.00000   0.03896
  38        3S         -0.00007   0.00270  -0.00001   0.00000   0.00273
                          26        27        28        29        30
  26        3PX         0.20006
  27        3PY         0.00000   0.19711
  28        3PZ         0.00000   0.00000   0.16468
  29        4S          0.00000   0.00000   0.00000   0.18771
  30        4PX         0.07452   0.00000   0.00000   0.00000   0.06608
  31        4PY         0.00000   0.06613   0.00000   0.00000   0.00000
  32        4PZ         0.00000   0.00000   0.10015   0.00000   0.00000
  33 5   H  1S          0.00902   0.03291   0.00001   0.01760   0.00583
  34        2S          0.01757   0.05970   0.00001   0.04477   0.01487
  35        3S          0.00389   0.01079   0.00000   0.00735   0.00542
  36 6   H  1S          0.04134   0.00008   0.00001   0.01760   0.02441
  37        2S          0.07698   0.00000   0.00001   0.04519   0.05896
  38        3S          0.01481  -0.00008   0.00000   0.00773   0.01864
                          31        32        33        34        35
  31        4PY         0.05350
  32        4PZ         0.00000   0.14264
  33 5   H  1S          0.01853   0.00000   0.08033
  34        2S          0.04366   0.00000   0.07761   0.15267
  35        3S          0.01294  -0.00000   0.01425   0.04380   0.02300
  36 6   H  1S         -0.00004   0.00000  -0.00001  -0.00076  -0.00230
  37        2S         -0.00023   0.00000  -0.00076  -0.00642  -0.00945
  38        3S         -0.00018  -0.00000  -0.00231  -0.00948  -0.00825
                          36        37        38
  36 6   H  1S          0.07985
  37        2S          0.07743   0.15284
  38        3S          0.01426   0.04395   0.02310
     Gross orbital populations:
                           1
   1 1   C  1S          1.10434
   2        2S          0.88586
   3        2PX         0.22748
   4        2PY         0.23699
   5        2PZ         0.16631
   6        3S          0.79332
   7        3PX         0.56157
   8        3PY         0.55685
   9        3PZ         0.42361
  10        4S          0.50120
  11        4PX         0.25944
  12        4PY         0.21063
  13        4PZ         0.41213
  14 2   H  1S          0.27560
  15        2S          0.46611
  16        3S          0.08495
  17 3   H  1S          0.27785
  18        2S          0.46475
  19        3S          0.08289
  20 4   C  1S          1.10441
  21        2S          0.88584
  22        2PX         0.22174
  23        2PY         0.23553
  24        2PZ         0.16579
  25        3S          0.79203
  26        3PX         0.55195
  27        3PY         0.55556
  28        3PZ         0.42019
  29        4S          0.50932
  30        4PX         0.27431
  31        4PY         0.21665
  32        4PZ         0.41188
  33 5   H  1S          0.27099
  34        2S          0.47055
  35        3S          0.08998
  36 6   H  1S          0.26949
  37        2S          0.47103
  38        3S          0.09089
          Condensed to atoms (all electrons):
               1          2          3          4          5          6
     1  C    5.032675   0.387811   0.388344   0.602643  -0.036174  -0.035568
     2  H    0.387811   0.516397  -0.033918  -0.039977   0.006004  -0.009663
     3  H    0.388344  -0.033918   0.514294  -0.039511  -0.009632   0.005906
     4  C    0.602643  -0.039977  -0.039511   5.054886   0.383741   0.383417
     5  H   -0.036174   0.006004  -0.009632   0.383741   0.527324  -0.039743
     6  H   -0.035568  -0.009663   0.005906   0.383417  -0.039743   0.527064
 Mulliken charges:
               1
     1  C   -0.339731
     2  H    0.173346
     3  H    0.174516
     4  C   -0.345199
     5  H    0.168481
     6  H    0.168587
 Sum of Mulliken charges =  -0.00000
 Mulliken charges with hydrogens summed into heavy atoms:
               1
     1  C    0.008132
     4  C   -0.008132
 Electronic spatial extent (au):  <R**2>=             83.6792
 Charge=             -0.0000 electrons
 Dipole moment (field-independent basis, Debye):
    X=             -0.0003    Y=              0.0101    Z=             -0.0593  Tot=              0.0602
 Quadrupole moment (field-independent basis, Debye-Ang):
   XX=            -12.2017   YY=            -12.2157   ZZ=            -15.6687
   XY=              0.0143   XZ=              0.0000   YZ=             -0.0038
 Traceless Quadrupole moment (field-independent basis, Debye-Ang):
   XX=              1.1603   YY=              1.1463   ZZ=             -2.3066
   XY=              0.0143   XZ=              0.0000   YZ=             -0.0038
 Octapole moment (field-independent basis, Debye-Ang**2):
  XXX=             -0.2862  YYY=             -0.1110  ZZZ=             -0.0631  XYY=              0.1289
  XXY=             -0.0398  XXZ=             -0.0867  XZZ=             -0.0866  YZZ=             -0.1006
  YYZ=             -0.1118  XYZ=             -0.0220
 Hexadecapole moment (field-independent basis, Debye-Ang**3):
 XXXX=            -34.2678 YYYY=            -55.1585 ZZZZ=            -17.7938 XXXY=             -7.2246
 XXXZ=              0.0113 YYYX=            -10.6965 YYYZ=              0.0183 ZZZX=              0.0156
 ZZZY=              0.0332 XXYY=            -16.1886 XXZZ=             -9.9249 YYZZ=            -13.6367
 XXYZ=              0.0076 YYXZ=              0.0030 ZZXY=             -3.1995
 N-N= 3.308220860891D+01 E-N=-2.478779527661D+02  KE= 7.815524273860D+01
 Orbital energies and kinetic energies (alpha):
                                 1                 2
   1         O               -10.290820         15.979071
   2         O               -10.287161         15.979137
   3         O                -0.864048          1.540132
   4         O                -0.671981          1.271159
   5         O                -0.559416          0.942057
   6         O                -0.509595          1.284419
   7         O                -0.436416          1.042864
   8         O                -0.357081          1.038784
   9         V                 0.080257          1.181560
  10         V                 0.140995          0.589480
  11         V                 0.164578          0.595666
  12         V                 0.170183          0.679086
  13         V                 0.240817          0.582689
  14         V                 0.375511          0.854955
  15         V                 0.393279          0.934226
  16         V                 0.397467          0.774816
  17         V                 0.463567          1.194539
  18         V                 0.488404          1.420637
  19         V                 0.493635          1.300831
  20         V                 0.591199          1.653130
  21         V                 0.665386          1.573508
  22         V                 0.691519          2.145884
  23         V                 0.772190          2.430715
  24         V                 0.776604          2.309964
  25         V                 0.844810          1.087119
  26         V                 0.953161          3.432004
  27         V                 2.231570          3.923086
  28         V                 2.289990          4.030724
  29         V                 2.333137          4.302738
  30         V                 2.407879          4.522833
  31         V                 2.671371          6.301494
  32         V                 2.818157          6.307533
  33         V                 2.877091          6.134468
  34         V                 2.952059          6.226767
  35         V                 3.140968          6.821876
  36         V                 3.320430          6.401072
  37         V                23.352058         60.074095
  38         V                23.707097         60.204664
 Total kinetic energy from orbitals= 7.815524273860D+01
 Calling FoFJK, ICntrl=      2127 FMM=F ISym2X=0 I1Cent= 0 IOpClX= 0 NMat=1 NMatS=1 NMatT=0.
 -------------------------------------------------------------------
 Center     Atomic                   Forces (Hartrees/Bohr)
 Number     Number              X              Y              Z
 -------------------------------------------------------------------
      1        6           0.010773214    0.008865655   -0.002344174
      2        1          -0.006909538    0.003476364    0.001165556
      3        1           0.001910014   -0.003818852    0.001104722
      4        6           0.008445078    0.012006749   -0.002665792
      5        1           0.004297047   -0.015708400    0.001357471
      6        1          -0.018515815   -0.004821517    0.001382218
 -------------------------------------------------------------------
 Cartesian Forces:  Max     0.018515815 RMS     0.007952765

 GradGradGradGradGradGradGradGradGradGradGradGradGradGradGradGradGradGrad
 Berny optimization.
 Search for a local minimum.
 Step number   1 out of a maximum of    2
 All quantities printed in internal units (Hartrees-Bohrs-Radians)
 Second derivative matrix not updated -- first step.
 The second derivative matrix:
                          X1        Y1        Z1        X2        Y2
           X1           0.76224
           Y1           0.09859   0.86708
           Z1           0.00344   0.00511   0.17296
           X2          -0.16510   0.09746   0.00123   0.14238
           Y2           0.10384  -0.28942  -0.00445  -0.11692   0.27824
           Z2           0.00196  -0.00560  -0.05576  -0.00177   0.00461
           X3          -0.35384  -0.00213  -0.00491  -0.00030  -0.00017
           Y3          -0.00844  -0.11039  -0.00117   0.03275   0.01883
           Z3          -0.00628  -0.00112  -0.05649   0.00090   0.00033
           X4          -0.26818  -0.17956  -0.00039   0.02304   0.01325
           Y4          -0.17982  -0.47544  -0.00059  -0.01330  -0.00765
           Z4           0.00086   0.00158  -0.09489  -0.00036  -0.00049
           X5           0.02333  -0.01347   0.00038  -0.00000   0.00000
           Y5           0.01184  -0.00684   0.00052   0.00000  -0.00000
           Z5          -0.00032   0.00021   0.01722   0.00015  -0.00008
           X6           0.00155  -0.00090   0.00024  -0.00000   0.00000
           Y6          -0.02601   0.01502   0.00057   0.00000  -0.00000
           Z6           0.00034  -0.00017   0.01695  -0.00015   0.00008
                          Z2        X3        Y3        Z3        X4
           Z2           0.02897
           X3          -0.00018   0.35391
           Y3           0.00097   0.00243   0.07612
           Z3           0.01062   0.00536   0.00079   0.02953
           X4           0.00030   0.00024  -0.02675  -0.00029   0.71142
           Y4          -0.00016  -0.00014   0.01545   0.00019   0.12253
           Z4           0.01616  -0.00026  -0.00059   0.01633  -0.00317
           X5          -0.00015  -0.00000   0.00000   0.00016  -0.14617
           Y5           0.00010   0.00000  -0.00000  -0.00010   0.09154
           Z5           0.00932   0.00016  -0.00010  -0.00942  -0.00192
           X6          -0.00015  -0.00000   0.00000   0.00016  -0.32035
           Y6           0.00008   0.00000  -0.00000  -0.00008  -0.02101
           Z6          -0.00931  -0.00016   0.00010   0.00942   0.00546
                          Y4        Z4        X5        Y5        Z5
           Y4           0.85603
           Z4          -0.00622   0.17537
           X5           0.08363  -0.00127   0.12477
           Y5          -0.28396   0.00453  -0.10241   0.27444
           Z5           0.00560  -0.05657   0.00172  -0.00483   0.02927
           X6          -0.01289   0.00420  -0.00193  -0.00098   0.00021
           Y6          -0.10442   0.00119   0.03225   0.01636  -0.00080
           Z6           0.00118  -0.05640  -0.00083  -0.00023   0.01018
                          X6        Y6        Z6
           X6           0.32073
           Y6           0.01476   0.07305
           Z6          -0.00465  -0.00095   0.02916
 ITU=  0
     Eigenvalues ---    0.03748   0.04382   0.09398   0.09932   0.13522
     Eigenvalues ---    0.17459   0.26552   0.28981   0.52899   0.69935
     Eigenvalues ---    0.97659   1.56859
 Angle between quadratic step and forces=  30.86 degrees.
 Linear search not attempted -- first point.
 B after Tr=     0.005287    0.007121   -0.006064
         Rot=    1.000000   -0.000016    0.000008   -0.000106 Ang=  -0.01 deg.
 Variable       Old X    -DE/DX   Delta X   Delta X   Delta X     New X
                                 (Linear)    (Quad)   (Total)
    X1       -0.63356   0.01077   0.00000   0.01724   0.02276  -0.61080
    Y1       -1.09777   0.00887   0.00000   0.02134   0.02833  -1.06945
    Z1        0.00901  -0.00234   0.00000  -0.01275  -0.01886  -0.00985
    X2        0.39574  -0.00691   0.00000  -0.02536  -0.01946   0.37628
    Y2       -2.88645   0.00348   0.00000   0.01794   0.02514  -2.86131
    Z2       -0.02280   0.00117   0.00000   0.01565   0.00951  -0.01330
    X3       -2.68347   0.00191   0.00000   0.02242   0.02795  -2.65552
    Y3       -1.11583  -0.00382   0.00000  -0.01223  -0.00567  -1.12150
    Z3       -0.02487   0.00110   0.00000   0.01539   0.00925  -0.01563
    X4        0.62969   0.00845   0.00000   0.00463   0.00968   0.63937
    Y4        1.08991   0.01201   0.00000   0.00815   0.01541   1.10532
    Z4        0.00631  -0.00267   0.00000  -0.01235  -0.01837  -0.01206
    X5       -0.31937   0.00430   0.00000   0.00057   0.00524  -0.31414
    Y5        2.95911  -0.01571   0.00000  -0.04825  -0.04119   2.91792
    Z5       -0.02954   0.00136   0.00000   0.01537   0.00939  -0.02015
    X6        2.73107  -0.01852   0.00000  -0.05120  -0.04616   2.68491
    Y6        1.21479  -0.00482   0.00000  -0.02971  -0.02201   1.19277
    Z6       -0.02752   0.00138   0.00000   0.01507   0.00908  -0.01844
         Item               Value     Threshold  Converged?
 Maximum Force            0.018516     0.000450     NO 
 RMS     Force            0.007953     0.000300     NO 
 Maximum Displacement     0.046164     0.001800     NO 
 RMS     Displacement     0.022180     0.001200     NO 
 Predicted change in Energy=-1.415145D-03
 GradGradGradGradGradGradGradGradGradGradGradGradGradGradGradGradGradGrad

 Unable to Open any file for archive entry.
 1\1\GINC-BHD0006\Force\RwB97XD\6-311G\C2H4\BWEIGHT\11-Jan-2023\0\\# WB
 97XD/6-311G SCF=XQC FORCE nosym pop=full guess=read\\MD Step 999\\0,1\
 C,-0.33526588,-0.58091725,0.00476749\H,0.20941845,-1.52744479,-0.01206
 586\H,-1.42003279,-0.59047165,-0.01316284\C,0.33321797,0.57675469,0.00
 334141\H,-0.16900568,1.56589413,-0.01563078\H,1.44522257,0.64283831,-0
 .01456413\\Version=ES64L-G16RevC.01\HF=-78.5559729\RMSD=6.093e-09\RMSF
 =7.953e-03\Dipole=-0.0001361,0.0039701,-0.0233384\Quadrupole=0.8626647
 ,0.8522463,-1.714911,0.0106623,0.0000141,-0.0027978\PG=C01 [X(C2H4)]\\
 @
 The archive entry for this job was punched.


 NO HUMAN INVESTIGATION CAN BECOME REAL SCIENCE
 WITHOUT GOING THROUGH MATHEMATICAL PEOPLE.
 -- LEONARDO DA VINCI, IN "PENSIERI" CA. 1492
 Job cpu time:       0 days  0 hours  0 minutes 21.8 seconds.
 Elapsed time:       0 days  0 hours  0 minutes  7.8 seconds.
 File lengths (MBytes):  RWF=    272 Int=      0 D2E=      0 Chk=     32 Scr=     32
 Normal termination of Gaussian 16 at Wed Jan 11 18:48:49 2023.
