6
MD Step 0
C  -0.33763715 -0.58748864 0.00000000
H  0.19552659 -1.51519357 0.00000000
H  -1.40763715 -0.58748864 0.00000000
C  0.33763715 0.58748865 0.00000000
H  -0.19552659 1.51519357 0.00000000
H  1.40763715 0.58748865 0.00000000
6
MD Step 1
C  -0.33800565 -0.58783578 -0.00039389
H  0.19788659 -1.51299097 0.00234597
H  -1.40542174 -0.58520442 0.00234919
C  0.33721693 0.58704641 -0.00039450
H  -0.19318989 1.51768580 0.00234803
H  1.41012347 0.58991570 0.00235124
6
MD Step 2
C  -0.33831213 -0.58808045 -0.00078194
H  0.20023508 -1.51113168 0.00465721
H  -1.40356110 -0.58310390 0.00466373
C  0.33675505 0.58651820 -0.00078315
H  -0.19090418 1.52041094 0.00466120
H  1.41278443 0.59244048 0.00466752
6
MD Step 3
C  -0.33855284 -0.58822156 -0.00116381
H  0.20256859 -1.50962782 0.00693148
H  -1.40210097 -0.58119607 0.00694161
C  0.33625688 0.58590836 -0.00116549
H  -0.18866433 1.52333706 0.00693692
H  1.41555535 0.59505106 0.00694597
6
MD Step 4
C  -0.33872952 -0.58826384 -0.00154383
H  0.20490838 -1.50845604 0.00919454
H  -1.40104888 -0.57946085 0.00920904
C  0.33572333 0.58521745 -0.00154574
H  -0.18643510 1.52645503 0.00920042
H  1.41839749 0.59776271 0.00921144
6
MD Step 5
C  -0.33884273 -0.58821103 -0.00192427
H  0.20726004 -1.50759831 0.01145972
H  -1.40041414 -0.57788965 0.01147987
C  0.33515757 0.58444902 -0.00192599
H  -0.18419202 1.52973879 0.01146428
H  1.42125856 0.60057736 0.01147600
6
MD Step 6
C  -0.33887931 -0.58805338 -0.00229280
H  0.20953929 -1.50711663 0.01365342
H  -1.40028170 -0.57655979 0.01368122
C  0.33457745 0.58362199 -0.00229374
H  -0.18199625 1.53307167 0.01365407
H  1.42399972 0.60340925 0.01366461
6
MD Step 7
C  -0.33884641 -0.58780135 -0.00265625
H  0.21177306 -1.50695193 0.01581613
H  -1.40060905 -0.57543336 0.01585423
C  0.33398160 0.58273674 -0.00265557
H  -0.17979429 1.53644905 0.01580926
H  1.42659947 0.60628626 0.01581620
6
MD Step 8
C  -0.33874219 -0.58745639 -0.00301142
H  0.21392637 -1.50709866 0.01792870
H  -1.40140080 -0.57453094 0.01798049
C  0.33337848 0.58180416 -0.00300811
H  -0.17759197 1.53980540 0.01790973
H  1.42898047 0.60917624 0.01791002
6
MD Step 9
C  -0.33857380 -0.58702874 -0.00336301
H  0.21600927 -1.50749884 0.02001895
H  -1.40260217 -0.57382502 0.02008839
C  0.33276851 0.58082769 -0.00335583
H  -0.17534855 1.54312201 0.01998222
H  1.43111751 0.61209371 0.01997238
6
MD Step 10
C  -0.33834540 -0.58652547 -0.00371173
H  0.21800676 -1.50811375 0.02209100
H  -1.40417112 -0.57331066 0.02218253
C  0.33215582 0.57981502 -0.00369924
H  -0.17304767 1.54635709 0.02202981
H  1.43296727 0.61502927 0.02200596
6
MD Step 11
C  -0.33805684 -0.58594914 -0.00405302
H  0.21987203 -1.50893228 0.02411788
H  -1.40608705 -0.57301285 0.02423645
C  0.33154952 0.57877926 -0.00403368
H  -0.17070516 1.54943934 0.02402464
H  1.43446164 0.61794230 0.02398243
6
MD Step 12
C  -0.33771316 -0.58530720 -0.00438668
H  0.22158371 -1.50991491 0.02609834
H  -1.40829488 -0.57292969 0.02624912
C  0.33095407 0.57772924 -0.00435880
H  -0.16831276 1.55232574 0.02596457
H  1.43556552 0.62081796 0.02589943
6
MD Step 13
C  -0.33731893 -0.58460638 -0.00471122
H  0.22311343 -1.51102777 0.02802378
H  -1.41073978 -0.57306540 0.02821203
C  0.33037479 0.57667501 -0.00467308
H  -0.16587142 1.55496935 0.02784028
H  1.43624434 0.62363426 0.02774747
6
MD Step 14
C  -0.33688280 -0.58385725 -0.00502862
H  0.22445431 -1.51221555 0.02990625
H  -1.41334090 -0.57340234 0.03013689
C  0.32981315 0.57562294 -0.00497844
H  -0.16336369 1.55734800 0.02966314
H  1.43649239 0.62639016 0.02953812
6
MD Step 15
C  -0.33640829 -0.58306500 -0.00533520
H  0.22556727 -1.51345674 0.03172421
H  -1.41604769 -0.57395523 0.03200195
C  0.32927586 0.57458483 -0.00527126
H  -0.16080804 1.55941056 0.03141123
H  1.43627865 0.62905139 0.03124945
6
MD Step 16
C  -0.33589679 -0.58223246 -0.00562468
H  0.22640011 -1.51474573 0.03344108
H  -1.41882277 -0.57475246 0.03377056
C  0.32877170 0.57357460 -0.00554550
H  -0.15824043 1.56109625 0.03304793
H  1.43556586 0.63156926 0.03284465
6
MD Step 17
C  -0.33535709 -0.58136963 -0.00589799
H  0.22694527 -1.51603604 0.03506286
H  -1.42158564 -0.57577876 0.03544785
C  0.32830181 0.57259857 -0.00580222
H  -0.15565721 1.56239269 0.03457913
H  1.43436850 0.63393836 0.03433016
6
MD Step 18
C  -0.33479680 -0.58048521 -0.00615474
H  0.22719004 -1.51729122 0.03658784
H  -1.42426474 -0.57702540 0.03703112
C  0.32786811 0.57166384 -0.00604120
H  -0.15306527 1.56328597 0.03600323
H  1.43270243 0.63614632 0.03570503
6
MD Step 19
C  -0.33421808 -0.57958218 -0.00638891
H  0.22709172 -1.51851062 0.03798133
H  -1.42682411 -0.57851518 0.03848543
C  0.32747755 0.57078236 -0.00625694
H  -0.15050700 1.56373585 0.03728630
H  1.43055970 0.63814888 0.03693524
6
MD Step 20
C  -0.33363986 -0.57868034 -0.00661182
H  0.22671195 -1.51959580 0.03931039
H  -1.42913034 -0.58016892 0.03987490
C  0.32711946 0.56994845 -0.00646054
H  -0.14792687 1.56380999 0.03849517
H  1.42804255 0.64000417 0.03809018
6
MD Step 21
C  -0.33306202 -0.57778014 -0.00681547
H  0.22600286 -1.52056527 0.04052883
H  -1.43116886 -0.58201894 0.04115321
C  0.32680171 0.56917461 -0.00664469
H  -0.14538432 1.56346972 0.03958491
H  1.42514838 0.64165834 0.03912477
6
MD Step 22
C  -0.33249225 -0.57688987 -0.00700029
H  0.22496896 -1.52139300 0.04163975
H  -1.43288256 -0.58404792 0.04232201
C  0.32652339 0.56846436 -0.00681013
H  -0.14289268 1.56273189 0.04055945
H  1.42193137 0.64310769 0.04004419
6
MD Step 23
C  -0.33193613 -0.57601559 -0.00716495
H  0.22360814 -1.52206779 0.04263611
H  -1.43423185 -0.58624786 0.04337316
C  0.32628481 0.56782213 -0.00695601
H  -0.14047782 1.56160970 0.04141295
H  1.41844283 0.64433954 0.04084353
6
MD Step 24
C  -0.33140229 -0.57516636 -0.00731181
H  0.22194288 -1.52256229 0.04353224
H  -1.43516401 -0.58858912 0.04431912
C  0.32608226 0.56724797 -0.00708493
H  -0.13814692 1.56014371 0.04216072
H  1.41476172 0.64536354 0.04153988
6
MD Step 25
C  -0.33089347 -0.57434527 -0.00743776
H  0.21996744 -1.52288603 0.04431061
H  -1.43566681 -0.59107318 0.04514175
C  0.32591693 0.56674642 -0.00719439
H  -0.13594073 1.55834861 0.04278686
H  1.41094073 0.64615872 0.04211798
6
MD Step 26
C  -0.33041751 -0.57356048 -0.00754565
H  0.21771366 -1.52301961 0.04498817
H  -1.43570289 -0.59366717 0.04585615
C  0.32578391 0.56631550 -0.00728746
H  -0.13386782 1.55627870 0.04330950
H  1.40707111 0.64673952 0.04259787
6
MD Step 27
C  -0.32997796 -0.57281584 -0.00763460
H  0.21519523 -1.52297033 0.04556038
H  -1.43526584 -0.59635939 0.04645688
C  0.32568160 0.56595600 -0.00736374
H  -0.13195945 1.55397172 0.04372571
H  1.40322565 0.64709999 0.04297768
6
MD Step 28
C  -0.32957705 -0.57211378 -0.00770315
H  0.21242517 -1.52275454 0.04601893
H  -1.43436273 -0.59914190 0.04693504
C  0.32560882 0.56566862 -0.00742224
H  -0.13025170 1.55146568 0.04402886
H  1.39947472 0.64723143 0.04325166
6
MD Step 29
C  -0.32921307 -0.57145281 -0.00774644
H  0.20940039 -1.52241263 0.04633640
H  -1.43302931 -0.60202584 0.04726362
C  0.32556751 0.56545655 -0.00745893
H  -0.12880022 1.54878303 0.04419348
H  1.39586967 0.64710704 0.04339421
6
MD Step 30
C  -0.32888766 -0.57083478 -0.00776395
H  0.20614488 -1.52196520 0.04650997
H  -1.43128600 -0.60499812 0.04743953
C  0.32555539 0.56531821 -0.00747374
H  -0.12763645 1.54597336 0.04421841
H  1.39248500 0.64672555 0.04340478
6
MD Step 31
C  -0.32860918 -0.57026839 -0.00776303
H  0.20272983 -1.52139231 0.04658194
H  -1.42911737 -0.60800124 0.04750278
C  0.32556266 0.56524400 -0.00747366
H  -0.12674690 1.54313276 0.04414698
H  1.38943682 0.64613152 0.04332911
6
MD Step 32
C  -0.32837485 -0.56975115 -0.00774017
H  0.19916650 -1.52074009 0.04653228
H  -1.42657925 -0.61103993 0.04743417
C  0.32559019 0.56523422 -0.00745581
H  -0.12617864 1.54029566 0.04396088
H  1.38677352 0.64530815 0.04314838
6
MD Step 33
C  -0.32818464 -0.56928346 -0.00769557
H  0.19548886 -1.52003711 0.04636209
H  -1.42371509 -0.61409852 0.04723489
C  0.32563559 0.56528537 -0.00742059
H  -0.12595619 1.53751661 0.04366252
H  1.38455704 0.64426036 0.04286511
6
MD Step 34
C  -0.32803874 -0.56886606 -0.00763048
H  0.19173802 -1.51930893 0.04607837
H  -1.42057047 -0.61715611 0.04691205
C  0.32569587 0.56539272 -0.00736930
H  -0.12609586 1.53485395 0.04326000
H  1.38284591 0.64299955 0.04248744
6
MD Step 35
C  -0.32793754 -0.56850011 -0.00754720
H  0.18796166 -1.51857750 0.04569392
H  -1.41719265 -0.62018671 0.04647849
C  0.32576759 0.56555050 -0.00730408
H  -0.12660520 1.53236833 0.04276696
H  1.38169344 0.64154344 0.04202900
6
MD Step 36
C  -0.32787667 -0.56818213 -0.00744371
H  0.18418329 -1.51789078 0.04519689
H  -1.41366007 -0.62318965 0.04592375
C  0.32585197 0.56575714 -0.00722312
H  -0.12751254 1.53009105 0.04217233
H  1.38111572 0.63988564 0.04147742
6
MD Step 37
C  -0.32785130 -0.56790847 -0.00731821
H  0.18042751 -1.51729597 0.04457673
H  -1.41005526 -0.62616381 0.04523885
C  0.32595063 0.56601099 -0.00712474
H  -0.12884067 1.52804877 0.04146597
H  1.38111679 0.63802151 0.04082106
6
MD Step 38
C  -0.32786030 -0.56767941 -0.00717339
H  0.17674345 -1.51681445 0.04384821
H  -1.40643927 -0.62908351 0.04443926
C  0.32606153 0.56630638 -0.00701123
H  -0.13058233 1.52628670 0.04066279
H  1.38171240 0.63597232 0.04007407
6
MD Step 39
C  -0.32789842 -0.56749132 -0.00700808
H  0.17315706 -1.51648816 0.04300417
H  -1.40289754 -0.63194584 0.04351957
C  0.32618686 0.56664169 -0.00688132
H  -0.13274691 1.52482025 0.03975545
H  1.38288235 0.63373799 0.03922738
6
MD Step 40
C  -0.32796487 -0.56734534 -0.00682624
H  0.16972129 -1.51632774 0.04206627
H  -1.39948730 -0.63471973 0.04250232
C  0.32632451 0.56701085 -0.00673829
H  -0.13530933 1.52368540 0.03876532
H  1.38462191 0.63134796 0.03830148
6
MD Step 41
C  -0.32805828 -0.56724219 -0.00663146
H  0.16648455 -1.51634286 0.04105399
H  -1.39626720 -0.63737702 0.04140807
C  0.32647322 0.56740858 -0.00658501
H  -0.13824079 1.52290695 0.03771143
H  1.38691106 0.62883017 0.03731440
6
MD Step 42
C  -0.32817449 -0.56718004 -0.00642460
H  0.16347710 -1.51655464 0.03997147
H  -1.39330893 -0.63990579 0.04024265
C  0.32663470 0.56783273 -0.00642190
H  -0.14152196 1.52248504 0.03659717
H  1.38970207 0.62619786 0.03626802
6
MD Step 43
C  -0.32831098 -0.56715885 -0.00620829
H  0.16073567 -1.51696979 0.03883262
H  -1.39067023 -0.64228499 0.03902132
C  0.32680933 0.56827999 -0.00625090
H  -0.14511785 1.52242049 0.03543573
H  1.39294621 0.62347476 0.03517437
6
MD Step 44
C  -0.32845971 -0.56717320 -0.00597924
H  0.15826030 -1.51762295 0.03761850
H  -1.38843605 -0.64452751 0.03772727
C  0.32700322 0.56875309 -0.00606873
H  -0.14902109 1.52267220 0.03420682
H  1.39655239 0.62065228 0.03401135
6
MD Step 45
C  -0.32861682 -0.56722188 -0.00573835
H  0.15607043 -1.51851942 0.03633349
H  -1.38665967 -0.64662326 0.03636627
C  0.32721859 0.56925123 -0.00587582
H  -0.15319576 1.52321472 0.03291381
H  1.40044636 0.61774611 0.03278125
6
MD Step 46
C  -0.32877621 -0.56730135 -0.00548371
H  0.15416556 -1.51967402 0.03496652
H  -1.38540015 -0.64857835 0.03492875
C  0.32746018 0.56977660 -0.00567017
H  -0.15761717 1.52400007 0.03154424
H  1.40453362 0.61475713 0.03147049
6
MD Step 47
C  -0.32893873 -0.56741479 -0.00522021
H  0.15257880 -1.52105699 0.03354430
H  -1.38466673 -0.65036090 0.03344199
C  0.32772614 0.57032516 -0.00545582
H  -0.16221854 1.52501281 0.03012442
H  1.40875568 0.61172511 0.03010514
6
MD Step 48
C  -0.32909505 -0.56755513 -0.00494140
H  0.15127557 -1.52269587 0.03203086
H  -1.38451983 -0.65200318 0.03187123
C  0.32802493 0.57090376 -0.00522684
H  -0.16699384 1.52616937 0.02861650
H  1.41298970 0.60862725 0.02864641
6
MD Step 49
C  -0.32924853 -0.56772742 -0.00465342
H  0.15028725 -1.52454121 0.03046015
H  -1.38493534 -0.65346657 0.03025047
C  0.32835277 0.57150735 -0.00498852
H  -0.17186376 1.52745406 0.02705455
H  1.41718572 0.60551199 0.02712856
6
MD Step 50
C  -0.32939319 -0.56792719 -0.00435191
H  0.14958219 -1.52659708 0.02880794
H  -1.38593475 -0.65477214 0.02855582
C  0.32871529 0.57214082 -0.00473689
H  -0.17680701 1.52879012 0.02541293
H  1.42123746 0.60236943 0.02552573
6
MD Step 51
C  -0.32953338 -0.56815962 -0.00404248
H  0.14918076 -1.52880597 0.02710564
H  -1.38746944 -0.65588449 0.02681833
C  0.32910821 0.57279937 -0.00447694
H  -0.18174511 1.53015678 0.02372350
H  1.42510008 0.59924624 0.02387017
6
MD Step 52
C  -0.32966610 -0.56842219 -0.00372242
H  0.14905281 -1.53115322 0.02533836
H  -1.38952531 -0.65681599 0.02502277
C  0.32953456 0.57348596 -0.00420624
H  -0.18664720 1.53148669 0.02197059
H  1.42868711 0.59614244 0.02214646
6
MD Step 53
C  -0.32978800 -0.56871159 -0.00338800
H  0.14915917 -1.53362636 0.02348575
H  -1.39208216 -0.65758524 0.02314825
C  0.32999772 0.57420424 -0.00392153
H  -0.19148926 1.53270855 0.02013288
H  1.43191323 0.59305248 0.02033369
6
MD Step 54
C  -0.32990694 -0.56903493 -0.00304650
H  0.14951964 -1.53614782 0.02158878
H  -1.39504669 -0.65814868 0.02123490
C  0.33049017 0.57494692 -0.00362946
H  -0.19618643 1.53381631 0.01825262
H  1.43476376 0.59003272 0.01847467
6
MD Step 55
C  -0.33001955 -0.56938783 -0.00269311
H  0.15008351 -1.53870693 0.01962115
H  -1.39838565 -0.65853240 0.01925560
C  0.33101519 0.57571790 -0.00332585
H  -0.20072520 1.53473887 0.01630259
H  1.43716335 0.58707112 0.01654277
6
MD Step 56
C  -0.33013031 -0.56977312 -0.00233079
H  0.15084180 -1.54124821 0.01759993
H  -1.40201475 -0.65871910 0.01722651
C  0.33156820 0.57651318 -0.00301353
H  -0.20505085 1.53545357 0.01430040
H  1.43908983 0.58419899 0.01455618
6
MD Step 57
C  -0.33024400 -0.57019353 -0.00196260
H  0.15178467 -1.54371582 0.01554281
H  -1.40584433 -0.65869189 0.01516450
C  0.33214401 0.57732818 -0.00269545
H  -0.20911161 1.53594328 0.01226438
H  1.44053077 0.58144766 0.01253377
6
MD Step 58
C  -0.33036244 -0.57064842 -0.00158844
H  0.15288339 -1.54607312 0.01344980
H  -1.40980019 -0.65845326 0.01306877
C  0.33273990 0.57816087 -0.00237171
H  -0.21287779 1.53617814 0.01019460
H  1.44146473 0.57882972 0.01047614
6
MD Step 59
C  -0.33048706 -0.57113649 -0.00120790
H  0.15410671 -1.54828751 0.01131898
H  -1.41380945 -0.65800902 0.01093668
C  0.33335306 0.57900905 -0.00204205
H  -0.21632606 1.53613195 0.00808906
H  1.44187753 0.57635484 0.00838178
6
MD Step 60
C  -0.33061918 -0.57165599 -0.00082055
H  0.15542344 -1.55032897 0.00914852
H  -1.41780005 -0.65736631 0.00876584
C  0.33398017 0.57987003 -0.00170625
H  -0.21943759 1.53578471 0.00594585
H  1.44176451 0.57403181 0.00624918
6
MD Step 61
C  -0.33076065 -0.57220543 -0.00042677
H  0.15680702 -1.55216649 0.00694087
H  -1.42169805 -0.65652932 0.00655823
C  0.33461683 0.58073984 -0.00136472
H  -0.22219412 1.53512698 0.00376736
H  1.44113480 0.57187256 0.00408103
6
MD Step 62
C  -0.33091216 -0.57278199 -0.00002602
H  0.15822654 -1.55377799 0.00469339
H  -1.42543846 -0.65550887 0.00431094
C  0.33525905 0.58161492 -0.00101708
H  -0.22458752 1.53415064 0.00155067
H  1.44000173 0.56988275 0.00187463
6
MD Step 63
C  -0.33107891 -0.57338706 0.00037725
H  0.15968047 -1.55511718 0.00243151
H  -1.42893278 -0.65428857 0.00204928
C  0.33589781 0.58248641 -0.00066746
H  -0.22658624 1.53288256 -0.00067846
H  1.43841642 0.56809510 -0.00034421
6
MD Step 64
C  -0.33126305 -0.57401894 0.00078131
H  0.16115331 -1.55615802 0.00016537
H  -1.43211431 -0.65286906 -0.00021659
C  0.33652634 0.58334764 -0.00031749
H  -0.22817945 1.53134048 -0.00291006
H  1.43642295 0.56652558 -0.00256559
6
MD Step 65
C  -0.33146427 -0.57467341 0.00118646
H  0.16261952 -1.55689135 -0.00210658
H  -1.43493543 -0.65126429 -0.00248809
C  0.33713963 0.58419354 0.00003316
H  -0.22937335 1.52953649 -0.00514637
H  1.43406148 0.56517690 -0.00479187
6
MD Step 66
C  -0.33168659 -0.57535045 0.00158810
H  0.16408369 -1.55728490 -0.00435800
H  -1.43732806 -0.64946108 -0.00473856
C  0.33772780 0.58501393 0.00038025
H  -0.23015086 1.52751715 -0.00736113
H  1.43140795 0.56407856 -0.00699714
6
MD Step 67
C  -0.33192701 -0.57604315 0.00198828
H  0.16551426 -1.55735032 -0.00660060
H  -1.43927119 -0.64748615 -0.00697937
C  0.33828730 0.58580480 0.00072585
H  -0.23053843 1.52529623 -0.00956716
H  1.42850596 0.56322021 -0.00919458
6
MD Step 68
C  -0.33218019 -0.57674229 0.00239098
H  0.16687109 -1.55711554 -0.00885697
H  -1.44076346 -0.64537835 -0.00923274
C  0.33881638 0.58656374 0.00107385
H  -0.23057835 1.52288202 -0.01178856
H  1.42539370 0.56257913 -0.01140872
6
MD Step 69
C  -0.33245222 -0.57744996 0.00278805
H  0.16818621 -1.55654355 -0.01108044
H  -1.44174203 -0.64310707 -0.01145135
C  0.33930169 0.58727635 0.00141675
H  -0.23024713 1.52035810 -0.01397889
H  1.42218444 0.56220105 -0.01359386
6
MD Step 70
C  -0.33274332 -0.57816262 0.00317686
H  0.16946264 -1.55563421 -0.01325573
H  -1.44218498 -0.64067438 -0.01361933
C  0.33973534 0.58793341 0.00175225
H  -0.22955725 1.51778082 -0.01612388
H  1.41896252 0.56209868 -0.01573644
6
MD Step 71
C  -0.33304733 -0.57887050 0.00356076
H  0.17067110 -1.55442754 -0.01540236
H  -1.44211496 -0.63811828 -0.01575570
C  0.34011559 0.58853162 0.00208383
H  -0.22856002 1.51517511 -0.01824475
H  1.41577822 0.56224848 -0.01785829
6
MD Step 72
C  -0.33336423 -0.57957016 0.00393644
H  0.17182383 -1.55292912 -0.01750111
H  -1.44152462 -0.63543808 -0.01784061
C  0.34043460 0.58906112 0.00240857
H  -0.22727075 1.51260806 -0.02032343
H  1.41272076 0.56266462 -0.01994216
6
MD Step 73
C  -0.33369115 -0.58025552 0.00430308
H  0.17292110 -1.55116351 -0.01954730
H  -1.44043036 -0.63264812 -0.01986882
C  0.34068750 0.58951464 0.00272596
H  -0.22572196 1.51013420 -0.02235669
H  1.40986250 0.56334555 -0.02198546
6
MD Step 74
C  -0.33401975 -0.58091540 0.00466493
H  0.17393580 -1.54918917 -0.02156597
H  -1.43888745 -0.62979305 -0.02186519
C  0.34087506 0.58989023 0.00304049
H  -0.22397799 1.50777911 -0.02437146
H  1.40724165 0.56425881 -0.02401546
6
MD Step 75
C  -0.33434965 -0.58154681 0.00501795
H  0.17489208 -1.54701870 -0.02353345
H  -1.43691019 -0.62686826 -0.02380549
C  0.34099053 0.59017799 0.00334847
H  -0.22205508 1.50561752 -0.02634527
H  1.40494022 0.56542004 -0.02601029
6
MD Step 76
C  -0.33467098 -0.58213773 0.00536725
H  0.17576201 -1.54472188 -0.02548007
H  -1.43457519 -0.62392354 -0.02572025
C  0.34103712 0.59037766 0.00365527
H  -0.22002416 1.50366843 -0.02831027
H  1.40297823 0.56678979 -0.02800194
6
MD Step 77
C  -0.33498229 -0.58268493 0.00570931
H  0.17657068 -1.54231914 -0.02738517
H  -1.43191462 -0.62095693 -0.02758858
C  0.34101027 0.59048092 0.00395766
H  -0.21790415 1.50199969 -0.03024700
H  1.40141855 0.56837913 -0.02997108
6
MD Step 78
C  -0.33528592 -0.58318936 0.00603676
H  0.17736831 -1.53980868 -0.02920456
H  -1.42894345 -0.61794240 -0.02936568
C  0.34090242 0.59047620 0.00424830
H  -0.21568877 1.50069888 -0.03211203
H  1.40033744 0.57022206 -0.03187477
6
MD Step 79
C  -0.33557617 -0.58364456 0.00634993
H  0.17816034 -1.53723596 -0.03094001
H  -1.42572919 -0.61489984 -0.03105371
C  0.34071479 0.59036058 0.00452761
H  -0.21341557 1.49980177 -0.03390817
H  1.39975253 0.57230575 -0.03371520
6
MD Step 80
C  -0.33585153 -0.58404871 0.00664499
H  0.17897852 -1.53462120 -0.03256796
H  -1.42231919 -0.61182313 -0.03262907
C  0.34044534 0.59012787 0.00479156
H  -0.21109326 1.49936277 -0.03561227
H  1.39969396 0.57464208 -0.03546895
6
MD Step 81
C  -0.33610170 -0.58439184 0.00692651
H  0.17980395 -1.53203561 -0.03411586
H  -1.41881662 -0.60875702 -0.03412064
C  0.34010167 0.58978163 0.00504485
H  -0.20877786 1.49937683 -0.03725233
H  1.40012674 0.57719097 -0.03716221
6
MD Step 82
C  -0.33631704 -0.58466520 0.00719844
H  0.18062143 -1.52954539 -0.03560757
H  -1.41532355 -0.60574196 -0.03555409
C  0.33969171 0.58932602 0.00529151
H  -0.20651713 1.49983362 -0.03885221
H  1.40100665 0.57991521 -0.03881668
6
MD Step 83
C  -0.33649943 -0.58487197 0.00745383
H  0.18148250 -1.52714696 -0.03699979
H  -1.41187516 -0.60275005 -0.03688609
C  0.33921291 0.58875515 0.00552376
H  -0.20428645 1.50078071 -0.04036768
H  1.40234515 0.58284413 -0.04038777
6
MD Step 84
C  -0.33663930 -0.58500447 0.00769688
H  0.18236890 -1.52490311 -0.03831805
H  -1.40857528 -0.59982190 -0.03814452
C  0.33867509 0.58807610 0.00574580
H  -0.20212507 1.50218630 -0.04182336
H  1.40407300 0.58593715 -0.04189747
6
MD Step 85
C  -0.33673378 -0.58506211 0.00792584
H  0.18329827 -1.52283559 -0.03955066
H  -1.40548759 -0.59695990 -0.03931894
C  0.33808241 0.58729102 0.00595517
H  -0.20002969 1.50404574 -0.04320588
H  1.40614865 0.58919001 -0.04333100
6
MD Step 86
C  -0.33677597 -0.58504064 0.00814313
H  0.18425995 -1.52098857 -0.04071246
H  -1.40269784 -0.59419237 -0.04042662
C  0.33744404 0.58640791 0.00615408
H  -0.19801862 1.50631766 -0.04452814
H  1.40849572 0.59257088 -0.04469877
6
MD Step 87
C  -0.33676677 -0.58494388 0.00834450
H  0.18528361 -1.51935876 -0.04177580
H  -1.40024253 -0.59150416 -0.04144062
C  0.33676238 0.58542892 0.00633709
H  -0.19606296 1.50899378 -0.04575992
H  1.41107426 0.59608940 -0.04596996
6
MD Step 88
C  -0.33670217 -0.58477089 0.00853095
H  0.18636301 -1.51797144 -0.04274658
H  -1.39818374 -0.58891316 -0.04236892
C  0.33604575 0.58436310 0.00650473
H  -0.19416333 1.51202330 -0.04690432
H  1.41380595 0.59972058 -0.04714582
6
MD Step 89
C  -0.33658311 -0.58452580 0.00869968
H  0.18751390 -1.51682186 -0.04360604
H  -1.39654918 -0.58641190 -0.04319360
C  0.33529855 0.58321652 0.00665302
H  -0.19229231 1.51537233 -0.04793948
H  1.41663437 0.60346294 -0.04820410
6
MD Step 90
C  -0.33640242 -0.58420462 0.00885619
H  0.18869569 -1.51595361 -0.04438922
H  -1.39540958 -0.58404617 -0.04395285
C  0.33453428 0.58200531 0.00678770
H  -0.19047350 1.51894655 -0.04889715
H  1.41944822 0.60726022 -0.04917377
6
MD Step 91
C  -0.33615996 -0.58381021 0.00900042
H  0.18990041 -1.51536908 -0.04509563
H  -1.39478749 -0.58182559 -0.04464755
C  0.33376045 0.58074053 0.00690814
H  -0.18869327 1.52268225 -0.04977347
H  1.42217293 0.61109080 -0.05005014
6
MD Step 92
C  -0.33585806 -0.58334773 0.00913097
H  0.19112579 -1.51505659 -0.04571641
H  -1.39468369 -0.57975080 -0.04526950
C  0.33298304 0.57943250 0.00701223
H  -0.18692857 1.52652065 -0.05055620
H  1.42474525 0.61494072 -0.05082082
6
MD Step 93
C  -0.33550504 -0.58282809 0.00924208
H  0.19239617 -1.51497001 -0.04621339
H  -1.39505639 -0.57779273 -0.04577918
C  0.33220295 0.57808724 0.00709249
H  -0.18512714 1.53043022 -0.05120421
H  1.42713522 0.61882465 -0.05144654
6
MD Step 94
C  -0.33509742 -0.58225000 0.00933954
H  0.19365701 -1.51513537 -0.04662545
H  -1.39592822 -0.57599851 -0.04621778
C  0.33143378 0.57672399 0.00715564
H  -0.18331368 1.53430205 -0.05175302
H  1.42924101 0.62267994 -0.05196082
6
MD Step 95
C  -0.33464484 -0.58162503 0.00941818
H  0.19492423 -1.51550178 -0.04691872
H  -1.39723680 -0.57434235 -0.04654962
C  0.33067664 0.57535006 0.00719509
H  -0.18144191 1.53810066 -0.05216637
H  1.43103965 0.62651628 -0.05232951
6
MD Step 96
C  -0.33415145 -0.58095895 0.00947858
H  0.19617412 -1.51605287 -0.04709769
H  -1.39894714 -0.57283597 -0.04677889
C  0.32993874 0.57397920 0.00721137
H  -0.17950528 1.54175469 -0.05244632
H  1.43247700 0.63030508 -0.05255504
6
MD Step 97
C  -0.33362095 -0.58025666 0.00952243
H  0.19737419 -1.51677691 -0.04717466
H  -1.40102237 -0.57149814 -0.04691768
C  0.32922824 0.57262629 0.00720655
H  -0.17750712 1.54518854 -0.05260295
H  1.43349896 0.63401023 -0.05264769
6
MD Step 98
C  -0.33306032 -0.57952612 0.00954905
H  0.19850686 -1.51764412 -0.04714633
H  -1.40340187 -0.57033140 -0.04696147
C  0.32855021 0.57130334 0.00717991
H  -0.17543786 1.54834685 -0.05263141
H  1.43407552 0.63761164 -0.05260367
6
MD Step 99
C  -0.33248066 -0.57877918 0.00955462
H  0.19957595 -1.51860144 -0.04698771
H  -1.40599708 -0.56931608 -0.04688268
C  0.32790561 0.57001826 0.00712680
H  -0.17326943 1.55120133 -0.05250616
H  1.43420701 0.64111147 -0.05239976
6
MD Step 100
C  -0.33188696 -0.57802126 0.00954109
H  0.20054657 -1.51963389 -0.04671328
H  -1.40875442 -0.56847056 -0.04669489
C  0.32730150 0.56878495 0.00704991
H  -0.17101559 1.55369106 -0.05224068
H  1.43386384 0.64447359 -0.05204999
6
MD Step 101
C  -0.33128488 -0.57725834 0.00951005
H  0.20138730 -1.52072344 -0.04633492
H  -1.41161512 -0.56780960 -0.04640875
C  0.32674394 0.56761608 0.00695152
H  -0.16869060 1.55576485 -0.05184632
H  1.43302847 0.64766565 -0.05156658
6
MD Step 102
C  -0.33067810 -0.57649412 0.00946495
H  0.20205486 -1.52186525 -0.04587783
H  -1.41453237 -0.56735982 -0.04604882
C  0.32624055 0.56652563 0.00683650
H  -0.16632480 1.55736633 -0.05134763
H  1.43168021 0.65064358 -0.05097430
6
MD Step 103
C  -0.33008416 -0.57574642 0.00939685
H  0.20259203 -1.52297093 -0.04528185
H  -1.41737536 -0.56706310 -0.04555077
C  0.32578401 0.56551257 0.00669400
H  -0.16386834 1.55853144 -0.05068709
H  1.42989235 0.65344946 -0.05021942
6
MD Step 104
C  -0.32950663 -0.57501869 0.00930920
H  0.20295983 -1.52403715 -0.04457164
H  -1.42009972 -0.56694320 -0.04493852
C  0.32538050 0.56458871 0.00652887
H  -0.16135727 1.55922114 -0.04988955
H  1.42766429 0.65604316 -0.04932724
6
MD Step 105
C  -0.32895558 -0.57432102 0.00919938
H  0.20316315 -1.52502122 -0.04372989
H  -1.42262354 -0.56698173 -0.04419250
C  0.32502845 0.56375783 0.00633826
H  -0.15878982 1.55944631 -0.04893988
H  1.42504597 0.65842792 -0.04828462
6
MD Step 106
C  -0.32843013 -0.57365221 0.00907425
H  0.20314522 -1.52594692 -0.04280455
H  -1.42493424 -0.56722263 -0.04336070
C  0.32473652 0.56303308 0.00613133
H  -0.15623042 1.55916274 -0.04788585
H  1.42203261 0.66054459 -0.04713911
6
MD Step 107
C  -0.32794113 -0.57302311 0.00892973
H  0.20292642 -1.52676655 -0.04176825
H  -1.42695059 -0.56763520 -0.04241365
C  0.32449996 0.56241404 0.00590354
H  -0.15367302 1.55840916 -0.04670322
H  1.41870232 0.66241066 -0.04586853
6
MD Step 108
C  -0.32749736 -0.57244246 0.00876310
H  0.20252112 -1.52744453 -0.04060279
H  -1.42860716 -0.56819658 -0.04133152
C  0.32431481 0.56190039 0.00565200
H  -0.15112314 1.55722408 -0.04537699
H  1.41513255 0.66403673 -0.04445949
6
MD Step 109
C  -0.32709970 -0.57191086 0.00857830
H  0.20190244 -1.52799287 -0.03933509
H  -1.42989050 -0.56892658 -0.04014093
C  0.32418399 0.56149780 0.00538207
H  -0.14863226 1.55561055 -0.04393544
H  1.41136401 0.66539119 -0.04294064
6
MD Step 110
C  -0.32675243 -0.57143243 0.00837553
H  0.20107187 -1.52840211 -0.03796661
H  -1.43077002 -0.56981916 -0.03884262
C  0.32410543 0.56120642 0.00509447
H  -0.14622922 1.55360487 -0.04238272
H  1.40746902 0.66646984 -0.04131701
6
MD Step 111
C  -0.32645692 -0.57100832 0.00815706
H  0.20002070 -1.52867970 -0.03651248
H  -1.43123672 -0.57088044 -0.03745144
C  0.32407874 0.56102721 0.00479242
H  -0.14395780 1.55123806 -0.04073612
H  1.40351226 0.66725733 -0.03960631
6
MD Step 112
C  -0.32621531 -0.57064049 0.00792378
H  0.19875257 -1.52882759 -0.03497857
H  -1.43128080 -0.57210649 -0.03597301
C  0.32410138 0.56095830 0.00447742
H  -0.14185410 1.54855764 -0.03900412
H  1.39957196 0.66774973 -0.03781744
6
MD Step 113
C  -0.32603367 -0.57033498 0.00767229
H  0.19730310 -1.52882270 -0.03334153
H  -1.43087222 -0.57346411 -0.03438354
C  0.32416544 0.56099179 0.00414575
H  -0.13992691 1.54564640 -0.03716736
H  1.39575785 0.66797408 -0.03593168
6
MD Step 114
C  -0.32591279 -0.57009242 0.00740333
H  0.19568352 -1.52867291 -0.03160588
H  -1.43001722 -0.57494627 -0.03268769
C  0.32426734 0.56112314 0.00379862
H  -0.13821237 1.54256550 -0.03523304
H  1.39215322 0.66793190 -0.03395621
6
MD Step 115
C  -0.32585182 -0.56991189 0.00711845
H  0.19390304 -1.52839462 -0.02978115
H  -1.42873592 -0.57655012 -0.03089537
C  0.32440411 0.56134759 0.00343811
H  -0.13675133 1.53937564 -0.03321307
H  1.38883517 0.66762156 -0.03190265
6
MD Step 116
C  -0.32584687 -0.56978937 0.00682131
H  0.19195969 -1.52802136 -0.02789099
H  -1.42707101 -0.57828588 -0.02903085
C  0.32457507 0.56166177 0.00306874
H  -0.13559747 1.53612685 -0.03113267
H  1.38586370 0.66702911 -0.02979564
6
MD Step 117
C  -0.32589759 -0.56972464 0.00651155
H  0.18988034 -1.52756336 -0.02593228
H  -1.42504698 -0.58013707 -0.02709157
C  0.32477504 0.56205722 0.00269025
H  -0.13477695 1.53289714 -0.02899118
H  1.38331988 0.66616851 -0.02763391
6
MD Step 118
C  -0.32600526 -0.56971928 0.00618658
H  0.18770859 -1.52701908 -0.02388718
H  -1.42268178 -0.58207248 -0.02506035
C  0.32499661 0.56252252 0.00229971
H  -0.13429932 1.52977895 -0.02677358
H  1.38129165 0.66506947 -0.02540173
6
MD Step 119
C  -0.32616578 -0.56976949 0.00584817
H  0.18546139 -1.52641769 -0.02176673
H  -1.42002955 -0.58408858 -0.02294909
C  0.32523749 0.56305061 0.00189924
H  -0.13419898 1.52683453 -0.02449215
H  1.37982866 0.66373418 -0.02311034
6
MD Step 120
C  -0.32638037 -0.56987716 0.00549239
H  0.18319408 -1.52575371 -0.01954466
H  -1.41711480 -0.58614533 -0.02073237
C  0.32548961 0.56362825 0.00148434
H  -0.13447002 1.52415888 -0.02212298
H  1.37900508 0.66220242 -0.02073486
6
MD Step 121
C  -0.32663809 -0.57003192 0.00512629
H  0.18089299 -1.52509305 -0.01726561
H  -1.41403878 -0.58827184 -0.01845590
C  0.32575737 0.56425391 0.00106284
H  -0.13517078 1.52177142 -0.01971015
H  1.37881128 0.66044440 -0.01831818
6
MD Step 122
C  -0.32693524 -0.57023103 0.00474945
H  0.17859261 -1.52445514 -0.01492626
H  -1.41086055 -0.59045032 -0.01611725
C  0.32603770 0.56491851 0.00063416
H  -0.13630714 1.51973131 -0.01725106
H  1.37927017 0.65847831 -0.01585667
6
MD Step 123
C  -0.32726501 -0.57046883 0.00436398
H  0.17631178 -1.52387540 -0.01253925
H  -1.40765899 -0.59267866 -0.01372997
C  0.32633080 0.56561605 0.00020042
H  -0.13789430 1.51807287 -0.01475832
H  1.38037353 0.65630699 -0.01336199
6
MD Step 124
C  -0.32761672 -0.57073586 0.00397544
H  0.17404757 -1.52341007 -0.01013888
H  -1.40453687 -0.59497620 -0.01132915
C  0.32664112 0.56634475 -0.00023255
H  -0.13996186 1.51679864 -0.01226542
H  1.38207644 0.65391226 -0.01086689
6
MD Step 125
C  -0.32798367 -0.57102692 0.00358529
H  0.17182171 -1.52308852 -0.00773377
H  -1.40157174 -0.59733703 -0.00892403
C  0.32696922 0.56709928 -0.00066338
H  -0.14250698 1.51592537 -0.00978061