 Entering Gaussian System, Link 0=g16
 Initial command:
 /software/gaussian/g16-c01/avx2/g16/l1.exe "/gpfs/fs2/scratch/bweight/software/many_molecule_many_mode_NAMD/src/NAMD/TEST_NVT/TRAJ/traj-87/G16/GS_NEW/Gau-11560.inp" -scrdir="/gpfs/fs2/scratch/bweight/software/many_molecule_many_mode_NAMD/src/NAMD/TEST_NVT/TRAJ/traj-87/G16/GS_NEW/"
 Entering Link 1 = /software/gaussian/g16-c01/avx2/g16/l1.exe PID=     11561.
  
 Copyright (c) 1988-2019, Gaussian, Inc.  All Rights Reserved.
  
 This is part of the Gaussian(R) 16 program.  It is based on
 the Gaussian(R) 09 system (copyright 2009, Gaussian, Inc.),
 the Gaussian(R) 03 system (copyright 2003, Gaussian, Inc.),
 the Gaussian(R) 98 system (copyright 1998, Gaussian, Inc.),
 the Gaussian(R) 94 system (copyright 1995, Gaussian, Inc.),
 the Gaussian 92(TM) system (copyright 1992, Gaussian, Inc.),
 the Gaussian 90(TM) system (copyright 1990, Gaussian, Inc.),
 the Gaussian 88(TM) system (copyright 1988, Gaussian, Inc.),
 the Gaussian 86(TM) system (copyright 1986, Carnegie Mellon
 University), and the Gaussian 82(TM) system (copyright 1983,
 Carnegie Mellon University). Gaussian is a federally registered
 trademark of Gaussian, Inc.
  
 This software contains proprietary and confidential information,
 including trade secrets, belonging to Gaussian, Inc.
  
 This software is provided under written license and may be
 used, copied, transmitted, or stored only in accord with that
 written license.
  
 The following legend is applicable only to US Government
 contracts under FAR:
  
                    RESTRICTED RIGHTS LEGEND
  
 Use, reproduction and disclosure by the US Government is
 subject to restrictions as set forth in subparagraphs (a)
 and (c) of the Commercial Computer Software - Restricted
 Rights clause in FAR 52.227-19.
  
 Gaussian, Inc.
 340 Quinnipiac St., Bldg. 40, Wallingford CT 06492
  
  
 ---------------------------------------------------------------
 Warning -- This program may not be used in any manner that
 competes with the business of Gaussian, Inc. or will provide
 assistance to any competitor of Gaussian, Inc.  The licensee
 of this program is prohibited from giving any competitor of
 Gaussian, Inc. access to this program.  By using this program,
 the user acknowledges that Gaussian, Inc. is engaged in the
 business of creating and licensing software in the field of
 computational chemistry and represents and warrants to the
 licensee that it is not a competitor of Gaussian, Inc. and that
 it will not use this program in any manner prohibited above.
 ---------------------------------------------------------------
  

 Cite this work as:
 Gaussian 16, Revision C.01,
 M. J. Frisch, G. W. Trucks, H. B. Schlegel, G. E. Scuseria, 
 M. A. Robb, J. R. Cheeseman, G. Scalmani, V. Barone, 
 G. A. Petersson, H. Nakatsuji, X. Li, M. Caricato, A. V. Marenich, 
 J. Bloino, B. G. Janesko, R. Gomperts, B. Mennucci, H. P. Hratchian, 
 J. V. Ortiz, A. F. Izmaylov, J. L. Sonnenberg, D. Williams-Young, 
 F. Ding, F. Lipparini, F. Egidi, J. Goings, B. Peng, A. Petrone, 
 T. Henderson, D. Ranasinghe, V. G. Zakrzewski, J. Gao, N. Rega, 
 G. Zheng, W. Liang, M. Hada, M. Ehara, K. Toyota, R. Fukuda, 
 J. Hasegawa, M. Ishida, T. Nakajima, Y. Honda, O. Kitao, H. Nakai, 
 T. Vreven, K. Throssell, J. A. Montgomery, Jr., J. E. Peralta, 
 F. Ogliaro, M. J. Bearpark, J. J. Heyd, E. N. Brothers, K. N. Kudin, 
 V. N. Staroverov, T. A. Keith, R. Kobayashi, J. Normand, 
 K. Raghavachari, A. P. Rendell, J. C. Burant, S. S. Iyengar, 
 J. Tomasi, M. Cossi, J. M. Millam, M. Klene, C. Adamo, R. Cammi, 
 J. W. Ochterski, R. L. Martin, K. Morokuma, O. Farkas, 
 J. B. Foresman, and D. J. Fox, Gaussian, Inc., Wallingford CT, 2019.
 
 ******************************************
 Gaussian 16:  ES64L-G16RevC.01  3-Jul-2019
                11-Jan-2023 
 ******************************************
 %oldchk=../GS_OLD/geometry.chk
 %chk=geometry.chk
 %nprocshared=4
 Will use up to    4 processors via shared memory.
 %mem=5GB
 Copying data from "../GS_OLD/geometry.chk" to current chk file "geometry.chk"
 IOpt=  2 FromEx=T IUOpen= 4 IOptOp= 5 NList=   0 IFRang= 0 IUIn= 4 IUOut= 2.
 -------------------------------------------------------
 # WB97XD/6-311G SCF=XQC FORCE nosym pop=full guess=read
 -------------------------------------------------------
 1/10=7,30=1,38=1/1,3;
 2/12=2,15=1,17=6,18=5,40=1/2;
 3/5=4,6=6,11=2,25=1,30=1,71=1,74=-58,116=-2/1,2,3;
 4/5=1/1;
 5/5=2,8=3,13=1,38=6/2,8;
 6/7=3,28=1/1;
 7/29=1,30=1/1,2,3,16;
 1/10=7,30=1/3;
 99//99;
 ------------
 MD Step 1000
 ------------
 Symbolic Z-matrix:
 Charge =  0 Multiplicity = 1
 C                    -0.33598  -0.58084   0.00586 
 H                     0.21563  -1.53512  -0.01985 
 H                    -1.42485  -0.59537  -0.02091 
 C                     0.33389   0.57886   0.00496 
 H                    -0.16468   1.56005  -0.02302 
 H                     1.44209   0.6373   -0.02188 
 

 GradGradGradGradGradGradGradGradGradGradGradGradGradGradGradGradGradGrad
 Berny optimization.
 Initialization pass.
 Trust Radius=3.00D-01 FncErr=1.00D-07 GrdErr=1.00D-07 EigMax=2.50D+02 EigMin=1.00D-04
 Number of steps in this run=      2 maximum allowed number of steps=      2.
 GradGradGradGradGradGradGradGradGradGradGradGradGradGradGradGradGradGrad

                          Input orientation:                          
 ---------------------------------------------------------------------
 Center     Atomic      Atomic             Coordinates (Angstroms)
 Number     Number       Type             X           Y           Z
 ---------------------------------------------------------------------
      1          6           0       -0.335976   -0.580842    0.005858
      2          1           0        0.215631   -1.535119   -0.019849
      3          1           0       -1.424852   -0.595373   -0.020911
      4          6           0        0.333886    0.578863    0.004961
      5          1           0       -0.164682    1.560051   -0.023015
      6          1           0        1.442088    0.637297   -0.021878
 ---------------------------------------------------------------------
                    Distance matrix (angstroms):
                    1          2          3          4          5
     1  C    0.000000
     2  H    1.102531   0.000000
     3  H    1.089301   1.890584   0.000000
     4  C    1.339266   2.117432   2.114866   0.000000
     5  H    2.147929   3.118449   2.496775   1.100946   0.000000
     6  H    2.155492   2.494713   3.120709   1.110066   1.852886
                    6
     6  H    0.000000
 Symmetry turned off by external request.
 Stoichiometry    C2H4
 Framework group  C1[X(C2H4)]
 Deg. of freedom    12
 Full point group                 C1      NOp   1
 Rotational constants (GHZ):         143.0128390          29.6523892          24.5660056
 Standard basis: 6-311G (5D, 7F)
    38 basis functions,    72 primitive gaussians,    38 cartesian basis functions
     8 alpha electrons        8 beta electrons
       nuclear repulsion energy        33.0440760442 Hartrees.
 NAtoms=    6 NActive=    6 NUniq=    6 SFac= 1.00D+00 NAtFMM=   60 NAOKFM=F Big=F
 Integral buffers will be    131072 words long.
 Raffenetti 2 integral format.
 Two-electron integral symmetry is turned off.
 Nuclear repulsion after empirical dispersion term =       33.0432332897 Hartrees.
 One-electron integrals computed using PRISM.
 NBasis=    38 RedAO= T EigKep=  6.46D-03  NBF=    38
 NBsUse=    38 1.00D-06 EigRej= -1.00D+00 NBFU=    38
 Initial guess from the checkpoint file:  "geometry.chk"
 B after Tr=    -0.000302   -0.000500   -0.000453
         Rot=    1.000000   -0.000001    0.000002    0.000006 Ang=  -0.00 deg.
 Keep R1 ints in memory in canonical form, NReq=4036876.
 Requested convergence on RMS density matrix=1.00D-08 within  32 cycles.
 Requested convergence on MAX density matrix=1.00D-06.
 Requested convergence on             energy=1.00D-06.
 No special actions if energy rises.
 SCF Done:  E(RwB97XD) =  -78.5560325001     A.U. after    8 cycles
            NFock=  8  Conv=0.61D-08     -V/T= 2.0053
 QCSCF skips out because SCF is already converged.

 **********************************************************************

            Population analysis using the SCF Density.

 **********************************************************************

 Alpha  occ. eigenvalues --  -10.29010 -10.28881  -0.86340  -0.67206  -0.55897
 Alpha  occ. eigenvalues --   -0.50904  -0.43690  -0.35665
 Alpha virt. eigenvalues --    0.07962   0.14083   0.16462   0.17004   0.24075
 Alpha virt. eigenvalues --    0.37480   0.39328   0.39702   0.46453   0.48729
 Alpha virt. eigenvalues --    0.49390   0.59090   0.66560   0.69028   0.77313
 Alpha virt. eigenvalues --    0.77476   0.84355   0.95123   2.23205   2.29016
 Alpha virt. eigenvalues --    2.33189   2.40659   2.67088   2.81787   2.87846
 Alpha virt. eigenvalues --    2.95238   3.13908   3.31879  23.35213  23.70477
     Molecular Orbital Coefficients:
                           1         2         3         4         5
                           O         O         O         O         O
     Eigenvalues --   -10.29010 -10.28881  -0.86340  -0.67206  -0.55897
   1 1   C  1S          0.20274   0.52566  -0.08806   0.06714  -0.00039
   2        2S          0.16705   0.43256  -0.13917   0.10756  -0.00064
   3        2PX         0.00016  -0.00005   0.02606   0.03674   0.13594
   4        2PY         0.00027  -0.00007   0.04652   0.05998  -0.07200
   5        2PZ        -0.00000  -0.00000  -0.00104   0.00160   0.00022
   6        3S          0.00442   0.01390   0.37333  -0.29362   0.00177
   7        3PX        -0.00052   0.00053   0.03430   0.05889   0.21293
   8        3PY        -0.00087   0.00095   0.06081   0.09731  -0.11375
   9        3PZ        -0.00002  -0.00002  -0.00175   0.00286   0.00032
  10        4S          0.00052  -0.01497   0.19163  -0.22875   0.00108
  11        4PX         0.00118  -0.00180   0.00496   0.02372   0.11125
  12        4PY         0.00202  -0.00308   0.00874   0.04044  -0.06030
  13        4PZ         0.00002   0.00006  -0.00063   0.00145   0.00016
  14 2   H  1S         -0.00005  -0.00004   0.05174  -0.08732   0.09987
  15        2S         -0.00028   0.00016   0.05317  -0.10554   0.12685
  16        3S          0.00110   0.00148  -0.00166  -0.01518   0.04104
  17 3   H  1S         -0.00006  -0.00005   0.05316  -0.09130  -0.10339
  18        2S         -0.00028   0.00014   0.05410  -0.10933  -0.13019
  19        3S          0.00114   0.00151  -0.00169  -0.01614  -0.04202
  20 4   C  1S          0.52561  -0.20292  -0.08713  -0.06808  -0.00012
  21        2S          0.43266  -0.16682  -0.13761  -0.10916  -0.00019
  22        2PX        -0.00005  -0.00016  -0.02741   0.03738   0.11968
  23        2PY        -0.00008  -0.00027  -0.04634   0.06664  -0.07569
  24        2PZ        -0.00000   0.00000  -0.00093  -0.00175   0.00022
  25        3S          0.01318  -0.00603   0.36878   0.29829   0.00049
  26        3PX        -0.00007   0.00075  -0.03460   0.06054   0.18759
  27        3PY        -0.00009   0.00129  -0.05848   0.10730  -0.11750
  28        3PZ        -0.00003   0.00000  -0.00160  -0.00314   0.00034
  29        4S         -0.01052   0.01049   0.18956   0.23635  -0.00077
  30        4PX         0.00051  -0.00203  -0.00533   0.02619   0.10240
  31        4PY         0.00085  -0.00355  -0.00894   0.04521  -0.06343
  32        4PZ         0.00006  -0.00003  -0.00064  -0.00160   0.00017
  33 5   H  1S         -0.00007  -0.00003   0.05057   0.09348  -0.09250
  34        2S         -0.00008  -0.00030   0.05164   0.11150  -0.11664
  35        3S          0.00182  -0.00019  -0.00117   0.01674  -0.03747
  36 6   H  1S         -0.00006  -0.00003   0.04945   0.09144   0.08763
  37        2S         -0.00008  -0.00032   0.05099   0.10967   0.11105
  38        3S          0.00178  -0.00019  -0.00120   0.01617   0.03604
                           6         7         8         9        10
                           O         O         O         V         V
     Eigenvalues --    -0.50904  -0.43690  -0.35665   0.07962   0.14083
   1 1   C  1S         -0.00405   0.00023  -0.00080   0.00227  -0.03406
   2        2S         -0.00612   0.00040  -0.00129   0.00376  -0.05465
   3        2PX         0.09391  -0.11264  -0.00287   0.00127  -0.03101
   4        2PY         0.16809   0.06714  -0.00483   0.00207  -0.06547
   5        2PZ         0.00428  -0.00002   0.17938  -0.18921  -0.00216
   6        3S          0.02268  -0.00093   0.00378  -0.01138   0.11934
   7        3PX         0.13653  -0.17992  -0.00405   0.00192  -0.03611
   8        3PY         0.24610   0.10767  -0.00680   0.00310  -0.08072
   9        3PZ         0.00679   0.00000   0.28815  -0.27798  -0.00343
  10        4S         -0.05087  -0.00371   0.00582  -0.01282   1.22991
  11        4PX         0.06886  -0.11202  -0.00326   0.01073  -0.19384
  12        4PY         0.12549   0.06792  -0.00550   0.01774  -0.39288
  13        4PZ         0.00386   0.00004   0.26730  -0.69479  -0.01244
  14 2   H  1S         -0.08054  -0.11673   0.00014   0.00350  -0.01756
  15        2S         -0.11171  -0.18090   0.00167   0.00554  -0.04847
  16        3S         -0.04189  -0.08381   0.00101   0.01488  -0.84793
  17 3   H  1S         -0.07884   0.11392   0.00009   0.00351  -0.01328
  18        2S         -0.10864   0.17570   0.00161   0.00565  -0.03839
  19        3S         -0.04036   0.08118   0.00098   0.01467  -0.77676
  20 4   C  1S         -0.00796  -0.00052  -0.00072  -0.00223  -0.03565
  21        2S         -0.01244  -0.00086  -0.00118  -0.00370  -0.05724
  22        2PX        -0.09907   0.12295   0.00276   0.00136   0.04104
  23        2PY        -0.16185  -0.07287   0.00508   0.00255   0.06059
  24        2PZ         0.00447   0.00019   0.17916   0.18945  -0.00243
  25        3S          0.04049   0.00249   0.00348   0.01110   0.12609
  26        3PX        -0.14667   0.19670   0.00386   0.00208   0.05071
  27        3PY        -0.23776  -0.11589   0.00716   0.00390   0.07205
  28        3PZ         0.00707   0.00029   0.28697   0.27791  -0.00371
  29        4S         -0.03078   0.00310   0.00550   0.01285   1.23484
  30        4PX        -0.07648   0.12525   0.00301   0.01062   0.26266
  31        4PY        -0.12258  -0.07283   0.00571   0.01929   0.40346
  32        4PZ         0.00409   0.00017   0.26756   0.69553  -0.01455
  33 5   H  1S         -0.07410  -0.12343   0.00018  -0.00342  -0.01186
  34        2S         -0.10125  -0.19197   0.00179  -0.00569  -0.03683
  35        3S         -0.03782  -0.08990   0.00099  -0.01463  -0.80713
  36 6   H  1S         -0.08058   0.12305   0.00012  -0.00342  -0.01584
  37        2S         -0.11060   0.19229   0.00170  -0.00568  -0.04720
  38        3S         -0.04152   0.09001   0.00094  -0.01480  -0.87884
                          11        12        13        14        15
                           V         V         V         V         V
     Eigenvalues --     0.16462   0.17004   0.24075   0.37480   0.39328
   1 1   C  1S          0.00093  -0.04503   0.00003   0.01108   0.00227
   2        2S          0.00149  -0.07337   0.00005   0.01570   0.00385
   3        2PX         0.09843  -0.02062   0.09989  -0.03747  -0.02677
   4        2PY        -0.05427  -0.03679  -0.05727  -0.06893   0.00694
   5        2PZ         0.00009  -0.00552   0.00003  -0.00390  -0.00017
   6        3S         -0.00309   0.16574   0.00020   0.02716  -0.00725
   7        3PX         0.14087  -0.01269   0.10662  -0.05048  -0.11408
   8        3PY        -0.07860  -0.02438  -0.06214  -0.09811   0.03598
   9        3PZ         0.00012  -0.00764  -0.00001  -0.00766  -0.00000
  10        4S         -0.04842   1.41571  -0.01603  -2.77677  -0.34699
  11        4PX         0.58104  -0.12094   1.16210  -1.58270  -0.54470
  12        4PY        -0.31053  -0.20055  -0.66127  -2.76304   0.12277
  13        4PZ         0.00065  -0.03605   0.00087  -0.03617  -0.00216
  14 2   H  1S         -0.02986  -0.02554   0.01201  -0.05522   0.07848
  15        2S         -0.07910  -0.01778  -0.02619  -0.63100   0.81670
  16        3S         -1.02834  -0.98132  -1.53247  -0.32728  -0.37335
  17 3   H  1S          0.02881  -0.02551  -0.01433  -0.04713  -0.07475
  18        2S          0.07784  -0.02232   0.02004  -0.56792  -0.73103
  19        3S          1.08996  -1.00721   1.55992  -0.40935   0.25705
  20 4   C  1S          0.00177   0.04304  -0.00006  -0.01963   0.00011
  21        2S          0.00284   0.07007  -0.00011  -0.03194   0.00061
  22        2PX         0.09956  -0.02412  -0.10049  -0.04193  -0.03061
  23        2PY        -0.06137  -0.03699   0.05757  -0.07438   0.01202
  24        2PZ         0.00023   0.00550  -0.00004   0.00306   0.00048
  25        3S         -0.00581  -0.15604   0.00029   0.03519  -0.01002
  26        3PX         0.14336  -0.01941  -0.11316  -0.09177  -0.10449
  27        3PY        -0.08687  -0.02604   0.06363  -0.16623   0.06262
  28        3PZ         0.00033   0.00760  -0.00001   0.00411   0.00113
  29        4S         -0.07719  -1.36056   0.00780   3.37137   0.20256
  30        4PX         0.53651  -0.12335  -1.12912  -1.24981  -0.64129
  31        4PY        -0.33680  -0.19913   0.65709  -2.19697  -0.03907
  32        4PZ         0.00147   0.03573  -0.00088   0.02990   0.00391
  33 5   H  1S          0.03118   0.02448   0.00752   0.01378  -0.07575
  34        2S          0.07002   0.02142  -0.03160   0.11051  -0.72272
  35        3S          1.09295   0.94545  -1.53360   0.46270   0.45677
  36 6   H  1S         -0.03081   0.02571  -0.00608   0.00859   0.08936
  37        2S         -0.06999   0.02017   0.03285   0.06210   0.93322
  38        3S         -0.98943   0.96814   1.51896   0.47413  -0.41504
                          16        17        18        19        20
                           V         V         V         V         V
     Eigenvalues --     0.39702   0.46453   0.48729   0.49390   0.59090
   1 1   C  1S         -0.01719   0.01023   0.04768   0.00036  -0.00049
   2        2S         -0.03050   0.02523   0.08024   0.00083  -0.00088
   3        2PX         0.02170  -0.06037  -0.01564   0.00089   0.00179
   4        2PY         0.04441  -0.10572  -0.02172   0.00125   0.00268
   5        2PZ        -0.00004  -0.00046  -0.00210  -0.15215  -0.19241
   6        3S          0.07691  -0.33230  -0.11561  -0.00897   0.00002
   7        3PX         0.08812  -0.24223   0.01830   0.00111   0.00605
   8        3PY         0.18591  -0.42136   0.04185   0.00086   0.00907
   9        3PZ        -0.00374  -0.00361  -0.01052  -0.62931  -0.68412
  10        4S          2.36448   0.21303  -3.12574   0.03194   0.05561
  11        4PX         0.06960   0.26045  -0.80050   0.01240   0.01714
  12        4PY         0.23679   0.48113  -1.38360   0.02312   0.03102
  13        4PZ        -0.00224  -0.00109   0.06279   0.68792   1.23952
  14 2   H  1S         -0.02362  -0.03841   0.07498  -0.00111  -0.00138
  15        2S         -0.50946  -0.36807   0.89602  -0.00809  -0.00945
  16        3S          0.25040   0.10734  -0.64601   0.01599   0.01931
  17 3   H  1S         -0.04192  -0.04014   0.07307  -0.00109  -0.00133
  18        2S         -0.68777  -0.38746   0.86849  -0.00804  -0.00859
  19        3S          0.30499   0.10465  -0.61376   0.01568   0.01885
  20 4   C  1S         -0.00264  -0.00025  -0.05074   0.00182   0.00055
  21        2S         -0.00783   0.00736  -0.08775   0.00334   0.00102
  22        2PX         0.00417   0.05644  -0.02522  -0.00030   0.00164
  23        2PY         0.01378   0.09693  -0.04599  -0.00070   0.00322
  24        2PZ        -0.00289  -0.00127  -0.00226  -0.15263   0.19229
  25        3S          0.07956  -0.29719   0.21128  -0.01441  -0.00153
  26        3PX        -0.05595   0.23948  -0.04303  -0.00065   0.00572
  27        3PY        -0.06859   0.41521  -0.07645  -0.00193   0.01112
  28        3PZ        -0.00855  -0.00541  -0.00745  -0.63117   0.68277
  29        4S         -0.53246   0.65459   3.13999  -0.04967  -0.05112
  30        4PX         1.08392  -0.33734  -0.65265   0.00419   0.01814
  31        4PY         2.04428  -0.56532  -1.11742   0.00716   0.02987
  32        4PZ        -0.02583  -0.01231  -0.04033   0.69210  -1.23777
  33 5   H  1S         -0.05511  -0.05973  -0.06661   0.00108   0.00132
  34        2S         -0.90439  -0.60267  -0.82917   0.01826   0.00579
  35        3S         -0.11329   0.23915   0.56599  -0.00045  -0.01893
  36 6   H  1S         -0.03595  -0.05889  -0.06668   0.00110   0.00135
  37        2S         -0.69818  -0.59160  -0.82811   0.01804   0.00605
  38        3S         -0.19229   0.25480   0.58481  -0.00110  -0.01917
                          21        22        23        24        25
                           V         V         V         V         V
     Eigenvalues --     0.66560   0.69028   0.77313   0.77476   0.84355
   1 1   C  1S          0.00089  -0.00064   0.05828   0.06741   0.00096
   2        2S          0.00185  -0.00140   0.12316   0.14383   0.00224
   3        2PX        -0.13760   0.19386  -0.01498   0.11695  -0.00791
   4        2PY         0.08036  -0.11687  -0.02674   0.18943   0.01445
   5        2PZ        -0.00009   0.00015   0.00087   0.00397   0.00013
   6        3S         -0.01539   0.01711  -0.86097  -1.26407  -0.02549
   7        3PX        -0.63352   0.67251  -0.13369   0.46341  -0.22459
   8        3PY         0.36583  -0.40601  -0.23420   0.74025   0.16895
   9        3PZ        -0.00046   0.00059   0.00318   0.01391   0.00041
  10        4S          0.02652  -0.06674   0.98403   2.37426   0.00281
  11        4PX         1.11998  -0.74583   0.11081  -0.78888   4.47470
  12        4PY        -0.64659   0.46642   0.12516  -1.01971  -2.54549
  13        4PZ         0.00046   0.00099   0.00343  -0.04608   0.00396
  14 2   H  1S          0.02465  -0.05836   0.01370   0.03133  -0.02582
  15        2S          0.14161  -0.61844   0.07438   0.08432  -1.54153
  16        3S         -1.06206   1.07903  -0.19660  -1.07174  -1.20964
  17 3   H  1S         -0.02383   0.05769   0.01382   0.03214   0.02963
  18        2S         -0.15768   0.65055   0.10199   0.04483   1.58468
  19        3S          1.05243  -1.03508  -0.19230  -1.23425   1.20849
  20 4   C  1S          0.00113  -0.00039   0.08672   0.02296   0.00075
  21        2S          0.00231  -0.00075   0.18453   0.04801   0.00147
  22        2PX        -0.14665  -0.18963  -0.09092   0.06130   0.01226
  23        2PY         0.08428   0.10517  -0.16404   0.11320   0.00153
  24        2PZ        -0.00008  -0.00018   0.00414  -0.00124  -0.00013
  25        3S         -0.01675  -0.00054  -1.52284  -0.22784  -0.00518
  26        3PX        -0.66662  -0.64668  -0.32135   0.30811   0.24426
  27        3PY         0.38602   0.35584  -0.58631   0.56773  -0.09947
  28        3PZ        -0.00045  -0.00062   0.01461  -0.00461  -0.00032
  29        4S          0.01183   0.03658   2.65075  -0.13915  -0.01992
  30        4PX         1.25185   0.76285   0.48559  -0.26990  -4.21823
  31        4PY        -0.71998  -0.40998   0.95720  -0.76755   2.41898
  32        4PZ         0.00086  -0.00069  -0.04133   0.02513  -0.00348
  33 5   H  1S         -0.02415  -0.05612   0.03465  -0.00065  -0.02435
  34        2S         -0.13627  -0.58326   0.08544   0.07480  -1.44139
  35        3S          1.09517   1.00398  -1.13868   0.41096  -1.11661
  36 6   H  1S          0.02494   0.05604   0.03429  -0.00003   0.02374
  37        2S          0.13085   0.55400   0.08678   0.00894   1.42473
  38        3S         -1.09887  -1.02815  -1.06771   0.31728   1.12808
                          26        27        28        29        30
                           V         V         V         V         V
     Eigenvalues --     0.95123   2.23205   2.29016   2.33189   2.40659
   1 1   C  1S          0.09556  -0.00997  -0.01404   0.00038  -0.00049
   2        2S          0.19852   0.00166  -0.01383   0.00085  -0.00061
   3        2PX        -0.09113  -0.08501  -0.13187   0.34237  -0.40947
   4        2PY        -0.15781  -0.15872  -0.22950  -0.19486   0.23042
   5        2PZ         0.00007  -0.01110  -0.01506   0.00007  -0.00066
   6        3S         -1.53929  -0.18409  -0.03565  -0.00127  -0.00455
   7        3PX        -0.23184   0.08566   0.20879  -0.41354   0.57181
   8        3PY        -0.39301   0.17397   0.37792   0.23823  -0.32330
   9        3PZ        -0.00222   0.01123   0.01890   0.00002   0.00076
  10        4S          5.71343  -0.10831  -0.88350  -0.00108  -0.01404
  11        4PX         1.20675   0.04998  -0.18553  -0.03009   0.96593
  12        4PY         1.97677   0.06148  -0.35863   0.00651  -0.52884
  13        4PZ        -0.01461   0.00247   0.00645  -0.00022   0.00149
  14 2   H  1S          0.01594  -0.71858  -0.78145  -0.71042   0.65179
  15        2S         -0.29705   1.02285   1.17047   1.08708  -1.44860
  16        3S         -0.09645  -0.31273  -0.47151  -0.47930   0.37646
  17 3   H  1S          0.01633  -0.70942  -0.78197   0.69931  -0.67285
  18        2S         -0.26205   1.01167   1.17790  -1.07436   1.49413
  19        3S         -0.07280  -0.28981  -0.45428   0.46632  -0.36648
  20 4   C  1S         -0.09419  -0.01050   0.01254   0.00047   0.00029
  21        2S         -0.19542   0.00011   0.01265   0.00063   0.00056
  22        2PX        -0.09194   0.12840  -0.12679   0.30838   0.41575
  23        2PY        -0.15866   0.22251  -0.20998  -0.17957  -0.24066
  24        2PZ         0.00017  -0.01242   0.01477   0.00038   0.00035
  25        3S          1.51221  -0.17073   0.01995   0.00066  -0.00014
  26        3PX        -0.22500  -0.16105   0.21616  -0.38189  -0.58154
  27        3PY        -0.39458  -0.27438   0.35213   0.22021   0.33743
  28        3PZ         0.00283   0.01322  -0.01879  -0.00041  -0.00047
  29        4S         -5.69841  -0.16660   0.88861   0.01685  -0.00195
  30        4PX         1.09867  -0.01807  -0.20493   0.09194  -0.87163
  31        4PY         1.99544  -0.03788  -0.32138  -0.05265   0.51617
  32        4PZ         0.01169   0.00391  -0.00559  -0.00008  -0.00129
  33 5   H  1S         -0.01768  -0.78186   0.68588   0.70394   0.68688
  34        2S          0.28357   1.13274  -1.04673  -1.02858  -1.46960
  35        3S          0.06249  -0.34809   0.40511   0.50262   0.41787
  36 6   H  1S         -0.01752  -0.77616   0.71017  -0.68720  -0.68471
  37        2S          0.31266   1.12293  -1.07590   1.00107   1.45827
  38        3S          0.07807  -0.34934   0.43587  -0.49723  -0.42634
                          31        32        33        34        35
                           V         V         V         V         V
     Eigenvalues --     2.67088   2.81787   2.87846   2.95238   3.13908
   1 1   C  1S          0.00041   0.00212  -0.01352   0.00002  -0.00937
   2        2S          0.00031   0.00618  -0.04485  -0.00030  -0.02873
   3        2PX         0.00462   0.05993  -0.46032  -0.73887   0.45784
   4        2PY         0.00692   0.10588  -0.83998   0.41507   0.79702
   5        2PZ        -0.92479  -0.93249  -0.11671  -0.00122   0.00605
   6        3S         -0.00122  -0.05130   0.39379   0.00494   0.24183
   7        3PX        -0.00354  -0.10469   0.82423   0.88944  -0.44877
   8        3PY        -0.00525  -0.18312   1.47147  -0.48406  -0.77816
   9        3PZ         0.94026   1.13981   0.14660   0.00166  -0.00766
  10        4S          0.01067   0.11789  -0.87834  -0.01350  -0.47034
  11        4PX        -0.00147   0.08456  -0.70994  -0.67580   0.23322
  12        4PY        -0.00200   0.14863  -1.26777   0.35543   0.40145
  13        4PZ        -0.33845  -0.61735  -0.09298  -0.00132   0.00483
  14 2   H  1S          0.01005  -0.01776   0.26875  -0.38375  -0.21784
  15        2S         -0.01159   0.01195  -0.22841   0.39760   0.16589
  16        3S         -0.00215   0.03387  -0.29611   0.26486   0.06420
  17 3   H  1S          0.01020  -0.01726   0.25769   0.38500  -0.21994
  18        2S         -0.01195   0.01062  -0.20940  -0.39446   0.16646
  19        3S         -0.00256   0.03411  -0.29639  -0.28377   0.07451
  20 4   C  1S          0.00043  -0.00208   0.01361   0.00053  -0.00775
  21        2S          0.00042  -0.00639   0.04742   0.00126  -0.02388
  22        2PX        -0.00584   0.05528  -0.41919  -0.79863  -0.49344
  23        2PY        -0.01100   0.09841  -0.74372   0.43773  -0.88167
  24        2PZ        -0.92462   0.93221   0.11935   0.00035   0.01048
  25        3S         -0.00237   0.05446  -0.42444  -0.00951   0.20362
  26        3PX         0.00603  -0.09985   0.78175   0.95446   0.52114
  27        3PY         0.01114  -0.17644   1.37832  -0.51502   0.94168
  28        3PZ         0.94019  -1.13945  -0.15014  -0.00043  -0.01330
  29        4S          0.01311  -0.11933   0.89543   0.02829  -0.38734
  30        4PX        -0.00043   0.08450  -0.71269  -0.69642  -0.30820
  31        4PY        -0.00136   0.14774  -1.24425   0.37109  -0.56702
  32        4PZ        -0.33842   0.61695   0.09568   0.00025   0.01022
  33 5   H  1S          0.00975   0.02189  -0.29003   0.41118  -0.26013
  34        2S         -0.01190  -0.01711   0.25990  -0.42099   0.20366
  35        3S         -0.00138  -0.03254   0.28730  -0.25004   0.12046
  36 6   H  1S          0.00986   0.02196  -0.28597  -0.42439  -0.24438
  37        2S         -0.01233  -0.01784   0.26136   0.43333   0.18947
  38        3S         -0.00105  -0.03114   0.27307   0.25269   0.10955
                          36        37        38
                           V         V         V
     Eigenvalues --     3.31879  23.35213  23.70477
   1 1   C  1S         -0.00037  -1.42076  -1.44563
   2        2S         -0.00049   1.51526   1.56326
   3        2PX         0.77818  -0.00658   0.01218
   4        2PY        -0.43118  -0.01069   0.02138
   5        2PZ         0.00098  -0.00045  -0.00018
   6        3S         -0.00115  -0.29763  -0.39752
   7        3PX        -1.11126   0.02390  -0.05559
   8        3PY         0.61098   0.03947  -0.09672
   9        3PZ        -0.00150   0.00128   0.00054
  10        4S         -0.00213   0.27614   0.76578
  11        4PX         1.95457  -0.02537   0.13333
  12        4PY        -1.07384  -0.04286   0.22853
  13        4PZ         0.00253  -0.00213  -0.00240
  14 2   H  1S          0.54830   0.01261   0.00634
  15        2S         -0.85612   0.00791  -0.01452
  16        3S         -0.45129  -0.08341  -0.03930
  17 3   H  1S         -0.56140   0.01452   0.00752
  18        2S          0.87468   0.00759  -0.01431
  19        3S          0.47982  -0.08583  -0.03915
  20 4   C  1S          0.00005  -1.44086   1.42549
  21        2S         -0.00027   1.53673  -1.54151
  22        2PX        -0.71909   0.00614   0.01262
  23        2PY         0.41298   0.01106   0.02148
  24        2PZ        -0.00081  -0.00047   0.00013
  25        3S          0.00555  -0.30152   0.39189
  26        3PX         1.02230  -0.02253  -0.05627
  27        3PY        -0.59735  -0.04015  -0.09673
  28        3PZ         0.00123   0.00133  -0.00035
  29        4S         -0.02347   0.27753  -0.76071
  30        4PX        -1.80017   0.02393   0.13051
  31        4PY         1.06380   0.04379   0.22704
  32        4PZ        -0.00214  -0.00219   0.00200
  33 5   H  1S          0.49813   0.01361  -0.00523
  34        2S         -0.77778   0.00795   0.01372
  35        3S         -0.43843  -0.08373   0.03776
  36 6   H  1S         -0.49327   0.01225  -0.00421
  37        2S          0.77179   0.00898   0.01364
  38        3S          0.42543  -0.08180   0.03759
     Density Matrix:
                           1         2         3         4         5
   1 1   C  1S          0.65941
   2        2S          0.56150   0.49198
   3        2PX        -0.00056  -0.00075   0.08405
   4        2PY        -0.00138  -0.00192   0.00373   0.08746
   5        2PZ         0.00007   0.00011  -0.00010  -0.00023   0.06440
   6        3S         -0.08896  -0.15386   0.00281   0.00672  -0.00017
   7        3PX         0.00087   0.00133   0.13020   0.00137  -0.00007
   8        3PY         0.00115   0.00177   0.00140   0.13097  -0.00020
   9        3PZ         0.00015   0.00025  -0.00017  -0.00037   0.10345
  10        4S         -0.07959  -0.11472  -0.01528  -0.02742   0.00052
  11        4PX         0.00021   0.00149   0.07044  -0.00457  -0.00046
  12        4PY         0.00054   0.00289  -0.00467   0.06571  -0.00082
  13        4PZ        -0.00008  -0.00019  -0.00070  -0.00119   0.09593
  14 2   H  1S         -0.02038  -0.03248   0.03460  -0.06279  -0.00098
  15        2S         -0.02276  -0.03640   0.04926  -0.08784  -0.00074
  16        3S          0.00053  -0.00076   0.02096  -0.03323  -0.00002
  17 3   H  1S         -0.02093  -0.03332  -0.07252  -0.00232  -0.00109
  18        2S         -0.02312  -0.03692  -0.10060  -0.00228  -0.00088
  19        3S          0.00058  -0.00070  -0.03857   0.00128  -0.00006
  20 4   C  1S          0.00606   0.00976  -0.01077  -0.01868  -0.00036
  21        2S          0.00973   0.01521  -0.01723  -0.02990  -0.00059
  22        2PX         0.01042   0.01667  -0.01246  -0.03212   0.00036
  23        2PY         0.01812   0.02898  -0.03211  -0.04966   0.00072
  24        2PZ        -0.00039  -0.00064  -0.00035  -0.00053   0.06431
  25        3S         -0.02622  -0.03980   0.04830   0.08394   0.00178
  26        3PX         0.01611   0.02498  -0.01824  -0.04590   0.00047
  27        3PY         0.02799   0.04340  -0.04570  -0.07121   0.00095
  28        3PZ        -0.00066  -0.00107  -0.00061  -0.00093   0.10301
  29        4S          0.00536   0.00401   0.02052   0.03611   0.00207
  30        4PX         0.00312   0.00643  -0.01311  -0.02102   0.00056
  31        4PY         0.00526   0.01093  -0.02104  -0.03732   0.00114
  32        4PZ        -0.00057  -0.00091  -0.00091  -0.00146   0.09602
  33 5   H  1S          0.00421   0.00692  -0.00176  -0.01225  -0.00041
  34        2S          0.00635   0.01056   0.00339  -0.02486  -0.00002
  35        3S          0.00329   0.00481   0.00413  -0.01750   0.00007
  36 6   H  1S          0.00416   0.00683  -0.00973  -0.00762  -0.00043
  37        2S          0.00628   0.01046  -0.02319  -0.00947  -0.00005
  38        3S          0.00325   0.00477  -0.01716  -0.00524   0.00005
                           6         7         8         9        10
   6        3S          0.45267
   7        3PX        -0.00171   0.20202
   8        3PY        -0.00121  -0.00430   0.19663
   9        3PZ        -0.00050  -0.00013  -0.00031   0.16617
  10        4S          0.27475  -0.02596  -0.04741   0.00068   0.18382
  11        4PX        -0.00657   0.10965  -0.01028  -0.00076  -0.01487
  12        4PY        -0.01198  -0.01045   0.09911  -0.00130  -0.02852
  13        4PZ         0.00087  -0.00093  -0.00156   0.15411   0.00181
  14 2   H  1S          0.08682   0.05581  -0.09820  -0.00163   0.06906
  15        2S          0.09741   0.07981  -0.13690  -0.00126   0.08166
  16        3S          0.00613   0.03429  -0.05117  -0.00004   0.01125
  17 3   H  1S          0.08916  -0.11366  -0.00205  -0.00179   0.06910
  18        2S          0.09890  -0.15751  -0.00073  -0.00144   0.08024
  19        3S          0.00614  -0.06015   0.00382  -0.00010   0.01012
  20 4   C  1S         -0.02643  -0.01679  -0.02914  -0.00062   0.00518
  21        2S         -0.04002  -0.02608  -0.04530  -0.00100   0.00390
  22        2PX        -0.04670  -0.01783  -0.04561   0.00063  -0.01814
  23        2PY        -0.08118  -0.04558  -0.07087   0.00123  -0.03134
  24        2PZ         0.00189  -0.00048  -0.00070   0.10330   0.00207
  25        3S          0.10199   0.07075   0.12317   0.00297   0.00097
  26        3PX        -0.06769  -0.02622  -0.06499   0.00082  -0.02706
  27        3PY        -0.11757  -0.06469  -0.10157   0.00164  -0.04666
  28        3PZ         0.00314  -0.00084  -0.00124   0.16546   0.00344
  29        4S          0.00158   0.03097   0.05471   0.00344  -0.03263
  30        4PX        -0.02273  -0.01965  -0.02957   0.00093  -0.00685
  31        4PY        -0.03892  -0.02961  -0.05396   0.00188  -0.01106
  32        4PZ         0.00267  -0.00127  -0.00202   0.15424   0.00318
  33 5   H  1S         -0.02060  -0.00073  -0.01767  -0.00061  -0.01513
  34        2S         -0.03156   0.00842  -0.03668   0.00004  -0.01972
  35        3S         -0.01237   0.00795  -0.02635   0.00013  -0.00366
  36 6   H  1S         -0.02035  -0.01480  -0.00929  -0.00062  -0.01540
  37        2S         -0.03131  -0.03570  -0.01077   0.00000  -0.02053
  38        3S         -0.01229  -0.02657  -0.00627   0.00010  -0.00420
                          11        12        13        14        15
  11        4PX         0.06054
  12        4PY        -0.00929   0.05150
  13        4PZ        -0.00112  -0.00188   0.14293
  14 2   H  1S          0.03365  -0.05427  -0.00084   0.08077
  15        2S          0.04887  -0.07553  -0.00032   0.10950   0.15053
  16        3S          0.02139  -0.02812   0.00018   0.03699   0.05312
  17 3   H  1S         -0.06319   0.00170  -0.00092  -0.01310  -0.02491
  18        2S         -0.08795   0.00439  -0.00039  -0.02483  -0.04349
  19        3S         -0.03389   0.00462   0.00016  -0.01820  -0.02779
  20 4   C  1S         -0.00313  -0.00571  -0.00054   0.00421   0.00668
  21        2S         -0.00648  -0.01167  -0.00088   0.00696   0.01116
  22        2PX        -0.01307  -0.02008   0.00090   0.00180  -0.00278
  23        2PY        -0.02013  -0.03686   0.00169   0.01153   0.02435
  24        2PZ        -0.00064  -0.00101   0.09581  -0.00046  -0.00014
  25        3S          0.02297   0.04107   0.00257  -0.02094  -0.03356
  26        3PX        -0.02003  -0.02847   0.00122   0.00102  -0.00725
  27        3PY        -0.02846  -0.05367   0.00233   0.01709   0.03640
  28        3PZ        -0.00105  -0.00167   0.15346  -0.00068  -0.00015
  29        4S          0.00789   0.01505   0.00315  -0.01758  -0.02414
  30        4PX        -0.01463  -0.01252   0.00114  -0.00159  -0.00833
  31        4PY        -0.01264  -0.02955   0.00222   0.01526   0.02717
  32        4PZ        -0.00126  -0.00205   0.14306  -0.00037   0.00023
  33 5   H  1S          0.00180  -0.01576  -0.00031   0.01118   0.02339
  34        2S          0.00890  -0.02752   0.00038   0.02370   0.04445
  35        3S          0.00738  -0.01585   0.00027   0.01655   0.02781
  36 6   H  1S         -0.01434  -0.00582  -0.00032  -0.00909  -0.01832
  37        2S         -0.02790  -0.00528   0.00036  -0.01877  -0.03441
  38        3S         -0.01711  -0.00126   0.00025  -0.01007  -0.01768
                          16        17        18        19        20
  16        3S          0.02140
  17 3   H  1S         -0.01838   0.08209
  18        2S         -0.02789   0.10980   0.14901
  19        3S         -0.01317   0.03632   0.05159   0.02051
  20 4   C  1S          0.00365   0.00428   0.00669   0.00364   0.65946
  21        2S          0.00540   0.00707   0.01114   0.00535   0.56156
  22        2PX        -0.00353   0.00915   0.02244   0.01679   0.00111
  23        2PY         0.01770   0.00747   0.00970   0.00561   0.00169
  24        2PZ         0.00003  -0.00045  -0.00010   0.00006   0.00007
  25        3S         -0.01403  -0.02118  -0.03337  -0.01376  -0.08923
  26        3PX        -0.00700   0.01442   0.03518   0.02618  -0.00051
  27        3PY         0.02666   0.00957   0.01176   0.00700  -0.00112
  28        3PZ         0.00006  -0.00066  -0.00008   0.00012   0.00015
  29        4S         -0.00579  -0.01728  -0.02316  -0.00520  -0.08006
  30        4PX        -0.00696   0.01407   0.02767   0.01708  -0.00022
  31        4PY         0.01593   0.00664   0.00672   0.00197  -0.00023
  32        4PZ         0.00023  -0.00037   0.00027   0.00026  -0.00005
  33 5   H  1S          0.01630  -0.00901  -0.01816  -0.00948  -0.02028
  34        2S          0.02754  -0.01853  -0.03388  -0.01697  -0.02230
  35        3S          0.01466  -0.00995  -0.01740  -0.00893   0.00061
  36 6   H  1S         -0.00962   0.01118   0.02329   0.01600  -0.01999
  37        2S         -0.01735   0.02368   0.04423   0.02711  -0.02225
  38        3S         -0.00913   0.01652   0.02760   0.01442   0.00051
                          21        22        23        24        25
  21        2S          0.49206
  22        2PX         0.00159   0.08282
  23        2PY         0.00239   0.00358   0.08769
  24        2PZ         0.00010   0.00012   0.00017   0.06424
  25        3S         -0.15422  -0.00519  -0.00793  -0.00012   0.45369
  26        3PX        -0.00077   0.12877   0.00172   0.00008  -0.00010
  27        3PY        -0.00170   0.00175   0.13143   0.00007   0.00096
  28        3PZ         0.00025   0.00019   0.00027   0.10290  -0.00048
  29        4S         -0.11563   0.01398   0.02362   0.00052   0.27797
  30        4PX        -0.00149   0.07273  -0.00498   0.00041   0.00628
  31        4PY        -0.00231  -0.00490   0.06681   0.00075   0.01013
  32        4PZ        -0.00015   0.00066   0.00119   0.09592   0.00077
  33 5   H  1S         -0.03229  -0.03359   0.06375  -0.00111   0.08636
  34        2S         -0.03563  -0.04955   0.08850  -0.00088   0.09535
  35        3S         -0.00059  -0.02226   0.03337  -0.00009   0.00564
  36 6   H  1S         -0.03186   0.07132   0.00249  -0.00100   0.08520
  37        2S         -0.03557   0.10119   0.00087  -0.00073   0.09516
  38        3S         -0.00074   0.04026  -0.00286  -0.00004   0.00594
                          26        27        28        29        30
  26        3PX         0.20054
  27        3PY        -0.00284   0.19750
  28        3PZ         0.00011   0.00011   0.16483
  29        4S          0.02552   0.04276   0.00064   0.18601
  30        4PX         0.11368  -0.01045   0.00064   0.01567   0.06550
  31        4PY        -0.01036   0.10090   0.00121   0.02515  -0.00997
  32        4PZ         0.00084   0.00153   0.15363   0.00170   0.00099
  33 5   H  1S         -0.05371   0.09973  -0.00183   0.06731  -0.03417
  34        2S         -0.07964   0.13796  -0.00146   0.07752  -0.05118
  35        3S         -0.03622   0.05137  -0.00014   0.00927  -0.02351
  36 6   H  1S          0.11257   0.00304  -0.00167   0.06756   0.06536
  37        2S          0.15951  -0.00048  -0.00125   0.07902   0.09304
  38        3S          0.06316  -0.00596  -0.00007   0.01022   0.03715
                          31        32        33        34        35
  31        4PY         0.05305
  32        4PZ         0.00187   0.14322
  33 5   H  1S          0.05543  -0.00095   0.08116
  34        2S          0.07676  -0.00040   0.11004   0.15162
  35        3S          0.02867   0.00013   0.03774   0.05453   0.02240
  36 6   H  1S         -0.00190  -0.00088  -0.01255  -0.02587  -0.01965
  37        2S         -0.00596  -0.00031  -0.02596  -0.04760  -0.03097
  38        3S         -0.00601   0.00015  -0.01983  -0.03107  -0.01519
                          36        37        38
  36 6   H  1S          0.08024
  37        2S          0.10971   0.15234
  38        3S          0.03800   0.05523   0.02278
    Full Mulliken population analysis:
                           1         2         3         4         5
   1 1   C  1S          0.65941
   2        2S          0.49325   0.49198
   3        2PX         0.00000   0.00000   0.08405
   4        2PY         0.00000   0.00000   0.00000   0.08746
   5        2PZ         0.00000   0.00000   0.00000   0.00000   0.06440
   6        3S         -0.02928  -0.06444   0.00000   0.00000   0.00000
   7        3PX         0.00000   0.00000   0.08191   0.00000   0.00000
   8        3PY         0.00000   0.00000   0.00000   0.08239   0.00000
   9        3PZ         0.00000   0.00000   0.00000   0.00000   0.06508
  10        4S         -0.01224  -0.02147   0.00000   0.00000   0.00000
  11        4PX         0.00000   0.00000   0.01551   0.00000   0.00000
  12        4PY         0.00000   0.00000   0.00000   0.01447   0.00000
  13        4PZ         0.00000   0.00000   0.00000   0.00000   0.02113
  14 2   H  1S         -0.00022  -0.00031   0.00175   0.00548   0.00000
  15        2S         -0.00164  -0.00314   0.00426   0.01315   0.00000
  16        3S          0.00004  -0.00007   0.00070   0.00192   0.00000
  17 3   H  1S         -0.00025  -0.00036   0.00774   0.00000   0.00000
  18        2S         -0.00172  -0.00328   0.01768   0.00001   0.00000
  19        3S          0.00005  -0.00007   0.00257  -0.00000   0.00000
  20 4   C  1S          0.00000   0.00000  -0.00002  -0.00006   0.00000
  21        2S          0.00000  -0.00000  -0.00002  -0.00005   0.00000
  22        2PX        -0.00002  -0.00002   0.00011   0.00085   0.00000
  23        2PY        -0.00006  -0.00005   0.00085   0.00195   0.00000
  24        2PZ        -0.00000  -0.00000  -0.00000  -0.00000   0.00041
  25        3S         -0.00059  -0.00099   0.00251   0.00756  -0.00000
  26        3PX        -0.00054  -0.00100   0.00019   0.00554   0.00000
  27        3PY        -0.00163  -0.00300   0.00551   0.01067   0.00000
  28        3PZ        -0.00000  -0.00000  -0.00000  -0.00000   0.00609
  29        4S          0.00034   0.00030   0.00093   0.00284  -0.00000
  30        4PX        -0.00018  -0.00046  -0.00071   0.00146   0.00000
  31        4PY        -0.00053  -0.00134   0.00146   0.00097   0.00000
  32        4PZ        -0.00000  -0.00000  -0.00000  -0.00000   0.00902
  33 5   H  1S          0.00000   0.00000  -0.00000  -0.00000   0.00000
  34        2S          0.00001   0.00002   0.00000  -0.00032   0.00000
  35        3S          0.00008   0.00013   0.00001  -0.00071  -0.00000
  36 6   H  1S          0.00000   0.00000  -0.00000  -0.00000   0.00000
  37        2S          0.00001   0.00002  -0.00024  -0.00007   0.00000
  38        3S          0.00008   0.00013  -0.00057  -0.00012  -0.00000
                           6         7         8         9        10
   6        3S          0.45267
   7        3PX         0.00000   0.20202
   8        3PY         0.00000   0.00000   0.19663
   9        3PZ         0.00000   0.00000   0.00000   0.16617
  10        4S          0.21285   0.00000   0.00000   0.00000   0.18382
  11        4PX         0.00000   0.07165   0.00000   0.00000   0.00000
  12        4PY         0.00000   0.00000   0.06476   0.00000   0.00000
  13        4PZ         0.00000   0.00000   0.00000   0.10070   0.00000
  14 2   H  1S          0.01570   0.01053   0.03206   0.00001   0.01816
  15        2S          0.04065   0.01944   0.05768   0.00001   0.04686
  16        3S          0.00281   0.00400   0.01032   0.00000   0.00846
  17 3   H  1S          0.01672   0.04390   0.00001   0.00002   0.01842
  18        2S          0.04211   0.07726   0.00000   0.00002   0.04653
  19        3S          0.00284   0.01397  -0.00001   0.00000   0.00766
  20 4   C  1S         -0.00059  -0.00057  -0.00170   0.00000   0.00033
  21        2S         -0.00099  -0.00104  -0.00313   0.00000   0.00030
  22        2PX         0.00243   0.00019   0.00550   0.00000   0.00082
  23        2PY         0.00731   0.00550   0.01061   0.00000   0.00246
  24        2PZ         0.00000  -0.00000  -0.00000   0.00611   0.00000
  25        3S          0.02168   0.01324   0.03990  -0.00000   0.00037
  26        3PX         0.01267  -0.00126   0.01853   0.00000   0.00417
  27        3PY         0.03809   0.01845   0.02855   0.00000   0.01245
  28        3PZ         0.00000  -0.00000  -0.00000   0.03518   0.00000
  29        4S          0.00060   0.00477   0.01460  -0.00000  -0.02047
  30        4PX         0.00638  -0.00402   0.00586   0.00000   0.00208
  31        4PY         0.01893   0.00587   0.00129   0.00000   0.00580
  32        4PZ         0.00000  -0.00000  -0.00000   0.04922   0.00000
  33 5   H  1S         -0.00006  -0.00000  -0.00019   0.00000  -0.00082
  34        2S         -0.00124   0.00006  -0.00327  -0.00000  -0.00334
  35        3S         -0.00203   0.00010  -0.00427  -0.00000  -0.00132
  36 6   H  1S         -0.00005  -0.00013  -0.00006   0.00000  -0.00082
  37        2S         -0.00120  -0.00258  -0.00053  -0.00000  -0.00344
  38        3S         -0.00200  -0.00354  -0.00057  -0.00000  -0.00151
                          11        12        13        14        15
  11        4PX         0.06054
  12        4PY         0.00000   0.05150
  13        4PZ         0.00000   0.00000   0.14293
  14 2   H  1S          0.00630   0.01758   0.00001   0.08077
  15        2S          0.01542   0.04123   0.00000   0.07735   0.15053
  16        3S          0.00530   0.01205  -0.00000   0.01382   0.04191
  17 3   H  1S          0.02367  -0.00001   0.00001  -0.00001  -0.00065
  18        2S          0.05535  -0.00004   0.00001  -0.00065  -0.00544
  19        3S          0.01667  -0.00003  -0.00000  -0.00203  -0.00809
  20 4   C  1S         -0.00018  -0.00057   0.00000   0.00000   0.00002
  21        2S         -0.00046  -0.00143   0.00000   0.00000   0.00003
  22        2PX        -0.00070   0.00139   0.00000  -0.00000   0.00000
  23        2PY         0.00140   0.00096   0.00000  -0.00000  -0.00035
  24        2PZ        -0.00000  -0.00000   0.00900   0.00000   0.00000
  25        3S          0.00645   0.01997  -0.00000  -0.00007  -0.00144
  26        3PX        -0.00410   0.00564   0.00000  -0.00000   0.00004
  27        3PY         0.00564   0.00128   0.00000  -0.00022  -0.00350
  28        3PZ        -0.00000  -0.00000   0.04897   0.00000   0.00000
  29        4S          0.00239   0.00790  -0.00000  -0.00101  -0.00428
  30        4PX        -0.00704   0.00317   0.00000   0.00001   0.00017
  31        4PY         0.00320  -0.00558   0.00000  -0.00239  -0.01015
  32        4PZ        -0.00000  -0.00000   0.08975   0.00000  -0.00000
  33 5   H  1S          0.00002  -0.00236   0.00000   0.00000   0.00000
  34        2S          0.00026  -0.00994  -0.00000   0.00000   0.00016
  35        3S          0.00027  -0.00734  -0.00000   0.00023   0.00146
  36 6   H  1S         -0.00175  -0.00049   0.00000  -0.00000  -0.00004
  37        2S         -0.00827  -0.00107  -0.00000  -0.00004  -0.00092
  38        3S         -0.00653  -0.00033  -0.00000  -0.00046  -0.00246
                          16        17        18        19        20
  16        3S          0.02140
  17 3   H  1S         -0.00205   0.08209
  18        2S         -0.00812   0.07756   0.14901
  19        3S         -0.00684   0.01357   0.04070   0.02051
  20 4   C  1S          0.00009   0.00000   0.00002   0.00009   0.65946
  21        2S          0.00016   0.00000   0.00003   0.00016   0.49330
  22        2PX         0.00001  -0.00000  -0.00027  -0.00058   0.00000
  23        2PY        -0.00074  -0.00000  -0.00008  -0.00013   0.00000
  24        2PZ        -0.00000   0.00000   0.00000  -0.00000   0.00000
  25        3S         -0.00240  -0.00007  -0.00145  -0.00236  -0.02937
  26        3PX         0.00007  -0.00015  -0.00284  -0.00363   0.00000
  27        3PY        -0.00443  -0.00007  -0.00063  -0.00065   0.00000
  28        3PZ        -0.00000   0.00000   0.00000  -0.00000   0.00000
  29        4S         -0.00216  -0.00100  -0.00412  -0.00194  -0.01231
  30        4PX         0.00018  -0.00185  -0.00864  -0.00669   0.00000
  31        4PY        -0.00749  -0.00058  -0.00140  -0.00052   0.00000
  32        4PZ        -0.00000   0.00000  -0.00000  -0.00000   0.00000
  33 5   H  1S          0.00023  -0.00000  -0.00004  -0.00043  -0.00022
  34        2S          0.00144  -0.00004  -0.00090  -0.00235  -0.00161
  35        3S          0.00246  -0.00045  -0.00241  -0.00284   0.00005
  36 6   H  1S         -0.00044   0.00000   0.00000   0.00022  -0.00021
  37        2S         -0.00241   0.00000   0.00015   0.00141  -0.00157
  38        3S         -0.00292   0.00023   0.00144   0.00242   0.00004
                          21        22        23        24        25
  21        2S          0.49206
  22        2PX         0.00000   0.08282
  23        2PY         0.00000   0.00000   0.08769
  24        2PZ         0.00000   0.00000   0.00000   0.06424
  25        3S         -0.06459   0.00000   0.00000   0.00000   0.45369
  26        3PX         0.00000   0.08101   0.00000   0.00000   0.00000
  27        3PY         0.00000   0.00000   0.08269   0.00000   0.00000
  28        3PZ         0.00000   0.00000   0.00000   0.06474   0.00000
  29        4S         -0.02164   0.00000   0.00000   0.00000   0.21535
  30        4PX         0.00000   0.01602   0.00000   0.00000   0.00000
  31        4PY         0.00000   0.00000   0.01471   0.00000   0.00000
  32        4PZ         0.00000   0.00000   0.00000   0.02112   0.00000
  33 5   H  1S         -0.00032   0.00154   0.00577   0.00000   0.01569
  34        2S         -0.00308   0.00389   0.01367   0.00000   0.03989
  35        3S         -0.00006   0.00067   0.00199   0.00000   0.00259
  36 6   H  1S         -0.00029   0.00694   0.00001   0.00000   0.01509
  37        2S         -0.00301   0.01732   0.00001   0.00000   0.03925
  38        3S         -0.00007   0.00269  -0.00001   0.00000   0.00271
                          26        27        28        29        30
  26        3PX         0.20054
  27        3PY         0.00000   0.19750
  28        3PZ         0.00000   0.00000   0.16483
  29        4S          0.00000   0.00000   0.00000   0.18601
  30        4PX         0.07429   0.00000   0.00000   0.00000   0.06550
  31        4PY         0.00000   0.06593   0.00000   0.00000   0.00000
  32        4PZ         0.00000   0.00000   0.10039   0.00000   0.00000
  33 5   H  1S          0.00920   0.03362   0.00002   0.01773   0.00579
  34        2S          0.01757   0.05991   0.00002   0.04455   0.01462
  35        3S          0.00382   0.01067   0.00000   0.00698   0.00527
  36 6   H  1S          0.04180   0.00006   0.00002   0.01763   0.02439
  37        2S          0.07715  -0.00001   0.00001   0.04507   0.05862
  38        3S          0.01472  -0.00007   0.00000   0.00766   0.01842
                          31        32        33        34        35
  31        4PY         0.05305
  32        4PZ         0.00000   0.14322
  33 5   H  1S          0.01849   0.00001   0.08116
  34        2S          0.04314   0.00001   0.07773   0.15162
  35        3S          0.01264  -0.00000   0.01410   0.04302   0.02240
  36 6   H  1S         -0.00004   0.00001  -0.00001  -0.00077  -0.00230
  37        2S         -0.00020   0.00000  -0.00078  -0.00646  -0.00938
  38        3S         -0.00016  -0.00000  -0.00232  -0.00941  -0.00809
                          36        37        38
  36 6   H  1S          0.08024
  37        2S          0.07749   0.15234
  38        3S          0.01420   0.04357   0.02278
     Gross orbital populations:
                           1
   1 1   C  1S          1.10437
   2        2S          0.88585
   3        2PX         0.22620
   4        2PY         0.23538
   5        2PZ         0.16614
   6        3S          0.79255
   7        3PX         0.55973
   8        3PY         0.55498
   9        3PZ         0.42253
  10        4S          0.50611
  11        4PX         0.26101
  12        4PY         0.21273
  13        4PZ         0.41250
  14 2   H  1S          0.27235
  15        2S          0.46826
  16        3S          0.08733
  17 3   H  1S          0.27641
  18        2S          0.46584
  19        3S          0.08364
  20 4   C  1S          1.10440
  21        2S          0.88584
  22        2PX         0.22261
  23        2PY         0.23616
  24        2PZ         0.16564
  25        3S          0.79263
  26        3PX         0.55343
  27        3PY         0.55680
  28        3PZ         0.42027
  29        4S          0.50670
  30        4PX         0.27265
  31        4PY         0.21511
  32        4PZ         0.41275
  33 5   H  1S          0.27357
  34        2S          0.46885
  35        3S          0.08776
  36 6   H  1S          0.27071
  37        2S          0.47026
  38        3S          0.08996
          Condensed to atoms (all electrons):
               1          2          3          4          5          6
     1  C    5.036130   0.386521   0.387462   0.601821  -0.036221  -0.035639
     2  H    0.386521   0.518861  -0.033868  -0.039862   0.005977  -0.009688
     3  H    0.387462  -0.033868   0.515259  -0.039368  -0.009474   0.005877
     4  C    0.601821  -0.039862  -0.039368   5.053906   0.384505   0.383996
     5  H   -0.036221   0.005977  -0.009474   0.384505   0.524893  -0.039506
     6  H   -0.035639  -0.009688   0.005877   0.383996  -0.039506   0.525884
 Mulliken charges:
               1
     1  C   -0.340075
     2  H    0.172059
     3  H    0.174111
     4  C   -0.344998
     5  H    0.169826
     6  H    0.169076
 Sum of Mulliken charges =   0.00000
 Mulliken charges with hydrogens summed into heavy atoms:
               1
     1  C    0.006096
     4  C   -0.006096
 Electronic spatial extent (au):  <R**2>=             83.7975
 Charge=              0.0000 electrons
 Dipole moment (field-independent basis, Debye):
    X=              0.0005    Y=              0.0188    Z=             -0.0889  Tot=              0.0909
 Quadrupole moment (field-independent basis, Debye-Ang):
   XX=            -12.1987   YY=            -12.2210   ZZ=            -15.6783
   XY=              0.0099   XZ=             -0.0002   YZ=             -0.0037
 Traceless Quadrupole moment (field-independent basis, Debye-Ang):
   XX=              1.1673   YY=              1.1450   ZZ=             -2.3123
   XY=              0.0099   XZ=             -0.0002   YZ=             -0.0037
 Octapole moment (field-independent basis, Debye-Ang**2):
  XXX=             -0.2881  YYY=             -0.0050  ZZZ=             -0.0638  XYY=              0.1388
  XXY=             -0.0318  XXZ=             -0.1219  XZZ=             -0.0791  YZZ=             -0.0539
  YYZ=             -0.1597  XYZ=             -0.0327
 Hexadecapole moment (field-independent basis, Debye-Ang**3):
 XXXX=            -34.2970 YYYY=            -55.2732 ZZZZ=            -17.8235 XXXY=             -7.2405
 XXXZ=              0.0094 YYYX=            -10.7353 YYYZ=              0.0108 ZZZX=              0.0130
 ZZZY=              0.0257 XXYY=            -16.2185 XXZZ=             -9.9380 YYZZ=            -13.6622
 XXYZ=              0.0054 YYXZ=             -0.0001 ZZXY=             -3.2056
 N-N= 3.304323328969D+01 E-N=-2.477922212172D+02  KE= 7.814492016124D+01
 Orbital energies and kinetic energies (alpha):
                                 1                 2
   1         O               -10.290103         15.977229
   2         O               -10.288807         15.981407
   3         O                -0.863399          1.537274
   4         O                -0.672059          1.271432
   5         O                -0.558971          0.940665
   6         O                -0.509039          1.282896
   7         O                -0.436897          1.043380
   8         O                -0.356649          1.038177
   9         V                 0.079620          1.182227
  10         V                 0.140828          0.589753
  11         V                 0.164617          0.594810
  12         V                 0.170042          0.680931
  13         V                 0.240754          0.583111
  14         V                 0.374802          0.857473
  15         V                 0.393281          0.931944
  16         V                 0.397017          0.777611
  17         V                 0.464528          1.189020
  18         V                 0.487290          1.427681
  19         V                 0.493898          1.302153
  20         V                 0.590896          1.651931
  21         V                 0.665597          1.571897
  22         V                 0.690285          2.147811
  23         V                 0.773131          2.468007
  24         V                 0.774761          2.275698
  25         V                 0.843546          1.086728
  26         V                 0.951227          3.417845
  27         V                 2.232054          3.923308
  28         V                 2.290156          4.029181
  29         V                 2.331889          4.303006
  30         V                 2.406592          4.517606
  31         V                 2.670884          6.300515
  32         V                 2.817871          6.306519
  33         V                 2.878461          6.136532
  34         V                 2.952379          6.225646
  35         V                 3.139077          6.821760
  36         V                 3.318787          6.402948
  37         V                23.352134         60.074754
  38         V                23.704768         60.203067
 Total kinetic energy from orbitals= 7.814492016124D+01
 Calling FoFJK, ICntrl=      2127 FMM=F ISym2X=0 I1Cent= 0 IOpClX= 0 NMat=1 NMatS=1 NMatT=0.
 -------------------------------------------------------------------
 Center     Atomic                   Forces (Hartrees/Bohr)
 Number     Number              X              Y              Z
 -------------------------------------------------------------------
      1        6           0.012439398    0.005303266   -0.003587850
      2        1          -0.010081134    0.009007339    0.001850389
      3        1           0.004792880   -0.003451184    0.001685207
      4        6           0.006938182    0.004407411   -0.003925937
      5        1           0.002184465   -0.011151694    0.001938921
      6        1          -0.016273791   -0.004115138    0.002039270
 -------------------------------------------------------------------
 Cartesian Forces:  Max     0.016273791 RMS     0.007154801

 GradGradGradGradGradGradGradGradGradGradGradGradGradGradGradGradGradGrad
 Berny optimization.
 Search for a local minimum.
 Step number   1 out of a maximum of    2
 All quantities printed in internal units (Hartrees-Bohrs-Radians)
 Second derivative matrix not updated -- first step.
 The second derivative matrix:
                          X1        Y1        Z1        X2        Y2
           X1           0.75121
           Y1           0.10131   0.85208
           Z1           0.00525   0.00792   0.17046
           X2          -0.16112   0.09364   0.00181   0.13885
           Y2           0.09987  -0.27969  -0.00649  -0.11276   0.26868
           Z2           0.00286  -0.00816  -0.05452  -0.00260   0.00674
           X3          -0.34859  -0.00315  -0.00718  -0.00046  -0.00026
           Y3          -0.00929  -0.10947  -0.00176   0.03226   0.01861
           Z3          -0.00917  -0.00171  -0.05604   0.00132   0.00048
           X4          -0.26634  -0.17743  -0.00081   0.02275   0.01314
           Y4          -0.17773  -0.47109  -0.00132  -0.01314  -0.00759
           Z4           0.00105   0.00193  -0.09379  -0.00053  -0.00073
           X5           0.02346  -0.01355   0.00058  -0.00001   0.00000
           Y5           0.01191  -0.00688   0.00079   0.00000  -0.00000
           Z5          -0.00045   0.00027   0.01733   0.00022  -0.00012
           X6           0.00139  -0.00080   0.00036  -0.00001   0.00000
           Y6          -0.02606   0.01505   0.00086   0.00000  -0.00000
           Z6           0.00045  -0.00025   0.01656  -0.00022   0.00012
                          Z2        X3        Y3        Z3        X4
           Z2           0.02827
           X3          -0.00028   0.34869
           Y3           0.00141   0.00362   0.07550
           Z3           0.01047   0.00784   0.00122   0.02929
           X4           0.00047   0.00037  -0.02659  -0.00046   0.71721
           Y4          -0.00026  -0.00021   0.01536   0.00028   0.11605
           Z4           0.01569  -0.00039  -0.00087   0.01636  -0.00461
           X5          -0.00023  -0.00001   0.00000   0.00024  -0.14930
           Y5           0.00014   0.00000  -0.00000  -0.00015   0.09467
           Z5           0.00918   0.00023  -0.00014  -0.00937  -0.00297
           X6          -0.00023  -0.00001   0.00000   0.00023  -0.32468
           Y6           0.00012   0.00000  -0.00000  -0.00013  -0.01984
           Z6          -0.00910  -0.00023   0.00014   0.00929   0.00838
                          Y4        Z4        X5        Y5        Z5
           Y4           0.85977
           Z4          -0.00904   0.17488
           X5           0.08665  -0.00196   0.12760
           Y5          -0.29150   0.00695  -0.10571   0.28185
           Z5           0.00861  -0.05703   0.00265  -0.00739   0.02960
           X6          -0.01161   0.00644  -0.00175  -0.00088   0.00031
           Y6          -0.10494   0.00176   0.03261   0.01653  -0.00124
           Z6           0.00172  -0.05612  -0.00127  -0.00035   0.01029
                          X6        Y6        Z6
           X6           0.32506
           Y6           0.01328   0.07336
           Z6          -0.00712  -0.00138   0.02908
 ITU=  0
     Eigenvalues ---    0.03697   0.04373   0.09246   0.09983   0.13480
     Eigenvalues ---    0.17464   0.26271   0.28890   0.52736   0.70144
     Eigenvalues ---    0.97043   1.55690
 Angle between quadratic step and forces=  30.90 degrees.
 Linear search not attempted -- first point.
 B after Tr=     0.005557    0.004790   -0.009127
         Rot=    1.000000   -0.000016    0.000009   -0.000116 Ang=  -0.01 deg.
 Variable       Old X    -DE/DX   Delta X   Delta X   Delta X     New X
                                 (Linear)    (Quad)   (Total)
    X1       -0.63490   0.01244   0.00000   0.01918   0.02499  -0.60992
    Y1       -1.09763   0.00530   0.00000   0.01855   0.02319  -1.07444
    Z1        0.01107  -0.00359   0.00000  -0.01908  -0.02825  -0.01718
    X2        0.40748  -0.01008   0.00000  -0.03606  -0.02984   0.37765
    Y2       -2.90095   0.00901   0.00000   0.03003   0.03490  -2.86605
    Z2       -0.03751   0.00185   0.00000   0.02357   0.01436  -0.02315
    X3       -2.69258   0.00479   0.00000   0.03225   0.03807  -2.65451
    Y3       -1.12509  -0.00345   0.00000  -0.01039  -0.00621  -1.13130
    Z3       -0.03952   0.00169   0.00000   0.02304   0.01383  -0.02569
    X4        0.63095   0.00694   0.00000   0.00381   0.00911   0.64007
    Y4        1.09389   0.00441   0.00000   0.00130   0.00623   1.10012
    Z4        0.00938  -0.00393   0.00000  -0.01870  -0.02778  -0.01841
    X5       -0.31120   0.00218   0.00000  -0.00811  -0.00323  -0.31443
    Y5        2.94807  -0.01115   0.00000  -0.04025  -0.03553   2.91254
    Z5       -0.04349   0.00194   0.00000   0.02325   0.01422  -0.02928
    X6        2.72515  -0.01627   0.00000  -0.04439  -0.03911   2.68605
    Y6        1.20432  -0.00412   0.00000  -0.02800  -0.02259   1.18173
    Z6       -0.04134   0.00204   0.00000   0.02267   0.01363  -0.02771
         Item               Value     Threshold  Converged?
 Maximum Force            0.016274     0.000450     NO 
 RMS     Force            0.007155     0.000300     NO 
 Maximum Displacement     0.039106     0.001800     NO 
 RMS     Displacement     0.024208     0.001200     NO 
 Predicted change in Energy=-1.388926D-03
 GradGradGradGradGradGradGradGradGradGradGradGradGradGradGradGradGradGrad

 Unable to Open any file for archive entry.
 1\1\GINC-BHD0008\Force\RwB97XD\6-311G\C2H4\BWEIGHT\11-Jan-2023\0\\# WB
 97XD/6-311G SCF=XQC FORCE nosym pop=full guess=read\\MD Step 1000\\0,1
 \C,-0.33597636,-0.58084209,0.00585758\H,0.21563116,-1.53511875,-0.0198
 4898\H,-1.42485179,-0.59537318,-0.02091127\C,0.33388619,0.57886291,0.0
 0496106\H,-0.16468153,1.56005066,-0.02301542\H,1.44208843,0.63729674,-
 0.02187824\\Version=ES64L-G16RevC.01\HF=-78.5560325\RMSD=6.095e-09\RMS
 F=7.155e-03\Dipole=0.0001875,0.0074035,-0.0349936\Quadrupole=0.8678816
 ,0.85129,-1.7191716,0.0073311,-0.0001755,-0.0027448\PG=C01 [X(C2H4)]\\
 @
 The archive entry for this job was punched.


 MOST BUREAUCRACIES FUNCTION LIKE A SEPTIC TANK.
 THE LARGE CHUNKS RISE TO THE TOP.
 Job cpu time:       0 days  0 hours  0 minutes 10.5 seconds.
 Elapsed time:       0 days  0 hours  0 minutes  3.0 seconds.
 File lengths (MBytes):  RWF=    272 Int=      0 D2E=      0 Chk=     32 Scr=     32
 Normal termination of Gaussian 16 at Wed Jan 11 19:42:28 2023.
