6
MD Step 0
C  -0.33763715 -0.58748864 0.00000000
H  0.19552659 -1.51519357 0.00000000
H  -1.40763715 -0.58748864 0.00000000
C  0.33763715 0.58748865 0.00000000
H  -0.19552659 1.51519357 0.00000000
H  1.40763715 0.58748865 0.00000000
6
MD Step 1
C  -0.33800591 -0.58783565 -0.00039468
H  0.19789296 -1.51298837 0.00235085
H  -1.40542158 -0.58520749 0.00235289
C  0.33721647 0.58704655 -0.00039495
H  -0.19318809 1.51769157 0.00235175
H  1.41012371 0.58990719 0.00235379
6
MD Step 2
C  -0.33832048 -0.58808803 -0.00079136
H  0.20029441 -1.51107983 0.00471358
H  -1.40351415 -0.58306342 0.00471774
C  0.33674631 0.58651067 -0.00079187
H  -0.19085390 1.52046905 0.00471527
H  1.41283152 0.59247011 0.00471925
6
MD Step 3
C  -0.33857618 -0.58824379 -0.00118884
H  0.20272255 -1.50948543 0.00708097
H  -1.40196672 -0.58107054 0.00708760
C  0.33623295 0.58588621 -0.00118948
H  -0.18852377 1.52348857 0.00708297
H  1.41568987 0.59516037 0.00708851
6
MD Step 4
C  -0.33876256 -0.58829556 -0.00157944
H  0.20512713 -1.50825416 0.00940719
H  -1.40086057 -0.57928069 0.00941706
C  0.33568947 0.58518588 -0.00157996
H  -0.18623391 1.52666857 0.00940844
H  1.41858643 0.59792128 0.00941475
6
MD Step 5
C  -0.33887786 -0.58824484 -0.00196322
H  0.20750062 -1.50738156 0.01169239
H  -1.40021947 -0.57769858 0.01170689
C  0.33512133 0.58441550 -0.00196319
H  -0.18397290 1.52996925 0.01169108
H  1.42145465 0.60074143 0.01169684
6
MD Step 6
C  -0.33892453 -0.58809747 -0.00234346
H  0.20985166 -1.50683668 0.01395597
H  -1.40003558 -0.57630862 0.01397714
C  0.33453081 0.58357839 -0.00234226
H  -0.18170893 1.53336677 0.01394938
H  1.42424856 0.60362799 0.01395271
6
MD Step 7
C  -0.33889841 -0.58785267 -0.00271581
H  0.21214056 -1.50662750 0.01617177
H  -1.40033425 -0.57513971 0.01620243
C  0.33392777 0.58268618 -0.00271258
H  -0.17945506 1.53678933 0.01615617
H  1.42687901 0.60654197 0.01615453
6
MD Step 8
C  -0.33880030 -0.58751456 -0.00307975
H  0.21434827 -1.50673271 0.01833661
H  -1.40110476 -0.57419659 0.01838033
C  0.33331807 0.58174715 -0.00307344
H  -0.17720116 1.54018702 0.01830722
H  1.42928409 0.60946700 0.01829750
6
MD Step 9
C  -0.33863496 -0.58709100 -0.00343763
H  0.21647073 -1.50710854 0.02046427
H  -1.40230679 -0.57346589 0.02052526
C  0.33270449 0.58076710 -0.00342695
H  -0.17492052 1.54352679 0.02041522
H  1.43142420 0.61240341 0.02039378
6
MD Step 10
C  -0.33840812 -0.58659064 -0.00379172
H  0.21850226 -1.50770686 0.02256828
H  -1.40388875 -0.57293336 0.02265124
C  0.33208961 0.57975219 -0.00377520
H  -0.17258747 1.54677618 0.02249264
H  1.43326549 0.61535114 0.02245544
6
MD Step 11
C  -0.33812123 -0.58601758 -0.00413906
H  0.22040525 -1.50850717 0.02463099
H  -1.40582025 -0.57261472 0.02474110
C  0.33148095 0.57871396 -0.00411507
H  -0.17020862 1.54987321 0.02452085
H  1.43474942 0.61827882 0.02446346
6
MD Step 12
C  -0.33777725 -0.58537716 -0.00447727
H  0.22214550 -1.50948257 0.02663845
H  -1.40805836 -0.57252081 0.02678120
C  0.33088509 0.57766338 -0.00444410
H  -0.16778850 1.55276223 0.02648504
H  1.43582856 0.62115887 0.02640269
6
MD Step 13
C  -0.33738795 -0.58468332 -0.00481210
H  0.22373724 -1.51055626 0.02862487
H  -1.41050463 -0.57261318 0.02880542
C  0.33030013 0.57660329 -0.00476789
H  -0.16528552 1.55543918 0.02841849
H  1.43651159 0.62401205 0.02830666
6
MD Step 14
C  -0.33694801 -0.58393255 -0.00513139
H  0.22508981 -1.51175661 0.03051848
H  -1.41316156 -0.57295785 0.03074256
C  0.32974161 0.57555415 -0.00507442
H  -0.16276587 1.55779821 0.03024914
H  1.43670927 0.62675349 0.03010263
6
MD Step 15
C  -0.33647272 -0.58314180 -0.00544326
H  0.22623381 -1.51299195 0.03236772
H  -1.41590737 -0.57349976 0.03264000
C  0.32920442 0.57451597 -0.00537171
H  -0.16017849 1.55985840 0.03202468
H  1.43646134 0.62941891 0.03183908
6
MD Step 16
C  -0.33596592 -0.58231627 -0.00574383
H  0.22713093 -1.51424242 0.03415012
H  -1.41868957 -0.57425330 0.03447491
C  0.32869494 0.57350031 -0.00565603
H  -0.15754550 1.56157327 0.03372247
H  1.43574529 0.63197370 0.03349347
6
MD Step 17
C  -0.33543416 -0.58146374 -0.00603176
H  0.22776016 -1.51547486 0.03585831
H  -1.42144061 -0.57521664 0.03623920
C  0.32821655 0.57251575 -0.00592620
H  -0.15487671 1.56291713 0.03533509
H  1.43456239 0.63439896 0.03505877
6
MD Step 18
C  -0.33488725 -0.58059507 -0.00630891
H  0.22812185 -1.51663981 0.03750380
H  -1.42407581 -0.57636809 0.03794308
C  0.32776899 0.57156719 -0.00618420
H  -0.15216602 1.56388906 0.03687399
H  1.43294137 0.63669534 0.03654736
6
MD Step 19
C  -0.33433010 -0.57971606 -0.00657218
H  0.22819011 -1.51772009 0.03906894
H  -1.42654298 -0.57771391 0.03956804
C  0.32735645 0.57066385 -0.00642723
H  -0.14943914 1.56446526 0.03832190
H  1.43089028 0.63883513 0.03794247
6
MD Step 20
C  -0.33376387 -0.57882860 -0.00681476
H  0.22792062 -1.51872367 0.04051446
H  -1.42881597 -0.57928085 0.04107454
C  0.32698622 0.56981786 -0.00664905
H  -0.14674599 1.56460685 0.03964043
H  1.42840403 0.64076997 0.03920567
6
MD Step 21
C  -0.33319985 -0.57794469 -0.00704045
H  0.22733421 -1.51960061 0.04186330
H  -1.43081185 -0.58103297 0.04248354
C  0.32665466 0.56903027 -0.00685358
H  -0.14407764 1.56434350 0.04085290
H  1.42554792 0.64251455 0.04036192
6
MD Step 22
C  -0.33264187 -0.57706870 -0.00724574
H  0.22641243 -1.52034802 0.04309558
H  -1.43249684 -0.58297600 0.04377437
C  0.32636479 0.56830850 -0.00703783
H  -0.14147029 1.56366888 0.04194053
H  1.42235247 0.64404196 0.04139299
6
MD Step 23
C  -0.33209724 -0.57620842 -0.00743113
H  0.22516357 -1.52094446 0.04421486
H  -1.43382107 -0.58509174 0.04494907
C  0.32611522 0.56765524 -0.00720265
H  -0.13893949 1.56260642 0.04290784
H  1.41887889 0.64534973 0.04230476
6
MD Step 24
C  -0.33157262 -0.57537092 -0.00759693
H  0.22359830 -1.52137444 0.04522371
H  -1.43474363 -0.58736244 0.04600873
C  0.32590424 0.56707256 -0.00734876
H  -0.13650418 1.56118481 0.04375856
H  1.41519398 0.64643555 0.04310232
6
MD Step 25
C  -0.33107343 -0.57456196 -0.00774285
H  0.22172697 -1.52163143 0.04612093
H  -1.43523601 -0.58977366 0.04695087
C  0.32573036 0.56656229 -0.00747629
H  -0.13418915 1.55943487 0.04449285
H  1.41136639 0.64729448 0.04378710
6
MD Step 26
C  -0.33060508 -0.57378722 -0.00786919
H  0.21956665 -1.52171074 0.04690874
H  -1.43527536 -0.59230732 0.04777633
C  0.32559114 0.56612491 -0.00758593
H  -0.13201768 1.55739628 0.04511433
H  1.40747266 0.64792609 0.04436417
6
MD Step 27
C  -0.33016974 -0.57304911 -0.00797362
H  0.21712250 -1.52162808 0.04757416
H  -1.43486332 -0.59496023 0.04847151
C  0.32548638 0.56576262 -0.00767594
H  -0.13002958 1.55509848 0.04561177
H  1.40357742 0.64831591 0.04482310
6
MD Step 28
C  -0.32976745 -0.57234783 -0.00805228
H  0.21439410 -1.52141295 0.04809548
H  -1.43401958 -0.59773782 0.04901474
C  0.32541711 0.56547829 -0.00774325
H  -0.12827438 1.55256661 0.04596538
H  1.39973862 0.64844185 0.04514439
6
MD Step 29
C  -0.32940650 -0.57169191 -0.00811077
H  0.21143766 -1.52104595 0.04850513
H  -1.43271921 -0.60059191 0.04943624
C  0.32537510 0.56526508 -0.00779338
H  -0.12674886 1.54988324 0.04620886
H  1.39606861 0.64833684 0.04536407
6
MD Step 30
C  -0.32909178 -0.57108645 -0.00815194
H  0.20829639 -1.52052812 0.04881979
H  -1.43096251 -0.60349018 0.04975132
C  0.32535473 0.56511814 -0.00782934
H  -0.12546547 1.54711785 0.04636036
H  1.39266240 0.64801904 0.04550192
6
MD Step 31
C  -0.32882341 -0.57053181 -0.00817451
H  0.20499193 -1.51988901 0.04903203
H  -1.42878349 -0.60642458 0.04995248
C  0.32535452 0.56503610 -0.00785024
H  -0.12446008 1.54431727 0.04641417
H  1.38958712 0.64748335 0.04555263
6
MD Step 32
C  -0.32860009 -0.57002697 -0.00817652
H  0.20154434 -1.51916590 0.04913083
H  -1.42622912 -0.60939117 0.05002899
C  0.32537379 0.56501778 -0.00785462
H  -0.12377108 1.54152497 0.04636091
H  1.38690047 0.64672175 0.04550679
6
MD Step 33
C  -0.32841764 -0.56956815 -0.00815385
H  0.19796296 -1.51841202 0.04909263
H  -1.42336756 -0.61239897 0.04995852
C  0.32541429 0.56506375 -0.00783901
H  -0.12344758 1.53877111 0.04617863
H  1.38464022 0.64571443 0.04534157
6
MD Step 34
C  -0.32827480 -0.56915461 -0.00810619
H  0.19428002 -1.51766163 0.04891567
H  -1.42025300 -0.61543594 0.04973978
C  0.32547443 0.56517072 -0.00780334
H  -0.12351486 1.53610564 0.04586680
H  1.38285711 0.64446400 0.04505614
6
MD Step 35
C  -0.32817325 -0.56878878 -0.00803718
H  0.19055061 -1.51692894 0.04862031
H  -1.41692456 -0.61846860 0.04939283
C  0.32554936 0.56533161 -0.00775096
H  -0.12397326 1.53359742 0.04544666
H  1.38161362 0.64299580 0.04467211
6
MD Step 36
C  -0.32811009 -0.56846863 -0.00794627
H  0.18680652 -1.51625304 0.04820319
H  -1.41345123 -0.62148778 0.04891537
C  0.32563873 0.56554329 -0.00768144
H  -0.12484300 1.53128711 0.04491564
H  1.38093657 0.64131208 0.04418593
6
MD Step 37
C  -0.32808633 -0.56819631 -0.00783778
H  0.18310654 -1.51564625 0.04768819
H  -1.40987997 -0.62445784 0.04833138
C  0.32573819 0.56579823 -0.00759854
H  -0.12611293 1.52923682 0.04429810
H  1.38086687 0.63944286 0.04362187
6
MD Step 38
C  -0.32809643 -0.56796766 -0.00770967
H  0.17947298 -1.51515635 0.04706330
H  -1.40629779 -0.62737977 0.04763073
C  0.32585006 0.56609518 -0.00750032
H  -0.12780276 1.52746580 0.04358229
H  1.38139545 0.63738283 0.04296635
6
MD Step 39
C  -0.32813739 -0.56778128 -0.00756311
H  0.17594486 -1.51481168 0.04633456
H  -1.40277618 -0.63023732 0.04682077
C  0.32597418 0.56643018 -0.00738764
H  -0.12990893 1.52600349 0.04277419
H  1.38251711 0.63514527 0.04222405
6
MD Step 40
C  -0.32820753 -0.56763741 -0.00740110
H  0.17256952 -1.51462819 0.04551806
H  -1.39937743 -0.63300490 0.04591876
C  0.32610928 0.56679803 -0.00726286
H  -0.13241210 1.52488094 0.04188970
H  1.38422292 0.63275421 0.04140975
6
MD Step 41
C  -0.32830267 -0.56753395 -0.00722428
H  0.16937846 -1.51463219 0.04461645
H  -1.39617675 -0.63567119 0.04492896
C  0.32625684 0.56719625 -0.00712617
H  -0.13530050 1.52410656 0.04093091
H  1.38647695 0.63022082 0.04052403
6
MD Step 42
C  -0.32840914 -0.56745962 -0.00702337
H  0.16634537 -1.51490117 0.04357740
H  -1.39330194 -0.63828089 0.04380259
C  0.32642798 0.56763215 -0.00696906
H  -0.13861168 1.52362433 0.03984422
H  1.38917579 0.62750192 0.03950998
6
MD Step 43
C  -0.32852527 -0.56741521 -0.00680176
H  0.16351112 -1.51543674 0.04241910
H  -1.39080451 -0.64080829 0.04255903
C  0.32662217 0.56810156 -0.00679414
H  -0.14230670 1.52344052 0.03864699
H  1.39227740 0.62462600 0.03838397
6
MD Step 44
C  -0.32865103 -0.56740317 -0.00656432
H  0.16092133 -1.51622624 0.04116810
H  -1.38872012 -0.64321952 0.04122576
C  0.32683760 0.56859928 -0.00660535
H  -0.14633253 1.52356171 0.03736512
H  1.39574027 0.62163106 0.03717127
6
MD Step 45
C  -0.32878121 -0.56742079 -0.00631016
H  0.15858527 -1.51728349 0.03981877
H  -1.38710830 -0.64551368 0.03979878
C  0.32707787 0.56912600 -0.00640155
H  -0.15066358 1.52395419 0.03599182
H  1.39948365 0.61852365 0.03586376
6
MD Step 46
C  -0.32891367 -0.56746840 -0.00604119
H  0.15652381 -1.51860002 0.03838127
H  -1.38600232 -0.64767421 0.03828928
C  0.32734384 0.56968001 -0.00618411
H  -0.15525367 1.52459339 0.03453640
H  1.40343823 0.61532716 0.03447005
6
MD Step 47
C  -0.32904337 -0.56754326 -0.00575569
H  0.15473330 -1.52018125 0.03684578
H  -1.38544417 -0.64970518 0.03668865
C  0.32763957 0.57026330 -0.00595127
H  -0.16007305 1.52542860 0.03298780
H  1.40751160 0.61204566 0.03297821
6
MD Step 48
C  -0.32917180 -0.56764882 -0.00545817
H  0.15324033 -1.52199135 0.03523694
H  -1.38542829 -0.65157587 0.03502181
C  0.32796301 0.57087212 -0.00570677
H  -0.16505383 1.52643950 0.03137040
H  1.41164576 0.60871878 0.03141256
6
MD Step 49
C  -0.32929470 -0.56778260 -0.00514641
H  0.15202996 -1.52402599 0.03354251
H  -1.38597371 -0.65329344 0.03327713
C  0.32831796 0.57150910 -0.00544856
H  -0.17016330 1.52756485 0.02967086
H  1.41574589 0.60534956 0.02975938
6
MD Step 50
C  -0.32941501 -0.56794881 -0.00482503
H  0.15112107 -1.52623708 0.03178800
H  -1.38704803 -0.65482688 0.03147992
C  0.32870148 0.57217041 -0.00518060
H  -0.17532885 1.52877961 0.02791482
H  1.41975819 0.60197961 0.02804460
6
MD Step 51
C  -0.32952751 -0.56814326 -0.00448943
H  0.15047732 -1.52862336 0.02994816
H  -1.38865801 -0.65619745 0.02960502
C  0.32911873 0.57286087 -0.00489882
H  -0.18052901 1.53000607 0.02607579
H  1.42358077 0.59859955 0.02624164
6
MD Step 52
C  -0.32963748 -0.56837157 -0.00414529
H  0.15011628 -1.53112155 0.02805480
H  -1.39074040 -0.65736865 0.02768358
C  0.32956474 0.57357527 -0.00460831
H  -0.18568434 1.53122490 0.02418620
H  1.42717519 0.59525780 0.02438351
6
MD Step 53
C  -0.32974675 -0.56863555 -0.00379412
H  0.15002908 -1.53368859 0.02611679
H  -1.39324477 -0.65832804 0.02572387
C  0.33003796 0.57431215 -0.00431053
H  -0.19073981 1.53239463 0.02225500
H  1.43048547 0.59197947 0.02247958
6
MD Step 54
C  -0.32985862 -0.56893798 -0.00343855
H  0.15021000 -1.53627330 0.02414893
H  -1.39610588 -0.65905797 0.02373991
C  0.33053532 0.57506870 -0.00400788
H  -0.19563598 1.53348208 0.02029743
H  1.43346834 0.58879539 0.02054564
6
MD Step 55
C  -0.32996518 -0.56927023 -0.00306914
H  0.15058362 -1.53889118 0.02209938
H  -1.39931911 -0.65960994 0.02167920
C  0.33106453 0.57585325 -0.00369209
H  -0.20038402 1.53438920 0.01825989
H  1.43601965 0.58566850 0.01852851
6
MD Step 56
C  -0.33006951 -0.56963397 -0.00268760
H  0.15113501 -1.54149433 0.01997819
H  -1.40281063 -0.65997321 0.01955089
C  0.33162235 0.57666305 -0.00336483
H  -0.20493495 1.53508507 0.01615274
H  1.43810694 0.58262375 0.01643912
6
MD Step 57
C  -0.33017636 -0.57003207 -0.00229712
H  0.15185638 -1.54402657 0.01780389
H  -1.40649353 -0.66012944 0.01737263
C  0.33220358 0.57749343 -0.00302921
H  -0.20923465 1.53555222 0.01399509
H  1.43971537 0.57969402 0.01429717
6
MD Step 58
C  -0.33029430 -0.57047078 -0.00190486
H  0.15276097 -1.54641086 0.01561685
H  -1.41025641 -0.66003923 0.01518395
C  0.33279889 0.57833549 -0.00269184
H  -0.21321065 1.53580062 0.01182866
H  1.44086132 0.57693340 0.01214493
6
MD Step 59
C  -0.33042382 -0.57094808 -0.00150968
H  0.15381498 -1.54861950 0.01341128
H  -1.41403495 -0.65971186 0.01297838
C  0.33340630 0.57918778 -0.00235184
H  -0.21684199 1.53579866 0.00964750
H  1.44152259 0.57434825 0.00997689
6
MD Step 60
C  -0.33056397 -0.57146027 -0.00110916
H  0.15497719 -1.55063524 0.01117412
H  -1.41777385 -0.65916567 0.01074225
C  0.33402471 0.58004966 -0.00200717
H  -0.22011983 1.53551306 0.00743802
H  1.44167826 0.57193635 0.00777987
6
MD Step 61
C  -0.33071521 -0.57200473 -0.00070256
H  0.15621629 -1.55243470 0.00890179
H  -1.42141092 -0.65841083 0.00847150
C  0.33465100 0.58091838 -0.00165729
H  -0.22303051 1.53492631 0.00519636
H  1.44132616 0.56970386 0.00555033
6
MD Step 62
C  -0.33088002 -0.57258062 -0.00029158
H  0.15751531 -1.55398477 0.00660416
H  -1.42487413 -0.65744524 0.00617568
C  0.33527944 0.58178837 -0.00130381
H  -0.22555169 1.53404098 0.00293246
H  1.44048691 0.56766926 0.00329842
6
MD Step 63
C  -0.33105795 -0.57318405 0.00012477
H  0.15884316 -1.55527201 0.00427606
H  -1.42811171 -0.65628368 0.00384943
C  0.33590649 0.58265620 -0.00094591
H  -0.22768155 1.53285074 0.00064063
H  1.43917471 0.56583451 0.00101858
6
MD Step 64
C  -0.33125339 -0.57381567 0.00054211
H  0.16020055 -1.55625699 0.00194254
H  -1.43104710 -0.65491156 0.00151774
C  0.33652327 0.58351281 -0.00058763
H  -0.22939272 1.53138642 -0.00165387
H  1.43744318 0.56423066 -0.00126395
6
MD Step 65
C  -0.33146484 -0.57447029 0.00096163
H  0.16155800 -1.55693736 -0.00040300
H  -1.43364265 -0.65334792 -0.00082591
C  0.33712596 0.58435419 -0.00022784
H  -0.23069529 1.52965303 -0.00395840
H  1.43532183 0.56285540 -0.00355664
6
MD Step 66
C  -0.33169406 -0.57514583 0.00138077
H  0.16290948 -1.55729417 -0.00274573
H  -1.43584632 -0.65159132 -0.00316646
C  0.33770697 0.58517227 0.00013114
H  -0.23158270 1.52768354 -0.00625848
H  1.43286956 0.56172656 -0.00584525
6
MD Step 67
C  -0.33193855 -0.57583593 0.00180086
H  0.16422856 -1.55733628 -0.00509311
H  -1.43763653 -0.64966423 -0.00551114
C  0.33826236 0.58596249 0.00049064
H  -0.23207618 1.52549423 -0.00856268
H  1.43012943 0.56083796 -0.00813865
6
MD Step 68
C  -0.33220293 -0.57654132 0.00221547
H  0.16553560 -1.55703291 -0.00740840
H  -1.43895501 -0.64754519 -0.00782270
C  0.33878068 0.58671246 0.00084479
H  -0.23215683 1.52315193 -0.01083437
H  1.42719559 0.56022663 -0.01040076
6
MD Step 69
C  -0.33247966 -0.57725072 0.00263014
H  0.16678446 -1.55642775 -0.00972324
H  -1.43982132 -0.64528329 -0.01013245
C  0.33926207 0.58742127 0.00119900
H  -0.23187990 1.52065934 -0.01310705
H  1.42409738 0.55985912 -0.01266546
6
MD Step 70
C  -0.33276942 -0.57796107 0.00304158
H  0.16798227 -1.55551821 -0.01201873
H  -1.44021226 -0.64287707 -0.01242096
C  0.33969826 0.58807926 0.00155037
H  -0.23125361 1.51807512 -0.01536270
H  1.42091940 0.55975157 -0.01491540
6
MD Step 71
C  -0.33307173 -0.57866824 0.00344730
H  0.16913399 -1.55431112 -0.01428062
H  -1.44011776 -0.64033042 -0.01467338
C  0.34008200 0.58867745 0.00189678
H  -0.23029479 1.51545738 -0.01758816
H  1.41774398 0.55991411 -0.01713812
6
MD Step 72
C  -0.33338054 -0.57936279 0.00385003
H  0.17021680 -1.55284811 -0.01652469
H  -1.43956665 -0.63767826 -0.01690511
C  0.34041143 0.58921203 0.00224114
H  -0.22905409 1.51283713 -0.01980102
H  1.41462369 0.56032537 -0.01935171
6
MD Step 73
C  -0.33370155 -0.58004710 0.00424029
H  0.17128149 -1.55110335 -0.01869588
H  -1.43852445 -0.63488413 -0.01906022
C  0.34067319 0.58966725 0.00257455
H  -0.22751328 1.51031944 -0.02194690
H  1.41168201 0.56103410 -0.02150282
6
MD Step 74
C  -0.33403432 -0.58071774 0.00461445
H  0.17234731 -1.54908896 -0.02077286
H  -1.43699942 -0.63194606 -0.02111670
C  0.34086021 0.59003330 0.00289371
H  -0.22569031 1.50797652 -0.02400574
H  1.40900489 0.56205396 -0.02357218
6
MD Step 75
C  -0.33436801 -0.58136132 0.00497888
H  0.17337681 -1.54687975 -0.02279299
H  -1.43506762 -0.62892165 -0.02311193
C  0.34097602 0.59031074 0.00320516
H  -0.22366365 1.50582136 -0.02601701
H  1.40661329 0.56333857 -0.02559929
6
MD Step 76
C  -0.33469171 -0.58196472 0.00533969
H  0.17433562 -1.54455213 -0.02479256
H  -1.43281156 -0.62586740 -0.02508253
C  0.34102472 0.59050035 0.00351529
H  -0.22151114 1.50386700 -0.02801904
H  1.40452266 0.56484175 -0.02762213
6
MD Step 77
C  -0.33500660 -0.58252721 0.00569078
H  0.17526379 -1.54211125 -0.02673535
H  -1.43024704 -0.62276629 -0.02699177
C  0.34099905 0.59059120 0.00381823
H  -0.21923713 1.50219740 -0.02997656
H  1.40281411 0.56658938 -0.02960597
6
MD Step 78
C  -0.33530594 -0.58304063 0.00603370
H  0.17615703 -1.53960947 -0.02863077
H  -1.42744173 -0.61964702 -0.02884937
C  0.34090027 0.59058079 0.00411580
H  -0.21689069 1.50084695 -0.03190039
H  1.40151323 0.56856082 -0.03156116
6
MD Step 79
C  -0.33559042 -0.58350466 0.00636264
H  0.17705662 -1.53705501 -0.03044382
H  -1.42442372 -0.61649309 -0.03062001
C  0.34072312 0.59045992 0.00440216
H  -0.21447402 1.49988969 -0.03375624
H  1.40067974 0.57077931 -0.03345357
6
MD Step 80
C  -0.33585715 -0.58391596 0.00667520
H  0.17798423 -1.53447645 -0.03215975
H  -1.42124595 -0.61330793 -0.03228906
C  0.34046670 0.59022381 0.00467485
H  -0.21200666 1.49937285 -0.03553001
H  1.40034083 0.57324704 -0.03526869
6
MD Step 81
C  -0.33610041 -0.58426890 0.00697174
H  0.17894529 -1.53191839 -0.03378036
H  -1.41798169 -0.61011117 -0.03385906
C  0.34013392 0.58987157 0.00493417
H  -0.20952104 1.49931916 -0.03722396
H  1.40049409 0.57594880 -0.03700776
6
MD Step 82
C  -0.33630899 -0.58455291 0.00725796
H  0.17991232 -1.52945682 -0.03534017
H  -1.41473925 -0.60695476 -0.03536648
C  0.33973409 0.58940907 0.00518603
H  -0.20707800 1.49970968 -0.03887293
H  1.40109134 0.57883581 -0.03870335
6
MD Step 83
C  -0.33648037 -0.58476658 0.00753137
H  0.18090766 -1.52711467 -0.03682335
H  -1.41157641 -0.60383924 -0.03679615
C  0.33926892 0.58883491 0.00542749
H  -0.20468293 1.50056664 -0.04046054
H  1.40212328 0.58190895 -0.04033810
6
MD Step 84
C  -0.33660010 -0.58489705 0.00780112
H  0.18188003 -1.52498446 -0.03828655
H  -1.40862214 -0.60083723 -0.03820815
C  0.33875302 0.58816128 0.00566832
H  -0.20240890 1.50182952 -0.04204299
H  1.40349668 0.58509559 -0.04196448
6
MD Step 85
C  -0.33667521 -0.58495328 0.00805637
H  0.18290126 -1.52302949 -0.03966186
H  -1.40587620 -0.59789529 -0.03953378
C  0.33818069 0.58738066 0.00589625
H  -0.20019885 1.50355291 -0.04355062
H  1.40523445 0.58844712 -0.04351351
6
MD Step 86
C  -0.33670126 -0.58493311 0.00829773
H  0.18397016 -1.52128007 -0.04095248
H  -1.40340484 -0.59503066 -0.04077784
C  0.33755870 0.58649891 0.00611144
H  -0.19806199 1.50570986 -0.04498486
H  1.40727930 0.59194269 -0.04498493
6
MD Step 87
C  -0.33666758 -0.58482847 0.00853217
H  0.18504294 -1.51980229 -0.04220206
H  -1.40130837 -0.59230047 -0.04198752
C  0.33690110 0.58553003 0.00632126
H  -0.19604329 1.50822305 -0.04638740
H  1.40952619 0.59551986 -0.04641692
6
MD Step 88
C  -0.33657334 -0.58464124 0.00875814
H  0.18612673 -1.51860318 -0.04340084
H  -1.39962454 -0.58970743 -0.04315449
C  0.33621322 0.58448027 0.00652355
H  -0.19413005 1.51105995 -0.04774590
H  1.41191905 0.59916876 -0.04779590
6
MD Step 89
C  -0.33642577 -0.58438146 0.00896745
H  0.18726907 -1.51764098 -0.04449598
H  -1.39833770 -0.58721040 -0.04422507
C  0.33549338 0.58334977 0.00670831
H  -0.19226293 1.51422334 -0.04900458
H  1.41444196 0.60292172 -0.04906724
6
MD Step 90
C  -0.33622340 -0.58405049 0.00916080
H  0.18845780 -1.51692584 -0.04549177
H  -1.39747927 -0.58482490 -0.04520516
C  0.33474965 0.58214936 0.00687580
H  -0.19043679 1.51765178 -0.05016473
H  1.41701952 0.60675284 -0.05023096
6
MD Step 91
C  -0.33596882 -0.58365368 0.00933598
H  0.18969694 -1.51644385 -0.04637369
H  -1.39705087 -0.58254710 -0.04608075
C  0.33398702 0.58088764 0.00702287
H  -0.18862561 1.52129707 -0.05120869
H  1.41959467 0.61065411 -0.05126934
6
MD Step 92
C  -0.33566406 -0.58319575 0.00949214
H  0.19097924 -1.51618501 -0.04713613
H  -1.39705194 -0.58038160 -0.04684685
C  0.33321200 0.57957549 0.00714796
H  -0.18681090 1.52509794 -0.05212767
H  1.42210239 0.61460779 -0.05217337
6
MD Step 93
C  -0.33530987 -0.58267992 0.00963045
H  0.19228201 -1.51614792 -0.04778673
H  -1.39748409 -0.57834570 -0.04751212
C  0.33243324 0.57822660 0.00725200
H  -0.18498678 1.52897725 -0.05292608
H  1.42446684 0.61858220 -0.05294686
6
MD Step 94
C  -0.33490899 -0.58211120 0.00975102
H  0.19358698 -1.51632049 -0.04832679
H  -1.39833162 -0.57644982 -0.04807829
C  0.33165819 0.57685404 0.00733480
H  -0.18314125 1.53286322 -0.05360212
H  1.42662247 0.62255153 -0.05358791
6
MD Step 95
C  -0.33446900 -0.58149924 0.00985038
H  0.19489810 -1.51666295 -0.04873364
H  -1.39954465 -0.57468003 -0.04852150
C  0.33089006 0.57546712 0.00739181
H  -0.18123941 1.53670833 -0.05413056
H  1.42853266 0.62651357 -0.05407275
6
MD Step 96
C  -0.33399266 -0.58084858 0.00993012
H  0.19618458 -1.51716601 -0.04901839
H  -1.40109795 -0.57305532 -0.04885307
C  0.33013748 0.57408087 0.00742474
H  -0.17928129 1.54043327 -0.05451982
H  1.43013315 0.63043234 -0.05440972
6
MD Step 97
C  -0.33348360 -0.58016436 0.00999162
H  0.19741585 -1.51781675 -0.04919122
H  -1.40295733 -0.57159307 -0.04908300
C  0.32940857 0.57271003 0.00743523
H  -0.17726788 1.54396282 -0.05477772
H  1.43136758 0.63427299 -0.05460683
6
MD Step 98
C  -0.33294501 -0.57945101 0.01003718
H  0.19855461 -1.51860655 -0.04926878
H  -1.40508802 -0.57031619 -0.04922786
C  0.32871214 0.57137015 0.00742618
H  -0.17520882 1.54721982 -0.05491869
H  1.43218115 0.63799476 -0.05467855
6
MD Step 99
C  -0.33238521 -0.57871795 0.01006494
H  0.19959160 -1.51949730 -0.04923959
H  -1.40742164 -0.56921890 -0.04927443
C  0.32805182 0.57007163 0.00739540
H  -0.17308872 1.55016044 -0.05493008
H  1.43255554 0.64158555 -0.05461378
6
MD Step 100
C  -0.33181052 -0.57797230 0.01007522
H  0.20050359 -1.52046453 -0.04910685
H  -1.40990038 -0.56830896 -0.04922464
C  0.32743316 0.56882673 0.00734344
H  -0.17090948 1.55273271 -0.05481404
H  1.43246700 0.64501972 -0.05441568
6
MD Step 101
C  -0.33122469 -0.57721842 0.01007078
H  0.20125143 -1.52150040 -0.04889091
H  -1.41248092 -0.56760982 -0.04909827
C  0.32686400 0.56764975 0.00727415
H  -0.16869275 1.55487490 -0.05458977
H  1.43188432 0.64825585 -0.05410373
6
MD Step 102
C  -0.33063850 -0.57646761 0.01004827
H  0.20183896 -1.52255577 -0.04857012
H  -1.41507725 -0.56710259 -0.04887114
C  0.32634453 0.56654721 0.00718368
H  -0.16642214 1.55657450 -0.05423614
H  1.43082750 0.65129566 -0.05365903
6
MD Step 103
C  -0.33006108 -0.57572943 0.01000581
H  0.20226209 -1.52359212 -0.04813268
H  -1.41761377 -0.56677684 -0.04852933
C  0.32587589 0.56552626 0.00707005
H  -0.16409398 1.55781748 -0.05374208
H  1.42931652 0.65413279 -0.05307227
6
MD Step 104
C  -0.32950108 -0.57501281 0.00994180
H  0.20251682 -1.52457457 -0.04756890
H  -1.42001932 -0.56662309 -0.04806124
C  0.32545892 0.56459332 0.00693175
H  -0.16170971 1.55859618 -0.05309904
H  1.42737878 0.65676049 -0.05233656
6
MD Step 105
C  -0.32896766 -0.57432718 0.00985404
H  0.20260666 -1.52546533 -0.04686399
H  -1.42222155 -0.56662574 -0.04744999
C  0.32509288 0.56375281 0.00676634
H  -0.15926886 1.55891654 -0.05229408
H  1.42505583 0.65917897 -0.05144081
6
MD Step 106
C  -0.32846084 -0.57367251 0.00974810
H  0.20248446 -1.52628236 -0.04605743
H  -1.42420639 -0.56682080 -0.04673500
C  0.32478539 0.56301678 0.00658144
H  -0.15682639 1.55874019 -0.05136657
H  1.42234511 0.66133694 -0.05042428
6
MD Step 107
C  -0.32799012 -0.57305847 0.00962073
H  0.20216641 -1.52698613 -0.04512737
H  -1.42590481 -0.56718336 -0.04589244
C  0.32453308 0.56238594 0.00637344
H  -0.15438041 1.55809778 -0.05029746
H  1.41931297 0.66324580 -0.04926979
6
MD Step 108
C  -0.32756047 -0.57249003 0.00947231
H  0.20164749 -1.52756435 -0.04407666
H  -1.42727839 -0.56771129 -0.04492410
C  0.32433594 0.56186367 0.00614327
H  -0.15195551 1.55700471 -0.04909164
H  1.41600997 0.66489492 -0.04798327
6
MD Step 109
C  -0.32717514 -0.57197036 0.00930419
H  0.20091889 -1.52801498 -0.04291523
H  -1.42830261 -0.56840817 -0.04383928
C  0.32419441 0.56145310 0.00589321
H  -0.14958537 1.55547815 -0.04776097
H  1.41248750 0.66626897 -0.04657725
6
MD Step 110
C  -0.32684339 -0.57150882 0.00911184
H  0.20001578 -1.52829889 -0.04161164
H  -1.42891970 -0.56923637 -0.04260499
C  0.32410133 0.56114927 0.00561797
H  -0.14726576 1.55358415 -0.04627815
H  1.40884410 0.66739572 -0.04502605
6
MD Step 111
C  -0.32656079 -0.57110061 0.00890247
H  0.19889709 -1.52845966 -0.04021520
H  -1.42915923 -0.57023548 -0.04127106
C  0.32406241 0.56095895 0.00532696
H  -0.14507223 1.55131778 -0.04469299
H  1.40510522 0.66822569 -0.04337908
6
MD Step 112
C  -0.32633203 -0.57075034 0.00867439
H  0.19758501 -1.52848464 -0.03871424
H  -1.42899865 -0.57138491 -0.03982526
C  0.32407253 0.56087763 0.00501854
H  -0.14302272 1.54874132 -0.04299719
H  1.40136067 0.66877176 -0.04162876
6
MD Step 113
C  -0.32616257 -0.57046345 0.00842459
H  0.19611413 -1.52835544 -0.03708761
H  -1.42841414 -0.57265399 -0.03824586
C  0.32412449 0.56089801 0.00468932
H  -0.14112704 1.54593302 -0.04117363
H  1.39771280 0.66905837 -0.03975864
6
MD Step 114
C  -0.32604484 -0.57023193 0.00816130
H  0.19444690 -1.52813186 -0.03539046
H  -1.42746517 -0.57408517 -0.03658890
C  0.32422347 0.56102399 0.00434964
H  -0.13946930 1.54290240 -0.03927784
H  1.39419099 0.66903678 -0.03782350
6
MD Step 115
C  -0.32598192 -0.57005881 0.00788232
H  0.19261800 -1.52780775 -0.03360743
H  -1.42614955 -0.57565163 -0.03483902
C  0.32436251 0.56124687 0.00399714
H  -0.13806531 1.53973288 -0.03729801
H  1.39089376 0.66872978 -0.03581161
6
MD Step 116
C  -0.32597603 -0.56994626 0.00758557
H  0.19066387 -1.52738061 -0.03172397
H  -1.42447355 -0.57732659 -0.03298186
C  0.32453458 0.56155717 0.00362959
H  -0.13693097 1.53651070 -0.03522287
H  1.38791701 0.66816114 -0.03371151
6
MD Step 117
C  -0.32603114 -0.56989838 0.00726665
H  0.18863858 -1.52683565 -0.02970998
H  -1.42243599 -0.57906767 -0.03098761
C  0.32473002 0.56194210 0.00324193
H  -0.13606583 1.53333924 -0.03302623
H  1.38536738 0.66737142 -0.03149673
6
MD Step 118
C  -0.32613691 -0.56990469 0.00693384
H  0.18651538 -1.52624307 -0.02761938
H  -1.42012618 -0.58091377 -0.02891136
C  0.32495340 0.56240199 0.00284398
H  -0.13554880 1.53023976 -0.03076203
H  1.38326231 0.66631950 -0.02921994
6
MD Step 119
C  -0.32629088 -0.56996292 0.00658744
H  0.18432128 -1.52562323 -0.02545330
H  -1.41758815 -0.58285203 -0.02675504
C  0.32520067 0.56292818 0.00243612
H  -0.13540463 1.52728391 -0.02843332
H  1.38166249 0.66501746 -0.02688328
6
MD Step 120
C  -0.32648915 -0.57006953 0.00622853
H  0.18207966 -1.52500274 -0.02321773
H  -1.41487667 -0.58487410 -0.02452558
C  0.32546889 0.56351265 0.00201953
H  -0.13565915 1.52453534 -0.02604756
H  1.38061362 0.66347348 -0.02449316
6
MD Step 121
C  -0.32672327 -0.57021647 0.00586199
H  0.17979026 -1.52443342 -0.02094348
H  -1.41207593 -0.58699560 -0.02225482
C  0.32575971 0.56415141 0.00159967
H  -0.13635781 1.52202840 -0.02363574
H  1.38012529 0.66167205 -0.02207937
6
MD Step 122
C  -0.32699178 -0.57040303 0.00548566
H  0.17749836 -1.52392220 -0.01861565
H  -1.40922856 -0.58918732 -0.01992869
C  0.32606757 0.56483323 0.00117396
H  -0.13749621 1.51983578 -0.02118439
H  1.38023933 0.65964360 -0.01962753
6
MD Step 123
C  -0.32728773 -0.57062305 0.00510222
H  0.17521815 -1.52350641 -0.01625067
H  -1.40641070 -0.59145065 -0.01756457
C  0.32639265 0.56555240 0.00074523
H  -0.13909457 1.51799096 -0.01871002
H  1.38095293 0.65738813 -0.01715316
6
MD Step 124
C  -0.32760993 -0.57087644 0.00470856
H  0.17299975 -1.52318584 -0.01382817
H  -1.40366313 -0.59375081 -0.01514277
C  0.32672946 0.56629772 0.00030989
H  -0.14113037 1.51655402 -0.01619303
H  1.38228546 0.65494275 -0.01463597
6
MD Step 125
C  -0.32795306 -0.57115898 0.00430538
H  0.17086828 -1.52298265 -0.01135209
H  -1.40105069 -0.59607697 -0.01266790
C  0.32707714 0.56706271 -0.00013148
H  -0.14359777 1.51555001 -0.01363719
H  1.38421769 0.65232091 -0.01207914