6
MD Step 0
C  -0.33763715 -0.58748864 0.00000000
H  0.19552659 -1.51519357 0.00000000
H  -1.40763715 -0.58748864 0.00000000
C  0.33763715 0.58748865 0.00000000
H  -0.19552659 1.51519357 0.00000000
H  1.40763715 0.58748865 0.00000000
6
MD Step 1
C  -0.33800581 -0.58783560 -0.00039463
H  0.19788704 -1.51298789 0.00234890
H  -1.40541907 -0.58520937 0.00235391
C  0.33721686 0.58704687 -0.00039478
H  -0.19319276 1.51768900 0.00234940
H  1.41012588 0.58990673 0.00235441
6
MD Step 2
C  -0.33831790 -0.58808555 -0.00078889
H  0.20026852 -1.51109303 0.00469558
H  -1.40352330 -0.58308127 0.00470569
C  0.33674946 0.58651367 -0.00078916
H  -0.19087733 1.52044982 0.00469646
H  1.41282171 0.59245510 0.00470638
6
MD Step 3
C  -0.33856833 -0.58823608 -0.00118114
H  0.20266005 -1.50952904 0.00703019
H  -1.40200403 -0.58112102 0.00704571
C  0.33624164 0.58589468 -0.00118142
H  -0.18858268 1.52343609 0.00703098
H  1.41565159 0.59511414 0.00704542
6
MD Step 4
C  -0.33876046 -0.58829357 -0.00157743
H  0.20509316 -1.50826292 0.00938870
H  -1.40086007 -0.57929855 0.00941037
C  0.33569271 0.58518885 -0.00157747
H  -0.18626326 1.52664833 0.00938835
H  1.41858561 0.59790909 0.00940651
6
MD Step 5
C  -0.33888324 -0.58825030 -0.00196864
H  0.20750571 -1.50734529 0.01171653
H  -1.40017085 -0.57767342 0.01174570
C  0.33511737 0.58441121 -0.00196801
H  -0.18396231 1.52999169 0.01171323
H  1.42150166 0.60077367 0.01173377
6
MD Step 6
C  -0.33893408 -0.58810708 -0.00235307
H  0.20987681 -1.50677525 0.01400346
H  -1.39995931 -0.57625977 0.01404218
C  0.33452296 0.58357012 -0.00235115
H  -0.18167757 1.53341232 0.01399449
H  1.42432311 0.60368527 0.01401546
6
MD Step 7
C  -0.33891161 -0.58786597 -0.00272921
H  0.21218382 -1.50654404 0.01624031
H  -1.40023451 -0.57506959 0.01629138
C  0.33391653 0.58267437 -0.00272515
H  -0.17940507 1.53685514 0.01622192
H  1.42697724 0.60662175 0.01624072
6
MD Step 8
C  -0.33882560 -0.58754007 -0.00310560
H  0.21446145 -1.50657686 0.01847764
H  -1.40093260 -0.57405401 0.01854453
C  0.33329496 0.58172326 -0.00309828
H  -0.17708097 1.54032377 0.01844494
H  1.42945536 0.60962039 0.01845847
6
MD Step 9
C  -0.33866500 -0.58712150 -0.00346885
H  0.21661234 -1.50692388 0.02063581
H  -1.40210836 -0.57329323 0.02072287
C  0.33267683 0.58073835 -0.00345702
H  -0.17477183 1.54369113 0.02058290
H  1.43162306 0.61258779 0.02058725
6
MD Step 10
C  -0.33843983 -0.58662322 -0.00382560
H  0.21865663 -1.50751139 0.02275416
H  -1.40368498 -0.57274729 0.02286621
C  0.33206042 0.57972149 -0.00380776
H  -0.17242615 1.54695030 0.02267399
H  1.43347179 0.61554955 0.02266494
6
MD Step 11
C  -0.33815399 -0.58605178 -0.00417534
H  0.22057129 -1.50830432 0.02482968
H  -1.40561751 -0.57241734 0.02497194
C  0.33145081 0.57868179 -0.00414983
H  -0.17003597 1.55005385 0.02471419
H  1.43495754 0.61848886 0.02468711
6
MD Step 12
C  -0.33780753 -0.58540962 -0.00451277
H  0.22230475 -1.50929309 0.02683101
H  -1.40788026 -0.57233159 0.02700918
C  0.33085749 0.57763313 -0.00447787
H  -0.16762318 1.55292876 0.02667136
H  1.43601557 0.62136073 0.02662118
6
MD Step 13
C  -0.33741271 -0.58471110 -0.00484405
H  0.22387378 -1.51039812 0.02879499
H  -1.41037149 -0.57244896 0.02901442
C  0.33027810 0.57657791 -0.00479792
H  -0.16514363 1.55557377 0.02858139
H  1.43665762 0.62418857 0.02850323
6
MD Step 14
C  -0.33697475 -0.58396325 -0.00516760
H  0.22525008 -1.51158503 0.03071244
H  -1.41303015 -0.57277302 0.03097833
C  0.32971760 0.57552606 -0.00510837
H  -0.16260125 1.55794579 0.03043450
H  1.43685766 0.62695012 0.03032351
6
MD Step 15
C  -0.33649953 -0.58317357 -0.00548200
H  0.22640787 -1.51281841 0.03257534
H  -1.41579060 -0.57330499 0.03289253
C  0.32918037 0.57448704 -0.00540785
H  -0.16000122 1.56000758 0.03222227
H  1.43659920 0.62962468 0.03207367
6
MD Step 16
C  -0.33600462 -0.58236106 -0.00579732
H  0.22739093 -1.51399619 0.03444364
H  -1.41851783 -0.57397732 0.03481527
C  0.32865895 0.57345867 -0.00570625
H  -0.15728378 1.56179481 0.03400381
H  1.43594193 0.63225981 0.03381423
6
MD Step 17
C  -0.33548028 -0.58151712 -0.00609572
H  0.22808102 -1.51518269 0.03621250
H  -1.42124243 -0.57488536 0.03664259
C  0.32817315 0.57246585 -0.00598631
H  -0.15455564 1.56318414 0.03567494
H  1.43478905 0.63473908 0.03543980
6
MD Step 18
C  -0.33493836 -0.58065469 -0.00638117
H  0.22849089 -1.51631614 0.03790598
H  -1.42386763 -0.57599513 0.03839706
C  0.32772068 0.57151147 -0.00625205
H  -0.15179827 1.56418681 0.03725949
H  1.43318119 0.63707539 0.03697534
6
MD Step 19
C  -0.33438529 -0.57978110 -0.00665214
H  0.22860377 -1.51737021 0.03951564
H  -1.42633209 -0.57730387 0.04006923
C  0.32730417 0.57060320 -0.00650221
H  -0.14902826 1.56478803 0.03874935
H  1.43113532 0.63925009 0.03841333
6
MD Step 20
C  -0.33382619 -0.57890223 -0.00690589
H  0.22839902 -1.51832911 0.04102612
H  -1.42858578 -0.57881472 0.04164281
C  0.32692697 0.56974925 -0.00673441
H  -0.14627189 1.56497254 0.04012970
H  1.42866992 0.64123849 0.03973957
6
MD Step 21
C  -0.33326757 -0.57802526 -0.00714134
H  0.22786884 -1.51917152 0.04243171
H  -1.43057447 -0.58052035 0.04311084
C  0.32659026 0.56895546 -0.00694791
H  -0.14354870 1.56474130 0.04139551
H  1.42582139 0.64302653 0.04094991
6
MD Step 22
C  -0.33271269 -0.57715396 -0.00735435
H  0.22699117 -1.51989808 0.04370900
H  -1.43226784 -0.58243011 0.04444926
C  0.32629768 0.56822987 -0.00713917
H  -0.14089843 1.56408428 0.04252450
H  1.42261654 0.64458363 0.04202250
6
MD Step 23
C  -0.33217276 -0.57630005 -0.00754946
H  0.22579756 -1.52046389 0.04488510
H  -1.43359231 -0.58450262 0.04568281
C  0.32604389 0.56757127 -0.00731283
H  -0.13831343 1.56304827 0.04354441
H  1.41913998 0.64593065 0.04298721
6
MD Step 24
C  -0.33164673 -0.57546280 -0.00771899
H  0.22425225 -1.52089973 0.04591599
H  -1.43455305 -0.58676636 0.04676761
C  0.32583500 0.56698948 -0.00746209
H  -0.13585878 1.56161565 0.04441300
H  1.41541231 0.64701880 0.04380162
6
MD Step 25
C  -0.33114342 -0.57465135 -0.00786606
H  0.22238540 -1.52117886 0.04682052
H  -1.43510077 -0.58918703 0.04772052
C  0.32566610 0.56648296 -0.00759034
H  -0.13353957 1.55983744 0.04515026
H  1.41152282 0.64786315 0.04448765
6
MD Step 26
C  -0.33067071 -0.57387386 -0.00799351
H  0.22022851 -1.52128165 0.04761559
H  -1.43519691 -0.59173194 0.04855645
C  0.32553220 0.56604971 -0.00770063
H  -0.13136474 1.55776835 0.04577433
H  1.40756379 0.64847801 0.04506547
6
MD Step 27
C  -0.33023091 -0.57313281 -0.00809903
H  0.21778679 -1.52122323 0.04828841
H  -1.43484176 -0.59439765 0.04926198
C  0.32543297 0.56569183 -0.00779129
H  -0.12937406 1.55543854 0.04627422
H  1.40360138 0.64884925 0.04552489
6
MD Step 28
C  -0.32982895 -0.57243330 -0.00818385
H  0.21508863 -1.52100374 0.04884642
H  -1.43402495 -0.59716062 0.04984323
C  0.32536446 0.56540728 -0.00786388
H  -0.12758845 1.55290262 0.04665897
H  1.39972383 0.64898398 0.04587650
6
MD Step 29
C  -0.32946892 -0.57177959 -0.00824908
H  0.21216464 -1.52062904 0.04929641
H  -1.43274640 -0.59999810 0.05030577
C  0.32532266 0.56519346 -0.00791983
H  -0.12603018 1.55021801 0.04693698
H  1.39601891 0.64888965 0.04613016
6
MD Step 30
C  -0.32914919 -0.57117018 -0.00829070
H  0.20901852 -1.52013935 0.04961544
H  -1.43104522 -0.60291700 0.05062702
C  0.32530852 0.56505205 -0.00795587
H  -0.12475104 1.54741513 0.04708732
H  1.39254318 0.64854500 0.04626493
6
MD Step 31
C  -0.32886891 -0.57060439 -0.00830625
H  0.20566557 -1.51956998 0.04978981
H  -1.42896049 -0.60591533 0.05079364
C  0.32532150 0.56498264 -0.00797020
H  -0.12379324 1.54453528 0.04709819
H  1.38935925 0.64793895 0.04626906
6
MD Step 32
C  -0.32863702 -0.57009151 -0.00830449
H  0.20218635 -1.51889691 0.04986948
H  -1.42647679 -0.60892840 0.05085304
C  0.32535049 0.56497379 -0.00797100
H  -0.12313510 1.54168362 0.04702059
H  1.38658795 0.64712463 0.04619620
6
MD Step 33
C  -0.32845165 -0.56963000 -0.00828361
H  0.19860311 -1.51815973 0.04984401
H  -1.42364776 -0.61195197 0.05079525
C  0.32539487 0.56502375 -0.00795688
H  -0.12281298 1.53890427 0.04684566
H  1.38428229 0.64609562 0.04603731
6
MD Step 34
C  -0.32830488 -0.56921242 -0.00823622
H  0.19490793 -1.51743247 0.04967134
H  -1.42056688 -0.61501385 0.05058052
C  0.32545971 0.56513590 -0.00792142
H  -0.12289223 1.53620767 0.04653301
H  1.38245426 0.64481458 0.04575002
6
MD Step 35
C  -0.32819476 -0.56883749 -0.00816197
H  0.19113355 -1.51675127 0.04934944
H  -1.41729469 -0.61810269 0.05020759
C  0.32554382 0.56530680 -0.00786447
H  -0.12339554 1.53364095 0.04608169
H  1.38114536 0.64328473 0.04533278
6
MD Step 36
C  -0.32812369 -0.56850850 -0.00806588
H  0.18734303 -1.51612336 0.04890640
H  -1.41386762 -0.62117771 0.04970416
C  0.32564142 0.56552798 -0.00779056
H  -0.12431207 1.53127698 0.04552049
H  1.38041551 0.64154003 0.04481477
6
MD Step 37
C  -0.32809141 -0.56822628 -0.00795082
H  0.18358684 -1.51556889 0.04835776
H  -1.41033980 -0.62421130 0.04908615
C  0.32574946 0.56579320 -0.00770214
H  -0.12563908 1.52917033 0.04486548
H  1.38029883 0.63960251 0.04421170
6
MD Step 38
C  -0.32809012 -0.56798437 -0.00781220
H  0.17987332 -1.51514911 0.04767754
H  -1.40681106 -0.62721810 0.04833015
C  0.32587247 0.56610345 -0.00759513
H  -0.12741031 1.52732702 0.04409101
H  1.38077362 0.63745322 0.04349545
6
MD Step 39
C  -0.32812596 -0.56779050 -0.00766084
H  0.17629525 -1.51483801 0.04692555
H  -1.40329781 -0.63012766 0.04749499
C  0.32600119 0.56644567 -0.00747880
H  -0.12956853 1.52583115 0.04325700
H  1.38188992 0.63515964 0.04272678
6
MD Step 40
C  -0.32818488 -0.56763254 -0.00748651
H  0.17282623 -1.51472521 0.04604401
H  -1.39993577 -0.63298811 0.04652692
C  0.32614668 0.56682700 -0.00734391
H  -0.13216824 1.52464012 0.04230519
H  1.38356507 0.63267212 0.04184361
6
MD Step 41
C  -0.32826920 -0.56751487 -0.00729662
H  0.16953594 -1.51479840 0.04507359
H  -1.39676103 -0.63574955 0.04546695
C  0.32630400 0.56723848 -0.00719667
H  -0.13515949 1.52380110 0.04127594
H  1.38580202 0.63004033 0.04088598
6
MD Step 42
C  -0.32837506 -0.56743595 -0.00709224
H  0.16645579 -1.51507694 0.04401946
H  -1.39384291 -0.63839844 0.04432198
C  0.32647456 0.56767763 -0.00703764
H  -0.13852187 1.52331632 0.04017374
H  1.38855549 0.62727913 0.03985682
6
MD Step 43
C  -0.32849755 -0.56739335 -0.00687331
H  0.16360783 -1.51558168 0.04288068
H  -1.39125280 -0.64092806 0.04309297
C  0.32666114 0.56814354 -0.00686641
H  -0.14223518 1.52317254 0.03899670
H  1.39176281 0.62439800 0.03875254
6
MD Step 44
C  -0.32863364 -0.56738665 -0.00664173
H  0.16102117 -1.51631752 0.04166693
H  -1.38904534 -0.64332159 0.04179113
C  0.32686496 0.56863394 -0.00668422
H  -0.14626285 1.52335846 0.03775362
H  1.39536270 0.62141792 0.03758074
6
MD Step 45
C  -0.32877431 -0.56740951 -0.00639278
H  0.15868428 -1.51732041 0.04035144
H  -1.38730420 -0.64559966 0.04039198
C  0.32709341 0.56915323 -0.00648656
H  -0.15059999 1.52381781 0.03641612
H  1.39924963 0.61832404 0.03631109
6
MD Step 46
C  -0.32891931 -0.56746421 -0.00613058
H  0.15663083 -1.51857052 0.03895658
H  -1.38605347 -0.64773357 0.03891882
C  0.32734555 0.56969778 -0.00627673
H  -0.15518739 1.52453698 0.03500584
H  1.40336305 0.61515183 0.03496465
6
MD Step 47
C  -0.32906780 -0.56755230 -0.00585813
H  0.15488384 -1.52004805 0.03749850
H  -1.38531250 -0.64970126 0.03738867
C  0.32762132 0.57026527 -0.00605706
H  -0.15996820 1.52549013 0.03353825
H  1.40763316 0.61193138 0.03355636
6
MD Step 48
C  -0.32921570 -0.56767193 -0.00557443
H  0.15343982 -1.52174945 0.03597134
H  -1.38511113 -0.65150347 0.03579667
C  0.32792412 0.57085734 -0.00582643
H  -0.16490472 1.52662422 0.03200635
H  1.41196655 0.60867123 0.03207858
6
MD Step 49
C  -0.32936080 -0.56782279 -0.00527980
H  0.15229834 -1.52365788 0.03437665
H  -1.38545908 -0.65313374 0.03414491
C  0.32825574 0.57147446 -0.00558492
H  -0.16994941 1.52789022 0.03041094
H  1.41627815 0.60538800 0.03053177
6
MD Step 50
C  -0.32949682 -0.56800023 -0.00496955
H  0.15142708 -1.52577893 0.03268861
H  -1.38638090 -0.65461403 0.03240812
C  0.32862217 0.57212181 -0.00532831
H  -0.17508133 1.52920906 0.02872464
H  1.42045755 0.60207107 0.02888817
6
MD Step 51
C  -0.32963223 -0.56821359 -0.00465371
H  0.15087179 -1.52803058 0.03096275
H  -1.38780529 -0.65588353 0.03064127
C  0.32901521 0.57279044 -0.00506541
H  -0.18019593 1.53058375 0.02700415
H  1.42448182 0.59879243 0.02720511
6
MD Step 52
C  -0.32976181 -0.56845838 -0.00432738
H  0.15059122 -1.53041073 0.02917207
H  -1.38973297 -0.65696629 0.02881726
C  0.32944006 0.57348546 -0.00479185
H  -0.18527320 1.53193353 0.02522125
H  1.42824891 0.59554072 0.02545442
6
MD Step 53
C  -0.32988217 -0.56873140 -0.00398687
H  0.15054786 -1.53290686 0.02729667
H  -1.39214630 -0.65787979 0.02691575
C  0.32990022 0.57421046 -0.00450447
H  -0.19028707 1.53318633 0.02335506
H  1.43167045 0.59231166 0.02361550
6
MD Step 54
C  -0.33000253 -0.56904126 -0.00364109
H  0.15077162 -1.53543304 0.02538630
H  -1.39494643 -0.65857086 0.02498556
C  0.33038687 0.57495673 -0.00421128
H  -0.19514209 1.53434373 0.02145689
H  1.43473702 0.58917131 0.02174036
6
MD Step 55
C  -0.33011832 -0.56938265 -0.00328420
H  0.15120735 -1.53798511 0.02340900
H  -1.39810958 -0.65907085 0.02299400
C  0.33090446 0.57572922 -0.00390721
H  -0.19982888 1.53532735 0.01949366
H  1.43736353 0.58610260 0.01979641
6
MD Step 56
C  -0.33023069 -0.56975530 -0.00291589
H  0.15182908 -1.54052688 0.02136373
H  -1.40157381 -0.65938049 0.02093911
C  0.33145167 0.57652716 -0.00359217
H  -0.20430965 1.53609457 0.01746428
H  1.43950522 0.58311920 0.01778313
6
MD Step 57
C  -0.33034581 -0.57016347 -0.00254089
H  0.15263732 -1.54299413 0.01927719
H  -1.40524386 -0.65947309 0.01884664
C  0.33202199 0.57734447 -0.00327055
H  -0.20852180 1.53663600 0.01539649
H  1.44115503 0.58026220 0.01572888
6
MD Step 58
C  -0.33046063 -0.57060195 -0.00215420
H  0.15357715 -1.54537861 0.01712229
H  -1.40907637 -0.65937834 0.01668862
C  0.33261747 0.57818390 -0.00293806
H  -0.21246190 1.53689276 0.01326233
H  1.44226014 0.57751740 0.01360631
6
MD Step 59
C  -0.33057830 -0.57107122 -0.00175729
H  0.15462912 -1.54763752 0.01490768
H  -1.41299017 -0.65909061 0.01447289
C  0.33323367 0.57904149 -0.00259620
H  -0.21609444 1.53684828 0.01107077
H  1.44281406 0.57490581 0.01142492
6
MD Step 60
C  -0.33070533 -0.57157473 -0.00135515
H  0.15579370 -1.54971044 0.01266191
H  -1.41688421 -0.65858529 0.01222729
C  0.33386228 0.57990936 -0.00224967
H  -0.21936831 1.53651248 0.00885129
H  1.44284045 0.57246755 0.00921465
6
MD Step 61
C  -0.33084433 -0.57211185 -0.00094900
H  0.15705013 -1.55156193 0.01039220
H  -1.42068146 -0.65786106 0.00995848
C  0.33449822 0.58078280 -0.00189971
H  -0.22225912 1.53587982 0.00661132
H  1.44235065 0.57021992 0.00698331
6
MD Step 62
C  -0.33099234 -0.57267623 -0.00053456
H  0.15834732 -1.55319167 0.00807514
H  -1.42433981 -0.65694949 0.00764261
C  0.33514116 0.58166188 -0.00154257
H  -0.22477899 1.53491993 0.00432647
H  1.44133403 0.56814797 0.00470686
6
MD Step 63
C  -0.33116115 -0.57327580 -0.00012315
H  0.15972342 -1.55451478 0.00577467
H  -1.42773316 -0.65579435 0.00534342
C  0.33577572 0.58253119 -0.00118865
H  -0.22685603 1.53369794 0.00206237
H  1.43987844 0.56632368 0.00245103
6
MD Step 64
C  -0.33134298 -0.57389917 0.00029363
H  0.16110600 -1.55556389 0.00344384
H  -1.43085440 -0.65445421 0.00301377
C  0.33640491 0.58339395 -0.00083031
H  -0.22853680 1.53217247 -0.00022973
H  1.43796709 0.56470551 0.00016722
6
MD Step 65
C  -0.33154440 -0.57454890 0.00070900
H  0.16251057 -1.55628963 0.00112127
H  -1.43361628 -0.65290175 0.00069237
C  0.33701709 0.58423828 -0.00047381
H  -0.22978589 1.53039558 -0.00251067
H  1.43567887 0.56333688 -0.00210552
6
MD Step 66
C  -0.33176286 -0.57521856 0.00112504
H  0.16390385 -1.55669882 -0.00120470
H  -1.43599014 -0.65116224 -0.00163230
C  0.33760889 0.58506056 -0.00011715
H  -0.23062430 1.52837448 -0.00479307
H  1.43304915 0.56220897 -0.00437995
6
MD Step 67
C  -0.33199670 -0.57590252 0.00154246
H  0.16526249 -1.55679554 -0.00353789
H  -1.43794739 -0.64925423 -0.00396380
C  0.33817550 0.58585551 0.00024038
H  -0.23107019 1.52613030 -0.00708166
H  1.43012831 0.56131933 -0.00666108
6
MD Step 68
C  -0.33224646 -0.57659734 0.00195924
H  0.16658089 -1.55657341 -0.00586672
H  -1.43945198 -0.64718165 -0.00629016
C  0.33870946 0.58661493 0.00059705
H  -0.23113096 1.52370557 -0.00936556
H  1.42698877 0.56067960 -0.00893845
6
MD Step 69
C  -0.33251201 -0.57729898 0.00237359
H  0.16785449 -1.55603242 -0.00818093
H  -1.44047767 -0.64495075 -0.00860065
C  0.33920353 0.58733065 0.00095135
H  -0.23082002 1.52114683 -0.01163537
H  1.42370677 0.56029865 -0.01120319
6
MD Step 70
C  -0.33279163 -0.57800189 0.00278488
H  0.16907445 -1.55518434 -0.01047690
H  -1.44101370 -0.64257536 -0.01089113
C  0.33965175 0.58799548 0.00130290
H  -0.23016184 1.51849858 -0.01388863
H  1.42035562 0.56017723 -0.01345345
6
MD Step 71
C  -0.33308225 -0.57869934 0.00319341
H  0.17022903 -1.55405111 -0.01275640
H  -1.44106345 -0.64007550 -0.01316285
C  0.34004927 0.58860308 0.00165223
H  -0.22919027 1.51580401 -0.01612854
H  1.41700548 0.56030933 -0.01569303
6
MD Step 72
C  -0.33338637 -0.57939025 0.00359345
H  0.17134406 -1.55262388 -0.01498628
H  -1.44060374 -0.63743630 -0.01538197
C  0.34038571 0.58914119 0.00199412
H  -0.22790718 1.51314494 -0.01832286
H  1.41376262 0.56072282 -0.01789054
6
MD Step 73
C  -0.33370184 -0.58006920 0.00398354
H  0.17242293 -1.55092314 -0.01715816
H  -1.43964535 -0.63466853 -0.01753952
C  0.34065534 0.58960190 0.00232746
H  -0.22634226 1.51058039 -0.02046466
H  1.41070659 0.56141941 -0.02003979
6
MD Step 74
C  -0.33402686 -0.58073139 0.00436151
H  0.17347592 -1.54896878 -0.01925921
H  -1.43820339 -0.63177872 -0.01962208
C  0.34085232 0.58997677 0.00265038
H  -0.22452273 1.50817509 -0.02254254
H  1.40791784 0.56240418 -0.02213006
6
MD Step 75
C  -0.33435427 -0.58136703 0.00473013
H  0.17448618 -1.54681370 -0.02130584
H  -1.43633117 -0.62880323 -0.02164583
C  0.34097645 0.59026269 0.00296593
H  -0.22250657 1.50596422 -0.02457478
H  1.40544144 0.56365177 -0.02417998
6
MD Step 76
C  -0.33468291 -0.58197266 0.00508590
H  0.17547622 -1.54447621 -0.02327735
H  -1.43405252 -0.62574089 -0.02358955
C  0.34102212 0.59045070 0.00327087
H  -0.22031466 1.50401922 -0.02654194
H  1.40335268 0.56517328 -0.02617063
6
MD Step 77
C  -0.33500569 -0.58253937 0.00543091
H  0.17643721 -1.54201021 -0.02518607
H  -1.43143225 -0.62262382 -0.02546562
C  0.34099020 0.59053807 0.00356752
H  -0.21800068 1.50237558 -0.02845800
H  1.40168408 0.56694572 -0.02811591
6
MD Step 78
C  -0.33531728 -0.58306045 0.00576527
H  0.17737357 -1.53945938 -0.02703263
H  -1.42853012 -0.61947206 -0.02727480
C  0.34088056 0.59052079 0.00385621
H  -0.21560510 1.50107663 -0.03032490
H  1.40046936 0.56895716 -0.03001754
6
MD Step 79
C  -0.33561428 -0.58353163 0.00608700
H  0.17830352 -1.53685554 -0.02880511
H  -1.42539908 -0.61629258 -0.02900523
C  0.34069197 0.59039360 0.00413505
H  -0.21315340 1.50017306 -0.03213166
H  1.39974313 0.57120755 -0.03186427
6
MD Step 80
C  -0.33589413 -0.58394996 0.00639324
H  0.17925167 -1.53422505 -0.03048601
H  -1.42209148 -0.61308629 -0.03063952
C  0.34042327 0.59015128 0.00440111
H  -0.21066224 1.49971446 -0.03386140
H  1.39953279 0.57370177 -0.03363884
6
MD Step 81
C  -0.33615178 -0.58431061 0.00668350
H  0.18022886 -1.53160795 -0.03207196
H  -1.41867797 -0.60986781 -0.03217493
C  0.34007673 0.58979212 0.00465379
H  -0.20815861 1.49972816 -0.03551116
H  1.39983792 0.57642971 -0.03533735
6
MD Step 82
C  -0.33638084 -0.58460797 0.00695857
H  0.18123814 -1.52905084 -0.03356741
H  -1.41523984 -0.60665903 -0.03361695
C  0.33965691 0.58931698 0.00489376
H  -0.20567268 1.50022459 -0.03708543
H  1.40063673 0.57937266 -0.03696289
6
MD Step 83
C  -0.33657656 -0.58483856 0.00721786
H  0.18229078 -1.52658946 -0.03496809
H  -1.41185074 -0.60347239 -0.03496231
C  0.33916781 0.58872652 0.00512008
H  -0.20322086 1.50121309 -0.03857945
H  1.40190332 0.58251978 -0.03850937
6
MD Step 84
C  -0.33672541 -0.58499072 0.00746929
H  0.18334421 -1.52430980 -0.03632260
H  -1.40863681 -0.60037279 -0.03626265
C  0.33862313 0.58803173 0.00534102
H  -0.20086737 1.50263956 -0.04004127
H  1.40354676 0.58580627 -0.04002151
6
MD Step 85
C  -0.33682851 -0.58506772 0.00770727
H  0.18443842 -1.52220969 -0.03759566
H  -1.40563660 -0.59733989 -0.03748304
C  0.33802306 0.58723078 0.00555004
H  -0.19858693 1.50452392 -0.04143395
H  1.40555083 0.58925054 -0.04146185
6
MD Step 86
C  -0.33687678 -0.58506308 0.00793631
H  0.18554836 -1.52034608 -0.03881515
H  -1.40294736 -0.59441607 -0.03865425
C  0.33737898 0.58633389 0.00575170
H  -0.19641255 1.50681238 -0.04278372
H  1.40782732 0.59280669 -0.04285366
6
MD Step 87
C  -0.33687542 -0.58498478 0.00814812
H  0.18672754 -1.51868998 -0.03992825
H  -1.40057834 -0.59156185 -0.03972303
C  0.33668909 0.58533898 0.00593615
H  -0.19429160 1.50952246 -0.04403527
H  1.41036263 0.59650864 -0.04414213
6
MD Step 88
C  -0.33681718 -0.58482862 0.00834676
H  0.18794914 -1.51728556 -0.04096011
H  -1.39860917 -0.58881530 -0.04071733
C  0.33596503 0.58425842 0.00610738
H  -0.19224529 1.51258431 -0.04521125
H  1.41305956 0.60031112 -0.04534731
6
MD Step 89
C  -0.33670032 -0.58459595 0.00853190
H  0.18921131 -1.51614394 -0.04190831
H  -1.39708199 -0.58618618 -0.04163632
C  0.33521399 0.58310107 0.00626444
H  -0.19026368 1.51594770 -0.04630636
H  1.41584554 0.60419538 -0.04646263
6
MD Step 90
C  -0.33652719 -0.58429218 0.00870031
H  0.19052820 -1.51525191 -0.04275172
H  -1.39600905 -0.58366486 -0.04245943
C  0.33444013 0.58187374 0.00640298
H  -0.18831532 1.51957442 -0.04729636
H  1.41866559 0.60816047 -0.04746371
6
MD Step 91
C  -0.33630032 -0.58392285 0.00884950
H  0.19190676 -1.51459543 -0.04347375
H  -1.39539545 -0.58124571 -0.04317040
C  0.33364840 0.58058491 0.00651943
H  -0.18637130 1.52341625 -0.04816150
H  1.42146039 0.61219989 -0.04833092
6
MD Step 92
C  -0.33601346 -0.58348448 0.00898591
H  0.19329288 -1.51421395 -0.04411646
H  -1.39529285 -0.57898117 -0.04381447
C  0.33285353 0.57925363 0.00662094
H  -0.18445998 1.52736240 -0.04894052
H  1.42411381 0.61624769 -0.04910027
6
MD Step 93
C  -0.33567618 -0.58298924 0.00910252
H  0.19471805 -1.51405352 -0.04463365
H  -1.39565171 -0.57683503 -0.04434371
C  0.33205530 0.57788476 0.00669860
H  -0.18252147 1.53138808 -0.04958432
H  1.42660171 0.62032554 -0.04972482
6
MD Step 94
C  -0.33528565 -0.58243652 0.00920445
H  0.19613160 -1.51413588 -0.04505947
H  -1.39649058 -0.57485061 -0.04479425
C  0.33126675 0.57649701 0.00675820
H  -0.18057614 1.53538752 -0.05012384
H  1.42882447 0.62437440 -0.05023386
6
MD Step 95
C  -0.33484345 -0.58182983 0.00929369
H  0.19750135 -1.51445808 -0.04540773
H  -1.39779557 -0.57305028 -0.04518053
C  0.33049722 0.57510584 0.00680195
H  -0.17862510 1.53927621 -0.05057000
H  1.43070911 0.62835542 -0.05063788
6
MD Step 96
C  -0.33435555 -0.58117671 0.00936907
H  0.19881414 -1.51499282 -0.04567169
H  -1.39952081 -0.57143527 -0.04549513
C  0.32975224 0.57372332 0.00682836
H  -0.17665075 1.54299248 -0.05091368
H  1.43221060 0.63225034 -0.05092853
6
MD Step 97
C  -0.33383381 -0.58049034 0.00942491
H  0.20008623 -1.51567915 -0.04581391
H  -1.40158001 -0.56997574 -0.04569791
C  0.32903177 0.57235629 0.00683031
H  -0.17460735 1.54650874 -0.05111609
H  1.43332244 0.63607179 -0.05106971
6
MD Step 98
C  -0.33327799 -0.57977136 0.00946696
H  0.20125664 -1.51653060 -0.04587437
H  -1.40395603 -0.56871761 -0.04582973
C  0.32834829 0.57102407 0.00681505
H  -0.17252798 1.54972526 -0.05121483
H  1.43396982 0.63975592 -0.05109796
6
MD Step 99
C  -0.33269748 -0.57902985 0.00949283
H  0.20231872 -1.51750439 -0.04583822
H  -1.40657063 -0.56765168 -0.04587373
C  0.32770461 0.56973644 0.00677982
H  -0.17039440 1.55260243 -0.05119416
H  1.43414149 0.64329426 -0.05099927
6
MD Step 100
C  -0.33210231 -0.57827636 0.00949994
H  0.20326778 -1.51855516 -0.04568912
H  -1.40933953 -0.56676638 -0.04581131
C  0.32710271 0.56850230 0.00672163
H  -0.16818993 1.55510870 -0.05103744
H  1.43383714 0.64668085 -0.05075891
6
MD Step 101
C  -0.33150032 -0.57751900 0.00948790
H  0.20408531 -1.51965195 -0.04542561
H  -1.41219079 -0.56606377 -0.04563933
C  0.32654647 0.56733226 0.00664034
H  -0.16591560 1.55720497 -0.05074302
H  1.43305125 0.64989617 -0.05037655
6
MD Step 102
C  -0.33089824 -0.57676462 0.00945737
H  0.20474700 -1.52077126 -0.04505357
H  -1.41505903 -0.56555192 -0.04536219
C  0.32604040 0.56623724 0.00653719
H  -0.16358263 1.55885278 -0.05031675
H  1.43178083 0.65291497 -0.04985907
6
MD Step 103
C  -0.33030506 -0.57602230 0.00940700
H  0.20524420 -1.52187662 -0.04456481
H  -1.41786597 -0.56522404 -0.04496970
C  0.32558595 0.56522487 0.00641091
H  -0.16119166 1.56003572 -0.04975135
H  1.43004641 0.65572750 -0.04920085
6
MD Step 104
C  -0.32972704 -0.57529825 0.00933777
H  0.20555501 -1.52294838 -0.04396679
H  -1.42055130 -0.56508739 -0.04446784
C  0.32518653 0.56430422 0.00626314
H  -0.15876166 1.56073062 -0.04905504
H  1.42786289 0.65831044 -0.04841126
6
MD Step 105
C  -0.32916565 -0.57459369 0.00925471
H  0.20563230 -1.52399631 -0.04329506
H  -1.42308605 -0.56517528 -0.04389175
C  0.32484945 0.56348774 0.00610075
H  -0.15634179 1.56089571 -0.04826332
H  1.42522741 0.66061473 -0.04752595
6
MD Step 106
C  -0.32863031 -0.57391799 0.00915535
H  0.20548238 -1.52498170 -0.04253377
H  -1.42539494 -0.56546952 -0.04322356
C  0.32457268 0.56277820 0.00592123
H  -0.15393403 1.56054889 -0.04736259
H  1.42219739 0.66264439 -0.04653315
6
MD Step 107
C  -0.32813067 -0.57328071 0.00903673
H  0.20511859 -1.52586438 -0.04166288
H  -1.42740422 -0.56594661 -0.04244127
C  0.32435266 0.56217633 0.00572133
H  -0.15153913 1.55972127 -0.04633568
H  1.41884363 0.66440988 -0.04541757
6
MD Step 108
C  -0.32766992 -0.57268480 0.00890113
H  0.20452138 -1.52664297 -0.04069891
H  -1.42908284 -0.56661725 -0.04156070
C  0.32419119 0.56168743 0.00550452
H  -0.14919571 1.55841726 -0.04520062
H  1.41520982 0.66588794 -0.04419795
6
MD Step 109
C  -0.32725822 -0.57214038 0.00874407
H  0.20372095 -1.52727311 -0.03961117
H  -1.43036067 -0.56744514 -0.04054941
C  0.32408141 0.56130772 0.00526568
H  -0.14689900 1.55669627 -0.04393067
H  1.41139364 0.66710428 -0.04284935
6
MD Step 110
C  -0.32689518 -0.57164673 0.00856999
H  0.20269049 -1.52777399 -0.03843025
H  -1.43123596 -0.56845221 -0.03943789
C  0.32402604 0.56104197 0.00501085
H  -0.14470555 1.55456628 -0.04255766
H  1.40743971 0.66802657 -0.04140386
6
MD Step 111
C  -0.32658873 -0.57121174 0.00837511
H  0.20146194 -1.52811332 -0.03713050
H  -1.43166003 -0.56960476 -0.03819945
C  0.32401773 0.56088443 0.00473588
H  -0.14261914 1.55209837 -0.04105995
H  1.40345333 0.66868027 -0.03984104
6
MD Step 112
C  -0.32634125 -0.57083762 0.00816008
H  0.20004144 -1.52829162 -0.03571580
H  -1.43162218 -0.57089678 -0.03683771
C  0.32405352 0.56083282 0.00444193
H  -0.14067359 1.54934205 -0.03944428
H  1.39951501 0.66906392 -0.03816812
6
MD Step 113
C  -0.32614666 -0.57051790 0.00793262
H  0.19839135 -1.52835988 -0.03423787
H  -1.43116760 -0.57236758 -0.03540495
C  0.32413799 0.56089133 0.00413873
H  -0.13894977 1.54630684 -0.03776285
H  1.39566129 0.66913114 -0.03643691
6
MD Step 114
C  -0.32600857 -0.57025615 0.00769080
H  0.19654119 -1.52830887 -0.03268335
H  -1.43028602 -0.57399243 -0.03388770
C  0.32426446 0.56105239 0.00382433
H  -0.13746600 1.54307182 -0.03600578
H  1.39199366 0.66890177 -0.03463784
6
MD Step 115
C  -0.32593029 -0.57005570 0.00743232
H  0.19452629 -1.52812989 -0.03103599
H  -1.42897290 -0.57574299 -0.03226975
C  0.32442547 0.56130688 0.00349620
H  -0.13623772 1.53972360 -0.03416043
H  1.38861574 0.66840046 -0.03275833
6
MD Step 116
C  -0.32590707 -0.56991169 0.00716159
H  0.19234035 -1.52786164 -0.02932457
H  -1.42727664 -0.57763383 -0.03058056
C  0.32462102 0.56165208 0.00315980
H  -0.13532317 1.53630812 -0.03225693
H  1.38558407 0.66760911 -0.03082792
6
MD Step 117
C  -0.32593987 -0.56982524 0.00687703
H  0.19001893 -1.52750659 -0.02753794
H  -1.42521456 -0.57964014 -0.02880946
C  0.32484444 0.56207802 0.00281347
H  -0.13474034 1.53291226 -0.03028705
H  1.38298911 0.66655052 -0.02883790
6
MD Step 118
C  -0.32602891 -0.56979689 0.00657704
H  0.18760012 -1.52706954 -0.02566463
H  -1.42281166 -0.58173626 -0.02694563
C  0.32508919 0.56257413 0.00245541
H  -0.13450467 1.52962333 -0.02824198
H  1.38091405 0.66524907 -0.02677877
6
MD Step 119
C  -0.32616770 -0.56982041 0.00626567
H  0.18508706 -1.52659431 -0.02373050
H  -1.42013746 -0.58393245 -0.02501591
C  0.32535531 0.56313557 0.00209037
H  -0.13466467 1.52649028 -0.02614835
H  1.37939550 0.66369325 -0.02467607
6
MD Step 120
C  -0.32635985 -0.56990017 0.00593675
H  0.18255030 -1.52606093 -0.02169470
H  -1.41720256 -0.58617368 -0.02298020
C  0.32563214 0.56374647 0.00171129
H  -0.13519995 1.52362387 -0.02396831
H  1.37852360 0.66193831 -0.02249107
6
MD Step 121
C  -0.32659529 -0.57002674 0.00559652
H  0.17998225 -1.52552992 -0.01959654
H  -1.41410341 -0.58848310 -0.02087894
C  0.32592301 0.56440424 0.00132508
H  -0.13616347 1.52105022 -0.02174094
H  1.37829550 0.65996074 -0.02026163
6
MD Step 122
C  -0.32686441 -0.57019141 0.00525027
H  0.17738209 -1.52505645 -0.01746916
H  -1.41093549 -0.59087782 -0.01874631
C  0.32623084 0.56510553 0.00093752
H  -0.13759651 1.51879410 -0.01949908
H  1.37869947 0.65774366 -0.01801938
6
MD Step 123
C  -0.32716483 -0.57039304 0.00489596
H  0.17479568 -1.52464926 -0.01529871
H  -1.40775125 -0.59332886 -0.01656939
C  0.32655126 0.56583978 0.00054614
H  -0.13948814 1.51691769 -0.01722971
H  1.37975501 0.65531729 -0.01575036
6
MD Step 124
C  -0.32748930 -0.57062572 0.00453589
H  0.17224104 -1.52434382 -0.01309913
H  -1.40463283 -0.59583452 -0.01436300
C  0.32688513 0.56660158 0.00015325
H  -0.14184769 1.51544537 -0.01494647
H  1.38143877 0.65268479 -0.01346736
6
MD Step 125
C  -0.32783490 -0.57088811 0.00416798
H  0.16976283 -1.52414686 -0.01085672
H  -1.40163543 -0.59836600 -0.01211415
C  0.32722924 0.56738174 -0.00024361
H  -0.14464997 1.51441746 -0.01263580
H  1.38373963 0.64987733 -0.01115621