 Entering Gaussian System, Link 0=g16
 Initial command:
 /software/gaussian/g16-c01/avx2/g16/l1.exe "/gpfs/fs2/scratch/bweight/software/many_molecule_many_mode_NAMD/src/NAMD/TEST_NVT/TRAJ/traj-86/G16/GS_NEW/Gau-13749.inp" -scrdir="/gpfs/fs2/scratch/bweight/software/many_molecule_many_mode_NAMD/src/NAMD/TEST_NVT/TRAJ/traj-86/G16/GS_NEW/"
 Entering Link 1 = /software/gaussian/g16-c01/avx2/g16/l1.exe PID=     13750.
  
 Copyright (c) 1988-2019, Gaussian, Inc.  All Rights Reserved.
  
 This is part of the Gaussian(R) 16 program.  It is based on
 the Gaussian(R) 09 system (copyright 2009, Gaussian, Inc.),
 the Gaussian(R) 03 system (copyright 2003, Gaussian, Inc.),
 the Gaussian(R) 98 system (copyright 1998, Gaussian, Inc.),
 the Gaussian(R) 94 system (copyright 1995, Gaussian, Inc.),
 the Gaussian 92(TM) system (copyright 1992, Gaussian, Inc.),
 the Gaussian 90(TM) system (copyright 1990, Gaussian, Inc.),
 the Gaussian 88(TM) system (copyright 1988, Gaussian, Inc.),
 the Gaussian 86(TM) system (copyright 1986, Carnegie Mellon
 University), and the Gaussian 82(TM) system (copyright 1983,
 Carnegie Mellon University). Gaussian is a federally registered
 trademark of Gaussian, Inc.
  
 This software contains proprietary and confidential information,
 including trade secrets, belonging to Gaussian, Inc.
  
 This software is provided under written license and may be
 used, copied, transmitted, or stored only in accord with that
 written license.
  
 The following legend is applicable only to US Government
 contracts under FAR:
  
                    RESTRICTED RIGHTS LEGEND
  
 Use, reproduction and disclosure by the US Government is
 subject to restrictions as set forth in subparagraphs (a)
 and (c) of the Commercial Computer Software - Restricted
 Rights clause in FAR 52.227-19.
  
 Gaussian, Inc.
 340 Quinnipiac St., Bldg. 40, Wallingford CT 06492
  
  
 ---------------------------------------------------------------
 Warning -- This program may not be used in any manner that
 competes with the business of Gaussian, Inc. or will provide
 assistance to any competitor of Gaussian, Inc.  The licensee
 of this program is prohibited from giving any competitor of
 Gaussian, Inc. access to this program.  By using this program,
 the user acknowledges that Gaussian, Inc. is engaged in the
 business of creating and licensing software in the field of
 computational chemistry and represents and warrants to the
 licensee that it is not a competitor of Gaussian, Inc. and that
 it will not use this program in any manner prohibited above.
 ---------------------------------------------------------------
  

 Cite this work as:
 Gaussian 16, Revision C.01,
 M. J. Frisch, G. W. Trucks, H. B. Schlegel, G. E. Scuseria, 
 M. A. Robb, J. R. Cheeseman, G. Scalmani, V. Barone, 
 G. A. Petersson, H. Nakatsuji, X. Li, M. Caricato, A. V. Marenich, 
 J. Bloino, B. G. Janesko, R. Gomperts, B. Mennucci, H. P. Hratchian, 
 J. V. Ortiz, A. F. Izmaylov, J. L. Sonnenberg, D. Williams-Young, 
 F. Ding, F. Lipparini, F. Egidi, J. Goings, B. Peng, A. Petrone, 
 T. Henderson, D. Ranasinghe, V. G. Zakrzewski, J. Gao, N. Rega, 
 G. Zheng, W. Liang, M. Hada, M. Ehara, K. Toyota, R. Fukuda, 
 J. Hasegawa, M. Ishida, T. Nakajima, Y. Honda, O. Kitao, H. Nakai, 
 T. Vreven, K. Throssell, J. A. Montgomery, Jr., J. E. Peralta, 
 F. Ogliaro, M. J. Bearpark, J. J. Heyd, E. N. Brothers, K. N. Kudin, 
 V. N. Staroverov, T. A. Keith, R. Kobayashi, J. Normand, 
 K. Raghavachari, A. P. Rendell, J. C. Burant, S. S. Iyengar, 
 J. Tomasi, M. Cossi, J. M. Millam, M. Klene, C. Adamo, R. Cammi, 
 J. W. Ochterski, R. L. Martin, K. Morokuma, O. Farkas, 
 J. B. Foresman, and D. J. Fox, Gaussian, Inc., Wallingford CT, 2019.
 
 ******************************************
 Gaussian 16:  ES64L-G16RevC.01  3-Jul-2019
                11-Jan-2023 
 ******************************************
 %oldchk=../GS_OLD/geometry.chk
 %chk=geometry.chk
 %nprocshared=4
 Will use up to    4 processors via shared memory.
 %mem=5GB
 Copying data from "../GS_OLD/geometry.chk" to current chk file "geometry.chk"
 IOpt=  2 FromEx=T IUOpen= 4 IOptOp= 5 NList=   0 IFRang= 0 IUIn= 4 IUOut= 2.
 -------------------------------------------------------
 # WB97XD/6-311G SCF=XQC FORCE nosym pop=full guess=read
 -------------------------------------------------------
 1/10=7,30=1,38=1/1,3;
 2/12=2,15=1,17=6,18=5,40=1/2;
 3/5=4,6=6,11=2,25=1,30=1,71=1,74=-58,116=-2/1,2,3;
 4/5=1/1;
 5/5=2,8=3,13=1,38=6/2,8;
 6/7=3,28=1/1;
 7/29=1,30=1/1,2,3,16;
 1/10=7,30=1/3;
 99//99;
 -----------
 MD Step 999
 -----------
 Symbolic Z-matrix:
 Charge =  0 Multiplicity = 1
 C                    -0.33576  -0.57995   0.00554 
 H                     0.21758  -1.52576  -0.01687 
 H                    -1.42156  -0.60342  -0.01988 
 C                     0.33262   0.57777   0.00478 
 H                    -0.15761   1.56731  -0.02223 
 H                     1.44392   0.63276  -0.01905 
 

 GradGradGradGradGradGradGradGradGradGradGradGradGradGradGradGradGradGrad
 Berny optimization.
 Initialization pass.
 Trust Radius=3.00D-01 FncErr=1.00D-07 GrdErr=1.00D-07 EigMax=2.50D+02 EigMin=1.00D-04
 Number of steps in this run=      2 maximum allowed number of steps=      2.
 GradGradGradGradGradGradGradGradGradGradGradGradGradGradGradGradGradGrad

                          Input orientation:                          
 ---------------------------------------------------------------------
 Center     Atomic      Atomic             Coordinates (Angstroms)
 Number     Number       Type             X           Y           Z
 ---------------------------------------------------------------------
      1          6           0       -0.335760   -0.579955    0.005537
      2          1           0        0.217575   -1.525764   -0.016870
      3          1           0       -1.421561   -0.603415   -0.019881
      4          6           0        0.332620    0.577772    0.004778
      5          1           0       -0.157614    1.567312   -0.022233
      6          1           0        1.443916    0.632763   -0.019045
 ---------------------------------------------------------------------
                    Distance matrix (angstroms):
                    1          2          3          4          5
     1  C    0.000000
     2  H    1.096010   0.000000
     3  H    1.086352   1.880825   0.000000
     4  C    1.336811   2.106791   2.114938   0.000000
     5  H    2.154823   3.115753   2.511896   1.104648   0.000000
     6  H    2.153726   2.482570   3.120752   1.112911   1.854262
                    6
     6  H    0.000000
 Symmetry turned off by external request.
 Stoichiometry    C2H4
 Framework group  C1[X(C2H4)]
 Deg. of freedom    12
 Full point group                 C1      NOp   1
 Rotational constants (GHZ):         143.6806565          29.7070352          24.6222751
 Standard basis: 6-311G (5D, 7F)
    38 basis functions,    72 primitive gaussians,    38 cartesian basis functions
     8 alpha electrons        8 beta electrons
       nuclear repulsion energy        33.0834192367 Hartrees.
 NAtoms=    6 NActive=    6 NUniq=    6 SFac= 1.00D+00 NAtFMM=   60 NAOKFM=F Big=F
 Integral buffers will be    131072 words long.
 Raffenetti 2 integral format.
 Two-electron integral symmetry is turned off.
 Nuclear repulsion after empirical dispersion term =       33.0825796217 Hartrees.
 One-electron integrals computed using PRISM.
 NBasis=    38 RedAO= T EigKep=  6.40D-03  NBF=    38
 NBsUse=    38 1.00D-06 EigRej= -1.00D+00 NBFU=    38
 Initial guess from the checkpoint file:  "geometry.chk"
 B after Tr=    -0.000254   -0.000337   -0.000413
         Rot=    1.000000   -0.000002    0.000003    0.000005 Ang=  -0.00 deg.
 Keep R1 ints in memory in canonical form, NReq=4036876.
 Requested convergence on RMS density matrix=1.00D-08 within  32 cycles.
 Requested convergence on MAX density matrix=1.00D-06.
 Requested convergence on             energy=1.00D-06.
 No special actions if energy rises.
 SCF Done:  E(RwB97XD) =  -78.5560452893     A.U. after    8 cycles
            NFock=  8  Conv=0.44D-08     -V/T= 2.0051
 QCSCF skips out because SCF is already converged.

 **********************************************************************

            Population analysis using the SCF Density.

 **********************************************************************

 Alpha  occ. eigenvalues --  -10.29032 -10.28767  -0.86398  -0.67229  -0.55908
 Alpha  occ. eigenvalues --   -0.50996  -0.43631  -0.35708
 Alpha virt. eigenvalues --    0.08015   0.14107   0.16467   0.17013   0.24092
 Alpha virt. eigenvalues --    0.37599   0.39274   0.39791   0.46384   0.48823
 Alpha virt. eigenvalues --    0.49365   0.59119   0.66547   0.69108   0.77275
 Alpha virt. eigenvalues --    0.77607   0.84326   0.95323   2.23171   2.28948
 Alpha virt. eigenvalues --    2.33316   2.40738   2.67141   2.81789   2.87864
 Alpha virt. eigenvalues --    2.95153   3.14154   3.31924  23.35215  23.70698
     Molecular Orbital Coefficients:
                           1         2         3         4         5
                           O         O         O         O         O
     Eigenvalues --   -10.29032 -10.28767  -0.86398  -0.67229  -0.55908
   1 1   C  1S          0.09544   0.55525  -0.08844   0.06674   0.00001
   2        2S          0.07875   0.45696  -0.13977   0.10690   0.00003
   3        2PX         0.00016  -0.00001   0.02644   0.03688   0.13790
   4        2PY         0.00028  -0.00002   0.04614   0.06143  -0.07174
   5        2PZ         0.00000  -0.00000  -0.00097   0.00148   0.00037
   6        3S          0.00161   0.01455   0.37480  -0.29170  -0.00014
   7        3PX        -0.00061   0.00043   0.03490   0.05913   0.21576
   8        3PY        -0.00105   0.00075   0.06015   0.09941  -0.11329
   9        3PZ        -0.00001  -0.00002  -0.00161   0.00264   0.00057
  10        4S          0.00347  -0.01466   0.19148  -0.22673  -0.00161
  11        4PX         0.00153  -0.00157   0.00501   0.02427   0.11231
  12        4PY         0.00259  -0.00260   0.00841   0.04082  -0.05942
  13        4PZ         0.00000   0.00006  -0.00058   0.00133   0.00029
  14 2   H  1S         -0.00005  -0.00007   0.05279  -0.08802   0.10074
  15        2S         -0.00031   0.00012   0.05380  -0.10589   0.12757
  16        3S          0.00079   0.00171  -0.00159  -0.01542   0.04136
  17 3   H  1S         -0.00006  -0.00007   0.05331  -0.09158  -0.10506
  18        2S         -0.00030   0.00007   0.05421  -0.10910  -0.13195
  19        3S          0.00084   0.00170  -0.00175  -0.01606  -0.04260
  20 4   C  1S          0.55525  -0.09563  -0.08690  -0.06839   0.00012
  21        2S          0.45701  -0.07850  -0.13722  -0.10965   0.00023
  22        2PX        -0.00002  -0.00016  -0.02739   0.03694   0.11797
  23        2PY        -0.00003  -0.00028  -0.04711   0.06569  -0.07579
  24        2PZ        -0.00000   0.00000  -0.00085  -0.00160   0.00036
  25        3S          0.01410  -0.00333   0.36767   0.29957  -0.00077
  26        3PX        -0.00022   0.00072  -0.03427   0.06009   0.18503
  27        3PY        -0.00036   0.00126  -0.05931   0.10624  -0.11752
  28        3PZ        -0.00003  -0.00000  -0.00146  -0.00289   0.00056
  29        4S         -0.01239   0.00826   0.18888   0.23717  -0.00221
  30        4PX         0.00088  -0.00187  -0.00507   0.02565   0.10105
  31        4PY         0.00156  -0.00334  -0.00929   0.04525  -0.06416
  32        4PZ         0.00006  -0.00001  -0.00058  -0.00148   0.00030
  33 5   H  1S         -0.00006  -0.00004   0.04959   0.09335  -0.09134
  34        2S         -0.00003  -0.00031   0.05094   0.11140  -0.11518
  35        3S          0.00180   0.00019  -0.00121   0.01662  -0.03689
  36 6   H  1S         -0.00005  -0.00004   0.04905   0.09091   0.08600
  37        2S         -0.00001  -0.00033   0.05049   0.10939   0.10923
  38        3S          0.00177   0.00015  -0.00120   0.01621   0.03550
                           6         7         8         9        10
                           O         O         O         V         V
     Eigenvalues --    -0.50996  -0.43631  -0.35708   0.08015   0.14107
   1 1   C  1S         -0.00425   0.00030  -0.00072   0.00206  -0.03288
   2        2S         -0.00644   0.00053  -0.00117   0.00342  -0.05272
   3        2PX         0.09235  -0.11209  -0.00276   0.00132  -0.02967
   4        2PY         0.16884   0.06608  -0.00437   0.00172  -0.06495
   5        2PZ         0.00393  -0.00014   0.17942  -0.18901  -0.00173
   6        3S          0.02342  -0.00148   0.00342  -0.01037   0.11444
   7        3PX         0.13402  -0.17901  -0.00393   0.00199  -0.03444
   8        3PY         0.24688   0.10538  -0.00614   0.00260  -0.08050
   9        3PZ         0.00622  -0.00020   0.28851  -0.27805  -0.00277
  10        4S         -0.04951  -0.00328   0.00528  -0.01103   1.20859
  11        4PX         0.06747  -0.11097  -0.00318   0.01069  -0.18562
  12        4PY         0.12570   0.06718  -0.00491   0.01565  -0.39117
  13        4PZ         0.00352  -0.00008   0.26692  -0.69644  -0.01008
  14 2   H  1S         -0.08093  -0.11619   0.00015   0.00318  -0.01649
  15        2S         -0.11165  -0.17933   0.00157   0.00489  -0.04766
  16        3S         -0.04174  -0.08295   0.00096   0.01313  -0.83786
  17 3   H  1S         -0.07817   0.11321   0.00008   0.00319  -0.01179
  18        2S         -0.10716   0.17449   0.00148   0.00517  -0.03541
  19        3S         -0.03961   0.08091   0.00090   0.01336  -0.75439
  20 4   C  1S         -0.00780  -0.00055  -0.00067  -0.00208  -0.03660
  21        2S         -0.01217  -0.00093  -0.00109  -0.00345  -0.05879
  22        2PX        -0.09999   0.12364   0.00238   0.00111   0.04281
  23        2PY        -0.16172  -0.07330   0.00477   0.00253   0.06075
  24        2PZ         0.00411   0.00034   0.17927   0.18944  -0.00247
  25        3S          0.03971   0.00279   0.00323   0.01032   0.12984
  26        3PX        -0.14792   0.19796   0.00329   0.00171   0.05298
  27        3PY        -0.23731  -0.11721   0.00671   0.00385   0.07171
  28        3PZ         0.00650   0.00053   0.28700   0.27780  -0.00374
  29        4S         -0.03304   0.00308   0.00510   0.01248   1.25647
  30        4PX        -0.07709   0.12697   0.00253   0.00909   0.27271
  31        4PY        -0.12209  -0.07327   0.00538   0.01862   0.40629
  32        4PZ         0.00377   0.00031   0.26705   0.69746  -0.01463
  33 5   H  1S         -0.07468  -0.12367   0.00017  -0.00318  -0.01228
  34        2S         -0.10203  -0.19302   0.00168  -0.00544  -0.03700
  35        3S         -0.03791  -0.09085   0.00092  -0.01409  -0.81805
  36 6   H  1S         -0.08082   0.12408   0.00009  -0.00317  -0.01681
  37        2S         -0.11099   0.19420   0.00155  -0.00524  -0.04861
  38        3S         -0.04156   0.09113   0.00084  -0.01395  -0.90199
                          11        12        13        14        15
                           V         V         V         V         V
     Eigenvalues --     0.16467   0.17013   0.24092   0.37599   0.39274
   1 1   C  1S          0.00188  -0.04555  -0.00025   0.01117   0.00207
   2        2S          0.00303  -0.07422  -0.00039   0.01581   0.00370
   3        2PX         0.09822  -0.02041   0.10012  -0.03623  -0.02676
   4        2PY        -0.05161  -0.03795  -0.05754  -0.06813   0.00478
   5        2PZ         0.00030  -0.00509   0.00015  -0.00354  -0.00017
   6        3S         -0.00650   0.16742   0.00030   0.02886  -0.01297
   7        3PX         0.14049  -0.01165   0.10664  -0.04892  -0.11704
   8        3PY        -0.07541  -0.02553  -0.06190  -0.09609   0.02911
   9        3PZ         0.00043  -0.00703   0.00011  -0.00694  -0.00022
  10        4S         -0.07894   1.44332   0.02031  -2.80540  -0.28786
  11        4PX         0.58308  -0.12664   1.17565  -1.58934  -0.53135
  12        4PY        -0.29770  -0.21007  -0.65274  -2.80012   0.16387
  13        4PZ         0.00184  -0.03340   0.00218  -0.03350  -0.00221
  14 2   H  1S         -0.02912  -0.02544   0.01291  -0.05417   0.07724
  15        2S         -0.07910  -0.01651  -0.02343  -0.62369   0.80439
  16        3S         -1.00563  -1.00990  -1.56245  -0.35034  -0.34800
  17 3   H  1S          0.02959  -0.02445  -0.01494  -0.04629  -0.07547
  18        2S          0.08016  -0.02133   0.01895  -0.56896  -0.73694
  19        3S          1.10967  -1.01854   1.56336  -0.41791   0.25464
  20 4   C  1S          0.00138   0.04229   0.00018  -0.01992   0.00046
  21        2S          0.00220   0.06887   0.00025  -0.03250   0.00130
  22        2PX         0.10035  -0.02135  -0.10014  -0.04304  -0.02927
  23        2PY        -0.06271  -0.03782   0.05722  -0.07411   0.01588
  24        2PZ         0.00029   0.00505  -0.00017   0.00283   0.00032
  25        3S         -0.00429  -0.15345   0.00031   0.03806  -0.01619
  26        3PX         0.14455  -0.01605  -0.11287  -0.09500  -0.09950
  27        3PY        -0.08901  -0.02735   0.06375  -0.16655   0.07264
  28        3PZ         0.00042   0.00698  -0.00015   0.00384   0.00062
  29        4S         -0.06883  -1.32922  -0.02322   3.42000   0.17710
  30        4PX         0.53628  -0.10204  -1.11807  -1.27295  -0.60884
  31        4PY        -0.34161  -0.20410   0.66700  -2.20713  -0.00874
  32        4PZ         0.00168   0.03279  -0.00224   0.02738   0.00244
  33 5   H  1S          0.03137   0.02496   0.00702   0.01213  -0.07811
  34        2S          0.06973   0.02402  -0.03340   0.10068  -0.74197
  35        3S          1.08882   0.95187  -1.51053   0.46874   0.47001
  36 6   H  1S         -0.03134   0.02538  -0.00543   0.00971   0.08844
  37        2S         -0.06953   0.01847   0.03398   0.07200   0.91901
  38        3S         -0.99909   0.92214   1.51614   0.47353  -0.43940
                          16        17        18        19        20
                           V         V         V         V         V
     Eigenvalues --     0.39791   0.46384   0.48823   0.49365   0.59119
   1 1   C  1S         -0.01705   0.01210  -0.04685   0.00025  -0.00044
   2        2S         -0.03027   0.02832  -0.07851   0.00063  -0.00079
   3        2PX         0.02155  -0.05971   0.01158   0.00094   0.00170
   4        2PY         0.04442  -0.10729   0.01798   0.00107   0.00240
   5        2PZ        -0.00003  -0.00044   0.00222  -0.15175  -0.19263
   6        3S          0.07628  -0.33640   0.09806  -0.00809  -0.00020
   7        3PX         0.08801  -0.23532  -0.03167   0.00143   0.00585
   8        3PY         0.18615  -0.42093  -0.05849   0.00018   0.00805
   9        3PZ        -0.00356  -0.00354   0.01074  -0.62825  -0.68527
  10        4S          2.40811   0.10027   3.16157   0.03416   0.05285
  11        4PX         0.07575   0.23202   0.81946   0.01219   0.01338
  12        4PY         0.23822   0.40316   1.37305   0.02339   0.03028
  13        4PZ        -0.00178   0.00077  -0.05967   0.68669   1.24138
  14 2   H  1S         -0.02350  -0.03703  -0.07568  -0.00119  -0.00122
  15        2S         -0.51422  -0.35970  -0.92339  -0.00941  -0.00812
  16        3S          0.24521   0.07657   0.62558   0.01558   0.01757
  17 3   H  1S         -0.04094  -0.03598  -0.07531  -0.00114  -0.00128
  18        2S         -0.68173  -0.34058  -0.89006  -0.00895  -0.00927
  19        3S          0.29343   0.07118   0.61981   0.01542   0.01748
  20 4   C  1S         -0.00279  -0.00227   0.05088   0.00178   0.00051
  21        2S         -0.00810   0.00389   0.08839   0.00326   0.00095
  22        2PX         0.00460   0.05667   0.02833  -0.00006   0.00141
  23        2PY         0.01314   0.09414   0.04749  -0.00069   0.00300
  24        2PZ        -0.00276  -0.00129   0.00234  -0.15274   0.19231
  25        3S          0.08129  -0.28895  -0.22695  -0.01384  -0.00159
  26        3PX        -0.05586   0.24107   0.05557   0.00021   0.00482
  27        3PY        -0.07042   0.40660   0.08833  -0.00207   0.01050
  28        3PZ        -0.00813  -0.00533   0.00783  -0.63145   0.68255
  29        4S         -0.56170   0.78088  -3.09596  -0.05042  -0.04748
  30        4PX         1.10734  -0.34960   0.62618   0.00350   0.01968
  31        4PY         2.05856  -0.62074   1.09941   0.00794   0.02660
  32        4PZ        -0.02388  -0.01255   0.03561   0.69316  -1.23817
  33 5   H  1S         -0.05381  -0.06120   0.06566   0.00117   0.00127
  34        2S         -0.90017  -0.61457   0.80638   0.01874   0.00597
  35        3S         -0.11659   0.26426  -0.56916  -0.00150  -0.01764
  36 6   H  1S         -0.03679  -0.06330   0.06324   0.00110   0.00120
  37        2S         -0.70951  -0.64605   0.79517   0.01810   0.00442
  38        3S         -0.18591   0.28952  -0.56325  -0.00167  -0.01768
                          21        22        23        24        25
                           V         V         V         V         V
     Eigenvalues --     0.66547   0.69108   0.77275   0.77607   0.84326
   1 1   C  1S          0.00085  -0.00083   0.05473   0.07074   0.00110
   2        2S          0.00183  -0.00168   0.11558   0.15084   0.00271
   3        2PX        -0.12851   0.20057  -0.02113   0.11523  -0.00556
   4        2PY         0.07391  -0.12029  -0.03462   0.18717   0.01713
   5        2PZ        -0.00023   0.00029   0.00064   0.00369   0.00005
   6        3S         -0.01618   0.01518  -0.79344  -1.31290  -0.03729
   7        3PX        -0.60411   0.70512  -0.16017   0.45801  -0.21032
   8        3PY         0.34331  -0.42499  -0.26508   0.72769   0.17712
   9        3PZ        -0.00115   0.00102   0.00237   0.01296  -0.00027
  10        4S          0.02227  -0.00807   0.82838   2.44480   0.17585
  11        4PX         1.10672  -0.78001   0.18321  -0.82423   4.52433
  12        4PY        -0.62357   0.52523   0.13289  -0.98564  -2.47273
  13        4PZ         0.00183   0.00035   0.00557  -0.04239   0.00988
  14 2   H  1S          0.02207  -0.05957   0.01194   0.03200  -0.02561
  15        2S          0.10862  -0.64331   0.06528   0.10857  -1.54840
  16        3S         -1.02201   1.14441  -0.16260  -1.07724  -1.22658
  17 3   H  1S         -0.02089   0.05854   0.01248   0.03213   0.03088
  18        2S         -0.12320   0.65537   0.11753   0.03862   1.58856
  19        3S          1.01585  -1.07653  -0.12200  -1.26098   1.21048
  20 4   C  1S          0.00110   0.00023   0.08556   0.02663   0.00033
  21        2S          0.00231   0.00043   0.18207   0.05597   0.00042
  22        2PX        -0.15503  -0.18246  -0.09294   0.05592   0.01455
  23        2PY         0.08954   0.10084  -0.16924   0.10402   0.00455
  24        2PZ        -0.00030  -0.00028   0.00386  -0.00097  -0.00007
  25        3S         -0.01873  -0.00563  -1.51206  -0.29633   0.01069
  26        3PX        -0.69302  -0.61316  -0.33213   0.28756   0.25643
  27        3PY         0.40385   0.33515  -0.61637   0.53871  -0.08801
  28        3PZ        -0.00140  -0.00090   0.01362  -0.00364   0.00028
  29        4S          0.01439  -0.00929   2.68756  -0.02332  -0.18859
  30        4PX         1.26408   0.72836   0.45415  -0.19910  -4.16510
  31        4PY        -0.73749  -0.34618   1.00421  -0.74170   2.48600
  32        4PZ         0.00245  -0.00042  -0.03959   0.02161  -0.00944
  33 5   H  1S         -0.02661  -0.05430   0.03482   0.00137  -0.02492
  34        2S         -0.16773  -0.55941   0.06545   0.09380  -1.43340
  35        3S          1.13206   0.93268  -1.16683   0.36687  -1.10125
  36 6   H  1S          0.02764   0.05507   0.03432   0.00122   0.02273
  37        2S          0.15896   0.54545   0.08762   0.00027   1.41425
  38        3S         -1.13609  -0.98758  -1.05993   0.25406   1.12583
                          26        27        28        29        30
                           V         V         V         V         V
     Eigenvalues --     0.95323   2.23171   2.28948   2.33316   2.40738
   1 1   C  1S          0.09559  -0.01050  -0.01438   0.00031  -0.00043
   2        2S          0.19861   0.00086  -0.01470   0.00055  -0.00072
   3        2PX        -0.09202  -0.08293  -0.13032   0.33880  -0.41686
   4        2PY        -0.15891  -0.15927  -0.23177  -0.19014   0.22538
   5        2PZ         0.00004  -0.01021  -0.01365   0.00061  -0.00115
   6        3S         -1.53724  -0.18325  -0.03177   0.00118  -0.00339
   7        3PX        -0.23644   0.08258   0.20695  -0.40511   0.58256
   8        3PY        -0.40119   0.17074   0.37910   0.22945  -0.31311
   9        3PZ        -0.00212   0.01020   0.01709  -0.00061   0.00141
  10        4S          5.71658  -0.12373  -0.89229  -0.00468   0.02705
  11        4PX         1.22190   0.04561  -0.17427  -0.02748   0.98556
  12        4PY         1.97951   0.07022  -0.36010   0.00323  -0.51488
  13        4PZ        -0.01301   0.00250   0.00620  -0.00013   0.00268
  14 2   H  1S          0.01527  -0.72622  -0.77803  -0.69670   0.66304
  15        2S         -0.29637   1.03768   1.16460   1.06474  -1.47009
  16        3S         -0.10049  -0.30915  -0.46913  -0.46781   0.37919
  17 3   H  1S          0.01620  -0.70933  -0.77798   0.69325  -0.68286
  18        2S         -0.25913   1.01093   1.17739  -1.06026   1.51237
  19        3S         -0.06113  -0.28772  -0.44667   0.45968  -0.36693
  20 4   C  1S         -0.09416  -0.01018   0.01233   0.00051   0.00024
  21        2S         -0.19536   0.00058   0.01226   0.00054   0.00073
  22        2PX        -0.09253   0.13026  -0.13014   0.31060   0.40956
  23        2PY        -0.16027   0.22352  -0.21106  -0.18291  -0.24546
  24        2PZ         0.00016  -0.01137   0.01378   0.00091   0.00083
  25        3S          1.50969  -0.17089   0.02052   0.00246  -0.00133
  26        3PX        -0.22878  -0.16478   0.22119  -0.38819  -0.57210
  27        3PY        -0.40196  -0.27819   0.35514   0.22654   0.34728
  28        3PZ         0.00261   0.01219  -0.01752  -0.00104  -0.00114
  29        4S         -5.69601  -0.15685   0.88637   0.01795  -0.04069
  30        4PX         1.09201  -0.01820  -0.21524   0.08889  -0.85512
  31        4PY         2.00855  -0.03585  -0.31467  -0.04956   0.53171
  32        4PZ         0.01062   0.00347  -0.00522   0.00005  -0.00249
  33 5   H  1S         -0.01800  -0.77495   0.69019   0.71785   0.67385
  34        2S          0.28265   1.12231  -1.05649  -1.05121  -1.44766
  35        3S          0.04800  -0.34826   0.40448   0.51352   0.41248
  36 6   H  1S         -0.01774  -0.77511   0.71143  -0.69568  -0.67619
  37        2S          0.31477   1.12121  -1.07427   1.01696   1.44196
  38        3S          0.07718  -0.35102   0.44034  -0.50613  -0.42598
                          31        32        33        34        35
                           V         V         V         V         V
     Eigenvalues --     2.67141   2.81789   2.87864   2.95153   3.14154
   1 1   C  1S          0.00037   0.00193  -0.01326  -0.00018  -0.00939
   2        2S          0.00027   0.00567  -0.04460  -0.00079  -0.02890
   3        2PX         0.00501   0.05515  -0.45191  -0.73325   0.46500
   4        2PY         0.00552   0.09778  -0.84623   0.41978   0.79318
   5        2PZ        -0.92364  -0.93487  -0.10747  -0.00196   0.00562
   6        3S         -0.00099  -0.04741   0.39455   0.00915   0.24387
   7        3PX        -0.00392  -0.09642   0.81420   0.88558  -0.45883
   8        3PY        -0.00367  -0.16950   1.48414  -0.48901  -0.77472
   9        3PZ         0.93830   1.14307   0.13516   0.00250  -0.00715
  10        4S          0.00947   0.10889  -0.88108  -0.01907  -0.47381
  11        4PX        -0.00124   0.07760  -0.70646  -0.67129   0.24463
  12        4PY        -0.00257   0.13797  -1.27854   0.35280   0.39875
  13        4PZ        -0.33742  -0.61946  -0.08587  -0.00191   0.00449
  14 2   H  1S          0.00907  -0.01613   0.26667  -0.38080  -0.21424
  15        2S         -0.01034   0.01063  -0.22287   0.38995   0.16100
  16        3S         -0.00233   0.03229  -0.30544   0.27177   0.06048
  17 3   H  1S          0.00936  -0.01637   0.26106   0.37884  -0.22600
  18        2S         -0.01096   0.01028  -0.21487  -0.38522   0.17200
  19        3S         -0.00243   0.03098  -0.29405  -0.28729   0.08170
  20 4   C  1S          0.00041  -0.00192   0.01367   0.00043  -0.00746
  21        2S          0.00041  -0.00593   0.04789   0.00096  -0.02355
  22        2PX        -0.00461   0.05077  -0.42644  -0.80534  -0.48871
  23        2PY        -0.01095   0.09065  -0.73882   0.43195  -0.88489
  24        2PZ        -0.92594   0.93206   0.11020  -0.00068   0.00965
  25        3S         -0.00234   0.05085  -0.43077  -0.00648   0.20356
  26        3PX         0.00491  -0.09211   0.79347   0.95884   0.51534
  27        3PY         0.01137  -0.16276   1.37411  -0.50787   0.94613
  28        3PZ         0.94144  -1.14033  -0.13865   0.00080  -0.01223
  29        4S          0.01253  -0.11125   0.90890   0.02381  -0.38939
  30        4PX        -0.00024   0.07854  -0.72110  -0.69857  -0.30420
  31        4PY        -0.00191   0.13633  -1.24621   0.37162  -0.57141
  32        4PZ        -0.33908   0.61821   0.08844  -0.00063   0.00947
  33 5   H  1S          0.00901   0.02098  -0.29673   0.41042  -0.26464
  34        2S         -0.01108  -0.01677   0.27033  -0.42350   0.20842
  35        3S         -0.00109  -0.02916   0.28089  -0.24499   0.12464
  36 6   H  1S          0.00905   0.02025  -0.28606  -0.42927  -0.24085
  37        2S         -0.01138  -0.01651   0.26030   0.44042   0.18695
  38        3S         -0.00087  -0.02910   0.27584   0.24909   0.10556
                          36        37        38
                           V         V         V
     Eigenvalues --     3.31924  23.35215  23.70698
   1 1   C  1S          0.00005  -1.41546  -1.45086
   2        2S          0.00030   1.50955   1.56898
   3        2PX         0.78385  -0.00649   0.01224
   4        2PY        -0.42774  -0.01082   0.02106
   5        2PZ         0.00194  -0.00042  -0.00017
   6        3S         -0.00724  -0.29611  -0.39941
   7        3PX        -1.12371   0.02408  -0.05621
   8        3PY         0.60424   0.04050  -0.09683
   9        3PZ        -0.00288   0.00119   0.00050
  10        4S          0.04432   0.27321   0.77032
  11        4PX         1.98453  -0.02590   0.13611
  12        4PY        -1.04986  -0.04524   0.22806
  13        4PZ         0.00503  -0.00195  -0.00219
  14 2   H  1S          0.55510   0.01347   0.00745
  15        2S         -0.86421   0.00723  -0.01584
  16        3S         -0.45686  -0.08407  -0.04058
  17 3   H  1S         -0.56552   0.01487   0.00763
  18        2S          0.88039   0.00766  -0.01387
  19        3S          0.48994  -0.08619  -0.03827
  20 4   C  1S         -0.00025  -1.44605   1.42024
  21        2S         -0.00083   1.54228  -1.53598
  22        2PX        -0.71150   0.00596   0.01248
  23        2PY         0.41823   0.01065   0.02158
  24        2PZ        -0.00178  -0.00043   0.00012
  25        3S          0.01042  -0.30279   0.39138
  26        3PX         1.01013  -0.02213  -0.05637
  27        3PY        -0.60738  -0.03922  -0.09778
  28        3PZ         0.00264   0.00122  -0.00032
  29        4S         -0.06460   0.28058  -0.76202
  30        4PX        -1.77442   0.02334   0.12906
  31        4PY         1.09186   0.04184   0.22964
  32        4PZ        -0.00470  -0.00202   0.00184
  33 5   H  1S          0.49367   0.01310  -0.00443
  34        2S         -0.77214   0.00845   0.01276
  35        3S         -0.43690  -0.08344   0.03608
  36 6   H  1S         -0.48804   0.01192  -0.00401
  37        2S          0.76445   0.00880   0.01404
  38        3S          0.41677  -0.08121   0.03789
     Density Matrix:
                           1         2         3         4         5
   1 1   C  1S          0.65941
   2        2S          0.56153   0.49204
   3        2PX        -0.00058  -0.00078   0.08435
   4        2PY        -0.00132  -0.00183   0.00358   0.08789
   5        2PZ         0.00007   0.00011  -0.00007  -0.00022   0.06442
   6        3S         -0.08897  -0.15390   0.00290   0.00645  -0.00017
   7        3PX         0.00085   0.00129   0.13062   0.00116  -0.00004
   8        3PY         0.00123   0.00190   0.00128   0.13137  -0.00020
   9        3PZ         0.00014   0.00023  -0.00013  -0.00035   0.10359
  10        4S         -0.07933  -0.11423  -0.01548  -0.02715   0.00046
  11        4PX         0.00027   0.00162   0.07039  -0.00452  -0.00044
  12        4PY         0.00054   0.00287  -0.00475   0.06569  -0.00073
  13        4PZ        -0.00007  -0.00017  -0.00066  -0.00108   0.09581
  14 2   H  1S         -0.02055  -0.03272   0.03518  -0.06308  -0.00084
  15        2S         -0.02273  -0.03637   0.04979  -0.08777  -0.00059
  16        3S          0.00057  -0.00072   0.02107  -0.03304   0.00003
  17 3   H  1S         -0.02101  -0.03343  -0.07273  -0.00269  -0.00107
  18        2S         -0.02312  -0.03691  -0.10049  -0.00261  -0.00088
  19        3S          0.00060  -0.00067  -0.03848   0.00129  -0.00009
  20 4   C  1S          0.00610   0.00982  -0.01074  -0.01883  -0.00033
  21        2S          0.00980   0.01531  -0.01716  -0.03013  -0.00055
  22        2PX         0.01051   0.01682  -0.01239  -0.03236   0.00028
  23        2PY         0.01810   0.02894  -0.03201  -0.04974   0.00069
  24        2PZ        -0.00036  -0.00058  -0.00037  -0.00046   0.06436
  25        3S         -0.02639  -0.04007   0.04802   0.08460   0.00165
  26        3PX         0.01622   0.02517  -0.01807  -0.04615   0.00035
  27        3PY         0.02793   0.04330  -0.04531  -0.07124   0.00092
  28        3PZ        -0.00061  -0.00097  -0.00064  -0.00081   0.10303
  29        4S          0.00533   0.00392   0.02005   0.03608   0.00190
  30        4PX         0.00314   0.00646  -0.01322  -0.02109   0.00043
  31        4PY         0.00526   0.01094  -0.02100  -0.03705   0.00109
  32        4PZ        -0.00052  -0.00083  -0.00091  -0.00130   0.09585
  33 5   H  1S          0.00419   0.00687  -0.00176  -0.01241  -0.00038
  34        2S          0.00626   0.01040   0.00356  -0.02506  -0.00000
  35        3S          0.00325   0.00474   0.00435  -0.01759   0.00008
  36 6   H  1S          0.00417   0.00686  -0.00973  -0.00754  -0.00040
  37        2S          0.00636   0.01061  -0.02318  -0.00940  -0.00006
  38        3S          0.00328   0.00485  -0.01718  -0.00521   0.00003
                           6         7         8         9        10
   6        3S          0.45269
   7        3PX        -0.00161   0.20257
   8        3PY        -0.00165  -0.00443   0.19686
   9        3PZ        -0.00049  -0.00008  -0.00031   0.16657
  10        4S          0.27312  -0.02630  -0.04691   0.00061   0.18158
  11        4PX        -0.00701   0.10952  -0.01006  -0.00071  -0.01538
  12        4PY        -0.01190  -0.01055   0.09887  -0.00118  -0.02794
  13        4PZ         0.00078  -0.00088  -0.00142   0.15407   0.00164
  14 2   H  1S          0.08745   0.05665  -0.09842  -0.00140   0.06859
  15        2S          0.09739   0.08055  -0.13643  -0.00100   0.08045
  16        3S          0.00615   0.03441  -0.05073   0.00004   0.01090
  17 3   H  1S          0.08942  -0.11393  -0.00273  -0.00175   0.06928
  18        2S          0.09880  -0.15726  -0.00143  -0.00145   0.08013
  19        3S          0.00603  -0.05999   0.00373  -0.00013   0.01011
  20 4   C  1S         -0.02661  -0.01675  -0.02935  -0.00057   0.00516
  21        2S         -0.04028  -0.02600  -0.04563  -0.00092   0.00385
  22        2PX        -0.04716  -0.01772  -0.04602   0.00050  -0.01850
  23        2PY        -0.08095  -0.04537  -0.07080   0.00118  -0.03103
  24        2PZ         0.00172  -0.00052  -0.00061   0.10348   0.00188
  25        3S          0.10266   0.07036   0.12409   0.00275   0.00124
  26        3PX        -0.06827  -0.02598  -0.06545   0.00062  -0.02761
  27        3PY        -0.11709  -0.06398  -0.10134   0.00159  -0.04621
  28        3PZ         0.00286  -0.00090  -0.00108   0.16567   0.00313
  29        4S          0.00190   0.03030   0.05469   0.00317  -0.03223
  30        4PX        -0.02282  -0.01986  -0.02975   0.00072  -0.00701
  31        4PY        -0.03890  -0.02952  -0.05338   0.00181  -0.01114
  32        4PZ         0.00243  -0.00129  -0.00179   0.15413   0.00289
  33 5   H  1S         -0.02039  -0.00066  -0.01772  -0.00055  -0.01484
  34        2S         -0.03098   0.00877  -0.03671   0.00007  -0.01924
  35        3S         -0.01208   0.00832  -0.02636   0.00014  -0.00352
  36 6   H  1S         -0.02045  -0.01480  -0.00927  -0.00058  -0.01553
  37        2S         -0.03177  -0.03569  -0.01082  -0.00003  -0.02088
  38        3S         -0.01257  -0.02662  -0.00629   0.00006  -0.00439
                          11        12        13        14        15
  11        4PX         0.06022
  12        4PY        -0.00918   0.05124
  13        4PZ        -0.00108  -0.00168   0.14252
  14 2   H  1S          0.03375  -0.05423  -0.00071   0.08146
  15        2S          0.04878  -0.07508  -0.00019   0.10977   0.15002
  16        3S          0.02129  -0.02785   0.00022   0.03691   0.05272
  17 3   H  1S         -0.06319   0.00147  -0.00089  -0.01307  -0.02482
  18        2S         -0.08759   0.00418  -0.00042  -0.02486  -0.04338
  19        3S         -0.03368   0.00462   0.00012  -0.01833  -0.02782
  20 4   C  1S         -0.00309  -0.00571  -0.00050   0.00424   0.00674
  21        2S         -0.00643  -0.01168  -0.00081   0.00701   0.01126
  22        2PX        -0.01293  -0.02001   0.00075   0.00182  -0.00268
  23        2PY        -0.01989  -0.03697   0.00160   0.01141   0.02410
  24        2PZ        -0.00067  -0.00087   0.09572  -0.00042  -0.00014
  25        3S          0.02283   0.04115   0.00238  -0.02114  -0.03394
  26        3PX        -0.01978  -0.02829   0.00099   0.00102  -0.00716
  27        3PY        -0.02789  -0.05384   0.00221   0.01701   0.03618
  28        3PZ        -0.00110  -0.00144   0.15325  -0.00062  -0.00014
  29        4S          0.00768   0.01475   0.00290  -0.01762  -0.02417
  30        4PX        -0.01470  -0.01233   0.00092  -0.00172  -0.00851
  31        4PY        -0.01254  -0.02940   0.00212   0.01492   0.02660
  32        4PZ        -0.00127  -0.00180   0.14258  -0.00034   0.00021
  33 5   H  1S          0.00188  -0.01608  -0.00028   0.01123   0.02329
  34        2S          0.00911  -0.02796   0.00038   0.02393   0.04452
  35        3S          0.00755  -0.01602   0.00026   0.01676   0.02799
  36 6   H  1S         -0.01422  -0.00562  -0.00030  -0.00925  -0.01848
  37        2S         -0.02774  -0.00502   0.00031  -0.01908  -0.03473
  38        3S         -0.01708  -0.00112   0.00021  -0.01028  -0.01791
                          16        17        18        19        20
  16        3S          0.02116
  17 3   H  1S         -0.01829   0.08239
  18        2S         -0.02772   0.10975   0.14837
  19        3S         -0.01313   0.03622   0.05128   0.02039
  20 4   C  1S          0.00369   0.00428   0.00660   0.00362   0.65947
  21        2S          0.00546   0.00706   0.01099   0.00529   0.56156
  22        2PX        -0.00346   0.00915   0.02242   0.01679   0.00117
  23        2PY         0.01752   0.00756   0.00965   0.00547   0.00180
  24        2PZ         0.00003  -0.00041  -0.00007   0.00008   0.00006
  25        3S         -0.01423  -0.02109  -0.03284  -0.01352  -0.08920
  26        3PX        -0.00692   0.01441   0.03514   0.02618  -0.00051
  27        3PY         0.02646   0.00947   0.01138   0.00666  -0.00107
  28        3PZ         0.00006  -0.00059  -0.00003   0.00014   0.00013
  29        4S         -0.00583  -0.01698  -0.02251  -0.00496  -0.08010
  30        4PX        -0.00704   0.01433   0.02802   0.01724  -0.00021
  31        4PY         0.01567   0.00670   0.00666   0.00186  -0.00024
  32        4PZ         0.00022  -0.00033   0.00027   0.00026  -0.00005
  33 5   H  1S          0.01616  -0.00894  -0.01804  -0.00948  -0.02017
  34        2S          0.02742  -0.01852  -0.03388  -0.01709  -0.02229
  35        3S          0.01468  -0.01006  -0.01760  -0.00908   0.00057
  36 6   H  1S         -0.00968   0.01124   0.02341   0.01606  -0.01986
  37        2S         -0.01745   0.02372   0.04434   0.02722  -0.02214
  38        3S         -0.00920   0.01657   0.02767   0.01450   0.00049
                          21        22        23        24        25
  21        2S          0.49205
  22        2PX         0.00168   0.08265
  23        2PY         0.00256   0.00379   0.08766
  24        2PZ         0.00009   0.00013   0.00015   0.06431
  25        3S         -0.15417  -0.00543  -0.00839  -0.00010   0.45345
  26        3PX        -0.00078   0.12852   0.00193   0.00010  -0.00012
  27        3PY        -0.00162   0.00187   0.13136   0.00005   0.00075
  28        3PZ         0.00022   0.00020   0.00023   0.10296  -0.00043
  29        4S         -0.11569   0.01404   0.02398   0.00048   0.27801
  30        4PX        -0.00145   0.07284  -0.00513   0.00036   0.00612
  31        4PY        -0.00236  -0.00496   0.06683   0.00070   0.01038
  32        4PZ        -0.00014   0.00059   0.00110   0.09578   0.00071
  33 5   H  1S         -0.03212  -0.03302   0.06373  -0.00108   0.08591
  34        2S         -0.03560  -0.04906   0.08861  -0.00089   0.09521
  35        3S         -0.00063  -0.02229   0.03348  -0.00012   0.00567
  36 6   H  1S         -0.03167   0.07117   0.00224  -0.00086   0.08468
  37        2S         -0.03542   0.10131   0.00050  -0.00058   0.09478
  38        3S         -0.00077   0.04049  -0.00305  -0.00000   0.00604
                          26        27        28        29        30
  26        3PX         0.20020
  27        3PY        -0.00282   0.19743
  28        3PZ         0.00014   0.00007   0.16484
  29        4S          0.02578   0.04357   0.00058   0.18656
  30        4PX         0.11391  -0.01085   0.00056   0.01565   0.06594
  31        4PY        -0.01053   0.10098   0.00112   0.02582  -0.01029
  32        4PZ         0.00074   0.00141   0.15334   0.00155   0.00084
  33 5   H  1S         -0.05285   0.09986  -0.00179   0.06759  -0.03406
  34        2S         -0.07895   0.13840  -0.00149   0.07816  -0.05136
  35        3S         -0.03632   0.05165  -0.00020   0.00951  -0.02381
  36 6   H  1S          0.11243   0.00256  -0.00144   0.06738   0.06552
  37        2S          0.15984  -0.00125  -0.00101   0.07902   0.09361
  38        3S          0.06355  -0.00639  -0.00001   0.01035   0.03757
                          31        32        33        34        35
  31        4PY         0.05313
  32        4PZ         0.00175   0.14266
  33 5   H  1S          0.05561  -0.00094   0.08077
  34        2S          0.07714  -0.00045   0.10987   0.15189
  35        3S          0.02884   0.00008   0.03786   0.05489   0.02267
  36 6   H  1S         -0.00217  -0.00076  -0.01249  -0.02597  -0.01986
  37        2S         -0.00639  -0.00021  -0.02598  -0.04796  -0.03141
  38        3S         -0.00626   0.00017  -0.01991  -0.03138  -0.01548
                          36        37        38
  36 6   H  1S          0.07999
  37        2S          0.10976   0.15296
  38        3S          0.03827   0.05580   0.02312
    Full Mulliken population analysis:
                           1         2         3         4         5
   1 1   C  1S          0.65941
   2        2S          0.49327   0.49204
   3        2PX         0.00000   0.00000   0.08435
   4        2PY         0.00000   0.00000   0.00000   0.08789
   5        2PZ         0.00000   0.00000   0.00000   0.00000   0.06442
   6        3S         -0.02929  -0.06445   0.00000   0.00000   0.00000
   7        3PX         0.00000   0.00000   0.08217   0.00000   0.00000
   8        3PY         0.00000   0.00000   0.00000   0.08265   0.00000
   9        3PZ         0.00000   0.00000   0.00000   0.00000   0.06517
  10        4S         -0.01220  -0.02138   0.00000   0.00000   0.00000
  11        4PX         0.00000   0.00000   0.01550   0.00000   0.00000
  12        4PY         0.00000   0.00000   0.00000   0.01447   0.00000
  13        4PZ         0.00000   0.00000   0.00000   0.00000   0.02110
  14 2   H  1S         -0.00023  -0.00033   0.00184   0.00565   0.00000
  15        2S         -0.00166  -0.00318   0.00438   0.01321   0.00000
  16        3S          0.00005  -0.00007   0.00071   0.00190  -0.00000
  17 3   H  1S         -0.00025  -0.00036   0.00787   0.00001   0.00000
  18        2S         -0.00173  -0.00331   0.01771   0.00001   0.00000
  19        3S          0.00005  -0.00006   0.00256  -0.00000   0.00000
  20 4   C  1S          0.00000   0.00000  -0.00002  -0.00006   0.00000
  21        2S          0.00000  -0.00000  -0.00002  -0.00006   0.00000
  22        2PX        -0.00002  -0.00002   0.00011   0.00087   0.00000
  23        2PY        -0.00006  -0.00005   0.00086   0.00198   0.00000
  24        2PZ        -0.00000  -0.00000  -0.00000  -0.00000   0.00042
  25        3S         -0.00060  -0.00100   0.00251   0.00767  -0.00000
  26        3PX        -0.00055  -0.00101   0.00019   0.00559   0.00000
  27        3PY        -0.00164  -0.00301   0.00549   0.01071   0.00000
  28        3PZ        -0.00000  -0.00000  -0.00000  -0.00000   0.00614
  29        4S          0.00034   0.00030   0.00091   0.00284  -0.00000
  30        4PX        -0.00018  -0.00046  -0.00072   0.00146   0.00000
  31        4PY        -0.00053  -0.00135   0.00145   0.00095   0.00000
  32        4PZ        -0.00000  -0.00000  -0.00000  -0.00000   0.00903
  33 5   H  1S          0.00000   0.00000  -0.00000  -0.00000   0.00000
  34        2S          0.00001   0.00002   0.00000  -0.00031   0.00000
  35        3S          0.00008   0.00013   0.00001  -0.00070  -0.00000
  36 6   H  1S          0.00000   0.00000  -0.00000  -0.00000   0.00000
  37        2S          0.00001   0.00002  -0.00024  -0.00007   0.00000
  38        3S          0.00008   0.00013  -0.00057  -0.00012  -0.00000
                           6         7         8         9        10
   6        3S          0.45269
   7        3PX         0.00000   0.20257
   8        3PY         0.00000   0.00000   0.19686
   9        3PZ         0.00000   0.00000   0.00000   0.16657
  10        4S          0.21158   0.00000   0.00000   0.00000   0.18158
  11        4PX         0.00000   0.07157   0.00000   0.00000   0.00000
  12        4PY         0.00000   0.00000   0.06461   0.00000   0.00000
  13        4PZ         0.00000   0.00000   0.00000   0.10068   0.00000
  14 2   H  1S          0.01610   0.01092   0.03242   0.00001   0.01816
  15        2S          0.04105   0.01988   0.05754   0.00001   0.04641
  16        3S          0.00283   0.00404   0.01019  -0.00000   0.00823
  17 3   H  1S          0.01690   0.04423   0.00002   0.00002   0.01852
  18        2S          0.04226   0.07727   0.00002   0.00002   0.04658
  19        3S          0.00280   0.01392  -0.00002   0.00000   0.00766
  20 4   C  1S         -0.00060  -0.00057  -0.00173   0.00000   0.00033
  21        2S         -0.00101  -0.00105  -0.00318   0.00000   0.00029
  22        2PX         0.00247   0.00018   0.00558   0.00000   0.00084
  23        2PY         0.00734   0.00550   0.01065   0.00000   0.00244
  24        2PZ         0.00000  -0.00000  -0.00000   0.00617   0.00000
  25        3S          0.02195   0.01321   0.04036  -0.00000   0.00047
  26        3PX         0.01282  -0.00127   0.01870   0.00000   0.00426
  27        3PY         0.03808   0.01828   0.02847   0.00000   0.01234
  28        3PZ         0.00000  -0.00000  -0.00000   0.03542   0.00000
  29        4S          0.00072   0.00467   0.01461  -0.00000  -0.02025
  30        4PX         0.00641  -0.00409   0.00589   0.00000   0.00212
  31        4PY         0.01893   0.00584   0.00121   0.00000   0.00584
  32        4PZ         0.00000  -0.00000  -0.00000   0.04932   0.00000
  33 5   H  1S         -0.00005  -0.00000  -0.00019   0.00000  -0.00079
  34        2S         -0.00119   0.00006  -0.00321  -0.00000  -0.00322
  35        3S         -0.00197   0.00011  -0.00424  -0.00000  -0.00127
  36 6   H  1S         -0.00005  -0.00013  -0.00006   0.00000  -0.00083
  37        2S         -0.00123  -0.00260  -0.00054   0.00000  -0.00350
  38        3S         -0.00205  -0.00355  -0.00057  -0.00000  -0.00158
                          11        12        13        14        15
  11        4PX         0.06022
  12        4PY         0.00000   0.05124
  13        4PZ         0.00000   0.00000   0.14252
  14 2   H  1S          0.00638   0.01752   0.00001   0.08146
  15        2S          0.01552   0.04083   0.00000   0.07754   0.15002
  16        3S          0.00531   0.01187  -0.00000   0.01379   0.04160
  17 3   H  1S          0.02367  -0.00001   0.00001  -0.00001  -0.00067
  18        2S          0.05510  -0.00006   0.00001  -0.00068  -0.00554
  19        3S          0.01655  -0.00005  -0.00000  -0.00207  -0.00818
  20 4   C  1S         -0.00018  -0.00058   0.00000   0.00000   0.00002
  21        2S         -0.00046  -0.00144   0.00000   0.00000   0.00003
  22        2PX        -0.00070   0.00139   0.00000  -0.00000   0.00000
  23        2PY         0.00138   0.00095   0.00000  -0.00000  -0.00036
  24        2PZ        -0.00000  -0.00000   0.00902   0.00000   0.00000
  25        3S          0.00642   0.02003  -0.00000  -0.00007  -0.00151
  26        3PX        -0.00407   0.00560   0.00000  -0.00000   0.00004
  27        3PY         0.00552   0.00123   0.00000  -0.00023  -0.00358
  28        3PZ        -0.00000  -0.00000   0.04903   0.00000   0.00000
  29        4S          0.00232   0.00774  -0.00000  -0.00104  -0.00436
  30        4PX        -0.00709   0.00312   0.00000   0.00001   0.00018
  31        4PY         0.00317  -0.00560   0.00000  -0.00238  -0.01005
  32        4PZ        -0.00000  -0.00000   0.08960   0.00000  -0.00000
  33 5   H  1S          0.00002  -0.00238   0.00000   0.00000   0.00000
  34        2S          0.00027  -0.01002  -0.00000   0.00000   0.00016
  35        3S          0.00029  -0.00739  -0.00000   0.00023   0.00147
  36 6   H  1S         -0.00175  -0.00047   0.00000  -0.00000  -0.00005
  37        2S         -0.00825  -0.00102  -0.00000  -0.00005  -0.00096
  38        3S         -0.00654  -0.00029  -0.00000  -0.00048  -0.00253
                          16        17        18        19        20
  16        3S          0.02116
  17 3   H  1S         -0.00206   0.08239
  18        2S         -0.00815   0.07753   0.14837
  19        3S         -0.00686   0.01353   0.04046   0.02039
  20 4   C  1S          0.00009   0.00000   0.00002   0.00009   0.65947
  21        2S          0.00016   0.00000   0.00003   0.00015   0.49330
  22        2PX         0.00001  -0.00000  -0.00027  -0.00058   0.00000
  23        2PY        -0.00074  -0.00000  -0.00008  -0.00013   0.00000
  24        2PZ        -0.00000   0.00000   0.00000  -0.00000   0.00000
  25        3S         -0.00246  -0.00007  -0.00142  -0.00232  -0.02936
  26        3PX         0.00006  -0.00015  -0.00283  -0.00362   0.00000
  27        3PY        -0.00444  -0.00007  -0.00062  -0.00062   0.00000
  28        3PZ        -0.00000   0.00000   0.00000  -0.00000   0.00000
  29        4S         -0.00219  -0.00098  -0.00401  -0.00185  -0.01232
  30        4PX         0.00018  -0.00187  -0.00872  -0.00674   0.00000
  31        4PY        -0.00740  -0.00059  -0.00140  -0.00049   0.00000
  32        4PZ        -0.00000   0.00000  -0.00000  -0.00000   0.00000
  33 5   H  1S          0.00023  -0.00000  -0.00004  -0.00042  -0.00022
  34        2S          0.00144  -0.00004  -0.00086  -0.00232  -0.00160
  35        3S          0.00247  -0.00044  -0.00239  -0.00285   0.00004
  36 6   H  1S         -0.00045   0.00000   0.00000   0.00022  -0.00020
  37        2S         -0.00247   0.00000   0.00015   0.00142  -0.00156
  38        3S         -0.00297   0.00023   0.00144   0.00243   0.00004
                          21        22        23        24        25
  21        2S          0.49205
  22        2PX         0.00000   0.08265
  23        2PY         0.00000   0.00000   0.08766
  24        2PZ         0.00000   0.00000   0.00000   0.06431
  25        3S         -0.06457   0.00000   0.00000   0.00000   0.45345
  26        3PX         0.00000   0.08086   0.00000   0.00000   0.00000
  27        3PY         0.00000   0.00000   0.08264   0.00000   0.00000
  28        3PZ         0.00000   0.00000   0.00000   0.06478   0.00000
  29        4S         -0.02165   0.00000   0.00000   0.00000   0.21538
  30        4PX         0.00000   0.01604   0.00000   0.00000   0.00000
  31        4PY         0.00000   0.00000   0.01472   0.00000   0.00000
  32        4PZ         0.00000   0.00000   0.00000   0.02109   0.00000
  33 5   H  1S         -0.00031   0.00146   0.00570   0.00000   0.01545
  34        2S         -0.00305   0.00376   0.01370   0.00000   0.03960
  35        3S         -0.00006   0.00066   0.00200   0.00000   0.00260
  36 6   H  1S         -0.00028   0.00684   0.00001   0.00000   0.01488
  37        2S         -0.00298   0.01728   0.00000   0.00000   0.03892
  38        3S         -0.00007   0.00270  -0.00001   0.00000   0.00275
                          26        27        28        29        30
  26        3PX         0.20020
  27        3PY         0.00000   0.19743
  28        3PZ         0.00000   0.00000   0.16484
  29        4S          0.00000   0.00000   0.00000   0.18656
  30        4PX         0.07444   0.00000   0.00000   0.00000   0.06594
  31        4PY         0.00000   0.06599   0.00000   0.00000   0.00000
  32        4PZ         0.00000   0.00000   0.10020   0.00000   0.00000
  33 5   H  1S          0.00881   0.03361   0.00002   0.01774   0.00565
  34        2S          0.01703   0.06027   0.00002   0.04478   0.01438
  35        3S          0.00376   0.01079   0.00000   0.00715   0.00524
  36 6   H  1S          0.04153   0.00005   0.00001   0.01753   0.02444
  37        2S          0.07718  -0.00003   0.00001   0.04497   0.05901
  38        3S          0.01483  -0.00007   0.00000   0.00775   0.01866
                          31        32        33        34        35
  31        4PY         0.05313
  32        4PZ         0.00000   0.14266
  33 5   H  1S          0.01863   0.00001   0.08077
  34        2S          0.04359   0.00001   0.07761   0.15189
  35        3S          0.01280  -0.00000   0.01415   0.04331   0.02267
  36 6   H  1S         -0.00004   0.00001  -0.00001  -0.00077  -0.00232
  37        2S         -0.00020   0.00000  -0.00077  -0.00649  -0.00950
  38        3S         -0.00015  -0.00000  -0.00232  -0.00949  -0.00824
                          36        37        38
  36 6   H  1S          0.07999
  37        2S          0.07754   0.15296
  38        3S          0.01430   0.04403   0.02312
     Gross orbital populations:
                           1
   1 1   C  1S          1.10435
   2        2S          0.88586
   3        2PX         0.22708
   4        2PY         0.23653
   5        2PZ         0.16630
   6        3S          0.79305
   7        3PX         0.56118
   8        3PY         0.55603
   9        3PZ         0.42338
  10        4S          0.50263
  11        4PX         0.26017
  12        4PY         0.21128
  13        4PZ         0.41197
  14 2   H  1S          0.27451
  15        2S          0.46723
  16        3S          0.08605
  17 3   H  1S          0.27734
  18        2S          0.46487
  19        3S          0.08305
  20 4   C  1S          1.10441
  21        2S          0.88584
  22        2PX         0.22210
  23        2PY         0.23610
  24        2PZ         0.16580
  25        3S          0.79228
  26        3PX         0.55238
  27        3PY         0.55659
  28        3PZ         0.42048
  29        4S          0.50766
  30        4PX         0.27331
  31        4PY         0.21609
  32        4PZ         0.41193
  33 5   H  1S          0.27237
  34        2S          0.46932
  35        3S          0.08860
  36 6   H  1S          0.26995
  37        2S          0.47108
  38        3S          0.09087
          Condensed to atoms (all electrons):
               1          2          3          4          5          6
     1  C    5.033256   0.387472   0.387901   0.602853  -0.035931  -0.035769
     2  H    0.387472   0.518491  -0.034222  -0.040017   0.006009  -0.009950
     3  H    0.387901  -0.034222   0.514186  -0.039146  -0.009365   0.005901
     4  C    0.602853  -0.040017  -0.039146   5.053418   0.384031   0.383836
     5  H   -0.035931   0.006009  -0.009365   0.384031   0.525460  -0.039903
     6  H   -0.035769  -0.009950   0.005901   0.383836  -0.039903   0.527791
 Mulliken charges:
               1
     1  C   -0.339782
     2  H    0.172216
     3  H    0.174745
     4  C   -0.344975
     5  H    0.169701
     6  H    0.168095
 Sum of Mulliken charges =  -0.00000
 Mulliken charges with hydrogens summed into heavy atoms:
               1
     1  C    0.007180
     4  C   -0.007180
 Electronic spatial extent (au):  <R**2>=             83.6867
 Charge=             -0.0000 electrons
 Dipole moment (field-independent basis, Debye):
    X=              0.0027    Y=              0.0115    Z=             -0.0817  Tot=              0.0825
 Quadrupole moment (field-independent basis, Debye-Ang):
   XX=            -12.2045   YY=            -12.2110   ZZ=            -15.6659
   XY=              0.0245   XZ=              0.0024   YZ=             -0.0058
 Traceless Quadrupole moment (field-independent basis, Debye-Ang):
   XX=              1.1560   YY=              1.1495   ZZ=             -2.3054
   XY=              0.0245   XZ=              0.0024   YZ=             -0.0058
 Octapole moment (field-independent basis, Debye-Ang**2):
  XXX=             -0.3256  YYY=              0.0052  ZZZ=             -0.0672  XYY=              0.1156
  XXY=             -0.0874  XXZ=             -0.1140  XZZ=             -0.0917  YZZ=             -0.0787
  YYZ=             -0.1492  XYZ=             -0.0304
 Hexadecapole moment (field-independent basis, Debye-Ang**3):
 XXXX=            -34.2793 YYYY=            -55.1451 ZZZZ=            -17.7938 XXXY=             -7.2336
 XXXZ=              0.0080 YYYX=            -10.6903 YYYZ=              0.0053 ZZZX=              0.0070
 ZZZY=              0.0293 XXYY=            -16.1843 XXZZ=             -9.9246 YYZZ=            -13.6326
 XXYZ=              0.0087 YYXZ=              0.0006 ZZXY=             -3.2047
 N-N= 3.308257962166D+01 E-N=-2.478789076458D+02  KE= 7.815576335294D+01
 Orbital energies and kinetic energies (alpha):
                                 1                 2
   1         O               -10.290322         15.978513
   2         O               -10.287670         15.979689
   3         O                -0.863980          1.540152
   4         O                -0.672291          1.270999
   5         O                -0.559083          0.942223
   6         O                -0.509958          1.284033
   7         O                -0.436310          1.043367
   8         O                -0.357078          1.038905
   9         V                 0.080151          1.181566
  10         V                 0.141069          0.588618
  11         V                 0.164672          0.595519
  12         V                 0.170127          0.678909
  13         V                 0.240916          0.582927
  14         V                 0.375989          0.856107
  15         V                 0.392740          0.931495
  16         V                 0.397907          0.776577
  17         V                 0.463835          1.192065
  18         V                 0.488232          1.423427
  19         V                 0.493652          1.300818
  20         V                 0.591191          1.653337
  21         V                 0.665473          1.571527
  22         V                 0.691076          2.147400
  23         V                 0.772752          2.445250
  24         V                 0.776072          2.293441
  25         V                 0.843259          1.088515
  26         V                 0.953230          3.431674
  27         V                 2.231708          3.924280
  28         V                 2.289485          4.032630
  29         V                 2.333156          4.302247
  30         V                 2.407378          4.520371
  31         V                 2.671413          6.301443
  32         V                 2.817886          6.306549
  33         V                 2.878637          6.134911
  34         V                 2.951530          6.226579
  35         V                 3.141543          6.822165
  36         V                 3.319239          6.401132
  37         V                23.352146         60.074105
  38         V                23.706980         60.204641
 Total kinetic energy from orbitals= 7.815576335294D+01
 Calling FoFJK, ICntrl=      2127 FMM=F ISym2X=0 I1Cent= 0 IOpClX= 0 NMat=1 NMatS=1 NMatT=0.
 -------------------------------------------------------------------
 Center     Atomic                   Forces (Hartrees/Bohr)
 Number     Number              X              Y              Z
 -------------------------------------------------------------------
      1        6           0.011188143    0.006141601   -0.003173473
      2        1          -0.008187140    0.005288717    0.001618005
      3        1           0.002917237   -0.002807081    0.001517160
      4        6           0.009456376    0.009099534   -0.003722059
      5        1           0.002377334   -0.013540857    0.001859999
      6        1          -0.017751950   -0.004181914    0.001900369
 -------------------------------------------------------------------
 Cartesian Forces:  Max     0.017751950 RMS     0.007468639

 GradGradGradGradGradGradGradGradGradGradGradGradGradGradGradGradGradGrad
 Berny optimization.
 Search for a local minimum.
 Step number   1 out of a maximum of    2
 All quantities printed in internal units (Hartrees-Bohrs-Radians)
 Second derivative matrix not updated -- first step.
 The second derivative matrix:
                          X1        Y1        Z1        X2        Y2
           X1           0.76000
           Y1           0.10231   0.86195
           Z1           0.00524   0.00719   0.17296
           X2          -0.16467   0.09696   0.00160   0.14254
           Y2           0.10326  -0.28437  -0.00585  -0.11621   0.27314
           Z2           0.00257  -0.00738  -0.05499  -0.00231   0.00606
           X3          -0.35192  -0.00519  -0.00688  -0.00073  -0.00042
           Y3          -0.01168  -0.11037  -0.00166   0.03244   0.01895
           Z3          -0.00871  -0.00162  -0.05715   0.00119   0.00044
           X4          -0.26826  -0.17974  -0.00082   0.02286   0.01337
           Y4          -0.17949  -0.47552  -0.00121  -0.01320  -0.00772
           Z4           0.00090   0.00179  -0.09505  -0.00048  -0.00065
           X5           0.02355  -0.01359   0.00054  -0.00000   0.00000
           Y5           0.01165  -0.00673   0.00076   0.00000  -0.00000
           Z5          -0.00042   0.00025   0.01783   0.00020  -0.00011
           X6           0.00130  -0.00075   0.00031  -0.00000   0.00000
           Y6          -0.02605   0.01504   0.00077   0.00000  -0.00000
           Z6           0.00042  -0.00023   0.01640  -0.00019   0.00011
                          Z2        X3        Y3        Z3        X4
           Z2           0.02867
           X3          -0.00028   0.35207
           Y3           0.00133   0.00594   0.07600
           Z3           0.01057   0.00753   0.00116   0.02983
           X4           0.00045   0.00059  -0.02671  -0.00045   0.71284
           Y4          -0.00025  -0.00034   0.01542   0.00027   0.12013
           Z4           0.01560  -0.00038  -0.00082   0.01692  -0.00383
           X5          -0.00023  -0.00001   0.00000   0.00024  -0.14618
           Y5           0.00014   0.00000  -0.00000  -0.00014   0.09185
           Z5           0.00934   0.00023  -0.00014  -0.00958  -0.00278
           X6          -0.00020  -0.00000   0.00000   0.00021  -0.32184
           Y6           0.00011   0.00000  -0.00000  -0.00011  -0.01889
           Z6          -0.00919  -0.00022   0.00014   0.00942   0.00742
                          Y4        Z4        X5        Y5        Z5
           Y4           0.86192
           Z4          -0.00846   0.17611
           X5           0.08371  -0.00186   0.12428
           Y5          -0.29004   0.00656  -0.10271   0.28066
           Z5           0.00809  -0.05768   0.00250  -0.00700   0.02986
           X6          -0.01080   0.00565  -0.00164  -0.00080   0.00027
           Y6          -0.10406   0.00159   0.03259   0.01612  -0.00110
           Z6           0.00156  -0.05589  -0.00119  -0.00031   0.01023
                          X6        Y6        Z6
           X6           0.32219
           Y6           0.01235   0.07291
           Z6          -0.00624  -0.00126   0.02903
 ITU=  0
     Eigenvalues ---    0.03754   0.04386   0.09322   0.10019   0.13541
     Eigenvalues ---    0.17450   0.26588   0.28974   0.52988   0.70044
     Eigenvalues ---    0.97426   1.56972
 Angle between quadratic step and forces=  34.41 degrees.
 Linear search not attempted -- first point.
 B after Tr=     0.006712    0.005287   -0.008333
         Rot=    1.000000   -0.000005    0.000004   -0.000106 Ang=  -0.01 deg.
 Variable       Old X    -DE/DX   Delta X   Delta X   Delta X     New X
                                 (Linear)    (Quad)   (Total)
    X1       -0.63449   0.01119   0.00000   0.02026   0.02720  -0.60730
    Y1       -1.09596   0.00614   0.00000   0.01767   0.02282  -1.07313
    Z1        0.01046  -0.00317   0.00000  -0.01727  -0.02561  -0.01515
    X2        0.41116  -0.00819   0.00000  -0.03581  -0.02849   0.38267
    Y2       -2.88328   0.00529   0.00000   0.01359   0.01896  -2.86432
    Z2       -0.03188   0.00162   0.00000   0.02140   0.01304  -0.01884
    X3       -2.68636   0.00292   0.00000   0.02790   0.03486  -2.65150
    Y3       -1.14029  -0.00281   0.00000   0.00208   0.00680  -1.13349
    Z3       -0.03757   0.00152   0.00000   0.02096   0.01260  -0.02498
    X4        0.62856   0.00946   0.00000   0.00752   0.01399   0.64255
    Y4        1.09183   0.00910   0.00000   0.00424   0.00966   1.10149
    Z4        0.00903  -0.00372   0.00000  -0.01723  -0.02554  -0.01651
    X5       -0.29785   0.00238   0.00000  -0.01388  -0.00779  -0.30564
    Y5        2.96179  -0.01354   0.00000  -0.04983  -0.04461   2.91718
    Z5       -0.04202   0.00186   0.00000   0.02139   0.01308  -0.02893
    X6        2.72861  -0.01775   0.00000  -0.04623  -0.03977   2.68883
    Y6        1.19575  -0.00418   0.00000  -0.01949  -0.01363   1.18212
    Z6       -0.03599   0.00190   0.00000   0.02074   0.01244  -0.02355
         Item               Value     Threshold  Converged?
 Maximum Force            0.017752     0.000450     NO 
 RMS     Force            0.007469     0.000300     NO 
 Maximum Displacement     0.044613     0.001800     NO 
 RMS     Displacement     0.023290     0.001200     NO 
 Predicted change in Energy=-1.346967D-03
 GradGradGradGradGradGradGradGradGradGradGradGradGradGradGradGradGradGrad

 Unable to Open any file for archive entry.
 1\1\GINC-BHD0007\Force\RwB97XD\6-311G\C2H4\BWEIGHT\11-Jan-2023\0\\# WB
 97XD/6-311G SCF=XQC FORCE nosym pop=full guess=read\\MD Step 999\\0,1\
 C,-0.33576026,-0.57995476,0.00553714\H,0.217575,-1.52576422,-0.0168704
 1\H,-1.42156128,-0.60341526,-0.01988147\C,0.3326196,0.57777167,0.00477
 826\H,-0.15761397,1.56731163,-0.0222334\H,1.44391562,0.63276272,-0.019
 04547\\Version=ES64L-G16RevC.01\HF=-78.5560453\RMSD=4.400e-09\RMSF=7.4
 69e-03\Dipole=0.00105,0.0045292,-0.0321422\Quadrupole=0.8594249,0.8545
 959,-1.7140209,0.0182224,0.0017998,-0.0042919\PG=C01 [X(C2H4)]\\@
 The archive entry for this job was punched.


 "PERFECTION IS NOT AN ACCIDENT"
         --  EAGLE ELECTRIC MANUFACTURING CO.,INC. NY
 Job cpu time:       0 days  0 hours  0 minutes 11.7 seconds.
 Elapsed time:       0 days  0 hours  0 minutes  3.1 seconds.
 File lengths (MBytes):  RWF=    272 Int=      0 D2E=      0 Chk=     32 Scr=     32
 Normal termination of Gaussian 16 at Wed Jan 11 19:42:57 2023.
