 Entering Gaussian System, Link 0=g16
 Initial command:
 /software/gaussian/g16-c01/avx2/g16/l1.exe "/gpfs/fs2/scratch/bweight/software/many_molecule_many_mode_NAMD/src/NAMD/TEST_NVT/TRAJ/traj-38/G16/GS_NEW/Gau-29356.inp" -scrdir="/gpfs/fs2/scratch/bweight/software/many_molecule_many_mode_NAMD/src/NAMD/TEST_NVT/TRAJ/traj-38/G16/GS_NEW/"
 Entering Link 1 = /software/gaussian/g16-c01/avx2/g16/l1.exe PID=     29357.
  
 Copyright (c) 1988-2019, Gaussian, Inc.  All Rights Reserved.
  
 This is part of the Gaussian(R) 16 program.  It is based on
 the Gaussian(R) 09 system (copyright 2009, Gaussian, Inc.),
 the Gaussian(R) 03 system (copyright 2003, Gaussian, Inc.),
 the Gaussian(R) 98 system (copyright 1998, Gaussian, Inc.),
 the Gaussian(R) 94 system (copyright 1995, Gaussian, Inc.),
 the Gaussian 92(TM) system (copyright 1992, Gaussian, Inc.),
 the Gaussian 90(TM) system (copyright 1990, Gaussian, Inc.),
 the Gaussian 88(TM) system (copyright 1988, Gaussian, Inc.),
 the Gaussian 86(TM) system (copyright 1986, Carnegie Mellon
 University), and the Gaussian 82(TM) system (copyright 1983,
 Carnegie Mellon University). Gaussian is a federally registered
 trademark of Gaussian, Inc.
  
 This software contains proprietary and confidential information,
 including trade secrets, belonging to Gaussian, Inc.
  
 This software is provided under written license and may be
 used, copied, transmitted, or stored only in accord with that
 written license.
  
 The following legend is applicable only to US Government
 contracts under FAR:
  
                    RESTRICTED RIGHTS LEGEND
  
 Use, reproduction and disclosure by the US Government is
 subject to restrictions as set forth in subparagraphs (a)
 and (c) of the Commercial Computer Software - Restricted
 Rights clause in FAR 52.227-19.
  
 Gaussian, Inc.
 340 Quinnipiac St., Bldg. 40, Wallingford CT 06492
  
  
 ---------------------------------------------------------------
 Warning -- This program may not be used in any manner that
 competes with the business of Gaussian, Inc. or will provide
 assistance to any competitor of Gaussian, Inc.  The licensee
 of this program is prohibited from giving any competitor of
 Gaussian, Inc. access to this program.  By using this program,
 the user acknowledges that Gaussian, Inc. is engaged in the
 business of creating and licensing software in the field of
 computational chemistry and represents and warrants to the
 licensee that it is not a competitor of Gaussian, Inc. and that
 it will not use this program in any manner prohibited above.
 ---------------------------------------------------------------
  

 Cite this work as:
 Gaussian 16, Revision C.01,
 M. J. Frisch, G. W. Trucks, H. B. Schlegel, G. E. Scuseria, 
 M. A. Robb, J. R. Cheeseman, G. Scalmani, V. Barone, 
 G. A. Petersson, H. Nakatsuji, X. Li, M. Caricato, A. V. Marenich, 
 J. Bloino, B. G. Janesko, R. Gomperts, B. Mennucci, H. P. Hratchian, 
 J. V. Ortiz, A. F. Izmaylov, J. L. Sonnenberg, D. Williams-Young, 
 F. Ding, F. Lipparini, F. Egidi, J. Goings, B. Peng, A. Petrone, 
 T. Henderson, D. Ranasinghe, V. G. Zakrzewski, J. Gao, N. Rega, 
 G. Zheng, W. Liang, M. Hada, M. Ehara, K. Toyota, R. Fukuda, 
 J. Hasegawa, M. Ishida, T. Nakajima, Y. Honda, O. Kitao, H. Nakai, 
 T. Vreven, K. Throssell, J. A. Montgomery, Jr., J. E. Peralta, 
 F. Ogliaro, M. J. Bearpark, J. J. Heyd, E. N. Brothers, K. N. Kudin, 
 V. N. Staroverov, T. A. Keith, R. Kobayashi, J. Normand, 
 K. Raghavachari, A. P. Rendell, J. C. Burant, S. S. Iyengar, 
 J. Tomasi, M. Cossi, J. M. Millam, M. Klene, C. Adamo, R. Cammi, 
 J. W. Ochterski, R. L. Martin, K. Morokuma, O. Farkas, 
 J. B. Foresman, and D. J. Fox, Gaussian, Inc., Wallingford CT, 2019.
 
 ******************************************
 Gaussian 16:  ES64L-G16RevC.01  3-Jul-2019
                11-Jan-2023 
 ******************************************
 %oldchk=../GS_OLD/geometry.chk
 %chk=geometry.chk
 %nprocshared=4
 Will use up to    4 processors via shared memory.
 %mem=5GB
 Copying data from "../GS_OLD/geometry.chk" to current chk file "geometry.chk"
 IOpt=  2 FromEx=T IUOpen= 4 IOptOp= 5 NList=   0 IFRang= 0 IUIn= 4 IUOut= 2.
 -------------------------------------------------------
 # WB97XD/6-311G SCF=XQC FORCE nosym pop=full guess=read
 -------------------------------------------------------
 1/10=7,30=1,38=1/1,3;
 2/12=2,15=1,17=6,18=5,40=1/2;
 3/5=4,6=6,11=2,25=1,30=1,71=1,74=-58,116=-2/1,2,3;
 4/5=1/1;
 5/5=2,8=3,13=1,38=6/2,8;
 6/7=3,28=1/1;
 7/29=1,30=1/1,2,3,16;
 1/10=7,30=1/3;
 99//99;
 ------------
 MD Step 1000
 ------------
 Symbolic Z-matrix:
 Charge =  0 Multiplicity = 1
 C                    -0.33517  -0.58026   0.00595 
 H                     0.20576  -1.5332   -0.02081 
 H                    -1.422    -0.6006   -0.02195 
 C                     0.33421   0.57902   0.00484 
 H                    -0.17202   1.55835  -0.02263 
 H                     1.44151   0.63211  -0.02131 
 

 GradGradGradGradGradGradGradGradGradGradGradGradGradGradGradGradGradGrad
 Berny optimization.
 Initialization pass.
 Trust Radius=3.00D-01 FncErr=1.00D-07 GrdErr=1.00D-07 EigMax=2.50D+02 EigMin=1.00D-04
 Number of steps in this run=      2 maximum allowed number of steps=      2.
 GradGradGradGradGradGradGradGradGradGradGradGradGradGradGradGradGradGrad

                          Input orientation:                          
 ---------------------------------------------------------------------
 Center     Atomic      Atomic             Coordinates (Angstroms)
 Number     Number       Type             X           Y           Z
 ---------------------------------------------------------------------
      1          6           0       -0.335169   -0.580264    0.005951
      2          1           0        0.205760   -1.533197   -0.020813
      3          1           0       -1.421997   -0.600599   -0.021954
      4          6           0        0.334209    0.579017    0.004835
      5          1           0       -0.172016    1.558351   -0.022628
      6          1           0        1.441508    0.632108   -0.021313
 ---------------------------------------------------------------------
                    Distance matrix (angstroms):
                    1          2          3          4          5
     1  C    0.000000
     2  H    1.096085   0.000000
     3  H    1.087376   1.875989   0.000000
     4  C    1.338656   2.116271   2.115767   0.000000
     5  H    2.145020   3.114544   2.494698   1.102775   0.000000
     6  H    2.151087   2.493114   3.117568   1.108880   1.860481
                    6
     6  H    0.000000
 Symmetry turned off by external request.
 Stoichiometry    C2H4
 Framework group  C1[X(C2H4)]
 Deg. of freedom    12
 Full point group                 C1      NOp   1
 Rotational constants (GHZ):         143.5627734          29.6861743          24.6055111
 Standard basis: 6-311G (5D, 7F)
    38 basis functions,    72 primitive gaussians,    38 cartesian basis functions
     8 alpha electrons        8 beta electrons
       nuclear repulsion energy        33.0778399164 Hartrees.
 NAtoms=    6 NActive=    6 NUniq=    6 SFac= 1.00D+00 NAtFMM=   60 NAOKFM=F Big=F
 Integral buffers will be    131072 words long.
 Raffenetti 2 integral format.
 Two-electron integral symmetry is turned off.
 Nuclear repulsion after empirical dispersion term =       33.0769989363 Hartrees.
 One-electron integrals computed using PRISM.
 NBasis=    38 RedAO= T EigKep=  6.44D-03  NBF=    38
 NBsUse=    38 1.00D-06 EigRej= -1.00D+00 NBFU=    38
 Initial guess from the checkpoint file:  "geometry.chk"
 B after Tr=    -0.000294   -0.000398   -0.000498
         Rot=    1.000000   -0.000002    0.000003    0.000004 Ang=  -0.00 deg.
 Keep R1 ints in memory in canonical form, NReq=4036876.
 Requested convergence on RMS density matrix=1.00D-08 within  32 cycles.
 Requested convergence on MAX density matrix=1.00D-06.
 Requested convergence on             energy=1.00D-06.
 No special actions if energy rises.
 SCF Done:  E(RwB97XD) =  -78.5563456903     A.U. after    8 cycles
            NFock=  8  Conv=0.59D-08     -V/T= 2.0051
 QCSCF skips out because SCF is already converged.

 **********************************************************************

            Population analysis using the SCF Density.

 **********************************************************************

 Alpha  occ. eigenvalues --  -10.29005 -10.28777  -0.86366  -0.67252  -0.55931
 Alpha  occ. eigenvalues --   -0.50941  -0.43726  -0.35670
 Alpha virt. eigenvalues --    0.07977   0.14116   0.16497   0.17047   0.24095
 Alpha virt. eigenvalues --    0.37669   0.39364   0.39593   0.46488   0.48817
 Alpha virt. eigenvalues --    0.49392   0.59108   0.66594   0.69160   0.77322
 Alpha virt. eigenvalues --    0.77584   0.84346   0.95177   2.23178   2.28997
 Alpha virt. eigenvalues --    2.33269   2.40750   2.67120   2.81798   2.87852
 Alpha virt. eigenvalues --    2.95231   3.13972   3.32049  23.35306  23.70581
     Molecular Orbital Coefficients:
                           1         2         3         4         5
                           O         O         O         O         O
     Eigenvalues --   -10.29005 -10.28777  -0.86366  -0.67252  -0.55931
   1 1   C  1S          0.11012   0.55253  -0.08822   0.06698  -0.00026
   2        2S          0.09083   0.45471  -0.13942   0.10730  -0.00043
   3        2PX         0.00016  -0.00002   0.02606   0.03724   0.13482
   4        2PY         0.00028  -0.00004   0.04602   0.06214  -0.07345
   5        2PZ         0.00000  -0.00001  -0.00110   0.00174   0.00018
   6        3S          0.00199   0.01448   0.37384  -0.29290   0.00120
   7        3PX        -0.00060   0.00044   0.03411   0.05962   0.21097
   8        3PY        -0.00103   0.00078   0.05990   0.10030  -0.11551
   9        3PZ        -0.00001  -0.00003  -0.00185   0.00308   0.00027
  10        4S          0.00309  -0.01470   0.19132  -0.22805   0.00077
  11        4PX         0.00147  -0.00156   0.00487   0.02421   0.11031
  12        4PY         0.00253  -0.00267   0.00858   0.04153  -0.06100
  13        4PZ         0.00001   0.00007  -0.00066   0.00153   0.00014
  14 2   H  1S         -0.00005  -0.00006   0.05239  -0.08897   0.10012
  15        2S         -0.00030   0.00011   0.05349  -0.10669   0.12654
  16        3S          0.00084   0.00167  -0.00154  -0.01550   0.04089
  17 3   H  1S         -0.00006  -0.00007   0.05330  -0.09169  -0.10239
  18        2S         -0.00030   0.00009   0.05408  -0.10927  -0.12865
  19        3S          0.00086   0.00169  -0.00160  -0.01614  -0.04154
  20 4   C  1S          0.55252  -0.11031  -0.08700  -0.06830  -0.00007
  21        2S          0.45477  -0.09059  -0.13741  -0.10950  -0.00011
  22        2PX        -0.00003  -0.00016  -0.02733   0.03665   0.12120
  23        2PY        -0.00004  -0.00028  -0.04656   0.06482  -0.07433
  24        2PZ        -0.00000   0.00000  -0.00091  -0.00166   0.00019
  25        3S          0.01402  -0.00370   0.36825   0.29915   0.00026
  26        3PX        -0.00019   0.00073  -0.03464   0.05944   0.18996
  27        3PY        -0.00032   0.00126  -0.05898   0.10471  -0.11567
  28        3PZ        -0.00003  -0.00000  -0.00155  -0.00299   0.00029
  29        4S         -0.01219   0.00854   0.18941   0.23599  -0.00061
  30        4PX         0.00086  -0.00192  -0.00533   0.02551   0.10326
  31        4PY         0.00146  -0.00335  -0.00909   0.04416  -0.06244
  32        4PZ         0.00006  -0.00002  -0.00062  -0.00154   0.00015
  33 5   H  1S         -0.00007  -0.00004   0.05032   0.09241  -0.09238
  34        2S         -0.00002  -0.00031   0.05149   0.11051  -0.11660
  35        3S          0.00182   0.00013  -0.00123   0.01645  -0.03741
  36 6   H  1S         -0.00006  -0.00004   0.04955   0.09110   0.08905
  37        2S         -0.00003  -0.00032   0.05103   0.10937   0.11276
  38        3S          0.00179   0.00012  -0.00128   0.01607   0.03645
                           6         7         8         9        10
                           O         O         O         V         V
     Eigenvalues --    -0.50941  -0.43726  -0.35670   0.07977   0.14116
   1 1   C  1S         -0.00486   0.00011  -0.00085   0.00230  -0.03329
   2        2S         -0.00743   0.00020  -0.00139   0.00382  -0.05339
   3        2PX         0.09460  -0.11378  -0.00291   0.00136  -0.03219
   4        2PY         0.16718   0.06746  -0.00491   0.00218  -0.06358
   5        2PZ         0.00437  -0.00001   0.17930  -0.18907  -0.00214
   6        3S          0.02623  -0.00041   0.00407  -0.01152   0.11616
   7        3PX         0.13788  -0.18133  -0.00412   0.00206  -0.03814
   8        3PY         0.24471   0.10778  -0.00692   0.00329  -0.07821
   9        3PZ         0.00693  -0.00000   0.28817  -0.27807  -0.00336
  10        4S         -0.04583  -0.00242   0.00576  -0.01317   1.21381
  11        4PX         0.06993  -0.11254  -0.00340   0.01099  -0.20269
  12        4PY         0.12487   0.06749  -0.00571   0.01813  -0.38907
  13        4PZ         0.00397   0.00003   0.26731  -0.69512  -0.01282
  14 2   H  1S         -0.07947  -0.11719   0.00013   0.00360  -0.01541
  15        2S         -0.10946  -0.18102   0.00176   0.00575  -0.04468
  16        3S         -0.04095  -0.08386   0.00101   0.01479  -0.82709
  17 3   H  1S         -0.07883   0.11499   0.00006   0.00361  -0.01254
  18        2S         -0.10804   0.17713   0.00167   0.00583  -0.03804
  19        3S         -0.04013   0.08191   0.00096   0.01466  -0.78049
  20 4   C  1S         -0.00724  -0.00038  -0.00068  -0.00222  -0.03633
  21        2S         -0.01127  -0.00064  -0.00111  -0.00368  -0.05835
  22        2PX        -0.09827   0.12243   0.00276   0.00129   0.03979
  23        2PY        -0.16332  -0.07232   0.00513   0.00247   0.06205
  24        2PZ         0.00449   0.00020   0.17920   0.18943  -0.00249
  25        3S          0.03720   0.00186   0.00326   0.01108   0.12873
  26        3PX        -0.14505   0.19599   0.00385   0.00198   0.04861
  27        3PY        -0.23972  -0.11527   0.00721   0.00379   0.07390
  28        3PZ         0.00709   0.00031   0.28703   0.27789  -0.00382
  29        4S         -0.03525   0.00208   0.00566   0.01218   1.25630
  30        4PX        -0.07522   0.12411   0.00294   0.01055   0.25478
  31        4PY        -0.12325  -0.07236   0.00563   0.01927   0.40738
  32        4PZ         0.00407   0.00019   0.26736   0.69596  -0.01446
  33 5   H  1S         -0.07562  -0.12309   0.00021  -0.00337  -0.01339
  34        2S         -0.10362  -0.19151   0.00178  -0.00553  -0.03932
  35        3S         -0.03866  -0.08960   0.00103  -0.01469  -0.83120
  36 6   H  1S         -0.08046   0.12250   0.00014  -0.00337  -0.01598
  37        2S         -0.11054   0.19128   0.00167  -0.00552  -0.04618
  38        3S         -0.04135   0.08944   0.00097  -0.01481  -0.87920
                          11        12        13        14        15
                           V         V         V         V         V
     Eigenvalues --     0.16497   0.17047   0.24095   0.37669   0.39364
   1 1   C  1S          0.00097  -0.04518   0.00001   0.01280   0.00227
   2        2S          0.00156  -0.07360   0.00001   0.01868   0.00395
   3        2PX         0.09756  -0.02046   0.10010  -0.03910  -0.02650
   4        2PY        -0.05428  -0.03797  -0.05736  -0.07095   0.00715
   5        2PZ         0.00013  -0.00563   0.00005  -0.00409  -0.00010
   6        3S         -0.00341   0.16546   0.00023   0.02155  -0.00896
   7        3PX         0.13958  -0.01236   0.10724  -0.05738  -0.11525
   8        3PY        -0.07855  -0.02557  -0.06208  -0.10865   0.03420
   9        3PZ         0.00018  -0.00781   0.00002  -0.00799   0.00019
  10        4S         -0.04157   1.43710  -0.01054  -2.97887  -0.34255
  11        4PX         0.57335  -0.11899   1.16467  -1.60948  -0.52550
  12        4PY        -0.31127  -0.21084  -0.66470  -2.81300   0.18521
  13        4PZ         0.00087  -0.03688   0.00092  -0.03656  -0.00116
  14 2   H  1S         -0.02944  -0.02496   0.01226  -0.04927   0.08016
  15        2S         -0.07754  -0.01739  -0.02556  -0.56932   0.84255
  16        3S         -1.03040  -1.00844  -1.55208  -0.38589  -0.36355
  17 3   H  1S          0.02910  -0.02455  -0.01378  -0.04260  -0.07393
  18        2S          0.07710  -0.01947   0.02133  -0.51656  -0.71587
  19        3S          1.08525  -1.00942   1.57074  -0.44477   0.26453
  20 4   C  1S          0.00083   0.04264  -0.00004  -0.01942   0.00054
  21        2S          0.00132   0.06943  -0.00008  -0.03134   0.00137
  22        2PX         0.10074  -0.02207  -0.09986  -0.04319  -0.02968
  23        2PY        -0.06035  -0.03695   0.05720  -0.07654   0.01316
  24        2PZ         0.00015   0.00539  -0.00006   0.00323   0.00045
  25        3S         -0.00252  -0.15484   0.00028   0.02941  -0.01203
  26        3PX         0.14464  -0.01641  -0.11168  -0.09095  -0.10186
  27        3PY        -0.08593  -0.02605   0.06315  -0.16445   0.06734
  28        3PZ         0.00021   0.00740  -0.00004   0.00441   0.00115
  29        4S         -0.04206  -1.34430   0.00429   3.45303   0.13773
  30        4PX         0.54863  -0.11260  -1.13188  -1.35058  -0.63183
  31        4PY        -0.33150  -0.19613   0.65643  -2.36758  -0.03956
  32        4PZ         0.00089   0.03527  -0.00096   0.03320   0.00380
  33 5   H  1S          0.03066   0.02488   0.00786   0.01866  -0.07436
  34        2S          0.06976   0.02129  -0.03248   0.17577  -0.70187
  35        3S          1.07676   0.94692  -1.52460   0.47184   0.44340
  36 6   H  1S         -0.03080   0.02529  -0.00688   0.01397   0.08958
  37        2S         -0.07022   0.01956   0.03308   0.13324   0.94108
  38        3S         -1.02169   0.94556   1.51560   0.48494  -0.41137
                          16        17        18        19        20
                           V         V         V         V         V
     Eigenvalues --     0.39593   0.46488   0.48817   0.49392   0.59108
   1 1   C  1S         -0.01545   0.01086  -0.04759   0.00004  -0.00048
   2        2S         -0.02789   0.02626  -0.08006   0.00030  -0.00087
   3        2PX         0.01746  -0.06073   0.01456   0.00107   0.00180
   4        2PY         0.03787  -0.10599   0.02147   0.00157   0.00275
   5        2PZ        -0.00042  -0.00063   0.00319  -0.15190  -0.19249
   6        3S          0.07874  -0.33405   0.11173  -0.00858  -0.00015
   7        3PX         0.08026  -0.24258  -0.02000   0.00123   0.00608
   8        3PY         0.17495  -0.42170  -0.04205   0.00107   0.00929
   9        3PZ        -0.00443  -0.00407   0.01477  -0.62878  -0.68474
  10        4S          2.03203   0.14356   3.18455   0.05970   0.05688
  11        4PX        -0.10897   0.23218   0.78633   0.01971   0.01741
  12        4PY        -0.05484   0.42473   1.35537   0.03571   0.03159
  13        4PZ        -0.00702  -0.00199  -0.06999   0.68671   1.24021
  14 2   H  1S         -0.02509  -0.03844  -0.07567  -0.00164  -0.00142
  15        2S         -0.53530  -0.37025  -0.91609  -0.01459  -0.00952
  16        3S          0.18488   0.09201   0.62987   0.02147   0.01961
  17 3   H  1S         -0.04594  -0.03981  -0.07415  -0.00161  -0.00138
  18        2S         -0.73989  -0.38543  -0.89332  -0.01442  -0.00889
  19        3S          0.25306   0.09254   0.60824   0.02107   0.01936
  20 4   C  1S         -0.00506  -0.00081   0.05065   0.00219   0.00059
  21        2S         -0.01176   0.00644   0.08765   0.00397   0.00110
  22        2PX        -0.00042   0.05592   0.02599  -0.00003   0.00166
  23        2PY         0.00718   0.09635   0.04627  -0.00026   0.00324
  24        2PZ        -0.00248  -0.00115   0.00326  -0.15274   0.19221
  25        3S          0.08307  -0.29601  -0.21333  -0.01577  -0.00180
  26        3PX        -0.06597   0.23868   0.04402  -0.00010   0.00574
  27        3PY        -0.08201   0.41416   0.07674  -0.00109   0.01118
  28        3PZ        -0.00781  -0.00515   0.01145  -0.63144   0.68246
  29        4S         -0.15663   0.73042  -3.11162  -0.07572  -0.05272
  30        4PX         0.92907  -0.36472   0.66595   0.01119   0.01851
  31        4PY         1.78750  -0.62028   1.14103   0.01931   0.03014
  32        4PZ        -0.02213  -0.01130   0.03545   0.69304  -1.23760
  33 5   H  1S         -0.05729  -0.05959   0.06584   0.00152   0.00134
  34        2S         -0.91409  -0.60166   0.81322   0.02350   0.00652
  35        3S         -0.03647   0.25211  -0.57189  -0.00567  -0.01912
  36 6   H  1S         -0.03523  -0.05914   0.06554   0.00152   0.00135
  37        2S         -0.68185  -0.59508   0.80760   0.02314   0.00657
  38        3S         -0.13814   0.26473  -0.58285  -0.00621  -0.01934
                          21        22        23        24        25
                           V         V         V         V         V
     Eigenvalues --     0.66594   0.69160   0.77322   0.77584   0.84346
   1 1   C  1S          0.00056  -0.00048   0.05092   0.07354   0.00082
   2        2S          0.00117  -0.00105   0.10747   0.15681   0.00188
   3        2PX        -0.13021   0.19963  -0.02715   0.11290  -0.00741
   4        2PY         0.07563  -0.11859  -0.04672   0.18682   0.01104
   5        2PZ        -0.00008   0.00016   0.00047   0.00422   0.00009
   6        3S         -0.00965   0.01219  -0.72349  -1.35285  -0.02042
   7        3PX        -0.60996   0.70155  -0.18187   0.43934  -0.21827
   8        3PY         0.35151  -0.41700  -0.31312   0.71896   0.15202
   9        3PZ        -0.00045   0.00058   0.00173   0.01480   0.00023
  10        4S          0.01575  -0.04560   0.71534   2.47776   0.00344
  11        4PX         1.12226  -0.81307   0.17682  -0.73374   4.45126
  12        4PY        -0.64674   0.49438   0.24529  -1.03422  -2.53582
  13        4PZ         0.00059   0.00047   0.00836  -0.04713   0.00397
  14 2   H  1S          0.02206  -0.05882   0.01040   0.03235  -0.02631
  15        2S          0.11233  -0.62430   0.07428   0.09405  -1.53981
  16        3S         -1.03195   1.12339  -0.07561  -1.12007  -1.20928
  17 3   H  1S         -0.02145   0.05834   0.01042   0.03285   0.02915
  18        2S         -0.12221   0.64503   0.09270   0.06760   1.57162
  19        3S          1.02543  -1.09198  -0.06258  -1.23230   1.20806
  20 4   C  1S          0.00077  -0.00030   0.08370   0.03167   0.00060
  21        2S          0.00156  -0.00057   0.17820   0.06664   0.00120
  22        2PX        -0.15375  -0.18354  -0.09776   0.05180   0.01132
  23        2PY         0.08837   0.10302  -0.17424   0.09413  -0.00073
  24        2PZ        -0.00012  -0.00018   0.00417  -0.00079  -0.00009
  25        3S         -0.01149   0.00018  -1.48965  -0.38401  -0.00528
  26        3PX        -0.68942  -0.61989  -0.35669   0.27487   0.24247
  27        3PY         0.39817   0.34596  -0.63989   0.49809  -0.11072
  28        3PZ        -0.00056  -0.00061   0.01475  -0.00296  -0.00014
  29        4S          0.00914   0.02276   2.65440   0.14494  -0.01807
  30        4PX         1.24976   0.72487   0.53001  -0.24757  -4.25678
  31        4PY        -0.71897  -0.39788   1.01215  -0.63608   2.43927
  32        4PZ         0.00102  -0.00023  -0.04301   0.02052  -0.00369
  33 5   H  1S         -0.02682  -0.05494   0.03452   0.00276  -0.02453
  34        2S         -0.16838  -0.56952   0.07640   0.07478  -1.45550
  35        3S          1.12781   0.96736  -1.15982   0.27388  -1.12655
  36 6   H  1S          0.02728   0.05490   0.03423   0.00312   0.02436
  37        2S          0.16407   0.54985   0.08135   0.02605   1.44698
  38        3S         -1.12976  -0.98306  -1.10808   0.21348   1.13607
                          26        27        28        29        30
                           V         V         V         V         V
     Eigenvalues --     0.95177   2.23178   2.28997   2.33269   2.40750
   1 1   C  1S          0.09541  -0.01064  -0.01423   0.00019  -0.00035
   2        2S          0.19818   0.00045  -0.01457   0.00053  -0.00042
   3        2PX        -0.09132  -0.09128  -0.13141   0.33226  -0.41450
   4        2PY        -0.15810  -0.16801  -0.22627  -0.18994   0.23430
   5        2PZ         0.00012  -0.01194  -0.01538   0.00005  -0.00062
   6        3S         -1.53499  -0.18050  -0.03016  -0.00116  -0.00354
   7        3PX        -0.23201   0.09522   0.20943  -0.39794   0.57730
   8        3PY        -0.39610   0.18513   0.37112   0.22956  -0.32774
   9        3PZ        -0.00227   0.01212   0.01919   0.00002   0.00073
  10        4S          5.71632  -0.13250  -0.89585  -0.00521  -0.01077
  11        4PX         1.18885   0.04625  -0.18821  -0.00808   0.96571
  12        4PY         1.98394   0.06252  -0.34952  -0.00386  -0.53563
  13        4PZ        -0.01535   0.00332   0.00685  -0.00011   0.00132
  14 2   H  1S          0.01576  -0.73273  -0.76359  -0.69980   0.66824
  15        2S         -0.29220   1.04757   1.14923   1.06066  -1.47518
  16        3S         -0.09253  -0.31481  -0.45573  -0.47265   0.38205
  17 3   H  1S          0.01611  -0.72412  -0.76883   0.68664  -0.68504
  18        2S         -0.26948   1.03622   1.16095  -1.04312   1.51010
  19        3S         -0.07560  -0.29681  -0.44774   0.46109  -0.37548
  20 4   C  1S         -0.09437  -0.01022   0.01268   0.00038   0.00017
  21        2S         -0.19583   0.00057   0.01255   0.00046   0.00039
  22        2PX        -0.09202   0.12255  -0.12881   0.31718   0.41234
  23        2PY        -0.15894   0.21400  -0.21396  -0.18424  -0.23781
  24        2PZ         0.00022  -0.01170   0.01488   0.00045   0.00032
  25        3S          1.51531  -0.17236   0.02364   0.00080  -0.00062
  26        3PX        -0.22703  -0.15174   0.21700  -0.39400  -0.57681
  27        3PY        -0.39613  -0.26219   0.35753   0.22759   0.33361
  28        3PZ         0.00291   0.01237  -0.01894  -0.00052  -0.00046
  29        4S         -5.69995  -0.14980   0.88894   0.01564  -0.00304
  30        4PX         1.11667  -0.02091  -0.20225   0.06816  -0.88671
  31        4PY         1.99323  -0.03966  -0.32729  -0.04034   0.51858
  32        4PZ         0.01108   0.00330  -0.00561  -0.00007  -0.00115
  33 5   H  1S         -0.01756  -0.76880   0.70359   0.71705   0.67052
  34        2S          0.28644   1.11044  -1.07001  -1.05893  -1.44981
  35        3S          0.06580  -0.34284   0.41655   0.50815   0.40562
  36 6   H  1S         -0.01754  -0.76336   0.72546  -0.69936  -0.67123
  37        2S          0.30539   1.10144  -1.09785   1.03060   1.44587
  38        3S          0.07472  -0.34170   0.44134  -0.50125  -0.41138
                          31        32        33        34        35
                           V         V         V         V         V
     Eigenvalues --     2.67120   2.81798   2.87852   2.95231   3.13972
   1 1   C  1S          0.00045   0.00213  -0.01327  -0.00007  -0.00930
   2        2S          0.00040   0.00626  -0.04481  -0.00043  -0.02834
   3        2PX         0.00529   0.06054  -0.45559  -0.74632   0.46394
   4        2PY         0.00799   0.10665  -0.82624   0.41828   0.81006
   5        2PZ        -0.92358  -0.93338  -0.11951  -0.00120   0.00704
   6        3S         -0.00195  -0.05222   0.39610   0.00529   0.23804
   7        3PX        -0.00463  -0.10601   0.82055   0.90009  -0.46108
   8        3PY        -0.00695  -0.18526   1.46090  -0.49098  -0.80407
   9        3PZ         0.93857   1.14071   0.14995   0.00159  -0.00912
  10        4S          0.01231   0.11956  -0.87640  -0.01476  -0.45950
  11        4PX        -0.00084   0.08609  -0.71320  -0.67715   0.24617
  12        4PY        -0.00110   0.15098  -1.26803   0.35912   0.42700
  13        4PZ        -0.33759  -0.61768  -0.09506  -0.00123   0.00613
  14 2   H  1S          0.01014  -0.01805   0.27063  -0.38500  -0.22433
  15        2S         -0.01178   0.01207  -0.23022   0.39454   0.17025
  16        3S         -0.00223   0.03475  -0.29965   0.27015   0.07397
  17 3   H  1S          0.01029  -0.01766   0.26159   0.38774  -0.22434
  18        2S         -0.01217   0.01113  -0.21598  -0.39365   0.16965
  19        3S         -0.00248   0.03461  -0.29708  -0.28518   0.08123
  20 4   C  1S          0.00041  -0.00211   0.01364   0.00044  -0.00788
  21        2S          0.00035  -0.00646   0.04727   0.00108  -0.02449
  22        2PX        -0.00525   0.05631  -0.42586  -0.79136  -0.48951
  23        2PY        -0.01017   0.10066  -0.75778   0.43666  -0.86928
  24        2PZ        -0.92588   0.93090   0.11998   0.00014   0.00959
  25        3S         -0.00174   0.05511  -0.42253  -0.00847   0.20959
  26        3PX         0.00501  -0.10160   0.78917   0.94501   0.51195
  27        3PY         0.00962  -0.17992   1.39300  -0.51288   0.91718
  28        3PZ         0.94165  -1.13823  -0.15118  -0.00020  -0.01200
  29        4S          0.01186  -0.12119   0.89835   0.02481  -0.40083
  30        4PX         0.00019   0.08572  -0.71382  -0.69604  -0.29826
  31        4PY        -0.00041   0.15035  -1.25021   0.37276  -0.54082
  32        4PZ        -0.33919   0.61657   0.09639   0.00010   0.00901
  33 5   H  1S          0.00983   0.02226  -0.28827   0.41024  -0.25273
  34        2S         -0.01188  -0.01739   0.25704  -0.42298   0.19681
  35        3S         -0.00147  -0.03312   0.28818  -0.25030   0.11152
  36 6   H  1S          0.00995   0.02224  -0.28357  -0.42106  -0.24110
  37        2S         -0.01230  -0.01783   0.25591   0.43265   0.18667
  38        3S         -0.00121  -0.03193   0.27626   0.25428   0.10451
                          36        37        38
                           V         V         V
     Eigenvalues --     3.32049  23.35306  23.70581
   1 1   C  1S         -0.00025  -1.41879  -1.44758
   2        2S         -0.00036   1.51314   1.56537
   3        2PX         0.77139  -0.00660   0.01215
   4        2PY        -0.43101  -0.01098   0.02121
   5        2PZ         0.00089  -0.00048  -0.00020
   6        3S         -0.00053  -0.29702  -0.39795
   7        3PX        -1.10357   0.02411  -0.05557
   8        3PY         0.61392   0.04052  -0.09648
   9        3PZ        -0.00135   0.00135   0.00059
  10        4S         -0.00308   0.27398   0.76736
  11        4PX         1.94380  -0.02614   0.13272
  12        4PY        -1.08152  -0.04495   0.22809
  13        4PZ         0.00230  -0.00226  -0.00253
  14 2   H  1S          0.54710   0.01358   0.00699
  15        2S         -0.85240   0.00749  -0.01495
  16        3S         -0.45945  -0.08414  -0.03962
  17 3   H  1S         -0.55629   0.01484   0.00770
  18        2S          0.86572   0.00743  -0.01472
  19        3S          0.47991  -0.08568  -0.03941
  20 4   C  1S          0.00002  -1.44282   1.42353
  21        2S         -0.00022   1.53888  -1.53945
  22        2PX        -0.72511   0.00608   0.01257
  23        2PY         0.41503   0.01082   0.02150
  24        2PZ        -0.00076  -0.00045   0.00012
  25        3S          0.00401  -0.30239   0.39172
  26        3PX         1.03194  -0.02228  -0.05629
  27        3PY        -0.59812  -0.03938  -0.09695
  28        3PZ         0.00114   0.00130  -0.00032
  29        4S         -0.01809   0.28065  -0.76073
  30        4PX        -1.81916   0.02317   0.13105
  31        4PY         1.06331   0.04208   0.22749
  32        4PZ        -0.00201  -0.00211   0.00193
  33 5   H  1S          0.50261   0.01327  -0.00514
  34        2S         -0.78535   0.00798   0.01371
  35        3S         -0.43796  -0.08345   0.03768
  36 6   H  1S         -0.49998   0.01235  -0.00440
  37        2S          0.78250   0.00880   0.01357
  38        3S          0.43037  -0.08208   0.03749
     Density Matrix:
                           1         2         3         4         5
   1 1   C  1S          0.65942
   2        2S          0.56154   0.49204
   3        2PX        -0.00061  -0.00083   0.08429
   4        2PY        -0.00134  -0.00186   0.00353   0.08779
   5        2PZ         0.00007   0.00011  -0.00009  -0.00021   0.06434
   6        3S         -0.08902  -0.15397   0.00303   0.00650  -0.00015
   7        3PX         0.00084   0.00128   0.13048   0.00123  -0.00006
   8        3PY         0.00122   0.00187   0.00126   0.13138  -0.00017
   9        3PZ         0.00015   0.00025  -0.00016  -0.00034   0.10341
  10        4S         -0.07943  -0.11443  -0.01496  -0.02655   0.00045
  11        4PX         0.00023   0.00152   0.07066  -0.00451  -0.00049
  12        4PY         0.00050   0.00279  -0.00461   0.06582  -0.00085
  13        4PZ        -0.00010  -0.00022  -0.00070  -0.00118   0.09590
  14 2   H  1S         -0.02055  -0.03272   0.03473  -0.06333  -0.00103
  15        2S         -0.02272  -0.03632   0.04943  -0.08796  -0.00076
  16        3S          0.00058  -0.00069   0.02112  -0.03309  -0.00003
  17 3   H  1S         -0.02093  -0.03330  -0.07274  -0.00229  -0.00114
  18        2S         -0.02299  -0.03672  -0.10077  -0.00195  -0.00090
  19        3S          0.00060  -0.00066  -0.03872   0.00157  -0.00008
  20 4   C  1S          0.00606   0.00976  -0.01074  -0.01864  -0.00035
  21        2S          0.00974   0.01522  -0.01718  -0.02982  -0.00057
  22        2PX         0.01046   0.01673  -0.01248  -0.03213   0.00036
  23        2PY         0.01818   0.02908  -0.03212  -0.04972   0.00071
  24        2PZ        -0.00041  -0.00067  -0.00036  -0.00055   0.06430
  25        3S         -0.02627  -0.03986   0.04814   0.08370   0.00172
  26        3PX         0.01618   0.02510  -0.01822  -0.04580   0.00046
  27        3PY         0.02810   0.04360  -0.04563  -0.07120   0.00094
  28        3PZ        -0.00070  -0.00112  -0.00063  -0.00096   0.10298
  29        4S          0.00528   0.00389   0.02010   0.03528   0.00212
  30        4PX         0.00313   0.00644  -0.01303  -0.02092   0.00053
  31        4PY         0.00534   0.01107  -0.02091  -0.03720   0.00109
  32        4PZ        -0.00060  -0.00096  -0.00094  -0.00151   0.09591
  33 5   H  1S          0.00420   0.00691  -0.00171  -0.01220  -0.00041
  34        2S          0.00639   0.01063   0.00344  -0.02490  -0.00004
  35        3S          0.00333   0.00489   0.00414  -0.01760   0.00008
  36 6   H  1S          0.00417   0.00686  -0.00972  -0.00758  -0.00042
  37        2S          0.00634   0.01056  -0.02324  -0.00944  -0.00006
  38        3S          0.00330   0.00485  -0.01722  -0.00524   0.00005
                           6         7         8         9        10
   6        3S          0.45293
   7        3PX        -0.00156   0.20228
   8        3PY        -0.00153  -0.00424   0.19709
   9        3PZ        -0.00048  -0.00011  -0.00026   0.16620
  10        4S          0.27387  -0.02564  -0.04606   0.00057   0.18195
  11        4PX        -0.00658   0.10989  -0.01004  -0.00080  -0.01486
  12        4PY        -0.01168  -0.01020   0.09918  -0.00137  -0.02750
  13        4PZ         0.00100  -0.00092  -0.00155   0.15413   0.00176
  14 2   H  1S          0.08746   0.05580  -0.09886  -0.00172   0.06863
  15        2S          0.09722   0.07977  -0.13685  -0.00129   0.08025
  16        3S          0.00600   0.03441  -0.05087  -0.00005   0.01067
  17 3   H  1S          0.08908  -0.11394  -0.00214  -0.00187   0.06873
  18        2S          0.09834  -0.15767  -0.00044  -0.00148   0.07939
  19        3S          0.00605  -0.06034   0.00417  -0.00012   0.00994
  20 4   C  1S         -0.02642  -0.01672  -0.02904  -0.00060   0.00517
  21        2S         -0.04001  -0.02597  -0.04512  -0.00097   0.00386
  22        2PX        -0.04685  -0.01788  -0.04567   0.00062  -0.01854
  23        2PY        -0.08144  -0.04566  -0.07100   0.00122  -0.03211
  24        2PZ         0.00199  -0.00049  -0.00072   0.10333   0.00206
  25        3S          0.10202   0.07044   0.12260   0.00288   0.00128
  26        3PX        -0.06798  -0.02623  -0.06491   0.00081  -0.02770
  27        3PY        -0.11810  -0.06470  -0.10161   0.00163  -0.04793
  28        3PZ         0.00331  -0.00086  -0.00128   0.16551   0.00343
  29        4S          0.00177   0.03031   0.05333   0.00353  -0.03220
  30        4PX        -0.02276  -0.01953  -0.02948   0.00088  -0.00713
  31        4PY        -0.03927  -0.02950  -0.05381   0.00181  -0.01190
  32        4PZ         0.00282  -0.00131  -0.00208   0.15414   0.00317
  33 5   H  1S         -0.02059  -0.00074  -0.01763  -0.00060  -0.01550
  34        2S         -0.03179   0.00836  -0.03675   0.00001  -0.02043
  35        3S         -0.01258   0.00792  -0.02646   0.00014  -0.00403
  36 6   H  1S         -0.02043  -0.01480  -0.00934  -0.00061  -0.01567
  37        2S         -0.03159  -0.03576  -0.01089  -0.00002  -0.02095
  38        3S         -0.01251  -0.02664  -0.00632   0.00011  -0.00439
                          11        12        13        14        15
  11        4PX         0.06070
  12        4PY        -0.00904   0.05143
  13        4PZ        -0.00117  -0.00196   0.14295
  14 2   H  1S          0.03355  -0.05437  -0.00088   0.08147
  15        2S          0.04870  -0.07518  -0.00030   0.10976   0.15002
  16        3S          0.02139  -0.02786   0.00018   0.03695   0.05282
  17 3   H  1S         -0.06342   0.00163  -0.00096  -0.01303  -0.02502
  18        2S         -0.08814   0.00446  -0.00039  -0.02499  -0.04393
  19        3S         -0.03402   0.00472   0.00014  -0.01843  -0.02811
  20 4   C  1S         -0.00313  -0.00563  -0.00053   0.00422   0.00661
  21        2S         -0.00647  -0.01155  -0.00085   0.00697   0.01104
  22        2PX        -0.01307  -0.02026   0.00088   0.00181  -0.00287
  23        2PY        -0.02031  -0.03695   0.00168   0.01161   0.02433
  24        2PZ        -0.00068  -0.00107   0.09583  -0.00048  -0.00012
  25        3S          0.02295   0.04073   0.00247  -0.02094  -0.03318
  26        3PX        -0.01998  -0.02865   0.00120   0.00095  -0.00750
  27        3PY        -0.02866  -0.05372   0.00231   0.01715   0.03632
  28        3PZ        -0.00112  -0.00177   0.15350  -0.00070  -0.00011
  29        4S          0.00764   0.01423   0.00322  -0.01715  -0.02325
  30        4PX        -0.01450  -0.01262   0.00109  -0.00155  -0.00834
  31        4PY        -0.01270  -0.02945   0.00216   0.01524   0.02700
  32        4PZ        -0.00134  -0.00217   0.14296  -0.00039   0.00028
  33 5   H  1S          0.00171  -0.01569  -0.00031   0.01120   0.02340
  34        2S          0.00873  -0.02746   0.00035   0.02374   0.04445
  35        3S          0.00729  -0.01584   0.00028   0.01660   0.02780
  36 6   H  1S         -0.01429  -0.00601  -0.00032  -0.00911  -0.01833
  37        2S         -0.02785  -0.00560   0.00033  -0.01880  -0.03438
  38        3S         -0.01711  -0.00139   0.00026  -0.01009  -0.01767
                          16        17        18        19        20
  16        3S          0.02126
  17 3   H  1S         -0.01853   0.08234
  18        2S         -0.02816   0.10992   0.14893
  19        3S         -0.01333   0.03646   0.05173   0.02062
  20 4   C  1S          0.00360   0.00427   0.00661   0.00358   0.65946
  21        2S          0.00530   0.00704   0.01101   0.00526   0.56155
  22        2PX        -0.00362   0.00920   0.02246   0.01678   0.00106
  23        2PY         0.01757   0.00749   0.00961   0.00550   0.00169
  24        2PZ         0.00003  -0.00047  -0.00008   0.00006   0.00007
  25        3S         -0.01373  -0.02109  -0.03299  -0.01352  -0.08918
  26        3PX        -0.00718   0.01445   0.03517   0.02617  -0.00055
  27        3PY         0.02646   0.00949   0.01149   0.00679  -0.00110
  28        3PZ         0.00007  -0.00069  -0.00005   0.00011   0.00015
  29        4S         -0.00539  -0.01692  -0.02255  -0.00498  -0.08004
  30        4PX        -0.00698   0.01401   0.02751   0.01698  -0.00021
  31        4PY         0.01579   0.00651   0.00645   0.00183  -0.00025
  32        4PZ         0.00024  -0.00038   0.00031   0.00026  -0.00004
  33 5   H  1S          0.01626  -0.00905  -0.01825  -0.00956  -0.02024
  34        2S          0.02749  -0.01861  -0.03403  -0.01710  -0.02235
  35        3S          0.01463  -0.01000  -0.01749  -0.00899   0.00058
  36 6   H  1S         -0.00965   0.01120   0.02332   0.01603  -0.02006
  37        2S         -0.01735   0.02371   0.04426   0.02715  -0.02234
  38        3S         -0.00912   0.01654   0.02759   0.01443   0.00050
                          21        22        23        24        25
  21        2S          0.49204
  22        2PX         0.00152   0.08287
  23        2PY         0.00239   0.00370   0.08765
  24        2PZ         0.00011   0.00013   0.00018   0.06427
  25        3S         -0.15414  -0.00498  -0.00794  -0.00016   0.45342
  26        3PX        -0.00083   0.12882   0.00176   0.00009   0.00010
  27        3PY        -0.00168   0.00179   0.13131   0.00010   0.00092
  28        3PZ         0.00026   0.00020   0.00029   0.10295  -0.00053
  29        4S         -0.11558   0.01426   0.02431   0.00059   0.27771
  30        4PX        -0.00148   0.07238  -0.00490   0.00039   0.00632
  31        4PY        -0.00237  -0.00487   0.06664   0.00073   0.01036
  32        4PZ        -0.00012   0.00068   0.00122   0.09586   0.00067
  33 5   H  1S         -0.03224  -0.03365   0.06353  -0.00109   0.08622
  34        2S         -0.03572  -0.04950   0.08843  -0.00087   0.09557
  35        3S         -0.00064  -0.02213   0.03341  -0.00008   0.00576
  36 6   H  1S         -0.03197   0.07136   0.00252  -0.00098   0.08551
  37        2S         -0.03572   0.10113   0.00112  -0.00073   0.09558
  38        3S         -0.00075   0.04012  -0.00264  -0.00003   0.00601
                          26        27        28        29        30
  26        3PX         0.20057
  27        3PY        -0.00299   0.19726
  28        3PZ         0.00013   0.00015   0.16490
  29        4S          0.02580   0.04375   0.00075   0.18613
  30        4PX         0.11312  -0.01043   0.00062   0.01570   0.06484
  31        4PY        -0.01042   0.10061   0.00117   0.02583  -0.00992
  32        4PZ         0.00087   0.00158   0.15355   0.00178   0.00096
  33 5   H  1S         -0.05391   0.09942  -0.00179   0.06761  -0.03408
  34        2S         -0.07972   0.13790  -0.00146   0.07833  -0.05093
  35        3S         -0.03607   0.05145  -0.00013   0.00967  -0.02329
  36 6   H  1S          0.11259   0.00297  -0.00163   0.06784   0.06502
  37        2S          0.15936  -0.00028  -0.00124   0.07942   0.09244
  38        3S          0.06291  -0.00570  -0.00005   0.01032   0.03679
                          31        32        33        34        35
  31        4PY         0.05280
  32        4PZ         0.00184   0.14300
  33 5   H  1S          0.05524  -0.00092   0.08095
  34        2S          0.07666  -0.00040   0.10997   0.15175
  35        3S          0.02866   0.00014   0.03773   0.05457   0.02240
  36 6   H  1S         -0.00187  -0.00085  -0.01262  -0.02578  -0.01952
  37        2S         -0.00576  -0.00030  -0.02586  -0.04722  -0.03069
  38        3S         -0.00585   0.00018  -0.01966  -0.03077  -0.01502
                          36        37        38
  36 6   H  1S          0.08033
  37        2S          0.10972   0.15218
  38        3S          0.03786   0.05497   0.02261
    Full Mulliken population analysis:
                           1         2         3         4         5
   1 1   C  1S          0.65942
   2        2S          0.49328   0.49204
   3        2PX         0.00000   0.00000   0.08429
   4        2PY         0.00000   0.00000   0.00000   0.08779
   5        2PZ         0.00000   0.00000   0.00000   0.00000   0.06434
   6        3S         -0.02930  -0.06448   0.00000   0.00000   0.00000
   7        3PX         0.00000   0.00000   0.08209   0.00000   0.00000
   8        3PY         0.00000   0.00000   0.00000   0.08265   0.00000
   9        3PZ         0.00000   0.00000   0.00000   0.00000   0.06506
  10        4S         -0.01221  -0.02142   0.00000   0.00000   0.00000
  11        4PX         0.00000   0.00000   0.01556   0.00000   0.00000
  12        4PY         0.00000   0.00000   0.00000   0.01450   0.00000
  13        4PZ         0.00000   0.00000   0.00000   0.00000   0.02112
  14 2   H  1S         -0.00023  -0.00033   0.00178   0.00571   0.00000
  15        2S         -0.00166  -0.00318   0.00425   0.01333   0.00000
  16        3S          0.00005  -0.00007   0.00070   0.00192   0.00000
  17 3   H  1S         -0.00025  -0.00036   0.00783   0.00000   0.00000
  18        2S         -0.00171  -0.00328   0.01774   0.00001   0.00000
  19        3S          0.00005  -0.00006   0.00258  -0.00000   0.00000
  20 4   C  1S          0.00000   0.00000  -0.00002  -0.00006   0.00000
  21        2S          0.00000  -0.00000  -0.00002  -0.00005   0.00000
  22        2PX        -0.00002  -0.00002   0.00011   0.00085   0.00000
  23        2PY        -0.00006  -0.00005   0.00085   0.00196   0.00000
  24        2PZ        -0.00000  -0.00000  -0.00000  -0.00000   0.00041
  25        3S         -0.00059  -0.00099   0.00251   0.00755  -0.00000
  26        3PX        -0.00055  -0.00100   0.00019   0.00553   0.00000
  27        3PY        -0.00164  -0.00302   0.00551   0.01068   0.00000
  28        3PZ        -0.00000  -0.00000  -0.00000  -0.00000   0.00610
  29        4S          0.00033   0.00029   0.00091   0.00277  -0.00000
  30        4PX        -0.00018  -0.00046  -0.00070   0.00145   0.00000
  31        4PY        -0.00054  -0.00136   0.00145   0.00097   0.00000
  32        4PZ        -0.00000  -0.00000  -0.00000  -0.00000   0.00902
  33 5   H  1S          0.00000   0.00000  -0.00000  -0.00000   0.00000
  34        2S          0.00001   0.00002   0.00000  -0.00032   0.00000
  35        3S          0.00008   0.00014   0.00001  -0.00071  -0.00000
  36 6   H  1S          0.00000   0.00000  -0.00000  -0.00000   0.00000
  37        2S          0.00001   0.00002  -0.00025  -0.00007   0.00000
  38        3S          0.00008   0.00013  -0.00057  -0.00012  -0.00000
                           6         7         8         9        10
   6        3S          0.45293
   7        3PX         0.00000   0.20228
   8        3PY         0.00000   0.00000   0.19709
   9        3PZ         0.00000   0.00000   0.00000   0.16620
  10        4S          0.21217   0.00000   0.00000   0.00000   0.18195
  11        4PX         0.00000   0.07181   0.00000   0.00000   0.00000
  12        4PY         0.00000   0.00000   0.06481   0.00000   0.00000
  13        4PZ         0.00000   0.00000   0.00000   0.10072   0.00000
  14 2   H  1S          0.01610   0.01051   0.03280   0.00002   0.01817
  15        2S          0.04097   0.01924   0.05815   0.00002   0.04629
  16        3S          0.00277   0.00395   0.01029   0.00000   0.00805
  17 3   H  1S          0.01679   0.04416   0.00002   0.00002   0.01835
  18        2S          0.04199   0.07742   0.00000   0.00002   0.04611
  19        3S          0.00280   0.01400  -0.00002   0.00000   0.00753
  20 4   C  1S         -0.00059  -0.00056  -0.00170   0.00000   0.00033
  21        2S         -0.00100  -0.00104  -0.00312   0.00000   0.00029
  22        2PX         0.00244   0.00019   0.00552   0.00000   0.00084
  23        2PY         0.00735   0.00552   0.01065   0.00000   0.00252
  24        2PZ         0.00000  -0.00000  -0.00000   0.00612   0.00000
  25        3S          0.02172   0.01319   0.03976  -0.00000   0.00048
  26        3PX         0.01273  -0.00126   0.01851   0.00000   0.00427
  27        3PY         0.03830   0.01846   0.02856   0.00000   0.01279
  28        3PZ         0.00000  -0.00000  -0.00000   0.03524   0.00000
  29        4S          0.00067   0.00467   0.01424  -0.00000  -0.02021
  30        4PX         0.00639  -0.00400   0.00584   0.00000   0.00216
  31        4PY         0.01910   0.00584   0.00127   0.00000   0.00624
  32        4PZ         0.00000  -0.00000  -0.00000   0.04922   0.00000
  33 5   H  1S         -0.00006  -0.00000  -0.00020   0.00000  -0.00084
  34        2S         -0.00126   0.00006  -0.00330  -0.00000  -0.00347
  35        3S         -0.00207   0.00010  -0.00429  -0.00000  -0.00147
  36 6   H  1S         -0.00006  -0.00013  -0.00006   0.00000  -0.00084
  37        2S         -0.00123  -0.00262  -0.00054   0.00000  -0.00353
  38        3S         -0.00204  -0.00356  -0.00058  -0.00000  -0.00159
                          11        12        13        14        15
  11        4PX         0.06070
  12        4PY         0.00000   0.05143
  13        4PZ         0.00000   0.00000   0.14295
  14 2   H  1S          0.00620   0.01770   0.00001   0.08147
  15        2S          0.01514   0.04119   0.00000   0.07753   0.15002
  16        3S          0.00521   0.01196  -0.00000   0.01381   0.04167
  17 3   H  1S          0.02375  -0.00001   0.00001  -0.00001  -0.00069
  18        2S          0.05545  -0.00005   0.00001  -0.00069  -0.00567
  19        3S          0.01672  -0.00004  -0.00000  -0.00209  -0.00831
  20 4   C  1S         -0.00018  -0.00057   0.00000   0.00000   0.00002
  21        2S         -0.00046  -0.00142   0.00000   0.00000   0.00003
  22        2PX        -0.00071   0.00140   0.00000  -0.00000   0.00000
  23        2PY         0.00141   0.00096   0.00000  -0.00000  -0.00035
  24        2PZ        -0.00000  -0.00000   0.00901   0.00000   0.00000
  25        3S          0.00644   0.01981  -0.00000  -0.00007  -0.00143
  26        3PX        -0.00410   0.00567   0.00000  -0.00000   0.00004
  27        3PY         0.00568   0.00127   0.00000  -0.00022  -0.00351
  28        3PZ        -0.00000  -0.00000   0.04902   0.00000   0.00000
  29        4S          0.00231   0.00747  -0.00000  -0.00099  -0.00413
  30        4PX        -0.00698   0.00320   0.00000   0.00001   0.00019
  31        4PY         0.00322  -0.00557   0.00000  -0.00239  -0.01010
  32        4PZ        -0.00000  -0.00000   0.08973   0.00000  -0.00000
  33 5   H  1S          0.00002  -0.00236   0.00000   0.00000   0.00000
  34        2S          0.00024  -0.00995  -0.00000   0.00000   0.00016
  35        3S          0.00026  -0.00735  -0.00000   0.00023   0.00147
  36 6   H  1S         -0.00176  -0.00051   0.00000  -0.00000  -0.00004
  37        2S         -0.00831  -0.00114  -0.00000  -0.00004  -0.00092
  38        3S         -0.00655  -0.00036  -0.00000  -0.00046  -0.00246
                          16        17        18        19        20
  16        3S          0.02126
  17 3   H  1S         -0.00210   0.08234
  18        2S         -0.00832   0.07764   0.14893
  19        3S         -0.00699   0.01362   0.04082   0.02062
  20 4   C  1S          0.00009   0.00000   0.00002   0.00009   0.65946
  21        2S          0.00015   0.00000   0.00003   0.00015   0.49329
  22        2PX         0.00001  -0.00000  -0.00027  -0.00058   0.00000
  23        2PY        -0.00073  -0.00000  -0.00008  -0.00013   0.00000
  24        2PZ        -0.00000   0.00000   0.00000  -0.00000   0.00000
  25        3S         -0.00235  -0.00007  -0.00143  -0.00231  -0.02936
  26        3PX         0.00007  -0.00015  -0.00283  -0.00362   0.00000
  27        3PY        -0.00440  -0.00007  -0.00062  -0.00063   0.00000
  28        3PZ        -0.00000   0.00000   0.00000  -0.00000   0.00000
  29        4S         -0.00201  -0.00098  -0.00401  -0.00186  -0.01231
  30        4PX         0.00020  -0.00183  -0.00856  -0.00664   0.00000
  31        4PY        -0.00742  -0.00057  -0.00135  -0.00048   0.00000
  32        4PZ        -0.00000   0.00000  -0.00000  -0.00000   0.00000
  33 5   H  1S          0.00023  -0.00000  -0.00004  -0.00043  -0.00022
  34        2S          0.00145  -0.00004  -0.00091  -0.00238  -0.00161
  35        3S          0.00247  -0.00045  -0.00243  -0.00287   0.00005
  36 6   H  1S         -0.00044   0.00000   0.00000   0.00022  -0.00021
  37        2S         -0.00242   0.00000   0.00015   0.00142  -0.00158
  38        3S         -0.00292   0.00023   0.00145   0.00243   0.00004
                          21        22        23        24        25
  21        2S          0.49204
  22        2PX         0.00000   0.08287
  23        2PY         0.00000   0.00000   0.08765
  24        2PZ         0.00000   0.00000   0.00000   0.06427
  25        3S         -0.06455   0.00000   0.00000   0.00000   0.45342
  26        3PX         0.00000   0.08104   0.00000   0.00000   0.00000
  27        3PY         0.00000   0.00000   0.08261   0.00000   0.00000
  28        3PZ         0.00000   0.00000   0.00000   0.06477   0.00000
  29        4S         -0.02163   0.00000   0.00000   0.00000   0.21514
  30        4PX         0.00000   0.01594   0.00000   0.00000   0.00000
  31        4PY         0.00000   0.00000   0.01468   0.00000   0.00000
  32        4PZ         0.00000   0.00000   0.00000   0.02111   0.00000
  33 5   H  1S         -0.00031   0.00156   0.00568   0.00000   0.01558
  34        2S         -0.00308   0.00393   0.01358   0.00000   0.03987
  35        3S         -0.00006   0.00068   0.00198   0.00000   0.00265
  36 6   H  1S         -0.00030   0.00698   0.00001   0.00000   0.01520
  37        2S         -0.00303   0.01734   0.00001   0.00000   0.03950
  38        3S         -0.00007   0.00268  -0.00001   0.00000   0.00275
                          26        27        28        29        30
  26        3PX         0.20057
  27        3PY         0.00000   0.19726
  28        3PZ         0.00000   0.00000   0.16490
  29        4S          0.00000   0.00000   0.00000   0.18613
  30        4PX         0.07392   0.00000   0.00000   0.00000   0.06484
  31        4PY         0.00000   0.06574   0.00000   0.00000   0.00000
  32        4PZ         0.00000   0.00000   0.10034   0.00000   0.00000
  33 5   H  1S          0.00933   0.03329   0.00002   0.01778   0.00585
  34        2S          0.01781   0.05960   0.00002   0.04494   0.01474
  35        3S          0.00386   0.01065   0.00000   0.00727   0.00529
  36 6   H  1S          0.04191   0.00005   0.00001   0.01772   0.02427
  37        2S          0.07715  -0.00001   0.00001   0.04535   0.05826
  38        3S          0.01466  -0.00006   0.00000   0.00774   0.01824
                          31        32        33        34        35
  31        4PY         0.05280
  32        4PZ         0.00000   0.14300
  33 5   H  1S          0.01835   0.00001   0.08095
  34        2S          0.04294   0.00001   0.07768   0.15175
  35        3S          0.01260  -0.00000   0.01410   0.04305   0.02240
  36 6   H  1S         -0.00003   0.00001  -0.00001  -0.00075  -0.00226
  37        2S         -0.00017   0.00000  -0.00075  -0.00630  -0.00922
  38        3S         -0.00014  -0.00000  -0.00227  -0.00924  -0.00796
                          36        37        38
  36 6   H  1S          0.08033
  37        2S          0.07750   0.15218
  38        3S          0.01415   0.04337   0.02261
     Gross orbital populations:
                           1
   1 1   C  1S          1.10436
   2        2S          0.88585
   3        2PX         0.22681
   4        2PY         0.23634
   5        2PZ         0.16606
   6        3S          0.79314
   7        3PX         0.56029
   8        3PY         0.55635
   9        3PZ         0.42263
  10        4S          0.50298
  11        4PX         0.26109
  12        4PY         0.21204
  13        4PZ         0.41256
  14 2   H  1S          0.27452
  15        2S          0.46725
  16        3S          0.08613
  17 3   H  1S          0.27719
  18        2S          0.46554
  19        3S          0.08361
  20 4   C  1S          1.10440
  21        2S          0.88584
  22        2PX         0.22278
  23        2PY         0.23601
  24        2PZ         0.16571
  25        3S          0.79242
  26        3PX         0.55377
  27        3PY         0.55628
  28        3PZ         0.42043
  29        4S          0.50762
  30        4PX         0.27144
  31        4PY         0.21508
  32        4PZ         0.41244
  33 5   H  1S          0.27293
  34        2S          0.46926
  35        3S          0.08818
  36 6   H  1S          0.27099
  37        2S          0.47014
  38        3S          0.08956
          Condensed to atoms (all electrons):
               1          2          3          4          5          6
     1  C    5.036103   0.387009   0.387592   0.602671  -0.036716  -0.036173
     2  H    0.387009   0.518759  -0.034873  -0.039288   0.006005  -0.009707
     3  H    0.387592  -0.034873   0.516064  -0.038791  -0.009563   0.005910
     4  C    0.602671  -0.039288  -0.038791   5.050683   0.384651   0.384289
     5  H   -0.036716   0.006005  -0.009563   0.384651   0.524757  -0.038768
     6  H   -0.036173  -0.009707   0.005910   0.384289  -0.038768   0.525138
 Mulliken charges:
               1
     1  C   -0.340486
     2  H    0.172095
     3  H    0.173661
     4  C   -0.344214
     5  H    0.169633
     6  H    0.169312
 Sum of Mulliken charges =  -0.00000
 Mulliken charges with hydrogens summed into heavy atoms:
               1
     1  C    0.005269
     4  C   -0.005269
 Electronic spatial extent (au):  <R**2>=             83.6840
 Charge=             -0.0000 electrons
 Dipole moment (field-independent basis, Debye):
    X=             -0.0015    Y=              0.0090    Z=             -0.0898  Tot=              0.0903
 Quadrupole moment (field-independent basis, Debye-Ang):
   XX=            -12.1984   YY=            -12.2144   ZZ=            -15.6667
   XY=              0.0129   XZ=              0.0019   YZ=             -0.0007
 Traceless Quadrupole moment (field-independent basis, Debye-Ang):
   XX=              1.1614   YY=              1.1454   ZZ=             -2.3069
   XY=              0.0129   XZ=              0.0019   YZ=             -0.0007
 Octapole moment (field-independent basis, Debye-Ang**2):
  XXX=             -0.2275  YYY=             -0.0587  ZZZ=             -0.0617  XYY=              0.0760
  XXY=             -0.0397  XXZ=             -0.1219  XZZ=             -0.0728  YZZ=             -0.0657
  YYZ=             -0.1602  XYZ=             -0.0329
 Hexadecapole moment (field-independent basis, Debye-Ang**3):
 XXXX=            -34.2371 YYYY=            -55.1659 ZZZZ=            -17.8042 XXXY=             -7.2414
 XXXZ=              0.0105 YYYX=            -10.7129 YYYZ=              0.0129 ZZZX=              0.0093
 ZZZY=              0.0215 XXYY=            -16.1862 XXZZ=             -9.9167 YYZZ=            -13.6319
 XXYZ=              0.0064 YYXZ=              0.0004 ZZXY=             -3.2024
 N-N= 3.307699893632D+01 E-N=-2.478692042613D+02  KE= 7.815689969807D+01
 Orbital energies and kinetic energies (alpha):
                                 1                 2
   1         O               -10.290048         15.978266
   2         O               -10.287769         15.979992
   3         O                -0.863664          1.537747
   4         O                -0.672524          1.272629
   5         O                -0.559311          0.941839
   6         O                -0.509405          1.284606
   7         O                -0.437260          1.045147
   8         O                -0.356696          1.038223
   9         V                 0.079774          1.181951
  10         V                 0.141157          0.587939
  11         V                 0.164972          0.593500
  12         V                 0.170467          0.678100
  13         V                 0.240945          0.581599
  14         V                 0.376688          0.863598
  15         V                 0.393643          0.931776
  16         V                 0.395931          0.770755
  17         V                 0.464884          1.189688
  18         V                 0.488169          1.428168
  19         V                 0.493916          1.301884
  20         V                 0.591077          1.652243
  21         V                 0.665936          1.573604
  22         V                 0.691603          2.147791
  23         V                 0.773216          2.424146
  24         V                 0.775844          2.321489
  25         V                 0.843462          1.085770
  26         V                 0.951769          3.421816
  27         V                 2.231784          3.923367
  28         V                 2.289969          4.032125
  29         V                 2.332689          4.303248
  30         V                 2.407496          4.523071
  31         V                 2.671202          6.300879
  32         V                 2.817983          6.306552
  33         V                 2.878522          6.135756
  34         V                 2.952312          6.225452
  35         V                 3.139716          6.822327
  36         V                 3.320492          6.402120
  37         V                23.353057         60.074808
  38         V                23.705808         60.203540
 Total kinetic energy from orbitals= 7.815689969807D+01
 Calling FoFJK, ICntrl=      2127 FMM=F ISym2X=0 I1Cent= 0 IOpClX= 0 NMat=1 NMatS=1 NMatT=0.
 -------------------------------------------------------------------
 Center     Atomic                   Forces (Hartrees/Bohr)
 Number     Number              X              Y              Z
 -------------------------------------------------------------------
      1        6           0.010439794    0.006674378   -0.003723002
      2        1          -0.007033086    0.006049065    0.001860753
      3        1           0.003373868   -0.002442489    0.001738650
      4        6           0.005297289    0.004602814   -0.003772798
      5        1           0.003716805   -0.011783617    0.001921699
      6        1          -0.015794671   -0.003100151    0.001974699
 -------------------------------------------------------------------
 Cartesian Forces:  Max     0.015794671 RMS     0.006498339

 GradGradGradGradGradGradGradGradGradGradGradGradGradGradGradGradGradGrad
 Berny optimization.
 Search for a local minimum.
 Step number   1 out of a maximum of    2
 All quantities printed in internal units (Hartrees-Bohrs-Radians)
 Second derivative matrix not updated -- first step.
 The second derivative matrix:
                          X1        Y1        Z1        X2        Y2
           X1           0.75478
           Y1           0.10158   0.86080
           Z1           0.00542   0.00837   0.17244
           X2          -0.16183   0.09505   0.00194   0.13948
           Y2           0.10173  -0.28699  -0.00692  -0.11442   0.27604
           Z2           0.00307  -0.00870  -0.05546  -0.00276   0.00721
           X3          -0.35072  -0.00447  -0.00753  -0.00065  -0.00036
           Y3          -0.01112  -0.10969  -0.00185   0.03265   0.01849
           Z3          -0.00964  -0.00178  -0.05656   0.00138   0.00049
           X4          -0.26685  -0.17794  -0.00075   0.02300   0.01304
           Y4          -0.17813  -0.47223  -0.00121  -0.01328  -0.00753
           Z4           0.00114   0.00208  -0.09408  -0.00056  -0.00077
           X5           0.02335  -0.01348   0.00056  -0.00001   0.00000
           Y5           0.01206  -0.00696   0.00077   0.00000  -0.00000
           Z5          -0.00049   0.00030   0.01710   0.00023  -0.00013
           X6           0.00126  -0.00073   0.00035  -0.00001   0.00000
           Y6          -0.02611   0.01508   0.00084   0.00000  -0.00000
           Z6           0.00050  -0.00028   0.01656  -0.00023   0.00013
                          Z2        X3        Y3        Z3        X4
           Z2           0.02884
           X3          -0.00030   0.35087
           Y3           0.00147   0.00512   0.07581
           Z3           0.01055   0.00823   0.00129   0.02958
           X4           0.00044   0.00051  -0.02665  -0.00043   0.71967
           Y4          -0.00024  -0.00029   0.01539   0.00026   0.11526
           Z4           0.01603  -0.00041  -0.00092   0.01647  -0.00457
           X5          -0.00023  -0.00001   0.00000   0.00023  -0.15022
           Y5           0.00014   0.00000  -0.00000  -0.00014   0.09480
           Z5           0.00924   0.00024  -0.00015  -0.00938  -0.00290
           X6          -0.00022  -0.00001   0.00000   0.00023  -0.32611
           Y6           0.00012   0.00000  -0.00000  -0.00012  -0.01851
           Z6          -0.00920  -0.00024   0.00015   0.00934   0.00820
                          Y4        Z4        X5        Y5        Z5
           Y4           0.85815
           Z4          -0.00891   0.17426
           X5           0.08705  -0.00192   0.12846
           Y5          -0.28854   0.00678  -0.10605   0.27875
           Z5           0.00839  -0.05662   0.00261  -0.00719   0.02938
           X6          -0.01060   0.00632  -0.00159  -0.00081   0.00030
           Y6          -0.10523   0.00173   0.03248   0.01675  -0.00122
           Z6           0.00170  -0.05606  -0.00125  -0.00036   0.01028
                          X6        Y6        Z6
           X6           0.32644
           Y6           0.01214   0.07340
           Z6          -0.00698  -0.00135   0.02907
 ITU=  0
     Eigenvalues ---    0.03720   0.04390   0.09278   0.10030   0.13523
     Eigenvalues ---    0.17532   0.26364   0.29042   0.53090   0.70538
     Eigenvalues ---    0.97574   1.56200
 Angle between quadratic step and forces=  31.59 degrees.
 Linear search not attempted -- first point.
 B after Tr=     0.004259    0.004163   -0.009193
         Rot=    1.000000   -0.000036    0.000020   -0.000104 Ang=  -0.01 deg.
 Variable       Old X    -DE/DX   Delta X   Delta X   Delta X     New X
                                 (Linear)    (Quad)   (Total)
    X1       -0.63338   0.01044   0.00000   0.01598   0.02047  -0.61291
    Y1       -1.09654   0.00667   0.00000   0.01682   0.02086  -1.07568
    Z1        0.01125  -0.00372   0.00000  -0.01954  -0.02884  -0.01760
    X2        0.38883  -0.00703   0.00000  -0.02343  -0.01857   0.37026
    Y2       -2.89732   0.00605   0.00000   0.02281   0.02705  -2.87027
    Z2       -0.03933   0.00186   0.00000   0.02400   0.01461  -0.02472
    X3       -2.68719   0.00337   0.00000   0.02487   0.02937  -2.65782
    Y3       -1.13497  -0.00244   0.00000  -0.00375  -0.00014  -1.13511
    Z3       -0.04149   0.00174   0.00000   0.02337   0.01399  -0.02750
    X4        0.63156   0.00530   0.00000   0.00164   0.00567   0.63723
    Y4        1.09418   0.00460   0.00000   0.00042   0.00472   1.09890
    Z4        0.00914  -0.00377   0.00000  -0.01850  -0.02759  -0.01845
    X5       -0.32506   0.00372   0.00000   0.00062   0.00428  -0.32078
    Y5        2.94486  -0.01178   0.00000  -0.04015  -0.03605   2.90880
    Z5       -0.04276   0.00192   0.00000   0.02325   0.01426  -0.02850
    X6        2.72406  -0.01579   0.00000  -0.04523  -0.04121   2.68284
    Y6        1.19451  -0.00310   0.00000  -0.02116  -0.01644   1.17807
    Z6       -0.04028   0.00197   0.00000   0.02258   0.01357  -0.02670
         Item               Value     Threshold  Converged?
 Maximum Force            0.015795     0.000450     NO 
 RMS     Force            0.006498     0.000300     NO 
 Maximum Displacement     0.041213     0.001800     NO 
 RMS     Displacement     0.021762     0.001200     NO 
 Predicted change in Energy=-1.129087D-03
 GradGradGradGradGradGradGradGradGradGradGradGradGradGradGradGradGradGrad

 Unable to Open any file for archive entry.
 1\1\GINC-BHD0008\Force\RwB97XD\6-311G\C2H4\BWEIGHT\11-Jan-2023\0\\# WB
 97XD/6-311G SCF=XQC FORCE nosym pop=full guess=read\\MD Step 1000\\0,1
 \C,-0.33516947,-0.58026383,0.00595075\H,0.20576048,-1.53319661,-0.0208
 1317\H,-1.42199716,-0.60059913,-0.0219537\C,0.33420884,0.5790167,0.004
 835\H,-0.17201584,1.5583509,-0.02262804\H,1.44150844,0.63210825,-0.021
 31325\\Version=ES64L-G16RevC.01\HF=-78.5563457\RMSD=5.918e-09\RMSF=6.4
 98e-03\Dipole=-0.0006096,0.0035386,-0.0353325\Quadrupole=0.8635004,0.8
 516046,-1.715105,0.009624,0.0013794,-0.0005556\PG=C01 [X(C2H4)]\\@
 The archive entry for this job was punched.


 LORD, MAN... WERE YE BUT WHYLES WHERE I AM, 
 THE GENTILES YE WAD NE'ER ENVY 'EM.        
 IT'S TRUE, THEY NEEDNA STARVE OR SWEAT,     
 THRO' WINTER'S CAULD OR SIMMER'S HEAT...  
 THEY'VE NAE SAIR WARK TO CRAZE THEIR BANES, 
 AND FILL AULD AGE WITH GRIPS AN' GRANES...  
                                             
 BUT HUMAN BODIES ARE SIC FOOLS              
 FOR A' THEIR COLLEGES AND SCHOOLS,           
 THAT WHEN NAE REAL ILLS PERPLEX THEM,       
 THEY MAK ENOW THEMSELVES TO VEX THEM,       
 AN' AYE THE LESS THEY HAE TO STURT THEM,    
 IN LIKE PROPORTION LESS WILL HURT THEM....  
                                             
                (ROBERT BURNS 'THE TWA DOGS')
 Job cpu time:       0 days  0 hours  0 minutes 51.7 seconds.
 Elapsed time:       0 days  0 hours  0 minutes 18.3 seconds.
 File lengths (MBytes):  RWF=    272 Int=      0 D2E=      0 Chk=     32 Scr=     32
 Normal termination of Gaussian 16 at Wed Jan 11 16:33:19 2023.
