 Entering Gaussian System, Link 0=g16
 Initial command:
 /software/gaussian/g16-c01/sse4/g16/l1.exe "/gpfs/fs2/scratch/bweight/software/many_molecule_many_mode_NAMD/src/NAMD/TEST_ETHYLENE/G16/GS_NEW/Gau-20506.inp" -scrdir="/gpfs/fs2/scratch/bweight/software/many_molecule_many_mode_NAMD/src/NAMD/TEST_ETHYLENE/G16/GS_NEW/"
 Entering Link 1 = /software/gaussian/g16-c01/sse4/g16/l1.exe PID=     20507.
  
 Copyright (c) 1988-2019, Gaussian, Inc.  All Rights Reserved.
  
 This is part of the Gaussian(R) 16 program.  It is based on
 the Gaussian(R) 09 system (copyright 2009, Gaussian, Inc.),
 the Gaussian(R) 03 system (copyright 2003, Gaussian, Inc.),
 the Gaussian(R) 98 system (copyright 1998, Gaussian, Inc.),
 the Gaussian(R) 94 system (copyright 1995, Gaussian, Inc.),
 the Gaussian 92(TM) system (copyright 1992, Gaussian, Inc.),
 the Gaussian 90(TM) system (copyright 1990, Gaussian, Inc.),
 the Gaussian 88(TM) system (copyright 1988, Gaussian, Inc.),
 the Gaussian 86(TM) system (copyright 1986, Carnegie Mellon
 University), and the Gaussian 82(TM) system (copyright 1983,
 Carnegie Mellon University). Gaussian is a federally registered
 trademark of Gaussian, Inc.
  
 This software contains proprietary and confidential information,
 including trade secrets, belonging to Gaussian, Inc.
  
 This software is provided under written license and may be
 used, copied, transmitted, or stored only in accord with that
 written license.
  
 The following legend is applicable only to US Government
 contracts under FAR:
  
                    RESTRICTED RIGHTS LEGEND
  
 Use, reproduction and disclosure by the US Government is
 subject to restrictions as set forth in subparagraphs (a)
 and (c) of the Commercial Computer Software - Restricted
 Rights clause in FAR 52.227-19.
  
 Gaussian, Inc.
 340 Quinnipiac St., Bldg. 40, Wallingford CT 06492
  
  
 ---------------------------------------------------------------
 Warning -- This program may not be used in any manner that
 competes with the business of Gaussian, Inc. or will provide
 assistance to any competitor of Gaussian, Inc.  The licensee
 of this program is prohibited from giving any competitor of
 Gaussian, Inc. access to this program.  By using this program,
 the user acknowledges that Gaussian, Inc. is engaged in the
 business of creating and licensing software in the field of
 computational chemistry and represents and warrants to the
 licensee that it is not a competitor of Gaussian, Inc. and that
 it will not use this program in any manner prohibited above.
 ---------------------------------------------------------------
  

 Cite this work as:
 Gaussian 16, Revision C.01,
 M. J. Frisch, G. W. Trucks, H. B. Schlegel, G. E. Scuseria, 
 M. A. Robb, J. R. Cheeseman, G. Scalmani, V. Barone, 
 G. A. Petersson, H. Nakatsuji, X. Li, M. Caricato, A. V. Marenich, 
 J. Bloino, B. G. Janesko, R. Gomperts, B. Mennucci, H. P. Hratchian, 
 J. V. Ortiz, A. F. Izmaylov, J. L. Sonnenberg, D. Williams-Young, 
 F. Ding, F. Lipparini, F. Egidi, J. Goings, B. Peng, A. Petrone, 
 T. Henderson, D. Ranasinghe, V. G. Zakrzewski, J. Gao, N. Rega, 
 G. Zheng, W. Liang, M. Hada, M. Ehara, K. Toyota, R. Fukuda, 
 J. Hasegawa, M. Ishida, T. Nakajima, Y. Honda, O. Kitao, H. Nakai, 
 T. Vreven, K. Throssell, J. A. Montgomery, Jr., J. E. Peralta, 
 F. Ogliaro, M. J. Bearpark, J. J. Heyd, E. N. Brothers, K. N. Kudin, 
 V. N. Staroverov, T. A. Keith, R. Kobayashi, J. Normand, 
 K. Raghavachari, A. P. Rendell, J. C. Burant, S. S. Iyengar, 
 J. Tomasi, M. Cossi, J. M. Millam, M. Klene, C. Adamo, R. Cammi, 
 J. W. Ochterski, R. L. Martin, K. Morokuma, O. Farkas, 
 J. B. Foresman, and D. J. Fox, Gaussian, Inc., Wallingford CT, 2019.
 
 ******************************************
 Gaussian 16:  ES64L-G16RevC.01  3-Jul-2019
                 1-Jan-2023 
 ******************************************
 %oldchk=../GS_OLD/geometry.chk
 %chk=geometry.chk
 %nprocshared=1
 Will use up to    1 processors via shared memory.
 %mem=5GB
 Copying data from "../GS_OLD/geometry.chk" to current chk file "geometry.chk"
 IOpt=  2 FromEx=T IUOpen= 4 IOptOp= 5 NList=   0 IFRang= 0 IUIn= 4 IUOut= 2.
 -----------------------------------------
 # BLYP/3-21G SCF=XQC FORCE nosym pop=full
 -----------------------------------------
 1/10=7,30=1,38=1/1,3;
 2/12=2,15=1,17=6,18=5,40=1/2;
 3/5=5,11=2,25=1,30=1,71=1,74=402/1,2,3;
 4//1;
 5/5=2,8=3,13=1,38=5/2,8;
 6/7=3,28=1/1;
 7/29=1,30=1/1,2,3,16;
 1/10=7,30=1/3;
 99//99;
 -----------
 MD Step 157
 -----------
 Symbolic Z-matrix:
 Charge =  0 Multiplicity = 1
 C                    -0.2769   -0.62549   0.14375 
 H                    -0.25884  -1.55782  -0.58854 
 H                    -1.25224  -0.93432   0.70195 
 C                     0.38745   0.75727  -0.22141 
 H                    -0.0782    1.65682  -0.48706 
 H                     0.31975  -0.67878   1.36213 
 

 GradGradGradGradGradGradGradGradGradGradGradGradGradGradGradGradGradGrad
 Berny optimization.
 Initialization pass.
 Trust Radius=3.00D-01 FncErr=1.00D-07 GrdErr=1.00D-07 EigMax=2.50D+02 EigMin=1.00D-04
 Number of steps in this run=      2 maximum allowed number of steps=      2.
 GradGradGradGradGradGradGradGradGradGradGradGradGradGradGradGradGradGrad

                          Input orientation:                          
 ---------------------------------------------------------------------
 Center     Atomic      Atomic             Coordinates (Angstroms)
 Number     Number       Type             X           Y           Z
 ---------------------------------------------------------------------
      1          6           0       -0.276896   -0.625494    0.143753
      2          1           0       -0.258840   -1.557824   -0.588535
      3          1           0       -1.252242   -0.934321    0.701954
      4          6           0        0.387453    0.757266   -0.221412
      5          1           0       -0.078199    1.656816   -0.487065
      6          1           0        0.319755   -0.678775    1.362125
 ---------------------------------------------------------------------
                    Distance matrix (angstroms):
                    1          2          3          4          5
     1  C    0.000000
     2  H    1.185669   0.000000
     3  H    1.165445   1.743837   0.000000
     4  C    1.576937   2.431484   2.530350   0.000000
     5  H    2.376204   3.221310   3.083201   1.047183   0.000000
     6  H    1.357668   2.216433   1.724037   2.138782   3.005471
                    6
     6  H    0.000000
 Symmetry turned off by external request.
 Stoichiometry    C2H4
 Framework group  C1[X(C2H4)]
 Deg. of freedom    12
 Full point group                 C1      NOp   1
 Rotational constants (GHZ):         122.1832545          21.1508797          20.3997984
 Standard basis: 3-21G (6D, 7F)
    26 basis functions,    42 primitive gaussians,    26 cartesian basis functions
     8 alpha electrons        8 beta electrons
       nuclear repulsion energy        29.5958848914 Hartrees.
 NAtoms=    6 NActive=    6 NUniq=    6 SFac= 1.00D+00 NAtFMM=   60 NAOKFM=F Big=F
 Integral buffers will be    131072 words long.
 Raffenetti 2 integral format.
 Two-electron integral symmetry is turned off.
 One-electron integrals computed using PRISM.
 NBasis=    26 RedAO= T EigKep=  3.29D-02  NBF=    26
 NBsUse=    26 1.00D-06 EigRej= -1.00D+00 NBFU=    26
 ExpMin= 1.83D-01 ExpMax= 1.72D+02 ExpMxC= 1.72D+02 IAcc=3 IRadAn=         5 AccDes= 0.00D+00
 Harris functional with IExCor=  402 and IRadAn=       5 diagonalized for initial guess.
 HarFok:  IExCor=  402 AccDes= 0.00D+00 IRadAn=         5 IDoV= 1 UseB2=F ITyADJ=14
 ICtDFT=  3500011 ScaDFX=  1.000000  1.000000  1.000000  1.000000
 FoFCou: FMM=F IPFlag=           0 FMFlag=      100000 FMFlg1=           0
         NFxFlg=           0 DoJE=T BraDBF=F KetDBF=T FulRan=T
         wScrn=  0.000000 ICntrl=       500 IOpCl=  0 I1Cent=   200000004 NGrid=           0
         NMat0=    1 NMatS0=      1 NMatT0=    0 NMatD0=    1 NMtDS0=    0 NMtDT0=    0
 Symmetry not used in FoFCou.
 Keep J ints in memory in canonical form, NReq=925759.
 Requested convergence on RMS density matrix=1.00D-08 within  32 cycles.
 Requested convergence on MAX density matrix=1.00D-06.
 Requested convergence on             energy=1.00D-06.
 No special actions if energy rises.
 Integral accuracy reduced to 1.0D-05 until final iterations.
 EnCoef did     2 forward-backward iterations
 EnCoef did     4 forward-backward iterations
 EnCoef did     4 forward-backward iterations
 EnCoef did     4 forward-backward iterations
 EnCoef did     4 forward-backward iterations
 Failed to achieve initial convergence to 1.0D-08 in 10 cycles.
 Switch to full accuracy anyway.
 SCF Done:  E(RB-LYP) =  -77.8992730419     A.U. after   22 cycles
            NFock= 22  Conv=0.17D-08     -V/T= 2.0133
 QCSCF skips out because SCF is already converged.

 **********************************************************************

            Population analysis using the SCF Density.

 **********************************************************************

 Alpha  occ. eigenvalues --   -9.91099  -9.90439  -0.65297  -0.53399  -0.38986
 Alpha  occ. eigenvalues --   -0.36317  -0.27629  -0.13371
 Alpha virt. eigenvalues --   -0.13138   0.02728   0.08355   0.12462   0.14099
 Alpha virt. eigenvalues --    0.24209   0.64266   0.68622   0.69611   0.74135
 Alpha virt. eigenvalues --    0.80742   0.86992   0.88734   0.93544   0.94329
 Alpha virt. eigenvalues --    0.95772   1.34883   1.62688
     Molecular Orbital Coefficients:
                           1         2         3         4         5
                           O         O         O         O         O
     Eigenvalues --    -9.91099  -9.90439  -0.65297  -0.53399  -0.38986
   1 1   C  1S          0.98375   0.06178  -0.17462   0.11193   0.00895
   2        2S          0.10949   0.00516   0.17635  -0.10997  -0.00633
   3        2PX         0.00014   0.00002   0.01627   0.05208  -0.19912
   4        2PY        -0.00030  -0.00080   0.04667   0.13035  -0.26545
   5        2PZ         0.00106   0.00036  -0.00371  -0.03418  -0.05937
   6        3S         -0.07364   0.00875   0.46719  -0.38586  -0.05161
   7        3PX        -0.00111   0.00167   0.00289   0.03383  -0.15302
   8        3PY        -0.00251   0.01010   0.00635   0.05747  -0.21271
   9        3PZ        -0.00300  -0.00341   0.02290  -0.02875  -0.05450
  10 2   H  1S         -0.00057  -0.00083   0.08236  -0.10964   0.14398
  11        2S          0.01171   0.00284   0.02100  -0.06011   0.12276
  12 3   H  1S         -0.00014  -0.00050   0.08101  -0.11069   0.10733
  13        2S          0.01281   0.00104   0.01014  -0.04654   0.09635
  14 4   C  1S         -0.06205   0.98311  -0.14012  -0.14804   0.01712
  15        2S         -0.00858   0.10414   0.15264   0.15986  -0.02106
  16        2PX         0.00051  -0.00409  -0.09194  -0.08974  -0.01406
  17        2PY         0.00028   0.00071  -0.04381   0.13223   0.29113
  18        2PZ         0.00012   0.00024   0.01813  -0.03327  -0.12115
  19        3S          0.01877  -0.05830   0.33642   0.43954  -0.03360
  20        3PX        -0.00528   0.01050  -0.05721  -0.07777  -0.01564
  21        3PY        -0.00877   0.00118  -0.00002   0.04599   0.11812
  22        3PZ         0.00221  -0.00046   0.00510  -0.00679  -0.06497
  23 5   H  1S         -0.00074  -0.00371   0.09529   0.20716   0.18007
  24        2S          0.00036   0.01780   0.00955   0.09980   0.17986
  25 6   H  1S          0.00207  -0.00115   0.06930  -0.05725  -0.07751
  26        2S          0.00932   0.00401   0.01401  -0.03311  -0.07540
                           6         7         8         9        10
                           O         O         O         V         V
     Eigenvalues --    -0.36317  -0.27629  -0.13371  -0.13138   0.02728
   1 1   C  1S          0.01457   0.01870   0.02860   0.00739   0.10447
   2        2S         -0.01881  -0.02203  -0.03037  -0.00281  -0.07505
   3        2PX        -0.12617   0.28306  -0.09093  -0.04332  -0.23466
   4        2PY         0.02896  -0.22701  -0.05527  -0.00692   0.13177
   5        2PZ         0.34112   0.08503   0.02154  -0.05285  -0.20438
   6        3S         -0.04784  -0.06528  -0.13800  -0.06431  -0.91441
   7        3PX        -0.08762   0.25713  -0.00340  -0.06426  -0.40299
   8        3PY         0.02624  -0.19170  -0.02964   0.02681   0.33848
   9        3PZ         0.27404   0.08790  -0.02879  -0.00410  -0.45270
  10 2   H  1S         -0.18216   0.09981  -0.04280   0.10271   0.07079
  11        2S         -0.17527   0.13346  -0.07650   0.22162   0.46964
  12 3   H  1S          0.15270  -0.13985   0.12849  -0.02491  -0.05372
  13        2S          0.14857  -0.17555   0.29182  -0.06195   0.04962
  14 4   C  1S          0.01728  -0.00696  -0.10666  -0.01702  -0.01347
  15        2S         -0.01943   0.00726   0.09537   0.01269  -0.01060
  16        2PX        -0.00407   0.13631   0.41620   0.01533   0.04489
  17        2PY         0.14815   0.12982  -0.05508   0.11152   0.02556
  18        2PZ         0.06088   0.00984  -0.02196   0.48751  -0.02356
  19        3S         -0.05649   0.01082   0.53076   0.11439   0.16856
  20        3PX        -0.00055   0.12168   0.44215   0.01169   0.05393
  21        3PY         0.07582   0.08507   0.00608   0.14017   0.06618
  22        3PZ         0.05645   0.02277  -0.04168   0.59162  -0.00280
  23 5   H  1S          0.06237   0.06816  -0.10654  -0.03001  -0.06336
  24        2S          0.07086   0.08736  -0.19748  -0.05874  -0.19574
  25 6   H  1S          0.14213   0.18157  -0.08981  -0.09495   0.18997
  26        2S          0.15899   0.27427  -0.15240  -0.18670   1.09273
                          11        12        13        14        15
                           V         V         V         V         V
     Eigenvalues --     0.08355   0.12462   0.14099   0.24209   0.64266
   1 1   C  1S         -0.15513   0.02799   0.00575  -0.05963   0.00136
   2        2S          0.09345  -0.00366  -0.00057   0.03944  -0.06037
   3        2PX        -0.16576   0.20614  -0.02984   0.24727   0.48769
   4        2PY         0.00842  -0.04433  -0.29921   0.24334  -0.54899
   5        2PZ        -0.14689  -0.31610  -0.15646  -0.08973   0.07128
   6        3S          1.59749  -0.41349   0.06039   0.60849   0.21211
   7        3PX        -0.36463   0.46240  -0.13231   0.92973  -0.33700
   8        3PY         0.00581  -0.12215  -0.95356   1.06238   0.72946
   9        3PZ        -0.34054  -0.83774  -0.38416  -0.30419  -0.03881
  10 2   H  1S         -0.07305  -0.09127  -0.06291  -0.00779   0.26905
  11        2S         -0.86875  -0.73394  -1.06954   0.23438  -0.04520
  12 3   H  1S         -0.09318   0.09791   0.01282  -0.00651  -0.30448
  13        2S         -0.90912   1.14529  -0.06844   0.91635   0.25029
  14 4   C  1S          0.07353   0.06255  -0.11007   0.04359  -0.01930
  15        2S         -0.05502  -0.04127   0.06989  -0.00515  -0.06462
  16        2PX         0.20612   0.02611  -0.21060  -0.00043   0.27815
  17        2PY         0.14368  -0.09508   0.09350   0.41947  -0.25654
  18        2PZ         0.00009   0.11792   0.01403  -0.09392  -0.31828
  19        3S         -0.69028  -0.75957   1.44193  -0.36837  -0.02860
  20        3PX         0.43393   0.13370  -0.59056   0.09454  -0.21284
  21        3PY         0.25419  -0.25983   0.21173   1.46038   0.62411
  22        3PZ         0.03656   0.31302   0.06386  -0.37588   0.13456
  23 5   H  1S          0.03135   0.07284  -0.06266   0.04408  -0.42449
  24        2S          0.36312   0.89364  -1.30033  -1.32224  -0.03051
  25 6   H  1S          0.05184  -0.00376   0.01922   0.00926   0.08471
  26        2S          0.14788   0.37246   0.30655  -0.18929  -0.05865
                          16        17        18        19        20
                           V         V         V         V         V
     Eigenvalues --     0.68622   0.69611   0.74135   0.80742   0.86992
   1 1   C  1S         -0.00205   0.00932   0.01242   0.00778  -0.03878
   2        2S         -0.05992  -0.08028  -0.06186  -0.03634   0.06878
   3        2PX         0.18593  -0.13087  -0.07856  -0.53318  -0.56972
   4        2PY        -0.23886  -0.42873   0.17860  -0.72317  -0.05652
   5        2PZ         0.28915   0.17972  -0.71714  -0.24693  -0.10782
   6        3S         -0.14833   0.66023   0.55549  -0.30022   0.06778
   7        3PX        -0.21421   0.49440   0.24862   0.98632   1.25166
   8        3PY         0.17858   1.20720   0.03832   1.39069   0.29641
   9        3PZ        -0.22883  -0.36841   1.17189   0.43071  -0.03675
  10 2   H  1S         -0.29090   0.04261   0.33308   0.02745  -0.61751
  11        2S          0.22360   0.23329   0.02257   0.69998   0.58165
  12 3   H  1S         -0.07868   0.20694  -0.06752   0.08427  -0.17913
  13        2S          0.01181   0.16510  -0.04780   0.56314   0.63604
  14 4   C  1S         -0.01124   0.02772  -0.01952   0.00107  -0.00849
  15        2S         -0.05751  -0.04864   0.11341   0.11351  -0.18244
  16        2PX         0.27579  -0.81921   0.07215   0.18438   0.23708
  17        2PY         0.34222  -0.28844  -0.34064   0.33182  -0.29217
  18        2PZ         0.81854   0.23307   0.44807  -0.13983  -0.06178
  19        3S          0.07759  -0.80082   0.14549  -0.89690   0.16125
  20        3PX        -0.29400   0.98686  -0.15722  -0.00255  -0.60315
  21        3PY        -0.29253   1.03061   0.67451  -0.41070   1.34311
  22        3PZ        -0.76481  -0.41909  -0.74834   0.06833  -0.22296
  23 5   H  1S         -0.19109  -0.22078  -0.12856   0.29662  -0.53877
  24        2S          0.07077  -0.02717  -0.36632   0.15114  -0.50945
  25 6   H  1S          0.06373   0.02275   0.41984   0.33629  -0.43967
  26        2S          0.17799   0.08765  -0.83213  -0.72787   0.18123
                          21        22        23        24        25
                           V         V         V         V         V
     Eigenvalues --     0.88734   0.93544   0.94329   0.95772   1.34883
   1 1   C  1S         -0.01664   0.00462   0.04067   0.02807   0.02923
   2        2S          0.07562  -0.21750  -0.14742  -0.15020  -0.64202
   3        2PX         0.47214  -0.02339   0.15987  -0.19565  -0.03317
   4        2PY        -0.14226   0.19829  -0.00445   0.23609   0.01806
   5        2PZ        -0.66350   0.24177   0.04934   0.03925  -0.04343
   6        3S         -0.37978   0.37888   0.43564  -0.10225   0.53657
   7        3PX        -1.14753  -0.02428   0.26225   0.27606  -0.09371
   8        3PY        -0.12641  -0.66644   0.31188  -0.47208  -0.55979
   9        3PZ         1.24877  -0.56047  -0.37454  -0.01236   0.26595
  10 2   H  1S         -0.65457  -0.58523  -0.07923   0.51653   0.07340
  11        2S          1.12728  -0.03781   0.19564  -0.68294  -0.37783
  12 3   H  1S          0.19340  -0.17603   1.20176   0.18703  -0.00555
  13        2S         -1.12675   0.24488  -0.91674   0.06031  -0.25439
  14 4   C  1S          0.00501  -0.01891  -0.00735  -0.02562   0.05190
  15        2S         -0.16226   0.03841   0.09503  -0.14557  -1.59091
  16        2PX        -0.27991  -0.09546   0.33905  -0.11371   0.11460
  17        2PY         0.35131  -0.05980  -0.23628   0.65166  -0.06295
  18        2PZ        -0.14401  -0.21724  -0.03823  -0.15735   0.01488
  19        3S          0.32548   0.16234  -0.13831   0.06064   2.35247
  20        3PX         0.37792   0.02972  -0.43172  -0.11357  -0.46870
  21        3PY        -1.05227  -0.00901   0.84807  -0.80348   0.08213
  22        3PZ         0.12853   0.53825  -0.03761   0.21260  -0.02817
  23 5   H  1S         -0.23172  -0.18035  -0.04595  -0.96513   0.27218
  24        2S          0.76173   0.21657  -0.50332   1.16054  -1.07170
  25 6   H  1S         -0.11677   1.04625   0.09342   0.06610   0.06482
  26        2S         -0.14021  -0.97046   0.23176  -0.21286  -0.39678
                          26
                           V
     Eigenvalues --     1.62688
   1 1   C  1S         -0.01683
   2        2S         -1.80592
   3        2PX         0.01503
   4        2PY         0.01358
   5        2PZ        -0.10424
   6        3S          3.39246
   7        3PX         0.05402
   8        3PY         0.37491
   9        3PZ         0.18898
  10 2   H  1S         -0.13968
  11        2S         -0.40350
  12 3   H  1S         -0.20213
  13        2S         -0.57541
  14 4   C  1S          0.01752
  15        2S          0.72435
  16        2PX        -0.03749
  17        2PY         0.04256
  18        2PZ        -0.03062
  19        3S         -1.81602
  20        3PX         0.50310
  21        3PY         0.51472
  22        3PZ        -0.15989
  23 5   H  1S          0.05407
  24        2S          0.25161
  25 6   H  1S         -0.38237
  26        2S         -0.23301
     Density Matrix:
                           1         2         3         4         5
   1 1   C  1S          2.03212
   2        2S          0.12663   0.11402
   3        2PX         0.00440  -0.00537   0.29387
   4        2PY        -0.00337   0.00334  -0.00496   0.29012
   5        2PZ         0.00906  -0.01069  -0.02190   0.00103   0.25753
   6        3S         -0.40599   0.24732  -0.00424   0.01256  -0.02080
   7        3PX         0.00871  -0.01254   0.23285  -0.03111  -0.00036
   8        3PY        -0.00496   0.00110  -0.01885   0.22032   0.00531
   9        3PZ        -0.01211   0.00196   0.00530   0.00273   0.20893
  10 2   H  1S         -0.05598   0.05626   0.04418  -0.14847  -0.11936
  11        2S          0.00031   0.02703   0.07924  -0.14119  -0.11077
  12 3   H  1S         -0.04492   0.04414  -0.19271  -0.02014   0.08015
  13        2S          0.02754  -0.00017  -0.23283  -0.00630   0.07577
  14 4   C  1S          0.00965  -0.01438  -0.01569  -0.04636   0.01571
  15        2S         -0.01675   0.01276   0.02168   0.05198  -0.01741
  16        2PX         0.04106  -0.04357  -0.00424  -0.13263   0.04682
  17        2PY         0.05677  -0.05610  -0.05747  -0.16845   0.07750
  18        2PZ        -0.01480   0.01388   0.03957   0.05882   0.05879
  19        3S          0.03915  -0.00467  -0.00604   0.09706  -0.04239
  20        3PX         0.02303  -0.03611  -0.01512  -0.12147   0.04696
  21        3PY         0.00105  -0.02049  -0.01433  -0.08562   0.04927
  22        3PZ        -0.00006   0.00400   0.03156   0.03074   0.04874
  23 5   H  1S          0.01267  -0.01331  -0.00481  -0.04825   0.01330
  24        2S          0.01917  -0.01511   0.00657  -0.08234   0.02645
  25 6   H  1S         -0.02868   0.03056   0.11041  -0.03158   0.13658
  26        2S          0.01136   0.00645   0.16991  -0.06578   0.15968
                           6         7         8         9        10
   6        3S          0.80182
   7        3PX        -0.03166   0.19675
   8        3PY         0.01478  -0.03392   0.17403
   9        3PZ         0.01984   0.01224   0.00251   0.17600
  10 2   H  1S          0.16299   0.03254  -0.11811  -0.08544   0.16902
  11        2S          0.07213   0.05834  -0.11470  -0.07725   0.14902
  12 3   H  1S          0.11824  -0.13942  -0.00335   0.05009  -0.02603
  13        2S         -0.03826  -0.15090   0.01155   0.02631  -0.07455
  14 4   C  1S          0.03658  -0.01853   0.00399   0.00829   0.01419
  15        2S         -0.00090   0.02501   0.02196  -0.01543  -0.01577
  16        2PX        -0.14762   0.06566  -0.08274   0.00028  -0.00645
  17        2PY        -0.18898  -0.03923  -0.14793   0.06585   0.02427
  18        2PZ         0.05406   0.02947   0.04867   0.05231  -0.04294
  19        3S         -0.16767   0.05359   0.02924  -0.06554  -0.07326
  20        3PX        -0.12872   0.05890  -0.07567  -0.00086  -0.01024
  21        3PY        -0.06642  -0.00260  -0.07389   0.04069   0.01277
  22        3PZ         0.01951   0.02155   0.02361   0.04504  -0.02883
  23 5   H  1S         -0.07484  -0.01570  -0.06820   0.02516   0.02213
  24        2S         -0.05008  -0.01432  -0.08264   0.04054   0.03998
  25 6   H  1S          0.10409   0.08931  -0.02959   0.12990  -0.00620
  26        2S          0.03616   0.13513  -0.05929   0.15482  -0.00229
                          11        12        13        14        15
  11        2S          0.14731
  12 3   H  1S         -0.06746   0.17944
  13        2S         -0.11360   0.20209   0.29954
  14 4   C  1S          0.02864  -0.00740  -0.03997   2.04784
  15        2S         -0.02343   0.00126   0.03149   0.09387   0.13948
  16        2PX        -0.02240   0.06954   0.19762  -0.04707   0.02449
  17        2PY         0.04490   0.02090   0.00921  -0.00048   0.00241
  18        2PZ        -0.04033  -0.00550  -0.01806   0.00774  -0.00636
  19        3S         -0.10536   0.06616   0.24898  -0.45786   0.33577
  20        3PX        -0.03193   0.08400   0.21812  -0.03622   0.04673
  21        3PY         0.01847   0.01610   0.01447  -0.00602   0.00957
  22        3PZ        -0.02221  -0.01146  -0.02728   0.00771  -0.00782
  23 5   H  1S          0.03590  -0.01916  -0.05026  -0.06513   0.06522
  24        2S          0.06137  -0.03550  -0.09927   0.05225  -0.00820
  25 6   H  1S          0.00319  -0.02319  -0.08208   0.01389  -0.01417
  26        2S          0.02709  -0.07391  -0.14892   0.04422  -0.03372
                          16        17        18        19        20
  16        2PX         0.41708
  17        2PY        -0.03553   0.29200
  18        2PZ        -0.01005  -0.05791   0.04080
  19        3S          0.30590  -0.00527  -0.03891   1.19254
  20        3PX         0.42605  -0.04193  -0.01020   0.36481   0.44001
  21        3PY         0.01605   0.12482  -0.02104   0.03174   0.01527
  22        3PZ        -0.02683  -0.01284   0.02553  -0.04816  -0.02891
  23 5   H  1S         -0.13035   0.19920  -0.04035   0.11587  -0.12652
  24        2S         -0.16601   0.19574  -0.03084  -0.13573  -0.17532
  25 6   H  1S         -0.02669   0.03281   0.04993  -0.10574  -0.03203
  26        2S         -0.04791   0.08123   0.05244  -0.18854  -0.06230
                          21        22        23        24        25
  21        3PY         0.05834
  22        3PZ        -0.00408   0.01948
  23 5   H  1S          0.08135  -0.00621   0.20865
  24        2S          0.07491   0.00380   0.17064   0.18874
  25 6   H  1S          0.02773   0.04337   0.02320   0.04931   0.15065
  26        2S          0.04791   0.05357   0.05145   0.09733   0.18962
                          26
  26        2S          0.26162
    Full Mulliken population analysis:
                           1         2         3         4         5
   1 1   C  1S          2.03212
   2        2S          0.02424   0.11402
   3        2PX         0.00000   0.00000   0.29387
   4        2PY         0.00000   0.00000   0.00000   0.29012
   5        2PZ         0.00000   0.00000   0.00000   0.00000   0.25753
   6        3S         -0.07321   0.18830   0.00000   0.00000   0.00000
   7        3PX         0.00000   0.00000   0.12317   0.00000   0.00000
   8        3PY         0.00000   0.00000   0.00000   0.11654   0.00000
   9        3PZ         0.00000   0.00000   0.00000   0.00000   0.11052
  10 2   H  1S         -0.00060   0.00810   0.00015   0.02689   0.01698
  11        2S          0.00002   0.00969   0.00027   0.02526   0.01556
  12 3   H  1S         -0.00055   0.00678   0.03920   0.00130   0.00933
  13        2S          0.00200  -0.00006   0.04469   0.00038   0.00832
  14 4   C  1S          0.00000  -0.00002  -0.00003  -0.00016  -0.00001
  15        2S         -0.00002   0.00059   0.00080   0.00398   0.00035
  16        2PX        -0.00007   0.00160   0.00003   0.00851   0.00079
  17        2PY        -0.00020   0.00430   0.00369   0.01829   0.00273
  18        2PZ        -0.00001   0.00028   0.00067   0.00207   0.00092
  19        3S          0.00131  -0.00092  -0.00044   0.01464   0.00169
  20        3PX        -0.00083   0.00617  -0.00099   0.01637   0.00167
  21        3PY        -0.00008   0.00728   0.00193   0.01285   0.00365
  22        3PZ        -0.00000   0.00038   0.00112   0.00228   0.00540
  23 5   H  1S          0.00000  -0.00000  -0.00000  -0.00005  -0.00000
  24        2S          0.00009  -0.00060   0.00003  -0.00377  -0.00033
  25 6   H  1S         -0.00010   0.00239   0.00670   0.00017   0.01693
  26        2S          0.00061   0.00185   0.01540   0.00053   0.02956
                           6         7         8         9        10
   6        3S          0.80182
   7        3PX         0.00000   0.19675
   8        3PY         0.00000   0.00000   0.17403
   9        3PZ         0.00000   0.00000   0.00000   0.17600
  10 2   H  1S          0.04875   0.00024   0.04491   0.02552   0.16902
  11        2S          0.04481   0.00053   0.05371   0.02841   0.09625
  12 3   H  1S          0.03634   0.05698   0.00043   0.01172  -0.00024
  13        2S         -0.02415   0.07511  -0.00182   0.00750  -0.00933
  14 4   C  1S          0.00122  -0.00067   0.00030  -0.00016   0.00000
  15        2S         -0.00018   0.00427   0.00780   0.00145  -0.00000
  16        2PX         0.01070   0.00431   0.01115   0.00001   0.00000
  17        2PY         0.02850   0.00529   0.02220   0.00488  -0.00002
  18        2PZ         0.00215   0.00105   0.00361   0.00580   0.00000
  19        3S         -0.07027   0.01248   0.01417   0.00839  -0.00169
  20        3PX         0.02997   0.01707   0.02038  -0.00006   0.00021
  21        3PY         0.03219   0.00070   0.01045   0.00602  -0.00092
  22        3PZ         0.00250   0.00153   0.00349   0.01712   0.00033
  23 5   H  1S         -0.00200  -0.00011  -0.00566  -0.00058   0.00000
  24        2S         -0.00742  -0.00034  -0.02259  -0.00306   0.00010
  25 6   H  1S          0.02426   0.01693   0.00050   0.05028  -0.00000
  26        2S          0.01938   0.03492   0.00137   0.08171  -0.00010
                          11        12        13        14        15
  11        2S          0.14731
  12 3   H  1S         -0.00844   0.17944
  13        2S         -0.04202   0.13053   0.29954
  14 4   C  1S          0.00011  -0.00000  -0.00012   2.04784
  15        2S         -0.00081   0.00000   0.00084   0.01797   0.13948
  16        2PX         0.00025  -0.00002  -0.00435   0.00000   0.00000
  17        2PY        -0.00181  -0.00001  -0.00021   0.00000   0.00000
  18        2PZ         0.00026  -0.00000  -0.00022   0.00000   0.00000
  19        3S         -0.01427   0.00115   0.02857  -0.08256   0.25564
  20        3PX         0.00226  -0.00326  -0.03317   0.00000   0.00000
  21        3PY        -0.00468  -0.00064  -0.00227   0.00000   0.00000
  22        3PZ         0.00089  -0.00025  -0.00234   0.00000   0.00000
  23 5   H  1S          0.00009  -0.00000  -0.00019  -0.00156   0.01440
  24        2S          0.00206  -0.00014  -0.00443   0.00448  -0.00345
  25 6   H  1S          0.00015  -0.00024  -0.01066   0.00000  -0.00002
  26        2S          0.00543  -0.00960  -0.05633   0.00042  -0.00234
                          16        17        18        19        20
  16        2PX         0.41708
  17        2PY         0.00000   0.29200
  18        2PZ         0.00000   0.00000   0.04080
  19        3S          0.00000   0.00000   0.00000   1.19254
  20        3PX         0.22536   0.00000   0.00000   0.00000   0.44001
  21        3PY         0.00000   0.06603   0.00000   0.00000   0.00000
  22        3PZ         0.00000   0.00000   0.01351   0.00000   0.00000
  23 5   H  1S          0.01877   0.05540   0.00331   0.04134   0.02867
  24        2S          0.01749   0.03984   0.00185  -0.09361   0.04552
  25 6   H  1S          0.00000  -0.00009   0.00016  -0.00521   0.00015
  26        2S          0.00012  -0.00414   0.00295  -0.04013   0.00073
                          21        22        23        24        25
  21        3PY         0.05834
  22        3PZ         0.00000   0.01948
  23 5   H  1S          0.03561   0.00080   0.20865
  24        2S          0.03757  -0.00056   0.11022   0.18874
  25 6   H  1S         -0.00267   0.00460   0.00000   0.00025   0.15065
  26        2S         -0.01184   0.01460   0.00026   0.00507   0.12247
                          26
  26        2S          0.26162
     Gross orbital populations:
                           1
   1 1   C  1S          1.98472
   2        2S          0.37436
   3        2PX         0.53026
   4        2PY         0.53620
   5        2PZ         0.48158
   6        3S          1.09367
   7        3PX         0.55021
   8        3PY         0.45496
   9        3PZ         0.53143
  10 2   H  1S          0.42454
  11        2S          0.36128
  12 3   H  1S          0.44982
  13        2S          0.40581
  14 4   C  1S          1.98705
  15        2S          0.44075
  16        2PX         0.71173
  17        2PY         0.53666
  18        2PZ         0.07915
  19        3S          1.26282
  20        3PX         0.79620
  21        3PY         0.24951
  22        3PZ         0.08488
  23 5   H  1S          0.50734
  24        2S          0.31298
  25 6   H  1S          0.37759
  26        2S          0.47450
          Condensed to atoms (all electrons):
               1          2          3          4          5          6
     1  C    5.315379   0.349197   0.273508   0.342341  -0.046418   0.303389
     2  H    0.349197   0.508829  -0.060034  -0.019884   0.002243   0.005470
     3  H    0.273508  -0.060034   0.740039  -0.016293  -0.004761  -0.076832
     4  C    0.342341  -0.019884  -0.016293   5.639475   0.245850  -0.042736
     5  H   -0.046418   0.002243  -0.004761   0.245850   0.617827   0.005573
     6  H    0.303389   0.005470  -0.076832  -0.042736   0.005573   0.657224
 Mulliken charges:
               1
     1  C   -0.537396
     2  H    0.214178
     3  H    0.144373
     4  C   -0.148754
     5  H    0.179686
     6  H    0.147913
 Sum of Mulliken charges =  -0.00000
 Mulliken charges with hydrogens summed into heavy atoms:
               1
     1  C   -0.030932
     4  C    0.030932
 Electronic spatial extent (au):  <R**2>=             98.5335
 Charge=             -0.0000 electrons
 Dipole moment (field-independent basis, Debye):
    X=             -1.6740    Y=             -0.3279    Z=              0.2421  Tot=              1.7229
 Quadrupole moment (field-independent basis, Debye-Ang):
   XX=            -17.9290   YY=            -12.0449   ZZ=            -12.5076
   XY=             -0.6015   XZ=              0.7609   YZ=              0.3264
 Traceless Quadrupole moment (field-independent basis, Debye-Ang):
   XX=             -3.7685   YY=              2.1156   ZZ=              1.6529
   XY=             -0.6015   XZ=              0.7609   YZ=              0.3264
 Octapole moment (field-independent basis, Debye-Ang**2):
  XXX=             -2.2658  YYY=              1.8779  ZZZ=             -0.8876  XYY=             -1.8760
  XXY=             -1.5844  XXZ=              0.3601  XZZ=              0.2196  YZZ=              0.3384
  YYZ=             -1.9903  XYZ=              0.4161
 Hexadecapole moment (field-independent basis, Debye-Ang**3):
 XXXX=            -39.0392 YYYY=            -67.1504 ZZZZ=            -26.9184 XXXY=            -13.5083
 XXXZ=              3.8492 YYYX=            -10.1878 YYYZ=              9.7813 ZZZX=              3.4892
 ZZZY=              7.1355 XXYY=            -20.0334 XXZZ=            -10.8596 YYZZ=            -15.5340
 XXYZ=              3.2831 YYXZ=              1.5808 ZZXY=             -3.4868
 N-N= 2.959588489136D+01 E-N=-2.388831676817D+02  KE= 7.687653058670D+01
 Orbital energies and kinetic energies (alpha):
                                 1                 2
   1         O                -9.910985         15.796653
   2         O                -9.904389         15.793899
   3         O                -0.652974          1.352147
   4         O                -0.533991          1.283058
   5         O                -0.389863          1.073216
   6         O                -0.363169          0.920247
   7         O                -0.276285          0.964256
   8         O                -0.133711          1.254790
   9         V                -0.131385          1.187123
  10         V                 0.027282          1.148804
  11         V                 0.083545          1.476650
  12         V                 0.124620          1.134418
  13         V                 0.140992          1.281565
  14         V                 0.242092          1.590562
  15         V                 0.642662          2.201969
  16         V                 0.686225          2.474299
  17         V                 0.696109          2.519388
  18         V                 0.741348          2.369365
  19         V                 0.807424          2.407330
  20         V                 0.869924          2.235704
  21         V                 0.887337          2.715469
  22         V                 0.935442          2.126672
  23         V                 0.943291          2.337386
  24         V                 0.957721          2.778988
  25         V                 1.348828          3.158387
  26         V                 1.626880          3.089317
 Total kinetic energy from orbitals= 7.687653058670D+01
 Calling FoFJK, ICntrl=      2527 FMM=F ISym2X=0 I1Cent= 0 IOpClX= 0 NMat=1 NMatS=1 NMatT=0.
 -------------------------------------------------------------------
 Center     Atomic                   Forces (Hartrees/Bohr)
 Number     Number              X              Y              Z
 -------------------------------------------------------------------
      1        6          -0.007341453    0.000241784    0.070903947
      2        1           0.032364873    0.034128839    0.022927919
      3        1          -0.007860171    0.031241318   -0.027110189
      4        6           0.035305564   -0.087612908   -0.010839556
      5        1          -0.048242867    0.034861668    0.005049465
      6        1          -0.004225946   -0.012860702   -0.060931586
 -------------------------------------------------------------------
 Cartesian Forces:  Max     0.087612908 RMS     0.038076067

 GradGradGradGradGradGradGradGradGradGradGradGradGradGradGradGradGradGrad
 Berny optimization.
 Search for a local minimum.
 Step number   1 out of a maximum of    2
 All quantities printed in internal units (Hartrees-Bohrs-Radians)
 Second derivative matrix not updated -- first step.
 The second derivative matrix:
                          X1        Y1        Z1        X2        Y2
           X1           0.40924
           Y1           0.12461   0.56659
           Z1          -0.07938   0.02096   0.45503
           X2          -0.05862  -0.00613   0.00532   0.04350
           Y2          -0.00251  -0.20099  -0.09136   0.00458   0.18182
           Z2           0.00809  -0.07199  -0.14096  -0.01111   0.09636
           X3          -0.20076  -0.04693   0.08679   0.00378  -0.00043
           Y3          -0.05645  -0.09511   0.01899   0.02103   0.00994
           Z3           0.09621   0.01680  -0.11154   0.01824   0.00474
           X4          -0.11716  -0.06051   0.02661   0.00640   0.00244
           Y4          -0.08051  -0.20880   0.03383  -0.00573  -0.00437
           Z4           0.02851   0.02772  -0.06552  -0.01007  -0.01211
           X5           0.02201  -0.00969   0.00334  -0.00002   0.00001
           Y5           0.01077  -0.00462   0.00210   0.00018  -0.00006
           Z5          -0.00211   0.00135   0.00127   0.00065  -0.00023
           X6          -0.05470  -0.00135  -0.04268   0.00496  -0.00409
           Y6           0.00408  -0.05707   0.01548  -0.01393   0.01367
           Z6          -0.05132   0.00515  -0.13828  -0.00304   0.00260
                          Z2        X3        Y3        Z3        X4
           Z2           0.13445
           X3           0.00065   0.20356
           Y3          -0.01214   0.05409   0.07299
           Z3          -0.00558  -0.09262  -0.01654   0.10271
           X4          -0.00295   0.00577  -0.01895  -0.00040   0.23439
           Y4           0.00542  -0.00284   0.01169   0.00151  -0.05841
           Z4           0.01517  -0.00025   0.00979   0.00497   0.01840
           X5          -0.00001   0.00001  -0.00000   0.00002  -0.13439
           Y5           0.00009  -0.00013   0.00000  -0.00022   0.12720
           Z5           0.00031  -0.00045   0.00001  -0.00078  -0.03957
           X6           0.00533  -0.01237   0.00028  -0.02145   0.00499
           Y6          -0.01775  -0.00376   0.00049  -0.00629   0.00823
           Z6          -0.00338   0.00589  -0.00011   0.01023  -0.00209
                          Y4        Z4        X5        Y5        Z5
           Y4           0.50170
           Z4          -0.12810   0.07890
           X5           0.14760  -0.04527   0.11237
           Y5          -0.30051   0.08664  -0.13791   0.30512
           Z5           0.08728  -0.02997   0.04192  -0.08867   0.02895
           X6          -0.00011   0.00868   0.00001  -0.00012  -0.00044
           Y6           0.00029   0.01606  -0.00001   0.00008   0.00027
           Z6           0.00006  -0.00355  -0.00001   0.00006   0.00023
                          X6        Y6        Z6
           X6           0.05710
           Y6           0.00538   0.04254
           Z6           0.05056  -0.00777   0.13476
 ITU=  0
     Eigenvalues ---    0.00598   0.04129   0.06592   0.06678   0.09634
     Eigenvalues ---    0.10198   0.15280   0.24325   0.36466   0.60908
     Eigenvalues ---    0.66340   0.95567
 Quadratic step=3.759D+00 exceeds max=3.000D-01 adjusted using Lamda=-2.728D-01.
 Angle between NR and scaled steps=  57.18 degrees.
 Angle between quadratic step and forces=  31.23 degrees.
 Linear search not attempted -- first point.
 B after Tr=     0.006610   -0.019971    0.003394
         Rot=    0.999985    0.003720   -0.002012    0.003528 Ang=   0.63 deg.
 Variable       Old X    -DE/DX   Delta X   Delta X   Delta X     New X
                                 (Linear)    (Quad)   (Total)
    X1       -0.52326  -0.00734   0.00000  -0.00353  -0.00367  -0.52693
    Y1       -1.18201   0.00024   0.00000   0.02107   0.00746  -1.17455
    Z1        0.27165   0.07090   0.00000   0.07579   0.08994   0.36159
    X2       -0.48914   0.03236   0.00000   0.10634   0.08862  -0.40051
    Y2       -2.94386   0.03413   0.00000   0.09594   0.07096  -2.87290
    Z2       -1.11217   0.02293   0.00000   0.05319   0.07938  -1.03279
    X3       -2.36639  -0.00786   0.00000  -0.05432  -0.05438  -2.42077
    Y3       -1.76561   0.03124   0.00000   0.08833   0.09485  -1.67076
    Z3        1.32650  -0.02711   0.00000  -0.07613  -0.05060   1.27590
    X4        0.73218   0.03531   0.00000   0.02337   0.03757   0.76975
    Y4        1.43103  -0.08761   0.00000  -0.08425  -0.11306   1.31797
    Z4       -0.41841  -0.01084   0.00000  -0.04270  -0.05235  -0.47076
    X5       -0.14777  -0.04824   0.00000  -0.10526  -0.07996  -0.22774
    Y5        3.13093   0.03486   0.00000   0.01146  -0.01320   3.11773
    Z5       -0.92042   0.00505   0.00000   0.07060   0.05162  -0.86880
    X6        0.60425  -0.00423   0.00000   0.00464   0.01181   0.61606
    Y6       -1.28270  -0.01286   0.00000  -0.04096  -0.04701  -1.32971
    Z6        2.57404  -0.06093   0.00000  -0.12872  -0.11799   2.45606
         Item               Value     Threshold  Converged?
 Maximum Force            0.087613     0.000450     NO 
 RMS     Force            0.038076     0.000300     NO 
 Maximum Displacement     0.117986     0.001800     NO 
 RMS     Displacement     0.068434     0.001200     NO 
 Predicted change in Energy=-3.298794D-02
 GradGradGradGradGradGradGradGradGradGradGradGradGradGradGradGradGradGrad

 Unable to Open any file for archive entry.
 1\1\GINC-BHX0029\Force\RBLYP\3-21G\C2H4\BWEIGHT\01-Jan-2023\0\\# BLYP/
 3-21G SCF=XQC FORCE nosym pop=full\\MD Step 157\\0,1\C,-0.27689639,-0.
 62549364,0.14375261\H,-0.25883983,-1.55782415,-0.58853549\H,-1.2522417
 5,-0.93432072,0.70195358\C,0.38745296,0.75726598,-0.22141223\H,-0.0781
 9901,1.65681579,-0.48706486\H,0.31975458,-0.67877529,1.36212535\\Versi
 on=ES64L-G16RevC.01\HF=-77.899273\RMSD=1.676e-09\RMSF=3.808e-02\Dipole
 =-0.6585895,-0.1290207,0.0952534\Quadrupole=-2.8017998,1.5729064,1.228
 8934,-0.4472124,0.5657168,0.2426467\PG=C01 [X(C2H4)]\\@
 The archive entry for this job was punched.


 It takes a long time to grow an old friend.
                            -- John Leonard
 Job cpu time:       0 days  0 hours  0 minutes 11.6 seconds.
 Elapsed time:       0 days  0 hours  0 minutes 13.8 seconds.
 File lengths (MBytes):  RWF=    272 Int=      0 D2E=      0 Chk=     32 Scr=     32
 Normal termination of Gaussian 16 at Sun Jan  1 19:26:41 2023.
