 Entering Gaussian System, Link 0=g16
 Initial command:
 /software/gaussian/g16-c01/sse4/g16/l1.exe "/gpfs/fs2/scratch/bweight/software/many_molecule_many_mode_NAMD/src/NAMD/TEST_ETHYLENE/G16/GS_NEW/Gau-16719.inp" -scrdir="/gpfs/fs2/scratch/bweight/software/many_molecule_many_mode_NAMD/src/NAMD/TEST_ETHYLENE/G16/GS_NEW/"
 Entering Link 1 = /software/gaussian/g16-c01/sse4/g16/l1.exe PID=     16720.
  
 Copyright (c) 1988-2019, Gaussian, Inc.  All Rights Reserved.
  
 This is part of the Gaussian(R) 16 program.  It is based on
 the Gaussian(R) 09 system (copyright 2009, Gaussian, Inc.),
 the Gaussian(R) 03 system (copyright 2003, Gaussian, Inc.),
 the Gaussian(R) 98 system (copyright 1998, Gaussian, Inc.),
 the Gaussian(R) 94 system (copyright 1995, Gaussian, Inc.),
 the Gaussian 92(TM) system (copyright 1992, Gaussian, Inc.),
 the Gaussian 90(TM) system (copyright 1990, Gaussian, Inc.),
 the Gaussian 88(TM) system (copyright 1988, Gaussian, Inc.),
 the Gaussian 86(TM) system (copyright 1986, Carnegie Mellon
 University), and the Gaussian 82(TM) system (copyright 1983,
 Carnegie Mellon University). Gaussian is a federally registered
 trademark of Gaussian, Inc.
  
 This software contains proprietary and confidential information,
 including trade secrets, belonging to Gaussian, Inc.
  
 This software is provided under written license and may be
 used, copied, transmitted, or stored only in accord with that
 written license.
  
 The following legend is applicable only to US Government
 contracts under FAR:
  
                    RESTRICTED RIGHTS LEGEND
  
 Use, reproduction and disclosure by the US Government is
 subject to restrictions as set forth in subparagraphs (a)
 and (c) of the Commercial Computer Software - Restricted
 Rights clause in FAR 52.227-19.
  
 Gaussian, Inc.
 340 Quinnipiac St., Bldg. 40, Wallingford CT 06492
  
  
 ---------------------------------------------------------------
 Warning -- This program may not be used in any manner that
 competes with the business of Gaussian, Inc. or will provide
 assistance to any competitor of Gaussian, Inc.  The licensee
 of this program is prohibited from giving any competitor of
 Gaussian, Inc. access to this program.  By using this program,
 the user acknowledges that Gaussian, Inc. is engaged in the
 business of creating and licensing software in the field of
 computational chemistry and represents and warrants to the
 licensee that it is not a competitor of Gaussian, Inc. and that
 it will not use this program in any manner prohibited above.
 ---------------------------------------------------------------
  

 Cite this work as:
 Gaussian 16, Revision C.01,
 M. J. Frisch, G. W. Trucks, H. B. Schlegel, G. E. Scuseria, 
 M. A. Robb, J. R. Cheeseman, G. Scalmani, V. Barone, 
 G. A. Petersson, H. Nakatsuji, X. Li, M. Caricato, A. V. Marenich, 
 J. Bloino, B. G. Janesko, R. Gomperts, B. Mennucci, H. P. Hratchian, 
 J. V. Ortiz, A. F. Izmaylov, J. L. Sonnenberg, D. Williams-Young, 
 F. Ding, F. Lipparini, F. Egidi, J. Goings, B. Peng, A. Petrone, 
 T. Henderson, D. Ranasinghe, V. G. Zakrzewski, J. Gao, N. Rega, 
 G. Zheng, W. Liang, M. Hada, M. Ehara, K. Toyota, R. Fukuda, 
 J. Hasegawa, M. Ishida, T. Nakajima, Y. Honda, O. Kitao, H. Nakai, 
 T. Vreven, K. Throssell, J. A. Montgomery, Jr., J. E. Peralta, 
 F. Ogliaro, M. J. Bearpark, J. J. Heyd, E. N. Brothers, K. N. Kudin, 
 V. N. Staroverov, T. A. Keith, R. Kobayashi, J. Normand, 
 K. Raghavachari, A. P. Rendell, J. C. Burant, S. S. Iyengar, 
 J. Tomasi, M. Cossi, J. M. Millam, M. Klene, C. Adamo, R. Cammi, 
 J. W. Ochterski, R. L. Martin, K. Morokuma, O. Farkas, 
 J. B. Foresman, and D. J. Fox, Gaussian, Inc., Wallingford CT, 2019.
 
 ******************************************
 Gaussian 16:  ES64L-G16RevC.01  3-Jul-2019
                 5-Jan-2023 
 ******************************************
 %oldchk=../GS_OLD/geometry.chk
 %chk=geometry.chk
 %nprocshared=1
 Will use up to    1 processors via shared memory.
 %mem=5GB
 Copying data from "../GS_OLD/geometry.chk" to current chk file "geometry.chk"
 IOpt=  2 FromEx=T IUOpen= 4 IOptOp= 5 NList=   0 IFRang= 0 IUIn= 4 IUOut= 2.
 ----------------------------------------------
 # WB97XD/6-311+G* SCF=XQC FORCE nosym pop=full
 ----------------------------------------------
 1/10=7,30=1,38=1/1,3;
 2/12=2,15=1,17=6,18=5,40=1/2;
 3/5=4,6=6,7=11,11=2,25=1,30=1,71=1,74=-58/1,2,3;
 4//1;
 5/5=2,8=3,13=1,38=5/2,8;
 6/7=3,28=1/1;
 7/29=1,30=1/1,2,3,16;
 1/10=7,30=1/3;
 99//99;
 -----------
 MD Step 999
 -----------
 Symbolic Z-matrix:
 Charge =  0 Multiplicity = 1
 C                     0.9778   -0.17726   0.11155 
 H                    -8.82025  -6.35565  -1.33796 
 H                    -7.94757  -6.15417  -1.75374 
 C                     0.33233   1.09186   0.09587 
 H                     0.02453   1.81     -0.76594 
 H                     1.19275  -0.1558    1.45134 
 

 GradGradGradGradGradGradGradGradGradGradGradGradGradGradGradGradGradGrad
 Berny optimization.
 Initialization pass.
 Trust Radius=3.00D-01 FncErr=1.00D-07 GrdErr=1.00D-07 EigMax=2.50D+02 EigMin=1.00D-04
 Number of steps in this run=      2 maximum allowed number of steps=      2.
 GradGradGradGradGradGradGradGradGradGradGradGradGradGradGradGradGradGrad

                          Input orientation:                          
 ---------------------------------------------------------------------
 Center     Atomic      Atomic             Coordinates (Angstroms)
 Number     Number       Type             X           Y           Z
 ---------------------------------------------------------------------
      1          6           0        0.977798   -0.177261    0.111547
      2          1           0       -8.820252   -6.355653   -1.337964
      3          1           0       -7.947573   -6.154169   -1.753741
      4          6           0        0.332326    1.091861    0.095872
      5          1           0        0.024535    1.810001   -0.765943
      6          1           0        1.192753   -0.155795    1.451344
 ---------------------------------------------------------------------
                    Distance matrix (angstroms):
                    1          2          3          4          5
     1  C    0.000000
     2  H   11.673705   0.000000
     3  H   10.902522   0.987439   0.000000
     4  C    1.423921  11.886590  11.157183   0.000000
     5  H    2.372322  12.051364  11.311863   1.163265   0.000000
     6  H    1.357101  12.102841  11.392920   2.033294   3.185193
                    6
     6  H    0.000000
 Symmetry turned off by external request.
 Stoichiometry    C2H4
 Framework group  C1[X(C2H4)]
 Deg. of freedom    12
 Full point group                 C1      NOp   1
 Rotational constants (GHZ):          29.0332378           2.0561318           1.9518044
 Standard basis: 6-311+G(d) (5D, 7F)
    56 basis functions,    92 primitive gaussians,    58 cartesian basis functions
     8 alpha electrons        8 beta electrons
       nuclear repulsion energy        23.3455710998 Hartrees.
 NAtoms=    6 NActive=    6 NUniq=    6 SFac= 1.00D+00 NAtFMM=   60 NAOKFM=F Big=F
 Integral buffers will be    131072 words long.
 Raffenetti 2 integral format.
 Two-electron integral symmetry is turned off.
 Nuclear repulsion after empirical dispersion term =       23.3453582733 Hartrees.
 One-electron integrals computed using PRISM.
 NBasis=    56 RedAO= T EigKep=  2.87D-04  NBF=    56
 NBsUse=    56 1.00D-06 EigRej= -1.00D+00 NBFU=    56
 ExpMin= 4.38D-02 ExpMax= 4.56D+03 ExpMxC= 6.82D+02 IAcc=3 IRadAn=         5 AccDes= 0.00D+00
 Harris functional with IExCor= 4639 and IRadAn=       5 diagonalized for initial guess.
 HarFok:  IExCor= 4639 AccDes= 0.00D+00 IRadAn=         5 IDoV= 1 UseB2=F ITyADJ=14
 ICtDFT=  3500011 ScaDFX=  1.000000  1.000000  1.000000  1.000000
 FoFCou: FMM=F IPFlag=           0 FMFlag=      100000 FMFlg1=           0
         NFxFlg=           0 DoJE=T BraDBF=F KetDBF=T FulRan=T
         wScrn=  0.000000 ICntrl=       500 IOpCl=  0 I1Cent=   200000004 NGrid=           0
         NMat0=    1 NMatS0=      1 NMatT0=    0 NMatD0=    1 NMtDS0=    0 NMtDT0=    0
 Symmetry not used in FoFCou.
 Keep R1 ints in memory in canonical form, NReq=3522979.
 Requested convergence on RMS density matrix=1.00D-08 within  32 cycles.
 Requested convergence on MAX density matrix=1.00D-06.
 Requested convergence on             energy=1.00D-06.
 No special actions if energy rises.
 SCF Done:  E(RwB97XD) =  -78.3270090033     A.U. after   15 cycles
            NFock= 15  Conv=0.21D-08     -V/T= 2.0150
 QCSCF skips out because SCF is already converged.

 **********************************************************************

            Population analysis using the SCF Density.

 **********************************************************************

 Alpha  occ. eigenvalues --  -10.37030 -10.36317  -0.84011  -0.64042  -0.47443
 Alpha  occ. eigenvalues --   -0.46417  -0.40925  -0.36185
 Alpha virt. eigenvalues --   -0.06176   0.04227   0.07658   0.08279   0.08714
 Alpha virt. eigenvalues --    0.10883   0.12332   0.13411   0.15371   0.17208
 Alpha virt. eigenvalues --    0.18565   0.21450   0.23191   0.29919   0.37532
 Alpha virt. eigenvalues --    0.47563   0.49763   0.52072   0.58203   0.61274
 Alpha virt. eigenvalues --    0.63171   0.64425   0.66675   0.72026   0.76815
 Alpha virt. eigenvalues --    0.92988   1.22756   1.25904   1.29771   1.44306
 Alpha virt. eigenvalues --    1.54631   1.65833   1.75935   1.93635   1.99114
 Alpha virt. eigenvalues --    2.18930   2.31173   2.42384   2.47236   2.56298
 Alpha virt. eigenvalues --    2.74651   2.85013   2.92695   2.97365   3.04235
 Alpha virt. eigenvalues --    3.51306  23.33560  23.90124
     Molecular Orbital Coefficients:
                           1         2         3         4         5
                           O         O         O         O         O
     Eigenvalues --   -10.37030 -10.36317  -0.84011  -0.64042  -0.47443
   1 1   C  1S          0.01893   0.56356  -0.08102  -0.06117  -0.00000
   2        2S          0.01592   0.46342  -0.12743  -0.09732  -0.00000
   3        2PX        -0.00029   0.00013  -0.02911   0.00540   0.00000
   4        2PY         0.00058   0.00008   0.06254  -0.00110   0.00000
   5        2PZ         0.00001   0.00063   0.00772   0.03959   0.00000
   6        3S         -0.00049   0.01307   0.34597   0.26973   0.00000
   7        3PX         0.00128  -0.00120  -0.03883   0.01397  -0.00000
   8        3PY        -0.00250   0.00224   0.08788  -0.00954  -0.00000
   9        3PZ        -0.00003  -0.00025   0.02136   0.07555  -0.00000
  10        4S          0.00018  -0.00806   0.19873   0.24214  -0.00000
  11        4PX        -0.00036   0.00084  -0.00940   0.00508   0.00000
  12        4PY         0.00066  -0.00171   0.02462   0.00331   0.00000
  13        4PZ        -0.00022  -0.00026   0.01086   0.03560   0.00000
  14        5S         -0.00682   0.01327   0.00342  -0.14281   0.00000
  15        5PX         0.00072  -0.00179   0.00273   0.01959  -0.00000
  16        5PY        -0.00133   0.00353  -0.00539  -0.03795  -0.00000
  17        5PZ        -0.00030  -0.00028   0.00244  -0.00205  -0.00000
  18        6D 0        0.00083  -0.00072   0.00033   0.01372   0.00000
  19        6D+1        0.00001   0.00004   0.00186   0.00042   0.00000
  20        6D-1       -0.00003  -0.00008   0.00164   0.00710   0.00000
  21        6D+2        0.00091  -0.00067  -0.00927   0.00062  -0.00000
  22        6D-2        0.00126  -0.00092  -0.01202  -0.00007   0.00000
  23 2   H  1S          0.00000   0.00000  -0.00000   0.00000   0.17242
  24        2S         -0.00000  -0.00000   0.00000   0.00000   0.30263
  25        3S          0.00000   0.00000  -0.00000  -0.00000   0.16208
  26 3   H  1S         -0.00000  -0.00000   0.00000   0.00000   0.17240
  27        2S          0.00000   0.00000  -0.00000  -0.00000   0.30256
  28        3S         -0.00000  -0.00000   0.00000   0.00000   0.16154
  29 4   C  1S          0.56341  -0.01907  -0.09099   0.05678   0.00000
  30        2S          0.46339  -0.01539  -0.14346   0.09134   0.00000
  31        2PX        -0.00037   0.00030   0.02750   0.05060  -0.00000
  32        2PY         0.00108  -0.00060  -0.04885  -0.10514   0.00000
  33        2PZ        -0.00010   0.00005  -0.00704   0.07176  -0.00000
  34        3S          0.01347  -0.00131   0.39031  -0.25578   0.00000
  35        3PX         0.00129  -0.00121   0.03362   0.08095  -0.00000
  36        3PY        -0.00266   0.00243  -0.05703  -0.16989  -0.00000
  37        3PZ        -0.00016  -0.00006  -0.01923   0.11721  -0.00000
  38        4S         -0.00701   0.00207   0.23652  -0.26042  -0.00000
  39        4PX        -0.00043   0.00074   0.01259   0.03449  -0.00000
  40        4PY         0.00087  -0.00146  -0.01878  -0.07447   0.00000
  41        4PZ         0.00043   0.00020  -0.00061   0.05787  -0.00000
  42        5S          0.00767  -0.01229  -0.00712   0.14185  -0.00000
  43        5PX         0.00133  -0.00132  -0.00486   0.02113   0.00000
  44        5PY        -0.00276   0.00253   0.00931  -0.04255   0.00000
  45        5PZ         0.00075   0.00037  -0.00378   0.00825   0.00000
  46        6D 0       -0.00071   0.00083  -0.00175  -0.01155  -0.00000
  47        6D+1        0.00010   0.00003   0.00419  -0.00759  -0.00000
  48        6D-1       -0.00025  -0.00007  -0.00811   0.01873   0.00000
  49        6D+2       -0.00076   0.00084  -0.01069   0.00413  -0.00000
  50        6D-2       -0.00105   0.00114  -0.01396   0.00154   0.00000
  51 5   H  1S          0.00013  -0.00006   0.05471  -0.15130  -0.00000
  52        2S         -0.00052  -0.00039   0.05977  -0.19439   0.00000
  53        3S          0.00208   0.00110  -0.00020  -0.03094  -0.00000
  54 6   H  1S         -0.00004   0.00010   0.04679   0.07317   0.00000
  55        2S          0.00022   0.00047   0.05507   0.10123  -0.00000
  56        3S         -0.00010   0.00008   0.00069   0.01921   0.00000
                           6         7         8         9        10
                           O         O         O         V         V
     Eigenvalues --    -0.46417  -0.40925  -0.36185  -0.06176   0.04227
   1 1   C  1S         -0.00627  -0.05922   0.00418  -0.02233   0.00568
   2        2S         -0.01046  -0.09600   0.00677  -0.03578   0.00924
   3        2PX         0.08504   0.04357   0.13988   0.05799   0.16916
   4        2PY        -0.11903  -0.10004   0.09786  -0.09693   0.08734
   5        2PZ         0.11368  -0.11098  -0.01513  -0.08499  -0.03167
   6        3S          0.01993   0.27989  -0.01865   0.09047  -0.02698
   7        3PX         0.13064   0.06497   0.22223   0.08718   0.26048
   8        3PY        -0.17717  -0.14804   0.15240  -0.14407   0.13190
   9        3PZ         0.18532  -0.17442  -0.02401  -0.13676  -0.05025
  10        4S          0.13228   0.38490  -0.04527   0.32689  -0.04964
  11        4PX         0.06765   0.04584   0.18416   0.07421   0.38141
  12        4PY        -0.08025  -0.10285   0.11742  -0.11249   0.21703
  13        4PZ         0.12796  -0.11184  -0.01956  -0.12965  -0.07574
  14        5S          0.02291  -0.04828  -0.02285   0.13565  -0.07159
  15        5PX         0.00020   0.01379   0.01664   0.01869   0.51541
  16        5PY         0.00062  -0.03043   0.00716  -0.04322   0.22846
  17        5PZ         0.00511   0.00042   0.00061  -0.12353  -0.04488
  18        6D 0        0.03042   0.00083  -0.00291  -0.01254  -0.00153
  19        6D+1        0.00618   0.00944   0.00701  -0.00960   0.00848
  20        6D-1        0.00151  -0.02161   0.00159   0.01219   0.00240
  21        6D+2        0.00827   0.00683  -0.02366  -0.00034   0.01688
  22        6D-2        0.01315   0.00635   0.01691   0.00432  -0.00937
  23 2   H  1S         -0.00000  -0.00000   0.00000  -0.00000   0.00001
  24        2S         -0.00000  -0.00000  -0.00000   0.00000   0.00001
  25        3S         -0.00000  -0.00000   0.00000  -0.00000   0.00007
  26 3   H  1S         -0.00000  -0.00000  -0.00000   0.00000  -0.00001
  27        2S         -0.00000  -0.00000   0.00000  -0.00000   0.00001
  28        3S          0.00000   0.00000  -0.00000   0.00000  -0.00008
  29 4   C  1S          0.01494   0.04051   0.00294  -0.02484  -0.00402
  30        2S          0.02317   0.06537   0.00492  -0.04047  -0.00677
  31        2PX        -0.05310  -0.00804   0.18391  -0.02171  -0.15665
  32        2PY         0.13774   0.01108   0.06672   0.10010  -0.06856
  33        2PZ         0.00393  -0.14272  -0.01893   0.16201  -0.00169
  34        3S         -0.07036  -0.19177  -0.01515   0.11163   0.02051
  35        3PX        -0.07518  -0.00869   0.28730  -0.03323  -0.24490
  36        3PY         0.20112   0.00813   0.10681   0.15712  -0.10870
  37        3PZ         0.00987  -0.21911  -0.02953   0.24957  -0.00289
  38        4S         -0.05553  -0.22391  -0.01745   0.27264   0.03661
  39        4PX        -0.05161  -0.02008   0.26437  -0.05496  -0.38475
  40        4PY         0.13764   0.02814   0.09416   0.22176  -0.14586
  41        4PZ         0.00973  -0.21547  -0.02630   0.27481  -0.01933
  42        5S         -0.00693   0.08291   0.01620   0.07842   0.12505
  43        5PX        -0.00132   0.01089   0.03211  -0.01010  -0.48609
  44        5PY         0.00563  -0.01803   0.00681   0.06650  -0.28519
  45        5PZ        -0.00374  -0.03116  -0.00475   0.16234   0.04061
  46        6D 0        0.00642   0.00322  -0.00047  -0.00974   0.00205
  47        6D+1        0.01034  -0.00612  -0.00598  -0.00842   0.00505
  48        6D-1       -0.02054   0.00707  -0.00070   0.01621   0.00810
  49        6D+2        0.00055  -0.00198   0.01445   0.00184   0.02859
  50        6D-2       -0.00072  -0.00059  -0.00911   0.00378  -0.02150
  51 5   H  1S          0.07712   0.05538   0.00120  -0.06906  -0.01439
  52        2S          0.12666   0.07577   0.00152  -0.15898  -0.04322
  53        3S          0.04932  -0.00071  -0.00272  -0.17328  -0.06691
  54 6   H  1S          0.14126  -0.03622   0.00125  -0.09957   0.01404
  55        2S          0.23748  -0.07342   0.00345  -0.20572   0.03261
  56        3S          0.12091  -0.03158  -0.00392  -0.24912   0.06871
                          11        12        13        14        15
                           V         V         V         V         V
     Eigenvalues --     0.07658   0.08279   0.08714   0.10883   0.12332
   1 1   C  1S          0.00899   0.03686   0.00000   0.01745  -0.00233
   2        2S          0.01360   0.05892   0.00000   0.02908  -0.00381
   3        2PX        -0.02316  -0.03672  -0.00003  -0.00667  -0.04871
   4        2PY         0.02935   0.00410  -0.00002   0.01819  -0.03147
   5        2PZ        -0.03471  -0.10509  -0.00002   0.05096   0.00591
   6        3S         -0.01472  -0.15198  -0.00000  -0.10893   0.01219
   7        3PX        -0.02552  -0.04959  -0.00003  -0.00151  -0.04114
   8        3PY         0.02504  -0.00913  -0.00001   0.01257  -0.02525
   9        3PZ        -0.05812  -0.16900  -0.00002   0.06385   0.00441
  10        4S         -0.41771  -0.59869  -0.00007   0.01463   0.03123
  11        4PX        -0.04993  -0.14638  -0.00014  -0.09146  -0.19111
  12        4PY         0.04917   0.08492  -0.00010   0.18852  -0.13413
  13        4PZ        -0.10501  -0.33989  -0.00007   0.17550   0.02847
  14        5S          5.55932  -4.34207   0.00077 -10.11000   0.15387
  15        5PX        -0.64647   0.69179   0.00016   1.64304   0.29303
  16        5PY         1.22984  -1.38418   0.00038  -3.26207   0.36995
  17        5PZ         0.23452   0.18328   0.00015  -0.09878  -0.01564
  18        6D 0        0.00104  -0.01090  -0.00000  -0.00175   0.00053
  19        6D+1       -0.00276   0.00205  -0.00000  -0.00333  -0.00125
  20        6D-1        0.00318  -0.01094  -0.00000   0.00959   0.00071
  21        6D+2        0.00489  -0.00222   0.00000  -0.00628   0.01165
  22        6D-2        0.00642  -0.00170  -0.00000  -0.00806  -0.00714
  23 2   H  1S         -0.00001  -0.00001   0.12427   0.00002  -0.00003
  24        2S         -0.00001  -0.00003   0.22279   0.00003  -0.00007
  25        3S         -0.00008  -0.00016   1.34002   0.00015  -0.00029
  26 3   H  1S          0.00001   0.00001  -0.12440  -0.00002   0.00003
  27        2S          0.00001   0.00002  -0.22368  -0.00005   0.00014
  28        3S          0.00008   0.00016  -1.33922  -0.00013   0.00021
  29 4   C  1S          0.03006  -0.00820   0.00000  -0.00466  -0.00098
  30        2S          0.04981  -0.01515   0.00000  -0.00806  -0.00158
  31        2PX         0.01865   0.00442   0.00000   0.00588  -0.07932
  32        2PY        -0.04429   0.01232  -0.00000  -0.00866  -0.03405
  33        2PZ         0.01995  -0.04987  -0.00001   0.05642   0.00799
  34        3S         -0.15515   0.06402  -0.00001   0.04406   0.00507
  35        3PX         0.03204   0.00743   0.00001   0.01235  -0.07756
  36        3PY        -0.07506   0.02655   0.00001  -0.02487  -0.03518
  37        3PZ         0.06219  -0.06645  -0.00001   0.07473   0.00895
  38        4S         -0.33815  -0.07523   0.00001  -0.22235   0.02208
  39        4PX         0.09137  -0.00436   0.00001  -0.04478  -0.31031
  40        4PY        -0.20389   0.06532  -0.00003   0.10655  -0.14109
  41        4PZ         0.04252  -0.18922  -0.00002   0.17366   0.03288
  42        5S         -4.00390   5.00564  -0.00070  10.78624  -0.27513
  43        5PX        -1.00400   0.92891  -0.00007   1.36606   0.78536
  44        5PY         2.17573  -1.60444   0.00019  -2.71615   0.33543
  45        5PZ        -0.47964   0.42344   0.00005  -0.90973  -0.07370
  46        6D 0       -0.01060   0.01500   0.00000   0.00240   0.00004
  47        6D+1       -0.00876  -0.00508  -0.00000   0.00058   0.00112
  48        6D-1        0.02030   0.01008   0.00000   0.00054  -0.00014
  49        6D+2        0.00157   0.00354  -0.00000   0.00952  -0.00820
  50        6D-2        0.00168   0.01346   0.00000   0.01133   0.00596
  51 5   H  1S         -0.02413  -0.02689  -0.00000  -0.01188   0.00040
  52        2S          0.15138  -0.14067  -0.00001   0.08840   0.00844
  53        3S         -0.49220  -0.10990   0.00002  -0.43039   0.00280
  54 6   H  1S          0.01021   0.04164   0.00000  -0.00582  -0.00122
  55        2S          0.04841   0.18671   0.00004  -0.09988   0.00730
  56        3S          0.06893   0.26162  -0.00006   0.22195  -0.05554
                          16        17        18        19        20
                           V         V         V         V         V
     Eigenvalues --     0.13411   0.15371   0.17208   0.18565   0.21450
   1 1   C  1S         -0.01252  -0.00191   0.00081  -0.01187   0.01839
   2        2S         -0.01893  -0.00373   0.00164  -0.01983   0.02968
   3        2PX        -0.00488   0.01743   0.11148   0.03894   0.00352
   4        2PY         0.02159  -0.03541   0.05588  -0.00386  -0.00580
   5        2PZ         0.03474  -0.04812  -0.02120   0.14460   0.07865
   6        3S          0.03094   0.02933  -0.01037   0.04639  -0.06869
   7        3PX         0.00619   0.01366   0.12213   0.03750   0.01930
   8        3PY         0.01532  -0.03472   0.06071   0.01707  -0.04795
   9        3PZ         0.06969  -0.06041  -0.02243   0.18838   0.07122
  10        4S          0.50392  -0.07405   0.04861   0.32163  -0.39231
  11        4PX        -0.06513   0.08083   0.50566   0.17689  -0.01692
  12        4PY         0.15677  -0.15846   0.26326   0.00847   0.10217
  13        4PZ         0.10553  -0.20554  -0.10187   0.76456   0.56033
  14        5S          0.64963   2.46532  -1.29697  -4.31765  22.00168
  15        5PX         0.68579  -0.54450  -1.67675   0.33015  -2.85092
  16        5PY        -0.84804   1.41994  -1.33680  -0.76953   5.55721
  17        5PZ         1.39511   2.19381   0.18805   0.25129   0.27284
  18        6D 0       -0.02422  -0.01000   0.00047  -0.01441   0.00056
  19        6D+1       -0.00128  -0.00210   0.00545  -0.00667   0.00687
  20        6D-1       -0.00603  -0.00499   0.00030   0.00438  -0.01302
  21        6D+2       -0.00810   0.00667  -0.00039   0.00265   0.00648
  22        6D-2       -0.01370   0.01008  -0.00003   0.00311   0.01050
  23 2   H  1S         -0.00001  -0.00000   0.00001   0.00000   0.00000
  24        2S         -0.00002  -0.00001   0.00003   0.00000   0.00000
  25        3S         -0.00006  -0.00003   0.00012   0.00001   0.00002
  26 3   H  1S          0.00001   0.00000  -0.00002  -0.00000  -0.00000
  27        2S          0.00004   0.00003  -0.00015  -0.00002  -0.00004
  28        3S          0.00004   0.00001   0.00000   0.00001   0.00002
  29 4   C  1S         -0.00835  -0.00500  -0.00362   0.01837  -0.03719
  30        2S         -0.01287  -0.00830  -0.00578   0.02849  -0.06018
  31        2PX         0.00974  -0.00449  -0.09726  -0.00066  -0.02032
  32        2PY        -0.03296   0.03334  -0.04254  -0.03554   0.05012
  33        2PZ        -0.01032   0.05792   0.00250  -0.03456  -0.09200
  34        3S          0.03622   0.02620   0.01436  -0.04028   0.12327
  35        3PX         0.01248   0.00542  -0.11047  -0.00790  -0.01382
  36        3PY        -0.03961   0.01464  -0.04934  -0.03667   0.04839
  37        3PZ        -0.00262   0.07197   0.00306  -0.02712  -0.14092
  38        4S          0.08331   0.14092   0.08919  -0.78442   1.29756
  39        4PX        -0.03801  -0.01309  -0.46794  -0.01695  -0.19853
  40        4PY         0.02172   0.14195  -0.18499  -0.13440   0.42953
  41        4PZ        -0.05526   0.24970   0.00656  -0.24374  -0.63206
  42        5S         -0.01467  -2.04065   1.22319   5.65487 -20.67046
  43        5PX        -0.43073  -0.13145   1.84389   1.22204  -2.86340
  44        5PY         0.69826  -0.10402   0.68648  -2.10342   5.80978
  45        5PZ        -0.58337  -2.03173  -0.25588   0.65225  -0.67760
  46        6D 0       -0.01190  -0.00276  -0.00008   0.00060  -0.00824
  47        6D+1        0.00225  -0.00331   0.00195   0.00246   0.00166
  48        6D-1       -0.00868   0.00612   0.00519  -0.01558  -0.00650
  49        6D+2       -0.00362   0.00927   0.00712   0.01561  -0.00139
  50        6D-2       -0.00694   0.01114  -0.00624   0.01514   0.00015
  51 5   H  1S          0.01369  -0.02952  -0.00952   0.03081  -0.06682
  52        2S          0.04704   0.01402  -0.00702   0.08254  -0.23099
  53        3S         -0.07247  -0.52229  -0.18064   0.21009  -1.85340
  54 6   H  1S         -0.07177  -0.03351   0.00964  -0.09650  -0.00180
  55        2S         -0.06352   0.05836   0.00402  -0.16103   0.03003
  56        3S         -0.95958  -0.70483   0.18400  -1.93799  -0.83714
                          21        22        23        24        25
                           V         V         V         V         V
     Eigenvalues --     0.23191   0.29919   0.37532   0.47563   0.49763
   1 1   C  1S         -0.00312  -0.00000  -0.04253  -0.00001   0.03843
   2        2S         -0.00336  -0.00000  -0.06735  -0.00001   0.07030
   3        2PX         0.01445  -0.00001  -0.06891  -0.00002   0.01069
   4        2PY        -0.05998  -0.00001   0.12206  -0.00001  -0.04635
   5        2PZ         0.00527  -0.00000  -0.03391   0.00000  -0.03669
   6        3S         -0.03441   0.00001   0.11104   0.00007  -0.34730
   7        3PX         0.00675  -0.00003  -0.09086  -0.00009   0.03913
   8        3PY        -0.04411  -0.00002   0.15803  -0.00004  -0.12892
   9        3PZ         0.02329  -0.00001  -0.07679  -0.00001  -0.05224
  10        4S          0.43560   0.00006   3.40858   0.00006  -0.54097
  11        4PX         0.10900  -0.00002  -1.08564   0.00008   0.15256
  12        4PY        -0.39482   0.00001   2.12055   0.00010  -0.34491
  13        4PZ         0.02235  -0.00000   0.08642   0.00005  -0.13654
  14        5S        -24.94822  -0.00083  -4.16396  -0.00107   6.11820
  15        5PX         3.25216   0.00027   0.75549   0.00016  -0.44370
  16        5PY        -6.38252  -0.00012  -1.40573  -0.00019   1.32703
  17        5PZ         0.21141   0.00003   0.54964  -0.00012   0.80602
  18        6D 0        0.00383  -0.00000   0.02538  -0.00001   0.03413
  19        6D+1        0.01483  -0.00000   0.00355  -0.00000   0.01172
  20        6D-1       -0.01808  -0.00000   0.00235   0.00000  -0.00704
  21        6D+2       -0.00643   0.00000   0.01380   0.00000  -0.00234
  22        6D-2       -0.00919  -0.00000   0.02211  -0.00000  -0.00265
  23 2   H  1S         -0.00000  -0.06788   0.00000   0.12012   0.00002
  24        2S          0.00000  -0.79021   0.00003   1.28410   0.00020
  25        3S         -0.00001   0.87845  -0.00004  -2.02553  -0.00032
  26 3   H  1S          0.00000  -0.06764  -0.00000  -0.12024  -0.00002
  27        2S          0.00003  -0.78846  -0.00001  -1.28496  -0.00021
  28        3S         -0.00002   0.87739   0.00002   2.02653   0.00034
  29 4   C  1S         -0.01978   0.00000   0.04348   0.00000  -0.00709
  30        2S         -0.03210   0.00000   0.07107  -0.00000  -0.00715
  31        2PX        -0.00102   0.00000  -0.05717  -0.00000  -0.00801
  32        2PY         0.02474   0.00000   0.11948  -0.00001   0.01330
  33        2PZ        -0.10216   0.00000  -0.01213   0.00000   0.00470
  34        3S          0.07977   0.00000  -0.15916   0.00003  -0.13149
  35        3PX        -0.01452  -0.00000  -0.06449  -0.00001  -0.08205
  36        3PY         0.05508  -0.00000   0.12951  -0.00004   0.14532
  37        3PZ        -0.13044   0.00000  -0.02286   0.00000  -0.01552
  38        4S          0.83654  -0.00005  -2.82492  -0.00011   0.81407
  39        4PX         0.00638   0.00000  -1.17193  -0.00005   0.55043
  40        4PY         0.13750   0.00004   2.37576   0.00014  -0.95307
  41        4PZ        -0.68195  -0.00000  -0.16887  -0.00005   0.23601
  42        5S         25.53869   0.00081   5.01315   0.00102  -5.96107
  43        5PX         2.71778  -0.00000   0.67452   0.00004  -0.61661
  44        5PY        -5.35470  -0.00025  -1.30733  -0.00022   0.96282
  45        5PZ        -0.91707  -0.00002  -0.59621  -0.00007   0.50034
  46        6D 0        0.00683  -0.00000  -0.03551  -0.00000   0.02370
  47        6D+1       -0.00488  -0.00000  -0.00114  -0.00000  -0.00519
  48        6D-1        0.01611   0.00000   0.00222  -0.00000   0.01412
  49        6D+2        0.01270  -0.00000  -0.02337  -0.00001   0.01571
  50        6D-2        0.01886   0.00000  -0.02738   0.00000   0.02331
  51 5   H  1S         -0.08680   0.00000   0.01702   0.00001  -0.08122
  52        2S         -0.11868   0.00001  -0.00466   0.00010  -0.71578
  53        3S         -2.72436  -0.00004  -1.25020  -0.00030   2.17437
  54 6   H  1S          0.03518  -0.00000   0.05036  -0.00002   0.11975
  55        2S         -0.00323  -0.00001   0.24271  -0.00024   1.39243
  56        3S          0.89584   0.00003  -0.74855   0.00047  -2.98282
                          26        27        28        29        30
                           V         V         V         V         V
     Eigenvalues --     0.52072   0.58203   0.61274   0.63171   0.64425
   1 1   C  1S          0.00285  -0.02595  -0.00060  -0.00549  -0.00150
   2        2S          0.00569  -0.04444  -0.00047  -0.01355   0.00142
   3        2PX        -0.00207   0.05470  -0.11632  -0.05272   0.00305
   4        2PY         0.00084  -0.08394  -0.06354   0.06619  -0.05868
   5        2PZ         0.07553   0.11843   0.00170   0.08962  -0.18281
   6        3S         -0.04741   0.09527  -0.01347   0.17185  -0.13403
   7        3PX        -0.04754   0.26086  -0.48318  -0.17445  -0.00124
   8        3PY         0.08537  -0.43161  -0.26480   0.22294  -0.20215
   9        3PZ         0.11978   0.40746  -0.00444   0.43786  -0.73905
  10        4S          1.34245   0.05626   0.09018  -0.43620   0.90460
  11        4PX        -0.19782  -0.72437   0.61621   0.35307  -0.12908
  12        4PY         0.40823   1.31187   0.39438  -0.56942   0.80815
  13        4PZ         0.38275  -0.57010   0.06804  -0.77344   1.99342
  14        5S         -0.16939  -0.37258   0.21428  -4.86986   0.13734
  15        5PX        -0.17597   0.32187  -0.21855   0.41471  -0.03047
  16        5PY         0.21914  -0.73507  -0.06650  -1.07220  -0.23779
  17        5PZ        -0.80042  -0.43061   0.00505   0.19300  -0.94423
  18        6D 0       -0.02130   0.00954  -0.00603   0.03031  -0.03284
  19        6D+1        0.02501  -0.00827   0.00095  -0.00553  -0.00026
  20        6D-1       -0.05255   0.00530   0.00044   0.04078  -0.01720
  21        6D+2       -0.00865   0.02190   0.04429  -0.00210   0.00444
  22        6D-2       -0.00853   0.03375  -0.02884  -0.00344   0.00762
  23 2   H  1S         -0.00000  -0.00000  -0.00001   0.00000  -0.00000
  24        2S         -0.00001  -0.00000  -0.00009   0.00001  -0.00003
  25        3S          0.00001   0.00001   0.00018  -0.00001   0.00005
  26 3   H  1S          0.00000   0.00000   0.00002  -0.00000   0.00001
  27        2S          0.00001   0.00000   0.00012  -0.00001   0.00004
  28        3S         -0.00001  -0.00001  -0.00022   0.00002  -0.00007
  29 4   C  1S          0.00011  -0.00051   0.00098  -0.00658  -0.00525
  30        2S          0.00022   0.00060   0.00231  -0.01477  -0.00789
  31        2PX         0.02506  -0.05378  -0.16847  -0.01015   0.01591
  32        2PY        -0.03924   0.10593  -0.08651   0.03853   0.02053
  33        2PZ        -0.04621  -0.00457   0.00006   0.19386   0.14501
  34        3S         -0.01883  -0.09583  -0.02110   0.13922   0.00810
  35        3PX         0.11053  -0.21045  -0.67581   0.02042   0.02245
  36        3PY        -0.18745   0.42262  -0.33898   0.02103   0.13638
  37        3PZ        -0.08624   0.01353  -0.00153   0.80969   0.51605
  38        4S         -0.66384  -0.82429  -0.02250   0.62829  -0.53354
  39        4PX        -0.83033   0.28220   1.05806  -0.11698  -0.31715
  40        4PY         1.64678  -0.58365   0.57731   0.12959   0.19811
  41        4PZ        -0.80344  -0.04213  -0.02925  -1.51022  -1.56467
  42        5S         -1.34143  -0.28377  -0.17896   5.23259   0.15991
  43        5PX         0.27164  -0.24286  -0.52378   0.55408   0.05045
  44        5PY        -0.55422   0.45898  -0.18315  -0.88889   0.20979
  45        5PZ         0.85699   0.43464  -0.01633   0.07034   0.80802
  46        6D 0       -0.02770   0.01190  -0.00298  -0.01265  -0.01671
  47        6D+1       -0.01200   0.00564  -0.00284   0.02707  -0.02144
  48        6D-1        0.02657  -0.00970  -0.00070  -0.02982   0.02955
  49        6D+2        0.01376   0.01488  -0.03703  -0.02770   0.02328
  50        6D-2        0.01826   0.01492   0.03091  -0.03537   0.03531
  51 5   H  1S         -0.10138  -0.05073   0.00271   0.03386   0.01635
  52        2S         -1.65870  -0.29033   0.00102   0.08348  -0.21713
  53        3S          1.79333   0.99827  -0.05966  -1.51289  -0.30232
  54 6   H  1S         -0.02805  -0.07127   0.00095  -0.00732   0.03144
  55        2S         -0.59566  -0.64375  -0.08122   0.31646  -0.43855
  56        3S          1.10379   1.47740  -0.00380   0.50234  -0.11802
                          31        32        33        34        35
                           V         V         V         V         V
     Eigenvalues --     0.66675   0.72026   0.76815   0.92988   1.22756
   1 1   C  1S          0.00224   0.00105   0.06574  -0.09305  -0.00018
   2        2S          0.00470  -0.00401   0.14114  -0.19244  -0.00019
   3        2PX        -0.18202   0.11183  -0.02296  -0.05290  -0.06746
   4        2PY        -0.09739  -0.21767   0.05621   0.09354  -0.03784
   5        2PZ         0.02137   0.01461   0.01895  -0.01989  -0.00940
   6        3S         -0.04026   0.17752  -1.17424   1.73429   0.00066
   7        3PX        -0.67370   0.32243  -0.02135   0.02700  -0.11148
   8        3PY        -0.35249  -0.61675   0.07995  -0.08797  -0.05315
   9        3PZ         0.07799   0.10616   0.06398  -0.06051  -0.02266
  10        4S          0.06621   0.69270   1.49339  -6.38446   0.01680
  11        4PX         1.48634  -0.71334   0.01083   1.14686  -0.00700
  12        4PY         0.79229   1.29271  -0.04506  -2.24915  -0.00193
  13        4PZ        -0.19744  -0.39532   0.09964   0.00368   0.02220
  14        5S          0.36348   3.00879  -1.73490  13.62002   0.11678
  15        5PX        -0.98758  -0.23504   0.24371  -1.74563   0.01003
  16        5PY        -0.39455   0.45694  -0.56790   3.44120   0.04429
  17        5PZ         0.13862   0.44527   0.10218   0.03362   0.00627
  18        6D 0       -0.00246  -0.01522   0.01044   0.12853  -0.02790
  19        6D+1       -0.00161   0.00673  -0.01344   0.02613   0.06774
  20        6D-1        0.00208   0.01583   0.00938  -0.00683   0.11873
  21        6D+2       -0.00069  -0.04725   0.06014   0.05995  -0.45118
  22        6D-2       -0.00170  -0.06738   0.08558   0.08545   0.34020
  23 2   H  1S         -0.00001  -0.00000   0.00000  -0.00000   0.00000
  24        2S         -0.00006  -0.00001   0.00001  -0.00000   0.00000
  25        3S          0.00013   0.00002  -0.00002   0.00001  -0.00000
  26 3   H  1S          0.00001   0.00000  -0.00000   0.00000  -0.00000
  27        2S          0.00009   0.00001  -0.00001   0.00001  -0.00000
  28        3S         -0.00017  -0.00003   0.00003  -0.00002   0.00000
  29 4   C  1S          0.00090  -0.00040   0.09423   0.07719  -0.00055
  30        2S          0.00159   0.00449   0.19656   0.15733  -0.00095
  31        2PX         0.14321   0.11848   0.01553  -0.04706  -0.05346
  32        2PY         0.06614  -0.23533  -0.03468   0.09751  -0.02509
  33        2PZ        -0.02970   0.04707   0.03398   0.00267  -0.01046
  34        3S         -0.00304  -0.14181  -1.54548  -1.41046   0.00705
  35        3PX         0.49652   0.36572   0.04074   0.05868  -0.11038
  36        3PY         0.24903  -0.72560  -0.08396  -0.08790  -0.05114
  37        3PZ        -0.11627   0.18795   0.10919   0.00255  -0.01627
  38        4S         -0.12104  -0.29150   2.29289   6.08675  -0.01438
  39        4PX        -1.21433  -0.80589  -0.11788   1.06404   0.03321
  40        4PY        -0.67375   1.63983   0.24619  -2.12096   0.03428
  41        4PZ         0.32611  -0.31453  -0.43800  -0.03682  -0.01249
  42        5S         -0.41286  -2.27583   1.09954 -13.44768  -0.11443
  43        5PX         0.82170  -0.34821  -0.11386  -1.68622  -0.00709
  44        5PY         0.47310   0.75223   0.32244   3.33503   0.00722
  45        5PZ        -0.09109  -0.62562  -0.51036  -0.02637   0.01885
  46        6D 0        0.00507   0.06229   0.01907  -0.06472  -0.01840
  47        6D+1        0.00281   0.01422   0.00832   0.00547   0.21051
  48        6D-1       -0.00302  -0.00993  -0.02319   0.01998   0.02131
  49        6D+2       -0.00975   0.03752   0.03575  -0.09731   0.50184
  50        6D-2        0.01250   0.04947   0.04725  -0.13663  -0.34993
  51 5   H  1S         -0.00508   0.04999   0.06289   0.00760  -0.00108
  52        2S          0.05105   0.39136   0.20832  -0.23288  -0.04021
  53        3S          0.20101  -1.73012  -1.63432   0.11262   0.04701
  54 6   H  1S          0.00172   0.00628  -0.01805  -0.01798  -0.01447
  55        2S         -0.00644   0.40296  -0.46860   0.47591   0.03232
  56        3S         -0.09148  -0.15201   0.60896  -0.37985  -0.05372
                          36        37        38        39        40
                           V         V         V         V         V
     Eigenvalues --     1.25904   1.29771   1.44306   1.54631   1.65833
   1 1   C  1S         -0.00122   0.00823   0.00555   0.00130  -0.01198
   2        2S         -0.00254   0.01784   0.01296   0.00323  -0.02606
   3        2PX         0.01228  -0.00875   0.00819  -0.00963   0.00007
   4        2PY         0.00353   0.00283   0.00323  -0.00404   0.00617
   5        2PZ        -0.02058   0.05006  -0.05694  -0.02073   0.01399
   6        3S          0.02804  -0.20157  -0.19493  -0.06431   0.33214
   7        3PX         0.03385  -0.00558  -0.02153  -0.00668  -0.01642
   8        3PY         0.01573   0.00003   0.03828   0.02154   0.03705
   9        3PZ        -0.04055   0.08212  -0.12715  -0.04257  -0.01297
  10        4S         -0.10292   0.58881   1.16404   0.48133  -0.99846
  11        4PX        -0.00117  -0.06979  -0.16227  -0.07306   0.12322
  12        4PY        -0.04583   0.21552   0.40548   0.17032  -0.40025
  13        4PZ         0.01176   0.07721   0.66630   0.28586  -0.28300
  14        5S          0.33516  -0.48873  -0.04516  -0.10253   1.48235
  15        5PX        -0.03579   0.06435  -0.01208   0.00056  -0.13790
  16        5PY         0.09161  -0.13154   0.01202  -0.01264   0.37961
  17        5PZ        -0.01731   0.04677  -0.18444  -0.12040   0.22695
  18        6D 0       -0.16730   0.11229   0.42099  -0.00823  -0.82539
  19        6D+1        0.42853   0.46100  -0.30236   0.59381  -0.28833
  20        6D-1        0.41654  -0.34476   0.22979   0.45438   0.05861
  21        6D+2        0.17307  -0.02430  -0.10868  -0.02588   0.25445
  22        6D-2       -0.01915  -0.02086  -0.24915   0.01343   0.34029
  23 2   H  1S          0.00000  -0.00000  -0.00000  -0.00000   0.00000
  24        2S          0.00000  -0.00000  -0.00000   0.00000  -0.00000
  25        3S         -0.00000   0.00000   0.00000   0.00000  -0.00000
  26 3   H  1S         -0.00000   0.00000   0.00000   0.00000  -0.00000
  27        2S         -0.00000   0.00000   0.00000  -0.00000   0.00000
  28        3S          0.00000  -0.00000  -0.00000  -0.00000   0.00000
  29 4   C  1S         -0.00060  -0.00120   0.00026  -0.00009   0.00181
  30        2S         -0.00103  -0.00356  -0.00060  -0.00072   0.00338
  31        2PX         0.02028   0.00285  -0.00019  -0.01314   0.00261
  32        2PY         0.01344   0.00127   0.02006   0.00619   0.00449
  33        2PZ        -0.02803   0.05873  -0.04486  -0.01650  -0.01061
  34        3S          0.00169   0.07321  -0.01067  -0.00232  -0.05451
  35        3PX         0.02115  -0.00452  -0.02768  -0.01129   0.00643
  36        3PY         0.02167  -0.00472   0.06186   0.02947  -0.00646
  37        3PZ        -0.04004   0.08533  -0.07877  -0.03378  -0.00486
  38        4S          0.05837  -0.63283  -0.38574  -0.14662   0.82340
  39        4PX         0.02261  -0.00081  -0.34779  -0.17563   0.08527
  40        4PY        -0.02943  -0.02493   0.75529   0.34172  -0.10293
  41        4PZ        -0.01239   0.24588  -0.63755  -0.30763  -0.13046
  42        5S         -0.38766   0.64373  -0.14257  -0.04004  -1.33943
  43        5PX        -0.03618   0.04575   0.06140   0.04208  -0.13704
  44        5PY         0.03904  -0.07930  -0.14011  -0.07713   0.22193
  45        5PZ         0.07043  -0.12418   0.23106   0.12966   0.01187
  46        6D 0       -0.19114   0.36768   0.58435   0.31689   0.48522
  47        6D+1        0.61573   0.04805   0.40671  -0.53418   0.05354
  48        6D-1        0.11081   0.57597  -0.15117  -0.39575   0.05436
  49        6D+2       -0.07111  -0.10557  -0.20399  -0.09102  -0.15362
  50        6D-2        0.18471  -0.16575  -0.21763  -0.13106  -0.19250
  51 5   H  1S         -0.00350  -0.00899   0.05742   0.04259   0.03589
  52        2S         -0.11072   0.54186  -1.02490  -0.53582  -0.42551
  53        3S          0.18050  -0.26026   0.33199   0.20779   0.20912
  54 6   H  1S         -0.01031   0.01893  -0.06344  -0.01457  -0.10860
  55        2S          0.05278  -0.29706  -0.42108  -0.21530   0.98634
  56        3S         -0.04821  -0.01587   0.03839   0.09766  -0.67163
                          41        42        43        44        45
                           V         V         V         V         V
     Eigenvalues --     1.75935   1.93635   1.99114   2.18930   2.31173
   1 1   C  1S         -0.02638   0.00770  -0.00009  -0.02622   0.00000
   2        2S         -0.06689   0.01832  -0.00026  -0.05264   0.00000
   3        2PX         0.01847  -0.00566  -0.12033  -0.17039   0.00002
   4        2PY        -0.04074   0.00682  -0.05514   0.35934   0.00001
   5        2PZ        -0.00649   0.12504  -0.00294   0.04624   0.00000
   6        3S          0.60577  -0.20672   0.00882   0.11371  -0.00001
   7        3PX        -0.21587   0.04005   0.04025  -0.15274  -0.00001
   8        3PY         0.43176  -0.07855   0.01422   0.26327  -0.00001
   9        3PZ         0.02294  -0.01190   0.00067  -0.09327   0.00000
  10        4S         -0.03421   0.37623  -0.04978   2.94482  -0.00001
  11        4PX         0.21290  -0.07493  -0.44076  -0.76156  -0.00001
  12        4PY        -0.41841   0.18232  -0.24160   1.51067  -0.00002
  13        4PZ         0.02748   0.40823  -0.04779  -0.07224  -0.00001
  14        5S         -1.17569  -1.44623  -0.00410  -2.28146  -0.00004
  15        5PX         0.00660   0.18619   0.20641   0.37509   0.00005
  16        5PY        -0.06274  -0.41915   0.09827  -0.71549   0.00001
  17        5PZ        -0.04040  -0.05104   0.02924   0.23518   0.00001
  18        6D 0        0.36328   0.06296  -0.01685  -0.52664   0.00000
  19        6D+1       -0.04026  -0.33989   0.02472   0.03521   0.00000
  20        6D-1        0.08140   0.73307  -0.01954  -0.07103  -0.00000
  21        6D+2        0.34990  -0.05454   0.77760  -0.55541   0.00001
  22        6D-2        0.47556  -0.10210  -0.55786  -0.75182  -0.00000
  23 2   H  1S         -0.00000  -0.00000   0.00001  -0.00000  -1.08208
  24        2S          0.00000   0.00000  -0.00001   0.00001   1.69376
  25        3S          0.00000   0.00000  -0.00000  -0.00000  -1.10867
  26 3   H  1S          0.00000   0.00000  -0.00001   0.00001   1.08151
  27        2S         -0.00000  -0.00000   0.00001  -0.00001  -1.69317
  28        3S         -0.00000  -0.00000  -0.00000   0.00000   1.10844
  29 4   C  1S         -0.02400   0.00327   0.00004   0.02978  -0.00000
  30        2S         -0.05968   0.01395   0.00043   0.06441  -0.00000
  31        2PX        -0.04263  -0.00604   0.14398  -0.19478   0.00001
  32        2PY         0.08327   0.02301   0.07730   0.37081   0.00000
  33        2PZ        -0.00595  -0.16843   0.00345  -0.00344   0.00000
  34        3S          0.59048  -0.14840  -0.00531  -0.21129   0.00000
  35        3PX         0.21686   0.03176  -0.05019  -0.11828  -0.00001
  36        3PY        -0.43330  -0.08332  -0.03523   0.24132  -0.00000
  37        3PZ         0.03209   0.16617   0.00467   0.04608  -0.00000
  38        4S         -0.50660  -0.14109   0.03510  -2.82620   0.00002
  39        4PX        -0.36557   0.03148   0.46480  -0.77554   0.00002
  40        4PY         0.72328  -0.07613   0.21651   1.51425  -0.00001
  41        4PZ        -0.07516  -0.29031   0.02816   0.02335   0.00000
  42        5S          1.27848   1.91134   0.03456   2.64492   0.00003
  43        5PX         0.22358   0.06151  -0.20949   0.34250  -0.00002
  44        5PY        -0.40869  -0.05812  -0.09923  -0.64946  -0.00002
  45        5PZ        -0.13689  -0.24038  -0.02969  -0.21505  -0.00000
  46        6D 0        0.36726  -0.12547  -0.00394   0.47934  -0.00000
  47        6D+1       -0.03765  -0.41076   0.00338   0.00055   0.00000
  48        6D-1        0.07499   0.81590  -0.02640  -0.00864  -0.00000
  49        6D+2        0.40489  -0.01364   0.75138   0.52866   0.00001
  50        6D-2        0.54938  -0.05559  -0.54575   0.73521  -0.00001
  51 5   H  1S         -0.11273  -0.55147  -0.02119  -0.15501   0.00000
  52        2S          0.34248   1.51637   0.05739   0.42705  -0.00001
  53        3S         -0.54569  -1.44391  -0.05521  -0.56179   0.00001
  54 6   H  1S          0.09444   0.06222  -0.01684  -0.28991   0.00001
  55        2S         -0.26092  -0.31266   0.06795   0.51722  -0.00001
  56        3S          0.33387   0.22324  -0.03169  -0.43779  -0.00000
                          46        47        48        49        50
                           V         V         V         V         V
     Eigenvalues --     2.42384   2.47236   2.56298   2.74651   2.85013
   1 1   C  1S         -0.00000   0.00962   0.00841   0.00036   0.00962
   2        2S         -0.00000   0.02564   0.01768   0.00061   0.02269
   3        2PX        -0.00002   0.12507  -0.00817  -0.79298  -0.00563
   4        2PY        -0.00001  -0.11749   0.02238  -0.40702  -0.20068
   5        2PZ        -0.00000   0.23455  -0.54218  -0.01170   0.60865
   6        3S          0.00000  -0.04739  -0.11606  -0.00093  -0.12472
   7        3PX         0.00001  -0.08881   0.12900   0.90723   0.13942
   8        3PY         0.00001  -0.03063  -0.22166   0.45901   0.00118
   9        3PZ        -0.00000  -0.48167   0.64458   0.01006  -0.70562
  10        4S         -0.00000  -1.07913  -0.19684  -0.02566  -0.34340
  11        4PX         0.00001   0.33154   0.00820  -0.43955   0.06996
  12        4PY         0.00001  -0.59700  -0.02544  -0.23532  -0.25656
  13        4PZ         0.00000  -0.07386  -0.60080  -0.02483   0.28801
  14        5S          0.00004   2.31961  -1.71756  -0.15210   1.41107
  15        5PX        -0.00003  -0.22790   0.16903   0.14147  -0.17783
  16        5PY        -0.00000   0.57974  -0.45473   0.02423   0.42952
  17        5PZ        -0.00000   0.56049   0.13743  -0.01035   0.03556
  18        6D 0        0.00000   0.09958   0.01332  -0.00007   0.05789
  19        6D+1       -0.00000   0.07379   0.14698  -0.00010   0.01796
  20        6D-1        0.00000  -0.16930  -0.31086  -0.01313  -0.03450
  21        6D+2       -0.00000   0.14789   0.05505   0.08426   0.05870
  22        6D-2        0.00000   0.21787   0.11544  -0.05351   0.12045
  23 2   H  1S         -1.13044   0.00000  -0.00000  -0.00000   0.00000
  24        2S          1.23682   0.00000  -0.00000   0.00002  -0.00000
  25        3S         -0.48743  -0.00000   0.00000  -0.00003   0.00000
  26 3   H  1S         -1.13098   0.00001  -0.00000   0.00004  -0.00000
  27        2S          1.23772  -0.00001   0.00000  -0.00006   0.00000
  28        3S         -0.48808   0.00001  -0.00000   0.00005  -0.00000
  29 4   C  1S          0.00000  -0.00994  -0.00584  -0.00014  -0.00833
  30        2S          0.00000  -0.01537   0.00167  -0.00034  -0.00537
  31        2PX        -0.00001  -0.01650  -0.05271  -0.86511  -0.14139
  32        2PY        -0.00000   0.02181   0.18310  -0.43316   0.37395
  33        2PZ        -0.00000  -0.24168  -0.40457  -0.05051   0.93182
  34        3S          0.00000   0.03711  -0.18125  -0.00076  -0.08033
  35        3PX         0.00001   0.13925   0.15971   1.00533   0.22476
  36        3PY         0.00000  -0.25526  -0.42548   0.49462  -0.57831
  37        3PZ         0.00000   0.36641   0.58070   0.06381  -1.07410
  38        4S         -0.00001   1.00698   0.52668   0.02546   0.53652
  39        4PX        -0.00001   0.20997   0.00992  -0.48804   0.03376
  40        4PY         0.00000  -0.43397   0.00699  -0.24661   0.00373
  41        4PZ        -0.00000   0.03897  -0.05231  -0.03356   0.67602
  42        5S         -0.00003  -1.48986   1.95114   0.14611  -1.32243
  43        5PX         0.00001  -0.20088   0.04981   0.16283  -0.17423
  44        5PY         0.00001   0.40241  -0.02815   0.05221   0.29842
  45        5PZ         0.00000  -0.21346  -0.46256   0.00425  -0.30569
  46        6D 0        0.00000  -0.13197  -0.01450  -0.00226  -0.04188
  47        6D+1       -0.00000   0.05810   0.16128   0.00834   0.11850
  48        6D-1        0.00000  -0.15958  -0.33423  -0.00639  -0.23871
  49        6D+2       -0.00000  -0.11368  -0.15558  -0.04729  -0.16794
  50        6D-2        0.00001  -0.13648  -0.17528   0.02748  -0.17547
  51 5   H  1S         -0.00000  -0.50996  -1.16326  -0.02282  -0.67110
  52        2S          0.00000   0.80989   1.77585   0.02908   0.72515
  53        3S         -0.00001  -0.57825  -1.69987  -0.03814  -0.35444
  54 6   H  1S         -0.00001  -1.41364   0.49589  -0.03200   0.24310
  55        2S          0.00001   2.34877  -0.75666   0.03826  -0.25153
  56        3S         -0.00001  -1.86912   0.89099   0.03055  -0.05323
                          51        52        53        54        55
                           V         V         V         V         V
     Eigenvalues --     2.92695   2.97365   3.04235   3.51306  23.33560
   1 1   C  1S         -0.00096   0.00287   0.00265   0.06259  -1.41245
   2        2S         -0.00255   0.00820  -0.00210   0.10868   1.50937
   3        2PX        -0.87955   0.02044  -0.45619  -0.37751   0.00467
   4        2PY        -0.39216  -0.34923   0.86436   0.74779  -0.00925
   5        2PZ         0.10922  -1.00799  -0.16879  -0.03583  -0.00027
   6        3S          0.01386  -0.06343   0.05861  -0.52451  -0.32732
   7        3PX         1.12985  -0.00748   0.55619   1.07460  -0.00524
   8        3PY         0.54186   0.40278  -1.06038  -2.12149   0.00978
   9        3PZ        -0.14612   1.27273   0.20008   0.07125  -0.00092
  10        4S          0.04762   0.03737  -0.60723  -1.97713   0.31050
  11        4PX        -0.67160  -0.01100  -0.16866   0.08767  -0.01969
  12        4PY        -0.28497  -0.22042   0.33295  -0.20490   0.04550
  13        4PZ         0.09981  -0.79955  -0.18912  -0.04353   0.02558
  14        5S         -0.17153  -0.47925   1.49522   4.37206  -0.20909
  15        5PX         0.35730   0.07608  -0.06986  -0.51591   0.03777
  16        5PY         0.11077  -0.03229   0.16278   1.00926  -0.07827
  17        5PZ        -0.05361   0.33345   0.08696   0.02167   0.02633
  18        6D 0       -0.00073  -0.00351   0.10919   0.50634  -0.01171
  19        6D+1        0.00467  -0.09662  -0.00546  -0.04272   0.00063
  20        6D-1       -0.02598   0.19327   0.02400   0.05917   0.00251
  21        6D+2       -0.19377  -0.04147   0.10186   0.54528  -0.02007
  22        6D-2        0.12719  -0.00430   0.15248   0.74472  -0.02747
  23 2   H  1S         -0.00000  -0.00000   0.00000   0.00000  -0.00000
  24        2S          0.00001   0.00000  -0.00000  -0.00000   0.00000
  25        3S         -0.00002  -0.00001   0.00000   0.00000  -0.00000
  26 3   H  1S          0.00002   0.00001  -0.00000  -0.00000   0.00000
  27        2S         -0.00003  -0.00001   0.00000   0.00001  -0.00000
  28        3S          0.00003   0.00001  -0.00000  -0.00001   0.00000
  29 4   C  1S          0.00055   0.00189  -0.01793  -0.05899  -1.45087
  30        2S          0.00014   0.00529  -0.03940  -0.10433   1.55101
  31        2PX         0.82136  -0.01396   0.33527  -0.45008  -0.00513
  32        2PY         0.34759   0.28061  -0.67634   0.89756   0.01075
  33        2PZ        -0.16375   0.64277   0.47135  -0.13939  -0.00366
  34        3S          0.00584   0.00267   0.22352   0.54267  -0.32978
  35        3PX        -1.07914  -0.03220  -0.24229   1.16379   0.00601
  36        3PY        -0.46097  -0.27044   0.49563  -2.30316  -0.01416
  37        3PZ         0.21080  -0.87453  -0.60501   0.20001   0.01185
  38        4S         -0.03830  -0.09094   0.08314   2.07647   0.22601
  39        4PX         0.60667   0.03830   0.30436   0.02088  -0.01237
  40        4PY         0.32560   0.11150  -0.63126  -0.01440   0.02630
  41        4PZ        -0.15260   0.59400   0.48398  -0.18494  -0.02943
  42        5S          0.18291   0.39537  -1.36778  -4.31663   0.14165
  43        5PX        -0.30599   0.05389  -0.23905  -0.51967  -0.00854
  44        5PY        -0.18752  -0.21349   0.45781   1.02881   0.02451
  45        5PZ         0.05292  -0.23729  -0.05509  -0.06566  -0.05200
  46        6D 0        0.01047  -0.04984  -0.05026  -0.55242  -0.01534
  47        6D+1        0.00483  -0.14315   0.01723  -0.03832  -0.00259
  48        6D-1       -0.02036   0.27471  -0.04554   0.08243   0.00586
  49        6D+2       -0.18032  -0.00499  -0.09152  -0.50980  -0.01429
  50        6D-2        0.15765   0.04938  -0.10553  -0.71038  -0.01969
  51 5   H  1S          0.04867   0.09686  -0.40275   0.42103  -0.00100
  52        2S         -0.06541  -0.01126   0.35433  -0.33639   0.04237
  53        3S         -0.02003   0.15091   0.22254  -0.15428  -0.14801
  54 6   H  1S         -0.01630  -0.47579  -0.19345  -0.06002  -0.00130
  55        2S          0.00908   0.53322   0.21242   0.16677  -0.02518
  56        3S          0.01528  -0.15677  -0.17693  -0.00004  -0.00417
                          56
                           V
     Eigenvalues --    23.90124
   1 1   C  1S         -1.45743
   2        2S          1.59344
   3        2PX        -0.03698
   4        2PY         0.07260
   5        2PZ        -0.00177
   6        3S         -0.43855
   7        3PX         0.15493
   8        3PY        -0.30524
   9        3PZ         0.00376
  10        4S          0.26388
  11        4PX        -0.04592
  12        4PY         0.09524
  13        4PZ         0.00974
  14        5S         -0.68664
  15        5PX         0.08848
  16        5PY        -0.17297
  17        5PZ        -0.00019
  18        6D 0        0.09609
  19        6D+1       -0.00111
  20        6D-1        0.00470
  21        6D+2        0.09342
  22        6D-2        0.12837
  23 2   H  1S         -0.00000
  24        2S          0.00000
  25        3S         -0.00000
  26 3   H  1S          0.00000
  27        2S         -0.00000
  28        3S          0.00000
  29 4   C  1S          1.41912
  30        2S         -1.55212
  31        2PX        -0.03696
  32        2PY         0.07301
  33        2PZ        -0.00078
  34        3S          0.42803
  35        3PX         0.15428
  36        3PY        -0.30393
  37        3PZ         0.00183
  38        4S         -0.26463
  39        4PX        -0.04374
  40        4PY         0.08427
  41        4PZ         0.00515
  42        5S          0.68183
  43        5PX         0.09068
  44        5PY        -0.17918
  45        5PZ         0.01103
  46        6D 0       -0.09444
  47        6D+1       -0.00035
  48        6D-1        0.00127
  49        6D+2       -0.09400
  50        6D-2       -0.12900
  51 5   H  1S          0.01237
  52        2S         -0.00590
  53        3S          0.02542
  54 6   H  1S         -0.01057
  55        2S         -0.00467
  56        3S         -0.01108
     Density Matrix:
                           1         2         3         4         5
   1 1   C  1S          0.66366
   2        2S          0.56704   0.50018
   3        2PX        -0.00086  -0.00177   0.05915
   4        2PY         0.00428   0.00740  -0.00524   0.07533
   5        2PZ         0.00621   0.00964   0.00541  -0.00694   0.05419
   6        3S         -0.10791  -0.18299   0.00534  -0.02171  -0.03031
   7        3PX        -0.00420  -0.00609   0.09246  -0.00549   0.00906
   8        3PY         0.01039   0.01565  -0.00562   0.11263  -0.01143
   9        3PZ         0.00514   0.00890   0.00917  -0.01141   0.08789
  10        4S         -0.11853  -0.18252   0.03442  -0.09304  -0.03176
  11        4PX        -0.00291  -0.00555   0.06762   0.00958  -0.00011
  12        4PY         0.00787   0.01453   0.00884   0.06573   0.00167
  13        4PZ         0.00506   0.00859   0.00630  -0.01063   0.05750
  14        5S          0.03685   0.04748  -0.00844   0.00047   0.00538
  15        5PX        -0.00633  -0.00857   0.00594   0.00075  -0.00193
  16        5PY         0.01310   0.01791  -0.00064   0.00675   0.00360
  17        5PZ        -0.00058  -0.00067   0.00091  -0.00087   0.00093
  18        6D 0       -0.00301  -0.00423   0.00456  -0.00796   0.00791
  19        6D+1       -0.00145  -0.00237   0.00373  -0.00176  -0.00084
  20        6D-1        0.00132   0.00226  -0.00120   0.00447   0.00568
  21        6D+2       -0.00041  -0.00016  -0.00407  -0.00913   0.00099
  22        6D-2        0.00020   0.00100   0.00822  -0.00259   0.00088
  23 2   H  1S          0.00000   0.00000   0.00000   0.00000   0.00000
  24        2S         -0.00000  -0.00000   0.00000   0.00000   0.00000
  25        3S          0.00000   0.00000   0.00000   0.00000   0.00000
  26 3   H  1S         -0.00000  -0.00000   0.00000   0.00000   0.00000
  27        2S          0.00000   0.00000   0.00000   0.00000   0.00000
  28        3S         -0.00000  -0.00000  -0.00000  -0.00000  -0.00000
  29 4   C  1S          0.00267   0.00435   0.01247  -0.02194  -0.00261
  30        2S          0.00429   0.00631   0.02008  -0.03524  -0.00438
  31        2PX        -0.00717  -0.01145   0.04067   0.05357  -0.01142
  32        2PY         0.01765   0.02828   0.04477  -0.02782   0.01776
  33        2PZ         0.00910   0.01493  -0.01588   0.02288   0.03872
  34        3S         -0.00945  -0.01238  -0.05841   0.10155   0.01280
  35        3PX        -0.01229  -0.01827   0.06575   0.07989  -0.01693
  36        3PY         0.03007   0.04544   0.06628  -0.03536   0.02636
  37        3PZ         0.01429   0.02349  -0.02329   0.03304   0.06075
  38        4S          0.02267   0.03602  -0.05042   0.08475   0.02064
  39        4PX        -0.00021  -0.00074   0.06307   0.06954  -0.01235
  40        4PY         0.00627   0.01095   0.05249  -0.02215   0.01601
  41        4PZ         0.01844   0.02990  -0.02382   0.03544   0.05541
  42        5S         -0.03936  -0.05250   0.01252  -0.01296  -0.00936
  43        5PX        -0.00423  -0.00568   0.01022   0.00377  -0.00209
  44        5PY         0.00857   0.01161   0.00029   0.00485   0.00185
  45        5PZ         0.00375   0.00573  -0.00437   0.00571   0.00680
  46        6D 0        0.00214   0.00268   0.00122  -0.00246  -0.00018
  47        6D+1        0.00083   0.00131  -0.00078  -0.00187   0.00335
  48        6D-1       -0.00165  -0.00259  -0.00240   0.00228  -0.00486
  49        6D+2        0.00249   0.00324   0.00463   0.00175   0.00029
  50        6D-2        0.00332   0.00429  -0.00189  -0.00324   0.00015
  51 5   H  1S          0.00206   0.00322   0.01346  -0.02203  -0.00593
  52        2S          0.00309   0.00505   0.02299  -0.03711  -0.00254
  53        3S          0.00458   0.00623   0.00724  -0.01208   0.00900
  54 6   H  1S         -0.01389  -0.02206   0.01928  -0.02044   0.04664
  55        2S         -0.01503  -0.02412   0.03284  -0.03450   0.07905
  56        3S         -0.00018  -0.00036   0.01688  -0.02319   0.03615
                           6         7         8         9        10
   6        3S          0.54341
   7        3PX         0.01393   0.14476
   8        3PY        -0.03989  -0.00490   0.16872
   9        3PZ        -0.03382   0.01554  -0.01903   0.14302
  10        4S          0.49034   0.05581  -0.14436  -0.03799   0.53177
  11        4PX         0.01774   0.10635   0.01685   0.00060   0.03522
  12        4PY        -0.04638   0.01604   0.09893   0.00205  -0.09962
  13        4PZ        -0.03006   0.01036  -0.01696   0.09323  -0.02891
  14        5S         -0.09958  -0.01475   0.00263   0.00499  -0.09705
  15        5PX         0.01952   0.00958   0.00101  -0.00246   0.01977
  16        5PY        -0.04139  -0.00126   0.01077   0.00454  -0.04449
  17        5PZ         0.00099   0.00141  -0.00128   0.00152   0.00160
  18        6D 0        0.00940   0.00712  -0.01212   0.01321   0.01574
  19        6D+1        0.00678   0.00582  -0.00253  -0.00119   0.00921
  20        6D-1       -0.00713  -0.00163   0.00650   0.00917  -0.01229
  21        6D+2       -0.00106  -0.00672  -0.01382   0.00152   0.00622
  22        6D-2       -0.00493   0.01271  -0.00351   0.00132   0.00204
  23 2   H  1S          0.00000  -0.00000  -0.00000  -0.00000  -0.00000
  24        2S          0.00000  -0.00000  -0.00000  -0.00000  -0.00000
  25        3S         -0.00000   0.00000   0.00000   0.00000  -0.00000
  26 3   H  1S          0.00000  -0.00000  -0.00000  -0.00000  -0.00000
  27        2S         -0.00000   0.00000   0.00000  -0.00000  -0.00000
  28        3S          0.00000  -0.00000  -0.00000  -0.00000   0.00000
  29 4   C  1S         -0.01021   0.02062  -0.03637  -0.00407   0.02671
  30        2S         -0.01352   0.03165  -0.05541  -0.00680   0.04363
  31        2PX         0.03286   0.06610   0.08112  -0.01689  -0.00146
  32        2PY        -0.08133   0.06794  -0.03834   0.02601  -0.03139
  33        2PZ        -0.04519  -0.02338   0.03249   0.06270  -0.07516
  34        3S          0.02246  -0.08745   0.15050   0.01957  -0.13357
  35        3PX         0.04832   0.10658   0.12114  -0.02496  -0.00001
  36        3PY        -0.12246   0.10075  -0.04787   0.03847  -0.05519
  37        3PZ        -0.07124  -0.03425   0.04676   0.09840  -0.11427
  38        4S         -0.10367  -0.07703   0.12723   0.02912  -0.21762
  39        4PX         0.00418   0.10139   0.10638  -0.01907  -0.03135
  40        4PY        -0.03548   0.08085  -0.03029   0.02463   0.00605
  41        4PZ        -0.08844  -0.03548   0.05112   0.08875  -0.13313
  42        5S          0.11680   0.02073  -0.02121  -0.01114   0.12659
  43        5PX         0.01285   0.01632   0.00576  -0.00285   0.01345
  44        5PY        -0.02657   0.00023   0.00789   0.00202  -0.02995
  45        5PZ        -0.01558  -0.00661   0.00828   0.01079  -0.02206
  46        6D 0       -0.00534   0.00170  -0.00345  -0.00054  -0.00208
  47        6D+1       -0.00398  -0.00129  -0.00279   0.00529  -0.00344
  48        6D-1        0.00766  -0.00361   0.00319  -0.00756   0.00592
  49        6D+2       -0.00676   0.00725   0.00284   0.00037  -0.00494
  50        6D-2       -0.00881  -0.00319  -0.00482   0.00001  -0.00464
  51 5   H  1S         -0.00973   0.01940  -0.03086  -0.01132   0.01140
  52        2S         -0.01611   0.03354  -0.05264  -0.00638   0.02133
  53        3S         -0.01514   0.01074  -0.01755   0.01398  -0.00234
  54 6   H  1S          0.05717   0.03117  -0.03212   0.07799   0.06341
  55        2S          0.06097   0.05260  -0.05361   0.13112   0.07690
  56        3S         -0.00187   0.02623  -0.03493   0.05895   0.01760
                          11        12        13        14        15
  11        4PX         0.08142
  12        4PY         0.02253   0.06285
  13        4PZ         0.00001  -0.00136   0.06130
  14        5S         -0.01123   0.00006   0.00746   0.04802
  15        5PX         0.00756   0.00131  -0.00223  -0.00772   0.00172
  16        5PY        -0.00035   0.00731   0.00387   0.01355  -0.00213
  17        5PZ         0.00089  -0.00066   0.00110   0.00077  -0.00003
  18        6D 0        0.00325  -0.00563   0.00870  -0.00250   0.00048
  19        6D+1        0.00425  -0.00119  -0.00073  -0.00106   0.00052
  20        6D-1       -0.00115   0.00471   0.00570   0.00006  -0.00026
  21        6D+2       -0.00679  -0.00874   0.00136   0.00053  -0.00062
  22        6D-2        0.00881  -0.00003   0.00102  -0.00089   0.00068
  23 2   H  1S          0.00000   0.00000   0.00000   0.00000  -0.00000
  24        2S          0.00000   0.00000   0.00000   0.00000  -0.00000
  25        3S          0.00000   0.00000   0.00000   0.00000  -0.00000
  26 3   H  1S          0.00000   0.00000   0.00000   0.00000  -0.00000
  27        2S          0.00000   0.00000   0.00000   0.00000  -0.00000
  28        3S         -0.00000   0.00000   0.00000   0.00000  -0.00000
  29 4   C  1S          0.00868  -0.01333  -0.00352  -0.02840   0.00382
  30        2S          0.01421  -0.02180  -0.00569  -0.03928   0.00549
  31        2PX         0.05982   0.05505  -0.01479  -0.02431   0.00801
  32        2PY         0.04407  -0.01182   0.02161   0.03186  -0.00180
  33        2PZ        -0.01867   0.02441   0.03863  -0.00572  -0.00179
  34        3S         -0.04263   0.06473   0.01574   0.09150  -0.01368
  35        3PX         0.09504   0.08352  -0.02204  -0.03868   0.01265
  36        3PY         0.06665  -0.01281   0.03214   0.05179  -0.00312
  37        3PZ        -0.02808   0.03638   0.06062  -0.01065  -0.00254
  38        4S         -0.04155   0.06078   0.02315   0.09603  -0.01571
  39        4PX         0.08867   0.07534  -0.01633  -0.02225   0.00964
  40        4PY         0.05548  -0.00718   0.01954   0.02038   0.00095
  41        4PZ        -0.02753   0.03694   0.05582   0.00592  -0.00455
  42        5S          0.01418  -0.01150  -0.01100  -0.05006   0.00840
  43        5PX         0.01295   0.00542  -0.00263  -0.00870   0.00218
  44        5PY         0.00102   0.00457   0.00238   0.01401  -0.00190
  45        5PZ        -0.00496   0.00576   0.00670   0.00067  -0.00072
  46        6D 0        0.00091  -0.00197   0.00008   0.00332  -0.00039
  47        6D+1       -0.00152  -0.00165   0.00380   0.00353  -0.00064
  48        6D-1       -0.00205   0.00140  -0.00565  -0.00700   0.00085
  49        6D+2        0.00546   0.00321   0.00008  -0.00166   0.00053
  50        6D-2       -0.00322  -0.00258   0.00011  -0.00005  -0.00034
  51 5   H  1S          0.01339  -0.02180  -0.00228   0.04172  -0.00403
  52        2S          0.02154  -0.03390   0.00286   0.05435  -0.00510
  53        3S          0.00529  -0.00862   0.01068   0.01129  -0.00130
  54 6   H  1S          0.01611  -0.01214   0.05043  -0.01066   0.00222
  55        2S          0.02666  -0.01882   0.08547  -0.01071   0.00245
  56        3S          0.01220  -0.01367   0.03954   0.00329  -0.00020
                          16        17        18        19        20
  16        5PY         0.00492
  17        5PZ         0.00012   0.00007
  18        6D 0       -0.00111   0.00025   0.00225
  19        6D+1       -0.00052   0.00009   0.00036   0.00036
  20        6D-1        0.00078  -0.00002   0.00024  -0.00035   0.00105
  21        6D+2       -0.00070   0.00001   0.00067  -0.00013  -0.00037
  22        6D-2       -0.00000   0.00010   0.00071   0.00047  -0.00022
  23 2   H  1S         -0.00000  -0.00000   0.00000   0.00000   0.00000
  24        2S         -0.00000  -0.00000   0.00000   0.00000   0.00000
  25        3S         -0.00000  -0.00000  -0.00000   0.00000   0.00000
  26 3   H  1S         -0.00000  -0.00000   0.00000   0.00000   0.00000
  27        2S         -0.00000  -0.00000   0.00000   0.00000   0.00000
  28        3S         -0.00000  -0.00000   0.00000  -0.00000  -0.00000
  29 4   C  1S         -0.00737  -0.00081   0.00342   0.00071  -0.00122
  30        2S         -0.01061  -0.00104   0.00470   0.00114  -0.00194
  31        2PX        -0.00108  -0.00040  -0.00291   0.00191   0.00158
  32        2PY         0.00895   0.00169   0.00509   0.00258  -0.00150
  33        2PZ         0.00305  -0.00043   0.00208  -0.00288   0.00712
  34        3S          0.02653   0.00205  -0.01125  -0.00347   0.00568
  35        3PX        -0.00197  -0.00060  -0.00401   0.00313   0.00232
  36        3PY         0.01482   0.00261   0.00692   0.00378  -0.00200
  37        3PZ         0.00424  -0.00069   0.00361  -0.00440   0.01101
  38        4S          0.03056   0.00145  -0.01065  -0.00450   0.00653
  39        4PX         0.00220  -0.00030  -0.00376   0.00276   0.00209
  40        4PY         0.00565   0.00176   0.00582   0.00342  -0.00162
  41        4PZ         0.00836  -0.00035   0.00198  -0.00427   0.01008
  42        5S         -0.01562  -0.00060   0.00354   0.00180  -0.00156
  43        5PX        -0.00177  -0.00008   0.00033   0.00064  -0.00009
  44        5PY         0.00436   0.00027  -0.00090  -0.00018   0.00024
  45        5PZ         0.00124  -0.00012  -0.00003  -0.00071   0.00143
  46        6D 0        0.00071   0.00011   0.00008   0.00012  -0.00029
  47        6D+1        0.00083   0.00014   0.00045  -0.00006   0.00018
  48        6D-1       -0.00180  -0.00032  -0.00073  -0.00014  -0.00013
  49        6D+2        0.00014  -0.00005   0.00005   0.00014   0.00016
  50        6D-2       -0.00005  -0.00009   0.00004  -0.00020  -0.00003
  51 5   H  1S          0.00764   0.00172   0.00066   0.00209  -0.00413
  52        2S          0.00968   0.00245   0.00253   0.00308  -0.00545
  53        3S          0.00242   0.00062   0.00217   0.00053  -0.00027
  54 6   H  1S         -0.00366   0.00134   0.01057   0.00132   0.00319
  55        2S         -0.00346   0.00223   0.01712   0.00189   0.00552
  56        3S          0.00055   0.00113   0.00785   0.00086   0.00199
                          21        22        23        24        25
  21        6D+2        0.00153
  22        6D-2       -0.00027   0.00129
  23 2   H  1S         -0.00000   0.00000   0.05946
  24        2S         -0.00000   0.00000   0.10436   0.18317
  25        3S         -0.00000   0.00000   0.05589   0.09810   0.05254
  26 3   H  1S         -0.00000   0.00000   0.05945   0.10434   0.05588
  27        2S         -0.00000   0.00000   0.10433   0.18312   0.09808
  28        3S          0.00000  -0.00000   0.05570   0.09777   0.05236
  29 4   C  1S          0.00347   0.00464  -0.00000  -0.00000  -0.00000
  30        2S          0.00468   0.00623  -0.00000  -0.00000  -0.00000
  31        2PX        -0.01014   0.00405   0.00000  -0.00000   0.00000
  32        2PY         0.00005   0.00721   0.00000   0.00000   0.00000
  33        2PZ        -0.00077  -0.00219   0.00000  -0.00000   0.00000
  34        3S         -0.01060  -0.01411   0.00000   0.00000   0.00000
  35        3PX        -0.01548   0.00681   0.00000  -0.00000   0.00000
  36        3PY        -0.00078   0.01039  -0.00000  -0.00000   0.00000
  37        3PZ        -0.00093  -0.00308   0.00000   0.00000   0.00000
  38        4S         -0.00788  -0.01056  -0.00000  -0.00000  -0.00000
  39        4PX        -0.01383   0.00702  -0.00000  -0.00000   0.00000
  40        4PY        -0.00153   0.00763   0.00000   0.00000   0.00000
  41        4PZ        -0.00146  -0.00336  -0.00000  -0.00000  -0.00000
  42        5S          0.00059   0.00161  -0.00000  -0.00000  -0.00000
  43        5PX        -0.00127   0.00131   0.00000   0.00000   0.00000
  44        5PY        -0.00071  -0.00008   0.00000   0.00000   0.00000
  45        5PZ        -0.00018  -0.00056   0.00000   0.00000   0.00000
  46        6D 0        0.00019   0.00023  -0.00000  -0.00000  -0.00000
  47        6D+1        0.00028  -0.00011  -0.00000  -0.00000  -0.00000
  48        6D-1       -0.00004  -0.00028   0.00000   0.00000   0.00000
  49        6D+2       -0.00050   0.00073  -0.00000  -0.00000   0.00000
  50        6D-2        0.00067  -0.00000   0.00000   0.00000  -0.00000
  51 5   H  1S          0.00077   0.00148  -0.00000  -0.00000  -0.00000
  52        2S          0.00171   0.00294   0.00000   0.00000  -0.00000
  53        3S          0.00090   0.00121  -0.00000  -0.00000  -0.00000
  54 6   H  1S          0.00101   0.00216   0.00000   0.00000   0.00000
  55        2S          0.00187   0.00409  -0.00000  -0.00000  -0.00000
  56        3S          0.00177   0.00263   0.00000   0.00000   0.00000
                          26        27        28        29        30
  26 3   H  1S          0.05944
  27        2S          0.10432   0.18308
  28        3S          0.05570   0.09775   0.05219
  29 4   C  1S         -0.00000  -0.00000   0.00000   0.66235
  30        2S         -0.00000  -0.00000   0.00000   0.56525   0.49746
  31        2PX        -0.00000   0.00000  -0.00000  -0.00084  -0.00070
  32        2PY         0.00000   0.00000  -0.00000   0.00360   0.00432
  33        2PZ        -0.00000   0.00000  -0.00000  -0.00224  -0.00363
  34        3S          0.00000   0.00000  -0.00000  -0.10258  -0.17467
  35        3PX        -0.00000   0.00000  -0.00000   0.00332   0.00458
  36        3PY        -0.00000   0.00000  -0.00000  -0.00470  -0.00578
  37        3PZ         0.00000   0.00000  -0.00000  -0.00100  -0.00169
  38        4S         -0.00000  -0.00000  -0.00000  -0.10050  -0.15402
  39        4PX        -0.00000   0.00000  -0.00000  -0.00050  -0.00015
  40        4PY         0.00000   0.00000  -0.00000   0.00295   0.00362
  41        4PZ        -0.00000  -0.00000  -0.00000  -0.01016  -0.01683
  42        5S         -0.00000  -0.00000  -0.00000   0.03312   0.04611
  43        5PX         0.00000   0.00000   0.00000   0.00587   0.00821
  44        5PY         0.00000   0.00000   0.00000  -0.01099  -0.01511
  45        5PZ         0.00000   0.00000   0.00000  -0.00021  -0.00102
  46        6D 0       -0.00000  -0.00000   0.00000  -0.00137  -0.00158
  47        6D+1       -0.00000  -0.00000   0.00000  -0.00174  -0.00288
  48        6D-1        0.00000   0.00000   0.00000   0.00328   0.00549
  49        6D+2       -0.00000   0.00000  -0.00000   0.00146   0.00300
  50        6D-2        0.00000   0.00000   0.00000   0.00136   0.00308
  51 5   H  1S         -0.00000  -0.00000   0.00000  -0.02020  -0.03240
  52        2S          0.00000   0.00000   0.00000  -0.02359  -0.03734
  53        3S         -0.00000  -0.00000  -0.00000   0.00022  -0.00154
  54 6   H  1S          0.00000   0.00000  -0.00000   0.00104   0.00173
  55        2S         -0.00000  -0.00000  -0.00000   0.00287   0.00432
  56        3S          0.00000   0.00000   0.00000   0.00298   0.00466
                          31        32        33        34        35
  31        2PX         0.08005
  32        2PY        -0.00359   0.07398
  33        2PZ         0.00179  -0.01901   0.05188
  34        3S          0.00055  -0.00997   0.01256   0.51980
  35        3PX         0.12384  -0.00287   0.00216  -0.00992   0.19192
  36        3PY        -0.00253   0.11112  -0.02836   0.00766  -0.00036
  37        3PZ         0.00241  -0.02884   0.08083   0.00857   0.00304
  38        4S         -0.01026   0.00905   0.02344   0.41188  -0.02407
  39        4PX         0.10723   0.01213   0.00009  -0.00087   0.16645
  40        4PY         0.01099   0.06860  -0.02094  -0.00955   0.01961
  41        4PZ        -0.00142  -0.01771   0.07089   0.05199  -0.00350
  42        5S          0.01931  -0.02701  -0.00388  -0.10919   0.03144
  43        5PX         0.01364   0.00020  -0.00124  -0.01952   0.02156
  44        5PY        -0.00159   0.01009  -0.00130   0.03487  -0.00290
  45        5PZ        -0.00022  -0.00372   0.01028   0.00547  -0.00054
  46        6D 0       -0.00217   0.00437  -0.00248   0.00240  -0.00328
  47        6D+1       -0.00374   0.00310   0.00091   0.00823  -0.00583
  48        6D-1        0.00326  -0.00874   0.00065  -0.01571   0.00505
  49        6D+2        0.00512   0.00221   0.00076  -0.01023   0.00820
  50        6D-2       -0.00387  -0.00039   0.00093  -0.01111  -0.00581
  51 5   H  1S         -0.02094   0.04910  -0.03773   0.08798  -0.03269
  52        2S         -0.03050   0.07181  -0.04943   0.09916  -0.04695
  53        3S         -0.00937   0.01974  -0.00374   0.00914  -0.01399
  54 6   H  1S         -0.00398   0.01832   0.02124  -0.00693  -0.00490
  55        2S         -0.00950   0.03759   0.03645  -0.01416  -0.01236
  56        3S         -0.01179   0.02798   0.01286  -0.01407  -0.01673
                          36        37        38        39        40
  36        3PY         0.16811
  37        3PZ        -0.04353   0.12617
  38        4S          0.03186   0.02791   0.35468
  39        4PX         0.02224  -0.00024  -0.00650   0.14862
  40        4PY         0.10337  -0.03191  -0.00129   0.02884   0.06901
  41        4PZ        -0.02480   0.10976   0.06589  -0.00228  -0.02300
  42        5S         -0.04547  -0.00391  -0.11433   0.01553  -0.01500
  43        5PX        -0.00013  -0.00156  -0.01918   0.01801   0.00334
  44        5PY         0.01685  -0.00272   0.03383   0.00105   0.00779
  45        5PZ        -0.00540   0.01594   0.00844  -0.00040  -0.00477
  46        6D 0        0.00666  -0.00390   0.00307  -0.00188   0.00364
  47        6D+1        0.00488   0.00130   0.00773  -0.00440   0.00235
  48        6D-1       -0.01374   0.00124  -0.01445   0.00255  -0.00787
  49        6D+2        0.00310   0.00140  -0.00687   0.00768   0.00254
  50        6D-2       -0.00116   0.00168  -0.00672  -0.00496  -0.00166
  51 5   H  1S          0.07734  -0.06039   0.07128  -0.01861   0.04505
  52        2S          0.11174  -0.07866   0.08148  -0.02722   0.06612
[...]
  44        5PY         0.00000   0.00058   0.00000   0.00000   0.00000
  45        5PZ         0.00000   0.00000   0.00059   0.00000   0.00000
  46        6D 0        0.00000   0.00000   0.00000   0.00000   0.00000
  47        6D+1        0.00000   0.00000   0.00000   0.00000   0.00000
  48        6D-1        0.00000   0.00000   0.00000   0.00000   0.00000
  49        6D+2        0.00000   0.00000   0.00000   0.00000   0.00000
  50        6D-2        0.00000   0.00000   0.00000   0.00000   0.00000
  51 5   H  1S          0.00042   0.00232   0.00214   0.01341   0.00290
  52        2S          0.00129   0.00709   0.00586   0.03760   0.00580
  53        3S          0.00017   0.00082   0.00019   0.00403   0.00087
  54 6   H  1S         -0.00000  -0.00000   0.00000  -0.00003  -0.00004
  55        2S         -0.00008  -0.00045   0.00047  -0.00078  -0.00062
  56        3S         -0.00023  -0.00077   0.00039  -0.00267  -0.00126
                          36        37        38        39        40
  36        3PY         0.16811
  37        3PZ         0.00000   0.12617
  38        4S          0.00000   0.00000   0.35468
  39        4PX         0.00000   0.00000   0.00000   0.14862
  40        4PY         0.06755   0.00000   0.00000   0.00000   0.06901
  41        4PZ         0.00000   0.07172   0.00000   0.00000   0.00000
  42        5S          0.00000   0.00000  -0.08854   0.00000   0.00000
  43        5PX         0.00000   0.00000   0.00000   0.01176   0.00000
  44        5PY         0.00381   0.00000   0.00000   0.00000   0.00509
  45        5PZ         0.00000   0.00361   0.00000   0.00000   0.00000
  46        6D 0        0.00000   0.00000   0.00000   0.00000   0.00000
  47        6D+1        0.00000   0.00000   0.00000   0.00000   0.00000
  48        6D-1        0.00000   0.00000   0.00000   0.00000   0.00000
  49        6D+2        0.00000   0.00000   0.00000   0.00000   0.00000
  50        6D-2        0.00000   0.00000   0.00000   0.00000   0.00000
  51 5   H  1S          0.01600   0.01499   0.01758   0.00182   0.01030
  52        2S          0.03220   0.02720   0.04450   0.00456   0.02585
  53        3S          0.00434   0.00101   0.00799   0.00116   0.00552
  54 6   H  1S         -0.00030   0.00042  -0.00105  -0.00047  -0.00266
  55        2S         -0.00394   0.00459  -0.00408  -0.00196  -0.01119
  56        3S         -0.00444   0.00248  -0.00355  -0.00246  -0.00834
                          41        42        43        44        45
  41        4PZ         0.10113
  42        5S          0.00000   0.05513
  43        5PX         0.00000   0.00000   0.00325
  44        5PY         0.00000   0.00000   0.00000   0.00463
  45        5PZ         0.00951   0.00000   0.00000   0.00000   0.00218
  46        6D 0        0.00000   0.00000   0.00000   0.00000   0.00000
  47        6D+1        0.00000   0.00000   0.00000   0.00000   0.00000
  48        6D-1        0.00000   0.00000   0.00000   0.00000   0.00000
  49        6D+2        0.00000   0.00000   0.00000   0.00000   0.00000
  50        6D-2        0.00000   0.00000   0.00000   0.00000   0.00000
  51 5   H  1S          0.01097  -0.00611   0.00024   0.00121   0.00079
  52        2S          0.02479  -0.01946   0.00068   0.00354   0.00242
  53        3S          0.00081  -0.00730   0.00021   0.00095   0.00029
  54 6   H  1S          0.00316   0.00137   0.00012   0.00026   0.00024
  55        2S          0.01297   0.00369   0.00031   0.00057   0.00112
  56        3S          0.00598  -0.00089  -0.00012  -0.00032   0.00059
                          46        47        48        49        50
  46        6D 0        0.00038
  47        6D+1        0.00000   0.00051
  48        6D-1        0.00000   0.00000   0.00178
  49        6D+2        0.00000   0.00000   0.00000   0.00069
  50        6D-2        0.00000   0.00000   0.00000   0.00000   0.00057
  51 5   H  1S          0.00055   0.00045   0.00258   0.00025   0.00023
  52        2S          0.00056   0.00047   0.00264   0.00022   0.00020
  53        3S          0.00002   0.00003   0.00013   0.00000   0.00000
  54 6   H  1S         -0.00000   0.00002   0.00006   0.00000   0.00001
  55        2S          0.00000   0.00022   0.00055  -0.00001   0.00007
  56        3S          0.00001   0.00009   0.00022  -0.00000   0.00000
                          51        52        53        54        55
  51 5   H  1S          0.06980
  52        2S          0.06590   0.12629
  53        3S          0.00630   0.01924   0.00681
  54 6   H  1S          0.00000   0.00000   0.00011   0.05762
  55        2S          0.00000   0.00004   0.00080   0.06526   0.15016
  56        3S          0.00011   0.00086   0.00168   0.01469   0.05207
                          56
  56        3S          0.03200
     Gross orbital populations:
                           1
   1 1   C  1S          1.10610
   2        2S          0.88402
   3        2PX         0.15129
   4        2PY         0.19442
   5        2PZ         0.14318
   6        3S          0.87195
   7        3PX         0.37546
   8        3PY         0.45636
   9        3PZ         0.38954
  10        4S          0.77401
  11        4PX         0.28945
  12        4PY         0.23304
  13        4PZ         0.28271
  14        5S         -0.02645
  15        5PX         0.02252
  16        5PY         0.03824
  17        5PZ         0.00183
  18        6D 0        0.01270
  19        6D+1        0.00154
  20        6D-1        0.00598
  21        6D+2        0.01026
  22        6D-2        0.00930
  23 2   H  1S          0.20520
  24        2S          0.52683
  25        3S          0.26857
  26 3   H  1S          0.20514
  27        2S          0.52662
  28        3S          0.26763
  29 4   C  1S          1.10557
  30        2S          0.88451
  31        2PX         0.20093
  32        2PY         0.19464
  33        2PZ         0.13478
  34        3S          0.84712
  35        3PX         0.47861
  36        3PY         0.46477
  37        3PZ         0.34336
  38        4S          0.61671
  39        4PX         0.39970
  40        4PY         0.22100
  41        4PZ         0.32129
  42        5S         -0.05249
  43        5PX         0.03618
  44        5PY         0.03976
  45        5PZ         0.02670
  46        6D 0        0.00302
  47        6D+1        0.00285
  48        6D-1        0.01088
  49        6D+2        0.00552
  50        6D-2        0.00514
  51 5   H  1S          0.23769
  52        2S          0.42147
  53        3S          0.05126
  54 6   H  1S          0.19370
  55        2S          0.43837
  56        3S          0.13951
          Condensed to atoms (all electrons):
               1          2          3          4          5          6
     1  C    5.233296   0.000000   0.000000   0.714090   0.003454   0.276598
     2  H    0.000000   0.639164   0.361443  -0.000000  -0.000000   0.000000
     3  H    0.000000   0.361443   0.637950  -0.000000  -0.000000   0.000000
     4  C    0.714090  -0.000000  -0.000000   5.271374   0.317571  -0.012468
     5  H    0.003454  -0.000000  -0.000000   0.317571   0.385780   0.003613
     6  H    0.276598   0.000000   0.000000  -0.012468   0.003613   0.503834
 Mulliken charges:
               1
     1  C   -0.227439
     2  H   -0.000607
     3  H    0.000607
     4  C   -0.290567
     5  H    0.289582
     6  H    0.228423
 Sum of Mulliken charges =  -0.00000
 Mulliken charges with hydrogens summed into heavy atoms:
               1
     1  C    0.000984
     4  C   -0.000984
 Electronic spatial extent (au):  <R**2>=            908.9188
 Charge=             -0.0000 electrons
 Dipole moment (field-independent basis, Debye):
    X=             -0.2384    Y=              1.4150    Z=              0.2754  Tot=              1.4611
 Quadrupole moment (field-independent basis, Debye-Ang):
   XX=            -16.7538   YY=            -13.7622   ZZ=            -13.3919
   XY=             -0.3530   XZ=              1.2545   YZ=             -1.5525
 Traceless Quadrupole moment (field-independent basis, Debye-Ang):
   XX=             -2.1179   YY=              0.8738   ZZ=              1.2441
   XY=             -0.3530   XZ=              1.2545   YZ=             -1.5525
 Octapole moment (field-independent basis, Debye-Ang**2):
  XXX=             17.5609  YYY=             30.6586  ZZZ=              7.0338  XYY=              7.6735
  XXY=              2.0829  XXZ=              6.5880  XZZ=             12.7614  YZZ=              9.0046
  YYZ=             -0.4637  XYZ=              1.9309
 Hexadecapole moment (field-independent basis, Debye-Ang**3):
 XXXX=           -849.5053 YYYY=           -612.5299 ZZZZ=            -58.6330 XXXY=           -269.9885
 XXXZ=           -128.5495 YYYX=           -356.9399 YYYZ=            -77.1187 ZZZX=            -90.5154
 ZZZY=            -65.5600 XXYY=           -238.2449 XXZZ=           -188.8377 YYZZ=           -110.6513
 XXYZ=            -44.1915 YYXZ=            -45.6330 ZZXY=           -124.7109
 N-N= 2.334535827325D+01 E-N=-2.272671069128D+02  KE= 7.716934142678D+01
 Orbital energies and kinetic energies (alpha):
                                 1                 2
   1         O               -10.370298         15.991276
   2         O               -10.363171         15.997249
   3         O                -0.840113          1.516713
   4         O                -0.640419          1.204056
   5         O                -0.474429          0.477283
   6         O                -0.464169          1.091757
   7         O                -0.409254          1.250651
   8         O                -0.361849          1.055684
   9         V                -0.061764          1.143065
  10         V                 0.042267          1.066675
  11         V                 0.076577          0.275955
  12         V                 0.082790          0.518884
  13         V                 0.087137          0.416720
  14         V                 0.108832          0.222565
  15         V                 0.123320          0.243792
  16         V                 0.134112          0.250794
  17         V                 0.153706          0.261712
  18         V                 0.172077          0.485755
  19         V                 0.185655          0.648948
  20         V                 0.214500          0.684066
  21         V                 0.231909          0.533800
  22         V                 0.299187          0.521526
  23         V                 0.375322          1.310257
  24         V                 0.475627          0.961294
  25         V                 0.497633          1.058754
  26         V                 0.520725          0.964713
  27         V                 0.582033          1.368041
  28         V                 0.612744          1.427063
  29         V                 0.631711          1.492481
  30         V                 0.644252          1.496641
  31         V                 0.666751          1.591534
  32         V                 0.720263          2.275093
  33         V                 0.768151          2.350935
  34         V                 0.929880          2.578234
  35         V                 1.227560          2.131959
  36         V                 1.259042          2.072316
  37         V                 1.297712          2.162380
  38         V                 1.443060          2.288172
  39         V                 1.546306          2.373212
  40         V                 1.658333          2.492586
  41         V                 1.759346          2.791426
  42         V                 1.936353          3.002112
  43         V                 1.991139          2.972175
  44         V                 2.189302          4.078811
  45         V                 2.311730          3.839436
  46         V                 2.423840          3.893498
  47         V                 2.472364          4.138559
  48         V                 2.562983          4.670129
  49         V                 2.746509          6.302139
  50         V                 2.850133          6.082649
  51         V                 2.926949          6.331703
  52         V                 2.973649          6.320575
  53         V                 3.042349          6.736813
  54         V                 3.513064          6.701197
  55         V                23.335604         60.101855
  56         V                23.901239         60.251769
 Total kinetic energy from orbitals= 7.716934142678D+01
 Calling FoFJK, ICntrl=      2127 FMM=F ISym2X=0 I1Cent= 0 IOpClX= 0 NMat=1 NMatS=1 NMatT=0.
 -------------------------------------------------------------------
 Center     Atomic                   Forces (Hartrees/Bohr)
 Number     Number              X              Y              Z
 -------------------------------------------------------------------
      1        6          -0.069821098    0.163371196    0.103185675
      2        1           0.075637697    0.017471542   -0.036037056
      3        1          -0.075637315   -0.017471239    0.036037415
      4        6           0.065928856   -0.136780257   -0.076642517
      5        1           0.005524632   -0.010311356    0.044370240
      6        1          -0.001632772   -0.016279885   -0.070913758
 -------------------------------------------------------------------
 Cartesian Forces:  Max     0.163371196 RMS     0.071954422

 GradGradGradGradGradGradGradGradGradGradGradGradGradGradGradGradGradGrad
 Berny optimization.
 Search for a local minimum.
 Step number   1 out of a maximum of    2
 All quantities printed in internal units (Hartrees-Bohrs-Radians)
 Second derivative matrix not updated -- first step.
 The second derivative matrix:
                          X1        Y1        Z1        X2        Y2
           X1           0.09273
           Y1          -0.17631   0.35551
           Z1           0.01792   0.02149   0.20251
           X2           0.00000   0.00000   0.00000   1.00000
           Y2           0.00000   0.00000   0.00000   0.00000   1.00000
           Z2           0.00000   0.00000   0.00000   0.00000   0.00000
           X3           0.00000   0.00000   0.00000   0.00000   0.00000
           Y3           0.00000   0.00000   0.00000   0.00000   0.00000
           Z3           0.00000   0.00000   0.00000   0.00000   0.00000
           X4          -0.08484   0.16658   0.00509   0.00000   0.00000
           Y4           0.17122  -0.33386  -0.01528   0.00000   0.00000
           Z4           0.00770  -0.01735  -0.06313   0.00000   0.00000
           X5          -0.00002  -0.00012  -0.00926   0.00000   0.00000
           Y5          -0.00132  -0.00045   0.01777   0.00000   0.00000
           Z5          -0.00110  -0.00033   0.01812   0.00000   0.00000
           X6          -0.00787   0.00986  -0.01375   0.00000   0.00000
           Y6           0.00641  -0.02120  -0.02399   0.00000   0.00000
           Z6          -0.02453  -0.00381  -0.15750   0.00000   0.00000
                          Z2        X3        Y3        Z3        X4
           Z2           1.00000
           X3           0.00000   1.00000
           Y3           0.00000   0.00000   1.00000
           Z3           0.00000   0.00000   0.00000   1.00000
           X4           0.00000   0.00000   0.00000   0.00000   0.12386
           Y4           0.00000   0.00000   0.00000   0.00000  -0.21646
           Z4           0.00000   0.00000   0.00000   0.00000   0.03914
           X5           0.00000   0.00000   0.00000   0.00000  -0.03261
           Y5           0.00000   0.00000   0.00000   0.00000   0.04982
           Z5           0.00000   0.00000   0.00000   0.00000  -0.04525
           X6           0.00000   0.00000   0.00000   0.00000  -0.00640
           Y6           0.00000   0.00000   0.00000   0.00000   0.00007
           Z6           0.00000   0.00000   0.00000   0.00000   0.00103
                          Y4        Z4        X5        Y5        Z5
           Y4           0.45409
           Z4          -0.09707   0.24592
           X5           0.04862  -0.03629   0.02926
           Y5          -0.12051   0.09411  -0.05020   0.12010
           Z5           0.11181  -0.18415   0.04612  -0.11159   0.16608
           X6          -0.00339  -0.01054   0.00337   0.00171   0.00023
           Y6           0.00029   0.02032   0.00170   0.00087   0.00011
           Z6           0.00054   0.00137  -0.00057  -0.00029  -0.00004
                          X6        Y6        Z6
           X6           0.01091
           Y6          -0.00818   0.02004
           Z6           0.02407   0.00356   0.15617
 ITU=  0
     Eigenvalues ---    0.00653   0.01988   0.03624   0.04314   0.09257
     Eigenvalues ---    0.29736   0.43222   0.87570   0.96471   0.98360
     Eigenvalues ---    0.99974   1.00000
 Quadratic step=5.692D-01 exceeds max=3.000D-01 adjusted using Lamda=-3.577D-01.
 Angle between NR and scaled steps=  22.52 degrees.
 Angle between quadratic step and forces=  19.32 degrees.
 Linear search not attempted -- first point.
 B after Tr=    -0.002519    0.005961    0.006939
         Rot=    0.999972    0.005923    0.004583    0.000884 Ang=   0.86 deg.
 Variable       Old X    -DE/DX   Delta X   Delta X   Delta X     New X
                                 (Linear)    (Quad)   (Total)
    X1        1.84777  -0.06982   0.00000  -0.05019  -0.05594   1.79183
    Y1       -0.33498   0.16337   0.00000   0.14027   0.14680  -0.18818
    Z1        0.21079   0.10319   0.00000   0.09565   0.12135   0.33215
    X2      -16.66786   0.07564   0.00000   0.05484   0.05457 -16.61329
    Y2      -12.01044   0.01747   0.00000   0.01320   0.01821 -11.99223
    Z2       -2.52839  -0.03604   0.00000  -0.02645  -0.02965  -2.55803
    X3      -15.01874  -0.07564   0.00000  -0.05819  -0.05115 -15.06989
    Y3      -11.62969  -0.01747   0.00000  -0.01003  -0.01639 -11.64608
    Z3       -3.31409   0.03604   0.00000   0.02447   0.03122  -3.28287
    X4        0.62800   0.06593   0.00000   0.04326   0.04336   0.67137
    Y4        2.06332  -0.13678   0.00000  -0.11699  -0.11116   1.95216
    Z4        0.18117  -0.07664   0.00000  -0.08320  -0.09315   0.08802
    X5        0.04636   0.00552   0.00000   0.00122   0.01727   0.06363
    Y5        3.42041  -0.01031   0.00000  -0.01208  -0.02244   3.39797
    Z5       -1.44742   0.04437   0.00000   0.09781   0.06499  -1.38243
    X6        2.25398  -0.00163   0.00000   0.01909  -0.00810   2.24588
    Y6       -0.29441  -0.01628   0.00000  -0.04813  -0.01502  -0.30943
    Z6        2.74264  -0.07091   0.00000  -0.12633  -0.09477   2.64788
         Item               Value     Threshold  Converged?
 Maximum Force            0.163371     0.000450     NO 
 RMS     Force            0.071954     0.000300     NO 
 Maximum Displacement     0.146800     0.001800     NO 
 RMS     Displacement     0.068583     0.001200     NO 
 Predicted change in Energy=-5.927321D-02
 GradGradGradGradGradGradGradGradGradGradGradGradGradGradGradGradGradGrad

 Unable to Open any file for archive entry.
 1\1\GINC-BHX0029\Force\RwB97XD\6-311+G(d)\C2H4\BWEIGHT\05-Jan-2023\0\\
 # WB97XD/6-311+G* SCF=XQC FORCE nosym pop=full\\MD Step 999\\0,1\C,0.9
 7779819,-0.17726116,0.11154703\H,-8.82025202,-6.35565316,-1.33796445\H
 ,-7.94757265,-6.15416947,-1.75374135\C,0.33232557,1.09186052,0.0958719
 7\H,0.02453481,1.81000102,-0.7659426\H,1.19275317,-0.15579542,1.451344
 37\\Version=ES64L-G16RevC.01\HF=-78.327009\RMSD=2.092e-09\RMSF=7.195e-
 02\Dipole=-0.0938048,0.5566853,0.1083489\Quadrupole=-1.574573,0.649629
 3,0.9249437,-0.2624125,0.9327182,-1.1542627\PG=C01 [X(C2H4)]\\@
 The archive entry for this job was punched.


 Make no judgements where you have no compassion.
                               -- Anne McCaffrey
 Job cpu time:       0 days  0 hours  0 minutes 19.4 seconds.
 Elapsed time:       0 days  0 hours  2 minutes  9.5 seconds.
 File lengths (MBytes):  RWF=    272 Int=      0 D2E=      0 Chk=     32 Scr=     32
 Normal termination of Gaussian 16 at Thu Jan  5 10:06:59 2023.
