 Entering Gaussian System, Link 0=g16
 Initial command:
 /software/gaussian/g16-c01/sse4/g16/l1.exe "/gpfs/fs2/scratch/bweight/software/many_molecule_many_mode_NAMD/src/NAMD/TEST_ETHYLENE/G16/GS_NEW/Gau-2237.inp" -scrdir="/gpfs/fs2/scratch/bweight/software/many_molecule_many_mode_NAMD/src/NAMD/TEST_ETHYLENE/G16/GS_NEW/"
 Entering Link 1 = /software/gaussian/g16-c01/sse4/g16/l1.exe PID=      2238.
  
 Copyright (c) 1988-2019, Gaussian, Inc.  All Rights Reserved.
  
 This is part of the Gaussian(R) 16 program.  It is based on
 the Gaussian(R) 09 system (copyright 2009, Gaussian, Inc.),
 the Gaussian(R) 03 system (copyright 2003, Gaussian, Inc.),
 the Gaussian(R) 98 system (copyright 1998, Gaussian, Inc.),
 the Gaussian(R) 94 system (copyright 1995, Gaussian, Inc.),
 the Gaussian 92(TM) system (copyright 1992, Gaussian, Inc.),
 the Gaussian 90(TM) system (copyright 1990, Gaussian, Inc.),
 the Gaussian 88(TM) system (copyright 1988, Gaussian, Inc.),
 the Gaussian 86(TM) system (copyright 1986, Carnegie Mellon
 University), and the Gaussian 82(TM) system (copyright 1983,
 Carnegie Mellon University). Gaussian is a federally registered
 trademark of Gaussian, Inc.
  
 This software contains proprietary and confidential information,
 including trade secrets, belonging to Gaussian, Inc.
  
 This software is provided under written license and may be
 used, copied, transmitted, or stored only in accord with that
 written license.
  
 The following legend is applicable only to US Government
 contracts under FAR:
  
                    RESTRICTED RIGHTS LEGEND
  
 Use, reproduction and disclosure by the US Government is
 subject to restrictions as set forth in subparagraphs (a)
 and (c) of the Commercial Computer Software - Restricted
 Rights clause in FAR 52.227-19.
  
 Gaussian, Inc.
 340 Quinnipiac St., Bldg. 40, Wallingford CT 06492
  
  
 ---------------------------------------------------------------
 Warning -- This program may not be used in any manner that
 competes with the business of Gaussian, Inc. or will provide
 assistance to any competitor of Gaussian, Inc.  The licensee
 of this program is prohibited from giving any competitor of
 Gaussian, Inc. access to this program.  By using this program,
 the user acknowledges that Gaussian, Inc. is engaged in the
 business of creating and licensing software in the field of
 computational chemistry and represents and warrants to the
 licensee that it is not a competitor of Gaussian, Inc. and that
 it will not use this program in any manner prohibited above.
 ---------------------------------------------------------------
  

 Cite this work as:
 Gaussian 16, Revision C.01,
 M. J. Frisch, G. W. Trucks, H. B. Schlegel, G. E. Scuseria, 
 M. A. Robb, J. R. Cheeseman, G. Scalmani, V. Barone, 
 G. A. Petersson, H. Nakatsuji, X. Li, M. Caricato, A. V. Marenich, 
 J. Bloino, B. G. Janesko, R. Gomperts, B. Mennucci, H. P. Hratchian, 
 J. V. Ortiz, A. F. Izmaylov, J. L. Sonnenberg, D. Williams-Young, 
 F. Ding, F. Lipparini, F. Egidi, J. Goings, B. Peng, A. Petrone, 
 T. Henderson, D. Ranasinghe, V. G. Zakrzewski, J. Gao, N. Rega, 
 G. Zheng, W. Liang, M. Hada, M. Ehara, K. Toyota, R. Fukuda, 
 J. Hasegawa, M. Ishida, T. Nakajima, Y. Honda, O. Kitao, H. Nakai, 
 T. Vreven, K. Throssell, J. A. Montgomery, Jr., J. E. Peralta, 
 F. Ogliaro, M. J. Bearpark, J. J. Heyd, E. N. Brothers, K. N. Kudin, 
 V. N. Staroverov, T. A. Keith, R. Kobayashi, J. Normand, 
 K. Raghavachari, A. P. Rendell, J. C. Burant, S. S. Iyengar, 
 J. Tomasi, M. Cossi, J. M. Millam, M. Klene, C. Adamo, R. Cammi, 
 J. W. Ochterski, R. L. Martin, K. Morokuma, O. Farkas, 
 J. B. Foresman, and D. J. Fox, Gaussian, Inc., Wallingford CT, 2019.
 
 ******************************************
 Gaussian 16:  ES64L-G16RevC.01  3-Jul-2019
                 3-Jan-2023 
 ******************************************
 %oldchk=../GS_OLD/geometry.chk
 %chk=geometry.chk
 %nprocshared=1
 Will use up to    1 processors via shared memory.
 %mem=5GB
 Copying data from "../GS_OLD/geometry.chk" to current chk file "geometry.chk"
 IOpt=  2 FromEx=T IUOpen= 4 IOptOp= 5 NList=   0 IFRang= 0 IUIn= 4 IUOut= 2.
 ----------------------------------------------
 # WB97XD/6-311+G* SCF=XQC FORCE nosym pop=full
 ----------------------------------------------
 1/10=7,30=1,38=1/1,3;
 2/12=2,15=1,17=6,18=5,40=1/2;
 3/5=4,6=6,7=11,11=2,25=1,30=1,71=1,74=-58/1,2,3;
 4//1;
 5/5=2,8=3,13=1,38=5/2,8;
 6/7=3,28=1/1;
 7/29=1,30=1/1,2,3,16;
 1/10=7,30=1/3;
 99//99;
 -----------
 MD Step 570
 -----------
 Symbolic Z-matrix:
 Charge =  0 Multiplicity = 1
 C                    -0.14136  -0.65222   0.10344 
 H                     0.50405  -1.59903  -0.5222 
 H                    -1.09846  -1.28571   0.29485 
 C                     0.08334   0.86613  -0.12572 
 H                     0.97685   0.69912  -0.59845 
 H                     0.38121  -0.31141   1.15337 
 

 GradGradGradGradGradGradGradGradGradGradGradGradGradGradGradGradGradGrad
 Berny optimization.
 Initialization pass.
 Trust Radius=3.00D-01 FncErr=1.00D-07 GrdErr=1.00D-07 EigMax=2.50D+02 EigMin=1.00D-04
 Number of steps in this run=      2 maximum allowed number of steps=      2.
 GradGradGradGradGradGradGradGradGradGradGradGradGradGradGradGradGradGrad

                          Input orientation:                          
 ---------------------------------------------------------------------
 Center     Atomic      Atomic             Coordinates (Angstroms)
 Number     Number       Type             X           Y           Z
 ---------------------------------------------------------------------
      1          6           0       -0.141358   -0.652219    0.103435
      2          1           0        0.504045   -1.599028   -0.522199
      3          1           0       -1.098457   -1.285714    0.294853
      4          6           0        0.083338    0.866125   -0.125722
      5          1           0        0.976846    0.699121   -0.598445
      6          1           0        0.381206   -0.311413    1.153370
 ---------------------------------------------------------------------
                    Distance matrix (angstroms):
                    1          2          3          4          5
     1  C    0.000000
     2  H    1.305531   0.000000
     3  H    1.163613   1.825857   0.000000
     4  C    1.551893   2.532029   2.490771   0.000000
     5  H    1.889217   2.347519   3.007398   1.024556   0.000000
     6  H    1.221305   2.116737   1.968685   1.763917   2.108276
                    6
     6  H    0.000000
 Symmetry turned off by external request.
 Stoichiometry    C2H4
 Framework group  C1[X(C2H4)]
 Deg. of freedom    12
 Full point group                 C1      NOp   1
 Rotational constants (GHZ):         117.4048102          23.5150069          22.3088193
 Standard basis: 6-311+G(d) (5D, 7F)
    56 basis functions,    92 primitive gaussians,    58 cartesian basis functions
     8 alpha electrons        8 beta electrons
       nuclear repulsion energy        30.6052213350 Hartrees.
 NAtoms=    6 NActive=    6 NUniq=    6 SFac= 1.00D+00 NAtFMM=   60 NAOKFM=F Big=F
 Integral buffers will be    131072 words long.
 Raffenetti 2 integral format.
 Two-electron integral symmetry is turned off.
 Nuclear repulsion after empirical dispersion term =       30.6041753986 Hartrees.
 One-electron integrals computed using PRISM.
 NBasis=    56 RedAO= T EigKep=  3.94D-04  NBF=    56
 NBsUse=    56 1.00D-06 EigRej= -1.00D+00 NBFU=    56
 ExpMin= 4.38D-02 ExpMax= 4.56D+03 ExpMxC= 6.82D+02 IAcc=3 IRadAn=         5 AccDes= 0.00D+00
 Harris functional with IExCor= 4639 and IRadAn=       5 diagonalized for initial guess.
 HarFok:  IExCor= 4639 AccDes= 0.00D+00 IRadAn=         5 IDoV= 1 UseB2=F ITyADJ=14
 ICtDFT=  3500011 ScaDFX=  1.000000  1.000000  1.000000  1.000000
 FoFCou: FMM=F IPFlag=           0 FMFlag=      100000 FMFlg1=           0
         NFxFlg=           0 DoJE=T BraDBF=F KetDBF=T FulRan=T
         wScrn=  0.000000 ICntrl=       500 IOpCl=  0 I1Cent=   200000004 NGrid=           0
         NMat0=    1 NMatS0=      1 NMatT0=    0 NMatD0=    1 NMtDS0=    0 NMtDT0=    0
 Symmetry not used in FoFCou.
 Keep R1 ints in memory in canonical form, NReq=3522991.
 Requested convergence on RMS density matrix=1.00D-08 within  32 cycles.
 Requested convergence on MAX density matrix=1.00D-06.
 Requested convergence on             energy=1.00D-06.
 No special actions if energy rises.
 SCF Done:  E(RwB97XD) =  -78.4033187532     A.U. after   14 cycles
            NFock= 14  Conv=0.17D-08     -V/T= 2.0087
 QCSCF skips out because SCF is already converged.

 **********************************************************************

            Population analysis using the SCF Density.

 **********************************************************************

 Alpha  occ. eigenvalues --  -10.34958 -10.34135  -0.87436  -0.68473  -0.53444
 Alpha  occ. eigenvalues --   -0.47761  -0.43428  -0.32958
 Alpha virt. eigenvalues --   -0.01126   0.06202   0.08490   0.10490   0.10910
 Alpha virt. eigenvalues --    0.13263   0.14649   0.15321   0.16891   0.19480
 Alpha virt. eigenvalues --    0.21223   0.23216   0.27292   0.30929   0.47596
 Alpha virt. eigenvalues --    0.48585   0.52503   0.55437   0.61671   0.63469
 Alpha virt. eigenvalues --    0.63760   0.65897   0.68342   0.74702   0.84037
 Alpha virt. eigenvalues --    0.89272   1.23461   1.26470   1.34752   1.51824
 Alpha virt. eigenvalues --    1.62025   1.67484   1.71612   1.86138   1.87152
 Alpha virt. eigenvalues --    2.08254   2.43755   2.51806   2.56030   2.60910
 Alpha virt. eigenvalues --    2.78805   2.89000   2.97952   3.06058   3.20531
 Alpha virt. eigenvalues --    3.60768  23.44449  23.63829
     Molecular Orbital Coefficients:
                           1         2         3         4         5
                           O         O         O         O         O
     Eigenvalues --   -10.34958 -10.34135  -0.87436  -0.68473  -0.53444
   1 1   C  1S          0.56373  -0.00709  -0.08378   0.06496   0.00412
   2        2S          0.46353  -0.00576  -0.13212   0.10382   0.00677
   3        2PX         0.00025   0.00005   0.01467   0.03516   0.03625
   4        2PY        -0.00031   0.00045   0.04089   0.07547   0.11731
   5        2PZ         0.00043  -0.00009   0.00628  -0.02713   0.10961
   6        3S          0.01385  -0.00013   0.34866  -0.28056  -0.01327
   7        3PX         0.00002  -0.00010   0.02377   0.05423   0.05701
   8        3PY         0.00114  -0.00100   0.05569   0.12797   0.18764
   9        3PZ        -0.00016   0.00022   0.01818  -0.04714   0.18449
  10        4S         -0.01056   0.00172   0.25175  -0.30131  -0.05247
  11        4PX        -0.00021  -0.00002   0.02254   0.02854   0.03096
  12        4PY        -0.00081   0.00141   0.01789   0.06683   0.13156
  13        4PZ        -0.00036  -0.00080   0.00804  -0.02278   0.12179
  14        5S          0.00485  -0.01314   0.03990   0.04988  -0.00951
  15        5PX         0.00065  -0.00037   0.00219   0.00776   0.00299
  16        5PY         0.00257  -0.00350  -0.00100   0.02572   0.00238
  17        5PZ        -0.00051   0.00032   0.00327  -0.00171   0.00443
  18        6D 0       -0.00034   0.00032  -0.00312  -0.00116   0.01643
  19        6D+1       -0.00004  -0.00002   0.00361   0.00132   0.02233
  20        6D-1       -0.00016   0.00017   0.00669  -0.00938   0.01021
  21        6D+2       -0.00043   0.00066  -0.00789  -0.00843  -0.00231
  22        6D-2        0.00028  -0.00019   0.01130  -0.00339   0.00238
  23 2   H  1S          0.00020  -0.00000   0.03563  -0.06036  -0.09125
  24        2S         -0.00005  -0.00032   0.03694  -0.07186  -0.12480
  25        3S          0.00172   0.00071  -0.01398  -0.00398  -0.04681
  26 3   H  1S          0.00006  -0.00001   0.04239  -0.10354  -0.06566
  27        2S         -0.00035  -0.00035   0.04449  -0.11079  -0.08374
  28        3S          0.00277   0.00100  -0.00866  -0.00162  -0.02321
  29 4   C  1S          0.00705   0.56367  -0.07401  -0.06815   0.00597
  30        2S          0.00592   0.46380  -0.11683  -0.10856   0.01002
  31        2PX        -0.00011   0.00122   0.02299   0.06432  -0.06535
  32        2PY        -0.00049  -0.00163  -0.05775  -0.00153  -0.03938
  33        2PZ         0.00006  -0.00053  -0.00369  -0.03691   0.08469
  34        3S          0.00011   0.01306   0.31316   0.30141  -0.03325
  35        3PX         0.00035  -0.00019   0.04274   0.10889  -0.09654
  36        3PY         0.00121  -0.00046  -0.09600  -0.00106  -0.06142
  37        3PZ        -0.00016   0.00021  -0.00796  -0.06108   0.13930
  38        4S          0.00079  -0.00994   0.19860   0.24472  -0.00698
  39        4PX        -0.00078  -0.00056   0.02507   0.04101  -0.02856
  40        4PY        -0.00102   0.00178  -0.03289  -0.01509  -0.03093
  41        4PZ         0.00009   0.00003   0.00071  -0.01893   0.06639
  42        5S         -0.00658   0.01227  -0.01584  -0.06612   0.01407
  43        5PX        -0.00025  -0.00128   0.00474  -0.00097   0.00130
  44        5PY         0.00191  -0.00345   0.00833   0.02268  -0.00025
  45        5PZ        -0.00032   0.00079  -0.00204  -0.00507  -0.00532
  46        6D 0        0.00044  -0.00031  -0.00861  -0.00191   0.00237
  47        6D+1        0.00002  -0.00026  -0.00742  -0.01509   0.01554
  48        6D-1        0.00029  -0.00005  -0.00361   0.00482  -0.02249
  49        6D+2        0.00084  -0.00018  -0.00598   0.01820  -0.01872
  50        6D-2       -0.00021   0.00003  -0.00637  -0.01138   0.00272
  51 5   H  1S         -0.00012  -0.00020   0.07946   0.11906  -0.08753
  52        2S          0.00002   0.00017   0.05741   0.12117  -0.13103
  53        3S          0.00141   0.00271  -0.01659   0.02788  -0.07276
  54 6   H  1S          0.00002   0.00012   0.07292  -0.04353   0.12634
  55        2S          0.00024   0.00005   0.07476  -0.05188   0.19113
  56        3S          0.00236   0.00162  -0.02543  -0.00343   0.06195
                           6         7         8         9        10
                           O         O         O         V         V
     Eigenvalues --    -0.47761  -0.43428  -0.32958  -0.01126   0.06202
   1 1   C  1S         -0.00038   0.01997   0.01591  -0.00486   0.04132
   2        2S         -0.00044   0.03172   0.02563  -0.00792   0.06885
   3        2PX         0.17309  -0.04859   0.04064   0.03210  -0.03148
   4        2PY        -0.04713  -0.10015  -0.06578  -0.01780   0.05609
   5        2PZ         0.01146   0.14128  -0.00789   0.06614  -0.01230
   6        3S         -0.00841  -0.09344  -0.07479   0.01051  -0.19977
   7        3PX         0.27679  -0.07559   0.06581   0.05359  -0.04745
   8        3PY        -0.07830  -0.14876  -0.10633  -0.01828   0.10042
   9        3PZ         0.01861   0.22140  -0.01843   0.10646  -0.03492
  10        4S          0.04388  -0.12938  -0.13555   0.18453  -0.55730
  11        4PX         0.23994  -0.07304   0.00732   0.04781  -0.09774
  12        4PY        -0.04239  -0.13919  -0.12964  -0.06499   0.18182
  13        4PZ         0.00888   0.19221  -0.00432   0.14663  -0.01301
  14        5S          0.01679   0.00974  -0.11546   0.74127  -0.33657
  15        5PX         0.02340  -0.00418  -0.00541   0.09467  -0.14621
  16        5PY         0.00383  -0.00229  -0.04546   0.19088  -1.18497
  17        5PZ        -0.00336   0.00803  -0.00190   0.13630   0.10395
  18        6D 0        0.01098   0.00787  -0.00197   0.02277   0.00439
  19        6D+1        0.00828   0.00468   0.00124   0.00853   0.00285
  20        6D-1        0.01553  -0.00164   0.01433  -0.02375  -0.00745
  21        6D+2        0.00225   0.01527  -0.00919   0.00600  -0.00389
  22        6D-2       -0.01189   0.01927  -0.02652  -0.01530  -0.00699
  23 2   H  1S          0.10074  -0.05347   0.08524  -0.02279   0.00207
  24        2S          0.14957  -0.08200   0.16544  -0.06295   0.15440
  25        3S          0.05978  -0.06306   0.13671  -0.12452  -0.30398
  26 3   H  1S         -0.10532   0.08698  -0.04024  -0.03046  -0.01071
  27        2S         -0.14642   0.12742  -0.08646  -0.08755   0.13873
  28        3S         -0.04574   0.04813  -0.08994  -0.18054  -0.45936
  29 4   C  1S          0.03630  -0.00354  -0.05384   0.00461   0.00975
  30        2S          0.05877  -0.00568  -0.08727   0.00713   0.01601
  31        2PX         0.07975   0.11248  -0.11473  -0.10339  -0.01549
  32        2PY        -0.00557   0.11392   0.16037   0.02577  -0.04047
  33        2PZ        -0.00212  -0.00749   0.07374  -0.21104  -0.00180
  34        3S         -0.17327   0.00917   0.24223  -0.01169  -0.04102
  35        3PX         0.12327   0.17278  -0.16672  -0.16995  -0.04667
  36        3PY        -0.00392   0.18070   0.24065   0.04259  -0.04655
  37        3PZ         0.00148  -0.00510   0.10995  -0.33691   0.00571
  38        4S         -0.19427   0.07786   0.47979  -0.09331  -0.22255
  39        4PX         0.06390   0.11626  -0.12483  -0.22299   0.02464
  40        4PY        -0.00553   0.07958   0.16534   0.07862  -0.09898
  41        4PZ         0.00714   0.00258   0.09589  -0.45296  -0.01669
  42        5S         -0.01077   0.01417   0.20877  -0.57244   2.33177
  43        5PX        -0.00236   0.00456  -0.01815  -0.08854   0.15339
  44        5PY        -0.00765  -0.00140  -0.00578   0.17118  -0.66689
  45        5PZ         0.00146   0.00347   0.01750  -0.29568   0.12072
  46        6D 0       -0.00310   0.00816   0.01585   0.01890   0.00605
  47        6D+1        0.00012  -0.01011   0.01308  -0.01383   0.00451
  48        6D-1       -0.00141  -0.01047  -0.01193   0.01345   0.00322
  49        6D+2        0.00290   0.03584   0.00562  -0.00671   0.00206
  50        6D-2       -0.02183  -0.00533   0.01875   0.00855   0.00050
  51 5   H  1S          0.02751   0.08699  -0.07940  -0.00038   0.00104
  52        2S          0.04828   0.12469  -0.14835   0.02384   0.07548
  53        3S          0.01452   0.07378  -0.10110  -0.00855  -0.33073
  54 6   H  1S          0.07513   0.07336  -0.00018   0.06336   0.01085
  55        2S          0.11148   0.13477   0.02150   0.11123   0.11857
  56        3S          0.03613   0.06571   0.03948   0.11969  -0.19621
                          11        12        13        14        15
                           V         V         V         V         V
     Eigenvalues --     0.08490   0.10490   0.10910   0.13263   0.14649
   1 1   C  1S         -0.00995  -0.00116   0.00017  -0.01808   0.00939
   2        2S         -0.01741  -0.00114   0.00041  -0.02902   0.01439
   3        2PX        -0.04620  -0.00784   0.06859   0.04412  -0.04006
   4        2PY        -0.00026  -0.01700  -0.01541   0.02487   0.03166
   5        2PZ        -0.05030  -0.05691  -0.07492   0.03274   0.05887
   6        3S          0.07419  -0.00528   0.00338   0.07287  -0.01902
   7        3PX        -0.08862  -0.01977   0.10554   0.08112  -0.06467
   8        3PY        -0.01140  -0.03786  -0.01035   0.03566   0.03959
   9        3PZ        -0.09354  -0.08626  -0.11185   0.06161   0.08105
  10        4S         -0.10248   0.08847  -0.12810   0.39574  -0.35613
  11        4PX        -0.12061  -0.00565   0.20320   0.18137  -0.16563
  12        4PY        -0.04719  -0.08541  -0.18111  -0.01085   0.17590
  13        4PZ        -0.15458  -0.17315  -0.32480   0.18815   0.35091
  14        5S          5.37406   0.79383   3.48531   1.79923   9.52993
  15        5PX         0.56145   0.58379  -1.22637  -0.16837   1.78860
  16        5PY         2.40250   0.47499   1.00969  -0.25619   2.77995
  17        5PZ        -0.34559   1.20316   0.08805   0.75228  -0.59949
  18        6D 0        0.00670  -0.01494   0.01073  -0.01066  -0.00375
  19        6D+1       -0.00168  -0.01800   0.00305  -0.00358  -0.00895
  20        6D-1        0.00432  -0.01701   0.00788  -0.00652  -0.00155
  21        6D+2        0.02264  -0.00286   0.00535  -0.01146   0.00549
  22        6D-2       -0.00219  -0.00960  -0.00990   0.00393  -0.00009
  23 2   H  1S         -0.01617   0.00261  -0.00779  -0.00929   0.02565
  24        2S         -0.02928  -0.04816  -0.10907  -0.03183   0.15913
  25        3S         -0.22465   0.00320  -0.02346  -0.07294   0.14794
  26 3   H  1S         -0.00141   0.00561  -0.02363   0.00411   0.00777
  27        2S         -0.06268  -0.02498   0.11152   0.04264  -0.01313
  28        3S          0.05826   0.07088  -0.58974  -0.07538   0.12323
  29 4   C  1S          0.03107  -0.00739   0.01493  -0.00119   0.01064
  30        2S          0.05173  -0.01231   0.02401  -0.00089   0.01679
  31        2PX        -0.00941  -0.01998   0.03166  -0.01314   0.04157
  32        2PY         0.02082  -0.01138   0.00146  -0.04541  -0.04515
  33        2PZ         0.00743  -0.03723  -0.01326   0.03762   0.00909
  34        3S         -0.16918   0.03897  -0.07323  -0.01307  -0.04141
  35        3PX        -0.04732  -0.02232   0.04735  -0.00521   0.05193
  36        3PY         0.05279  -0.02404   0.01493  -0.02968  -0.05044
  37        3PZ         0.02706  -0.03329  -0.01880   0.03984   0.00061
  38        4S         -0.30055   0.14218  -0.11123   0.18528  -0.28094
  39        4PX         0.03818  -0.04326   0.10331  -0.10826   0.12249
  40        4PY        -0.04061  -0.03398  -0.09880  -0.25851  -0.18659
  41        4PZ         0.00944  -0.15669  -0.03593   0.17687   0.08159
  42        5S         -4.36914  -0.58156  -2.97276  -0.93485  -9.38980
  43        5PX         0.76533  -0.08634   0.35227   0.61853  -1.37703
  44        5PY         1.50665  -0.09182   1.29209   1.42753   3.45830
  45        5PZ        -0.32906   0.11868  -0.04972  -0.85260   0.00287
  46        6D 0        0.00012  -0.00306  -0.00420  -0.01290  -0.01135
  47        6D+1        0.01168  -0.00554  -0.00086   0.00312  -0.01683
  48        6D-1        0.00062   0.01235   0.00725  -0.01064  -0.00063
  49        6D+2       -0.01116   0.00256  -0.00253  -0.02118   0.00692
  50        6D-2        0.01349  -0.00057  -0.00970   0.00218  -0.01211
  51 5   H  1S         -0.01902   0.00451  -0.00130  -0.02228   0.04772
  52        2S          0.09735  -0.02144  -0.09356   0.01433  -0.04229
  53        3S         -0.60502  -0.03624   0.22138  -0.11516   0.99443
  54 6   H  1S          0.02135  -0.04208   0.02608  -0.05954  -0.02726
  55        2S          0.14318   0.07618   0.08372  -0.17094  -0.06350
  56        3S         -0.15283  -0.78449   0.38550  -0.71876  -0.63238
                          16        17        18        19        20
                           V         V         V         V         V
     Eigenvalues --     0.15321   0.16891   0.19480   0.21223   0.23216
   1 1   C  1S          0.01352  -0.01150  -0.01070  -0.02463  -0.05552
   2        2S          0.02208  -0.01844  -0.01643  -0.03969  -0.09016
   3        2PX         0.01420   0.00539   0.15145  -0.04987  -0.04300
   4        2PY         0.00391  -0.03799  -0.04523  -0.02446  -0.01942
   5        2PZ         0.03061  -0.11942   0.03663   0.02563   0.03047
   6        3S         -0.06471   0.04891   0.01762   0.07189   0.21194
   7        3PX         0.01219   0.00565   0.19330  -0.06260  -0.04667
   8        3PY         0.00258  -0.06067  -0.05853  -0.03211  -0.01162
   9        3PZ         0.02951  -0.15177   0.03611   0.03880   0.03327
  10        4S         -0.20109   0.16985   0.45690   0.82967   2.05380
  11        4PX         0.16942  -0.00456   1.04480  -0.38446  -0.33448
  12        4PY         0.24282  -0.33111  -0.00913  -0.15687  -0.07367
  13        4PZ         0.22492  -0.69886   0.28337   0.16772   0.30378
  14        5S          0.23751  -2.76976  -0.34576 -23.11344  13.51781
  15        5PX        -0.34879   1.21875   1.00787  -1.33478  -0.09530
  16        5PY         1.32450  -1.48678  -0.18909  -6.93580   2.67051
  17        5PZ         1.59023   0.41775  -0.73973   1.22513  -0.41052
  18        6D 0       -0.00777  -0.00503  -0.01805  -0.00218   0.01590
  19        6D+1       -0.01713   0.01295   0.00646  -0.00668   0.00117
  20        6D-1        0.00686  -0.00599  -0.01831   0.00573  -0.00025
  21        6D+2       -0.00230   0.00776   0.00837  -0.01273   0.00922
  22        6D-2       -0.01396   0.01677   0.01152  -0.00225  -0.01175
  23 2   H  1S          0.05014  -0.07451  -0.08368   0.01332  -0.04268
  24        2S          0.03193  -0.13722  -0.12889  -0.03290   0.01910
  25        3S          0.93282  -1.37491  -1.67895   0.71883  -1.37548
  26 3   H  1S          0.00211   0.01658   0.04992  -0.03840  -0.09218
  27        2S          0.06512  -0.01857   0.17288  -0.19190  -0.12690
  28        3S          0.12738   0.25402   1.15779  -0.56791  -2.90654
  29 4   C  1S         -0.00043  -0.00057  -0.00242   0.02694   0.00479
  30        2S         -0.00118  -0.00074  -0.00467   0.04270   0.00761
  31        2PX        -0.00378   0.06290  -0.04886   0.00887   0.04305
  32        2PY        -0.00424   0.02913  -0.00287  -0.02748   0.08807
  33        2PZ         0.08742   0.06002   0.01617   0.00397   0.02501
  34        3S          0.02409  -0.01480   0.03796  -0.08072  -0.00785
  35        3PX        -0.03730   0.07204  -0.08734  -0.03158   0.06665
  36        3PY        -0.01561   0.03394   0.01226   0.02329   0.11146
  37        3PZ         0.10188   0.06553   0.02985   0.02032   0.03486
  38        4S         -0.34718   0.31275  -0.34583  -0.90668  -0.22946
  39        4PX         0.00427   0.38156  -0.17585   0.11121   0.14659
  40        4PY         0.12417   0.00983   0.05663  -0.27133   0.56473
  41        4PZ         0.39383   0.25688   0.02094  -0.01245   0.09249
  42        5S         -0.20277   3.24056   1.76200  23.20911 -10.95438
  43        5PX         0.16905  -1.31347  -0.46676  -1.08772   0.70566
  44        5PY        -0.93491  -0.84869  -0.91442  -7.02874   2.91296
  45        5PZ        -1.53808  -0.76042   0.91587   1.05658  -0.19640
  46        6D 0        0.00322  -0.00366  -0.00562   0.00510  -0.00910
  47        6D+1        0.00452   0.01405   0.01075  -0.00214  -0.00816
  48        6D-1       -0.01157  -0.00079   0.01031   0.00235  -0.00124
  49        6D+2        0.00772   0.00002  -0.00236   0.00754   0.00731
  50        6D-2       -0.00163  -0.01186  -0.01992   0.00398   0.01861
  51 5   H  1S          0.00771  -0.02568  -0.01548   0.02486   0.00823
  52        2S          0.13224  -0.11202   0.02029   0.13094   0.02190
  53        3S         -0.04129  -0.56223  -0.20146  -0.08210   0.35921
  54 6   H  1S         -0.04544   0.01974  -0.06583  -0.00951  -0.04725
  55        2S         -0.07698   0.09927  -0.20231  -0.07187  -0.06778
  56        3S         -0.98343   0.70818  -1.62677   0.10178  -1.64337
                          21        22        23        24        25
                           V         V         V         V         V
     Eigenvalues --     0.27292   0.30929   0.47596   0.48585   0.52503
   1 1   C  1S          0.00660   0.02692   0.01423  -0.00540   0.01371
   2        2S          0.00966   0.04444   0.02289  -0.01080   0.02749
   3        2PX         0.00360  -0.02849   0.01295   0.00845  -0.02846
   4        2PY        -0.04041  -0.16902  -0.03374   0.00266  -0.10486
   5        2PZ         0.07319   0.01526   0.01837  -0.00125  -0.00882
   6        3S          0.01068  -0.11510   0.00374   0.09298  -0.17194
   7        3PX         0.00985  -0.04605   0.06587  -0.00638  -0.11716
   8        3PY        -0.03100  -0.20412  -0.02979   0.03506  -0.44083
   9        3PZ         0.10203   0.01867   0.12516  -0.00547  -0.00181
  10        4S         -0.54318  -1.06360  -1.20705  -0.36137   0.48418
  11        4PX        -0.20475  -0.38964  -0.79425   0.31288   0.97115
  12        4PY        -0.79140  -1.94750  -1.73396   0.00003   1.90918
  13        4PZ         0.51117   0.04410  -0.54840   0.05210  -0.37737
  14        5S         -2.20437   9.17236   5.40598  -0.62475  -1.45036
  15        5PX        -0.37273  -0.08961   0.62916  -1.56594  -0.66220
  16        5PY         0.06798   2.01214   1.88388   0.17631  -0.99155
  17        5PZ         0.33946  -0.90270   0.91490   0.54107   0.67960
  18        6D 0       -0.00985  -0.01948   0.01771  -0.01492  -0.00827
  19        6D+1       -0.00367  -0.00554   0.03961   0.00893  -0.00710
  20        6D-1       -0.00831  -0.01572   0.02674  -0.02872   0.01731
  21        6D+2       -0.01996  -0.03527  -0.00702   0.00809   0.02553
  22        6D-2        0.00316  -0.00499   0.01867   0.02908   0.01883
  23 2   H  1S          0.03117  -0.00862  -0.02578  -0.08104   0.00545
  24        2S          0.06270  -0.06559  -0.52613  -0.97208   0.22817
  25        3S          0.22851  -1.09952   0.40494   2.39675   0.29551
  26 3   H  1S          0.00521  -0.00811   0.00199   0.08392   0.03756
  27        2S         -0.02735  -0.09523  -0.34359   1.08015   1.08303
  28        3S         -0.63907  -1.55025  -0.35890  -2.15347  -0.57014
  29 4   C  1S         -0.03608  -0.02499  -0.00611  -0.00907  -0.00767
  30        2S         -0.05841  -0.04029  -0.00768  -0.01611  -0.01179
  31        2PX         0.09914  -0.10216  -0.01040  -0.04680  -0.00975
  32        2PY        -0.08737  -0.13759   0.01739  -0.00744   0.01296
  33        2PZ        -0.04303   0.06284   0.01176   0.01817  -0.04416
  34        3S          0.10828   0.09351  -0.09715   0.04794   0.04998
  35        3PX         0.11357  -0.13968   0.00721  -0.11669   0.03918
  36        3PY        -0.14558  -0.21498   0.01955  -0.05363   0.21929
  37        3PZ        -0.04033   0.09168   0.06142   0.04476  -0.17637
  38        4S          2.21142   1.21717   2.15983   0.26917  -1.24723
  39        4PX         0.95586  -0.77599   0.24696   0.41131  -0.65389
  40        4PY        -0.83853  -1.26795  -1.29976   0.02493   0.20782
  41        4PZ        -0.44180   0.49046   0.27992  -0.30020   0.48097
  42        5S          4.61161  -9.07285  -4.52169   0.17250   2.60189
  43        5PX         0.85570   0.33423  -0.02661   0.35001   0.69159
  44        5PY        -1.60373   3.14095   1.24244  -0.23873  -0.44520
  45        5PZ        -0.22223  -0.16348  -0.25890  -0.12448  -0.44618
  46        6D 0       -0.00082   0.00807   0.02163  -0.00069   0.02713
  47        6D+1       -0.00194  -0.00306   0.00868   0.01961   0.00490
  48        6D-1        0.00187   0.01157  -0.02794   0.01438   0.01242
  49        6D+2        0.00259   0.01683  -0.00558  -0.02825   0.02891
  50        6D-2       -0.01307  -0.01096  -0.00781  -0.02702  -0.05209
  51 5   H  1S         -0.03792   0.05714  -0.00177  -0.05721   0.04008
  52        2S         -0.09428   0.17259  -0.47341  -0.63305   0.79070
  53        3S         -3.97301   1.62605   0.42912   0.37831  -1.17629
  54 6   H  1S         -0.04552  -0.02706   0.07831  -0.02996   0.07056
  55        2S         -0.07721  -0.11766   1.58186  -0.28011   0.36653
  56        3S         -1.00890   0.92008  -2.90526   0.59622  -0.80139
                          26        27        28        29        30
                           V         V         V         V         V
     Eigenvalues --     0.55437   0.61671   0.63469   0.63760   0.65897
   1 1   C  1S          0.01978   0.00051  -0.00236   0.01118  -0.02361
   2        2S          0.03180   0.00046  -0.00135   0.01710  -0.04460
   3        2PX        -0.02367   0.03355  -0.22741  -0.03487   0.05209
   4        2PY         0.01988  -0.09750   0.05485   0.07765   0.03126
   5        2PZ         0.06844  -0.19748  -0.03089  -0.07275   0.08971
   6        3S          0.00531   0.01770  -0.06724   0.01203   0.23610
   7        3PX        -0.06620   0.14542  -0.92346  -0.09904   0.15487
   8        3PY         0.06382  -0.36874   0.14247   0.46847   0.02855
   9        3PZ         0.21438  -0.80870  -0.10918  -0.29500   0.32065
  10        4S         -0.39229  -0.38780  -0.36656   0.93361  -0.73660
  11        4PX        -0.12548  -0.70331   1.77680   0.34036  -0.53517
  12        4PY         0.06105   0.39945  -0.69235  -1.00545  -0.40751
  13        4PZ        -0.16552   1.85327   0.37675  -0.04916  -0.63590
  14        5S          5.46222   2.29506  -0.03877   3.93936  -0.31397
  15        5PX         0.77054   0.35602   0.14870  -0.11535   0.30714
  16        5PY         0.35317   0.62726   0.27381   1.15359   0.06747
  17        5PZ        -0.57468  -0.30115  -0.19166   0.07530   0.46163
  18        6D 0       -0.02272   0.00992   0.01237  -0.02788   0.01883
  19        6D+1       -0.01090  -0.00695   0.02182   0.00841  -0.00395
  20        6D-1        0.03456  -0.02292  -0.01230  -0.01237  -0.01899
  21        6D+2       -0.02403  -0.01569   0.01372  -0.04648   0.02510
  22        6D-2       -0.00846  -0.00840  -0.03804   0.03842  -0.03469
  23 2   H  1S          0.10829  -0.03654   0.02316   0.03766  -0.01822
  24        2S          1.40415   0.17027  -0.07590  -0.02765  -0.18121
  25        3S         -2.59655   0.58658  -0.79839  -0.80948   0.25767
  26 3   H  1S          0.05737  -0.00143  -0.06191   0.04788  -0.01922
  27        2S          0.70784  -0.15290  -0.41203   0.34778  -0.27290
  28        3S         -0.92666  -0.22854   1.50290  -1.20525   0.26703
  29 4   C  1S         -0.01493  -0.01817  -0.01226   0.00392   0.00200
  30        2S         -0.02641  -0.03148  -0.02120  -0.00051   0.00613
  31        2PX        -0.05685  -0.00923   0.01796  -0.01554  -0.11291
  32        2PY        -0.05373  -0.02117   0.08102  -0.09770   0.07140
  33        2PZ        -0.01411  -0.05813  -0.02547  -0.09743  -0.17873
  34        3S          0.07466   0.07038   0.04889   0.22101  -0.09803
  35        3PX        -0.18402  -0.03228   0.00398  -0.06832  -0.45722
  36        3PY        -0.10717   0.02784   0.30419  -0.51055   0.21535
  37        3PZ        -0.00231  -0.27730  -0.11692  -0.34390  -0.70390
  38        4S          0.42307   0.67858   0.82122  -0.69221   0.65297
  39        4PX         0.86597   0.80301   0.04104  -0.60665   0.94892
  40        4PY        -0.20828  -0.67385  -0.95406   1.36333  -0.69207
  41        4PZ        -0.31784  -0.02925   0.10144   0.99423   1.36426
  42        5S         -4.21782  -1.89051   0.49087  -2.84361   0.10343
  43        5PX        -0.71463  -0.28958  -0.06799   0.33033  -0.47965
  44        5PY         1.31441   0.57780  -0.01901   0.11838   0.15137
  45        5PZ         0.34567   0.12454   0.15074  -0.38621  -0.85705
  46        6D 0        0.02799   0.01036  -0.01259  -0.02803  -0.01803
  47        6D+1        0.00956   0.00562   0.01526  -0.01507  -0.01163
  48        6D-1       -0.04186   0.03155   0.01402  -0.00095   0.02584
  49        6D+2        0.01105   0.01377   0.00869  -0.04299  -0.01091
  50        6D-2        0.01062   0.01365   0.03984  -0.00502   0.03283
  51 5   H  1S         -0.03246  -0.04054  -0.00608   0.01211   0.00869
  52        2S         -0.96425  -0.84456  -0.41300   0.75810  -0.04389
  53        3S          1.14071   0.55787  -0.33080   0.18543  -0.24811
  54 6   H  1S          0.01243   0.05496   0.03296   0.06006  -0.03112
  55        2S          0.27789   0.18690  -0.01582   0.74263  -0.43615
  56        3S         -0.40775  -1.55616  -1.11094  -1.31571   0.59518
                          31        32        33        34        35
                           V         V         V         V         V
     Eigenvalues --     0.68342   0.74702   0.84037   0.89272   1.23461
   1 1   C  1S          0.00168  -0.01476   0.08473   0.07979  -0.00888
   2        2S          0.00329  -0.03040   0.18310   0.16939  -0.02096
   3        2PX        -0.08757  -0.02722   0.01192   0.00871  -0.01783
   4        2PY        -0.20544  -0.05235   0.06115  -0.05468   0.01490
   5        2PZ         0.07983  -0.04421  -0.02150   0.02197   0.03626
   6        3S         -0.05776   0.21907  -1.56778  -1.55989   0.26661
   7        3PX        -0.32656  -0.13199   0.00673   0.08038  -0.01201
   8        3PY        -0.62477  -0.15159   0.08046   0.09926   0.00516
   9        3PZ         0.26526  -0.14357  -0.05844   0.05759   0.03026
  10        4S          0.88363   0.41915   2.81364   5.11807  -0.77887
  11        4PX         0.66375   0.25757  -0.01710   0.01560  -0.09446
  12        4PY         1.74243   0.99180  -0.44252   1.39996  -0.03432
  13        4PZ        -0.59677   0.23776   0.56768  -0.33447   0.00950
  14        5S         -1.16453  -4.93874   2.31759  -9.68879   0.86618
  15        5PX         0.35796   0.06034  -0.15785  -0.43855   0.19642
  16        5PY         0.05178  -0.74550   0.26846  -2.94785   0.19776
  17        5PZ         0.26198   0.35184   0.06151   0.47349  -0.07774
  18        6D 0       -0.01295  -0.00356   0.03710  -0.01580   0.47125
  19        6D+1        0.01321   0.01593  -0.00651   0.00003  -0.37714
  20        6D-1       -0.03725   0.01879  -0.02937  -0.07326  -0.34377
  21        6D+2       -0.05437  -0.03178   0.10325  -0.05684  -0.09259
  22        6D-2        0.00073  -0.02856  -0.04200   0.01123   0.10122
  23 2   H  1S         -0.02347  -0.01810   0.02853   0.01279   0.01528
  24        2S         -0.26328  -0.07009  -0.10733  -0.34206   0.35195
  25        3S          0.54302   0.70957  -0.67730   0.04277  -0.25793
  26 3   H  1S         -0.07141  -0.02196   0.04458   0.01585  -0.00192
  27        2S         -0.60018  -0.18689   0.01266  -0.28671   0.07458
  28        3S          1.90281   0.99596  -1.42211  -0.28332   0.16304
  29 4   C  1S          0.00259   0.01080   0.07959  -0.09029  -0.00071
  30        2S          0.00670   0.02257   0.17163  -0.18977  -0.00080
  31        2PX         0.01533  -0.21879  -0.04614  -0.01595  -0.00349
  32        2PY        -0.21833  -0.01162  -0.02291  -0.05177   0.02188
  33        2PZ        -0.02940   0.11542   0.00967   0.01373   0.07162
  34        3S         -0.08252  -0.11140  -1.43225   1.65789  -0.01297
  35        3PX         0.07049  -0.89812  -0.12867  -0.10458  -0.02380
  36        3PY        -0.61701  -0.05912   0.01968   0.11269  -0.02286
  37        3PZ        -0.15087   0.47435  -0.04714   0.00359   0.07498
  38        4S         -0.96869  -0.20150   2.60021  -4.97564   0.21602
  39        4PX         0.28674   1.54630   0.77574   0.30298  -0.05665
  40        4PY         1.69227   0.70319  -0.24112   1.69889  -0.10817
  41        4PZ         0.06251  -0.88780  -0.07272  -0.08013   0.02620
  42        5S         -0.10730   5.95569  -1.24899   9.69389  -0.73294
  43        5PX        -0.28164   0.02285   0.45398  -0.56559  -0.02502
  44        5PY        -0.33955  -1.96807   0.28822  -2.84813   0.21685
  45        5PZ        -0.18100   0.05395  -0.15049   0.44185  -0.03088
  46        6D 0        0.03244  -0.01474   0.02177  -0.00071   0.11459
  47        6D+1        0.02694  -0.03207   0.02441  -0.01008  -0.07086
  48        6D-1        0.03425  -0.01925   0.07883   0.07100   0.50175
  49        6D+2        0.04620   0.00667   0.07999   0.05778  -0.26236
  50        6D-2       -0.01465   0.02861  -0.00817   0.00287  -0.08920
  51 5   H  1S         -0.02788   0.11200   0.02012  -0.02738  -0.03142
  52        2S         -0.52774   1.21023  -0.17495   0.21932   0.14469
  53        3S          0.31768  -3.59772  -1.58261   0.32773  -0.00831
  54 6   H  1S         -0.02117   0.03181   0.03872   0.01770   0.02613
  55        2S         -0.08325   0.25262  -0.35305  -0.22100   0.25517
  56        3S          0.10557  -0.71570  -1.33907   0.05769  -0.12333
                          36        37        38        39        40
                           V         V         V         V         V
     Eigenvalues --     1.26470   1.34752   1.51824   1.62025   1.67484
   1 1   C  1S          0.01277   0.00336   0.00383   0.01703   0.02170
   2        2S          0.03010   0.00805   0.00878   0.03665   0.04834
   3        2PX        -0.04810   0.05233   0.04330  -0.01159   0.01574
   4        2PY        -0.00879  -0.00426  -0.00642  -0.00002   0.01683
   5        2PZ        -0.02435  -0.01862  -0.01953   0.01396   0.01259
   6        3S         -0.39114  -0.07884  -0.08557  -0.24203  -0.47095
   7        3PX        -0.06613   0.02640   0.00516  -0.10380  -0.00580
   8        3PY        -0.01683   0.01646  -0.00451  -0.30749  -0.22372
   9        3PZ        -0.01902  -0.00330   0.01176  -0.00331   0.03174
  10        4S          1.20645   0.05432  -0.01207  -0.37140   1.29122
  11        4PX        -0.05623   0.61373   0.48441  -0.31488   0.53593
  12        4PY        -0.07208   0.11529   0.00757  -0.34888   1.40478
  13        4PZ         0.12881  -0.23828  -0.24149  -0.29427   0.05899
  14        5S         -0.78327  -0.00253  -0.03446   0.52406  -2.52889
  15        5PX         0.05465  -0.22201  -0.24447   0.27172  -0.26650
  16        5PY        -0.17443   0.01753   0.03173   0.25887  -0.85668
  17        5PZ        -0.02434   0.11810   0.12443   0.22989   0.05528
  18        6D 0        0.11446   0.05505   0.43334  -0.68443   0.12255
  19        6D+1       -0.28016  -0.02097  -0.47641  -0.51859   0.40072
  20        6D-1        0.43648   0.15075   0.22269  -0.21305  -0.12475
  21        6D+2       -0.10043  -0.20830  -0.39859  -0.15707  -0.59760
  22        6D-2        0.37889  -0.39748  -0.13890   0.01965   0.20310
  23 2   H  1S         -0.00011   0.01125   0.01898   0.03992  -0.03079
  24        2S         -0.28894  -0.46390  -0.51913  -0.27059   0.27363
  25        3S         -0.06170   0.24423   0.33422   0.10060   0.03943
  26 3   H  1S         -0.01156  -0.02623  -0.03830   0.11266  -0.02185
  27        2S         -0.53248   0.69790   0.58033  -0.68419   0.36356
  28        3S          0.12879  -0.24760  -0.28009   0.41744   0.14677
  29 4   C  1S          0.00116   0.00335   0.00374   0.01992   0.01918
  30        2S          0.00351   0.00583   0.00760   0.04523   0.04409
  31        2PX        -0.04709   0.06553   0.01970   0.00783   0.00554
  32        2PY         0.01025  -0.02566  -0.01493   0.02068   0.02823
  33        2PZ        -0.05125   0.00360  -0.02814  -0.00094  -0.00573
  34        3S         -0.03742  -0.03169  -0.06357  -0.40396  -0.28757
  35        3PX        -0.06360   0.07561   0.06263   0.04404  -0.09581
  36        3PY         0.04518   0.00524   0.02671   0.23190   0.31582
  37        3PZ        -0.06644  -0.03438  -0.02537  -0.01485   0.01470
  38        4S         -0.10060  -0.04064   0.13991   1.07621  -1.56638
  39        4PX         0.20466  -0.13764  -0.11399   0.18431  -0.46490
  40        4PY         0.08483   0.09367  -0.00532  -0.63072   0.48696
  41        4PZ        -0.01291   0.05751   0.02760   0.01038   0.16677
  42        5S          0.78989   0.04834   0.01266  -0.35619   2.68556
  43        5PX        -0.02119   0.08358   0.10498  -0.00809   0.23834
  44        5PY        -0.23903  -0.03966  -0.01954   0.16062  -0.65732
  45        5PZ         0.05211  -0.04392  -0.04604  -0.07011  -0.07161
  46        6D 0        0.30933   0.48826  -0.44868  -0.35837   0.10004
  47        6D+1       -0.18188  -0.50462   0.13459  -0.29501   0.48111
  48        6D-1       -0.29811  -0.00625  -0.24083  -0.04099  -0.17859
  49        6D+2       -0.20534  -0.08310   0.38014  -0.30718  -0.47955
  50        6D-2       -0.38300   0.47647   0.23149   0.06754   0.26728
  51 5   H  1S         -0.04315   0.06150   0.03797  -0.09013  -0.21906
  52        2S         -0.00299  -0.18968  -0.24559  -0.12655   1.54474
  53        3S         -0.25454  -0.00965   0.00124  -0.30552  -0.93778
  54 6   H  1S         -0.04154  -0.00493   0.01877  -0.13949   0.00763
  55        2S         -0.37857  -0.00012  -0.00656   1.06999  -0.59345
  56        3S         -0.02951  -0.05768   0.01481  -0.83891   0.36545
                          41        42        43        44        45
                           V         V         V         V         V
     Eigenvalues --     1.71612   1.86138   1.87152   2.08254   2.43755
   1 1   C  1S         -0.00693   0.00210  -0.00189   0.01941   0.00528
   2        2S         -0.01413   0.00863   0.00047   0.03082   0.00728
   3        2PX         0.00332  -0.09739  -0.02131  -0.11336   0.19995
   4        2PY         0.00049   0.03022   0.02391  -0.36227   0.19592
   5        2PZ        -0.00047   0.03827  -0.07775  -0.00268   0.46199
   6        3S          0.12337  -0.10754   0.02888   0.08348   0.04162
   7        3PX         0.01620   0.19498   0.01270   0.10939  -0.29862
   8        3PY         0.13720  -0.03309   0.02605  -0.00233  -0.52428
   9        3PZ        -0.08238  -0.07470   0.01005   0.09590  -0.66215
  10        4S          0.50828  -0.01046  -0.30979  -2.26174  -0.77936
  11        4PX        -0.01286  -0.14447  -0.18995  -0.24515   0.10699
  12        4PY        -0.40828   0.20353  -0.04620  -1.49315  -0.36221
  13        4PZ        -0.48580   0.08816  -0.42481   0.14481   0.42430
  14        5S         -0.65122  -0.00097   1.44691   2.18258   0.49347
  15        5PX        -0.11959  -0.46367   0.16007  -0.10555   0.03560
  16        5PY         0.06786  -0.02876   0.20948   0.61423   0.59598
  17        5PZ         0.33501   0.22443   0.16221  -0.15209   0.25329
  18        6D 0       -0.23108  -0.06130   0.20183   0.44739   0.24132
  19        6D+1       -0.54837   0.11862  -0.02106   0.04886   0.10744
  20        6D-1        0.02124   0.31071  -0.80809   0.17508   0.14353
  21        6D+2        0.26120  -0.37741  -0.01473   0.72638   0.22402
  22        6D-2       -0.30415  -0.78942  -0.31136  -0.27922  -0.07153
  23 2   H  1S          0.04588   0.24130  -0.09037  -0.01216   0.82393
  24        2S         -0.58389  -0.73821   0.39172   0.07429  -1.31086
  25        3S          0.31966   0.89980  -0.37918  -0.12783   1.07840
  26 3   H  1S          0.00092  -0.39715  -0.10455  -0.16344   0.47787
  27        2S         -0.16898   1.25973   0.40414   0.46839  -0.71020
  28        3S         -0.06597  -1.18741  -0.34165  -0.61414   0.54892
  29 4   C  1S         -0.01410   0.00501   0.00373  -0.01940  -0.00308
  30        2S         -0.03074   0.00956   0.00480  -0.02553  -0.01010
  31        2PX        -0.00277   0.07461   0.02261   0.04958  -0.17213
  32        2PY        -0.02078   0.02254   0.02353  -0.32762  -0.07034
  33        2PZ        -0.00574  -0.03086   0.05793   0.02983  -0.00691
  34        3S          0.36597  -0.07216  -0.01462  -0.19311   0.01418
  35        3PX        -0.15634  -0.01968   0.00534  -0.11434   0.15018
  36        3PY        -0.14032   0.02966  -0.00843  -0.06624  -0.10470
  37        3PZ         0.11032   0.00581  -0.06021   0.04691   0.01579
  38        4S         -1.18647   0.17857   0.15863   2.40878   0.90641
  39        4PX        -0.55642   0.35370   0.14899  -0.23061  -0.06440
  40        4PY         0.68363  -0.10361  -0.03105  -1.44267  -0.49055
  41        4PZ         0.35159  -0.17830   0.35708   0.25847   0.00977
  42        5S          0.98942   0.11690  -1.06439  -1.87484  -0.56345
  43        5PX         0.26631   0.10784  -0.08069   0.27397   0.11515
  44        5PY        -0.43995  -0.04642   0.28895   0.72045   0.09541
  45        5PZ        -0.17302  -0.04282  -0.13420  -0.18453  -0.03117
  46        6D 0        0.45235  -0.13268   0.15291  -0.45286  -0.18882
  47        6D+1        0.72655   0.10948  -0.15293  -0.11455  -0.02788
  48        6D-1       -0.08305   0.25158  -0.71913  -0.30282  -0.04795
  49        6D+2       -0.11789  -0.23353   0.08810  -0.72079  -0.25558
  50        6D-2        0.14199  -0.63959  -0.35071   0.18919   0.10263
  51 5   H  1S         -0.20145   0.13682   0.06043  -0.35700   0.23446
  52        2S          1.64942  -0.36051  -0.21350   0.61977  -0.35561
  53        3S         -0.67203   0.00925   0.23784  -0.50095  -0.00102
  54 6   H  1S         -0.20574  -0.00547  -0.27597   0.26740  -0.93036
  55        2S          0.96555   0.02140   0.71996  -0.44266   1.39423
  56        3S         -0.56231  -0.03352  -0.52976   0.41421  -1.34601
                          46        47        48        49        50
                           V         V         V         V         V
     Eigenvalues --     2.51806   2.56030   2.60910   2.78805   2.89000
   1 1   C  1S         -0.00149   0.00790  -0.00031  -0.00210  -0.00979
   2        2S          0.01924   0.01685  -0.00391  -0.00474  -0.01611
   3        2PX        -0.06749   0.59483   0.33021  -0.19673  -0.34379
   4        2PY        -0.16495  -0.15301   0.06690   0.05703   0.88518
   5        2PZ         0.34290  -0.18855   0.02497  -0.63615   0.02017
   6        3S         -0.22146  -0.05724   0.06791   0.06973   0.06173
   7        3PX         0.07500  -0.83142  -0.47322   0.23612   0.41413
   8        3PY         0.35323   0.13272  -0.03878  -0.11047  -0.90811
   9        3PZ        -0.49872   0.28545  -0.06345   0.74357  -0.03307
  10        4S         -0.05869  -0.60986   0.31213  -0.30194  -0.20529
  11        4PX         0.02901   0.26436   0.20337  -0.09437  -0.25008
  12        4PY        -0.17730  -0.42327   0.30789   0.09673   0.71140
  13        4PZ         0.32889   0.02910   0.07627  -0.42561   0.06812
  14        5S          3.07068   2.07768  -1.88129  -0.89938  -0.71418
  15        5PX         0.00208   0.54199   0.24339  -0.08071   0.12649
  16        5PY         0.30775   0.31269  -0.30790  -0.24442  -0.39330
  17        5PZ        -0.09743  -0.35823   0.07909   0.02684   0.05266
  18        6D 0       -0.02840   0.08092   0.05160   0.06710  -0.03854
  19        6D+1        0.03139   0.02140   0.08984   0.03128   0.01163
  20        6D-1        0.04301   0.12347   0.04731  -0.06282   0.02707
  21        6D+2        0.03297   0.04954  -0.08802   0.02597  -0.09395
  22        6D-2        0.19005  -0.19596  -0.13628  -0.03978   0.00032
  23 2   H  1S         -0.71893  -0.92409  -0.28905   0.16031  -0.39153
  24        2S          1.32262   1.48281   0.45556  -0.16717   0.44819
  25        3S         -1.11056  -1.48406  -0.27772   0.21027   0.00029
  26 3   H  1S         -0.95757   0.54594   0.52735   0.06237   0.03252
  27        2S          1.63038  -0.82192  -0.78761  -0.01501  -0.05295
  28        3S         -1.41629   0.77300   0.88559   0.15001   0.23491
  29 4   C  1S          0.00707   0.00735  -0.01011  -0.00278  -0.00833
  30        2S          0.01234   0.00692  -0.00782  -0.00542  -0.01249
  31        2PX        -0.11101  -0.14802   0.67436  -0.47343  -0.07033
  32        2PY         0.03023  -0.13068  -0.04346  -0.14721  -0.86869
  33        2PZ        -0.18244   0.05632  -0.39325  -1.01285   0.22985
  34        3S         -0.07963  -0.01517  -0.06675   0.04528   0.04008
  35        3PX         0.12566   0.20200  -0.86720   0.55527   0.06585
  36        3PY         0.03176   0.09392   0.02556   0.13324   0.95493
  37        3PZ         0.18567  -0.08398   0.49860   1.20252  -0.26393
  38        4S          0.26847   0.67179  -0.13392  -0.10903  -0.17079
  39        4PX        -0.20163  -0.01960   0.66382  -0.37873   0.06589
  40        4PY        -0.07092  -0.54932   0.28120  -0.08607  -0.53149
  41        4PZ        -0.17712   0.02428  -0.39000  -0.63233   0.07491
  42        5S         -1.70817  -1.99108   2.54895   0.54735   0.77228
  43        5PX         0.20050  -0.29588   0.00866   0.07327  -0.07728
  44        5PY         0.44405   0.67594  -0.80816  -0.06958   0.02527
  45        5PZ         0.13110   0.16851   0.04250   0.22296  -0.02793
  46        6D 0       -0.05661  -0.09580  -0.03253  -0.03665  -0.03122
  47        6D+1       -0.07971   0.16059  -0.15491   0.00065  -0.02728
  48        6D-1        0.16766   0.03268   0.12554   0.04215   0.02534
  49        6D+2        0.10777  -0.35944   0.19155  -0.05975   0.00564
  50        6D-2        0.13513  -0.10193  -0.22989   0.04428   0.00389
  51 5   H  1S         -0.12624   0.74576  -0.95527   0.04955  -0.08395
  52        2S          0.16064  -1.08753   1.54442  -0.01292   0.03269
  53        3S         -0.03152   0.88209  -1.90855   0.12655  -0.07533
  54 6   H  1S         -0.90939  -0.15948  -0.28434  -0.16023  -0.03935
  55        2S          1.58168   0.20164   0.52310   0.07211   0.03696
  56        3S         -1.38033  -0.27795  -0.60879   0.44907  -0.02266
                          51        52        53        54        55
                           V         V         V         V         V
     Eigenvalues --     2.97952   3.06058   3.20531   3.60768  23.44449
   1 1   C  1S         -0.00996   0.01070  -0.00098  -0.04029  -1.47872
   2        2S         -0.00997   0.01996  -0.00388  -0.05595   1.58656
   3        2PX         0.72407  -0.64772   0.37710  -0.23016  -0.00267
   4        2PY         0.04815  -0.04846   0.15835  -0.97854  -0.01329
   5        2PZ        -0.63708  -0.74625  -0.26191   0.02547   0.00457
   6        3S         -0.05212  -0.08772   0.10226   0.11830  -0.37447
   7        3PX        -0.83189   0.75874  -0.53198   0.40089   0.00119
   8        3PY        -0.00067  -0.10353  -0.19493   1.97262   0.01165
   9        3PZ         0.72423   0.92262   0.35840  -0.15592  -0.01127
  10        4S          0.20000  -0.27070  -0.35862   1.51210   0.38700
  11        4PX         0.64512  -0.54119   0.40536  -0.10289   0.01230
  12        4PY         0.17395  -0.21578   0.01272  -0.19827  -0.01852
  13        4PZ        -0.47098  -0.50019  -0.30222  -0.05673   0.05740
  14        5S         -0.78093   0.88131   0.97209  -1.76082   0.29724
  15        5PX        -0.27770   0.27988  -0.04932  -0.08149  -0.01162
  16        5PY        -0.20671   0.21964   0.26440  -0.55479   0.01835
  17        5PZ         0.31930   0.21787   0.02419   0.09582   0.00757
  18        6D 0       -0.10499   0.15821   0.03928  -0.30763  -0.00620
  19        6D+1       -0.01949   0.11226   0.07791   0.04724   0.00381
  20        6D-1       -0.03720   0.23723   0.11438  -0.14741  -0.00176
  21        6D+2        0.01219   0.12883  -0.03638  -0.69781  -0.02149
  22        6D-2        0.30149  -0.02268  -0.22058   0.11032   0.00705
  23 2   H  1S          0.53537  -0.09702  -0.05117   0.17211  -0.01004
  24        2S         -0.60279   0.17394   0.06277  -0.14935   0.02654
  25        3S          0.31753  -0.16580  -0.14016  -0.15979  -0.11338
  26 3   H  1S         -0.77327   0.31668  -0.01388   0.36504  -0.00039
  27        2S          0.78716  -0.26717   0.10426  -0.24796   0.03189
  28        3S         -0.25337   0.01221   0.15172  -0.21271  -0.16412
  29 4   C  1S          0.00426  -0.00390  -0.02185   0.04016  -1.38571
  30        2S          0.00672  -0.00794  -0.02871   0.05611   1.48569
  31        2PX         0.34783   0.31510  -0.90326  -0.23503   0.01202
  32        2PY        -0.40098   0.34790   0.28591  -0.81896   0.00932
  33        2PZ         0.19893   0.46677   0.45971   0.23092  -0.00335
  34        3S         -0.02796   0.02710   0.03934  -0.12733  -0.33983
  35        3PX        -0.45764  -0.42852   1.25356   0.43811  -0.03044
  36        3PY         0.52006  -0.53868  -0.48795   1.75184   0.00227
  37        3PZ        -0.25066  -0.61081  -0.62747  -0.43631   0.00410
  38        4S         -0.14664   0.32541   0.08380  -1.35676   0.35241
  39        4PX         0.16447   0.23768  -0.74305  -0.13619   0.07327
  40        4PY        -0.13597   0.06026   0.21138   0.04732  -0.04396
  41        4PZ         0.15836   0.39007   0.36129   0.14484  -0.01277
  42        5S          0.99320  -0.78881  -1.00522   1.93254  -0.16791
  43        5PX         0.05176  -0.14205   0.26186  -0.07611   0.05713
  44        5PY        -0.23893   0.17059   0.25679  -0.49414   0.04895
  45        5PZ        -0.12639  -0.20084  -0.16826   0.08678  -0.01284
  46        6D 0        0.01514  -0.15698  -0.12075   0.35834  -0.01386
  47        6D+1        0.01933   0.00091  -0.25537  -0.01035   0.00303
  48        6D-1        0.06388   0.14195   0.09314   0.25414  -0.00967
  49        6D+2        0.02495  -0.13705   0.15880   0.70490  -0.03168
  50        6D-2        0.08827   0.11531  -0.16954  -0.25931   0.00896
  51 5   H  1S          0.11868   0.04441  -1.04593  -0.26107   0.03497
  52        2S         -0.02783  -0.03580   0.72317   0.21304  -0.02188
  53        3S         -0.29151   0.10769  -0.07556   0.16151  -0.17758
  54 6   H  1S         -0.22609  -0.77249  -0.07049  -0.25910  -0.00616
  55        2S          0.25745   0.82216   0.15353   0.23525  -0.00964
  56        3S         -0.23496  -0.37164   0.02821  -0.20774  -0.17834
                          56
                           V
     Eigenvalues --    23.63829
   1 1   C  1S          1.38722
   2        2S         -1.49998
   3        2PX        -0.00740
   4        2PY        -0.05272
   5        2PZ         0.00669
   6        3S          0.35194
   7        3PX         0.02044
   8        3PY         0.14692
   9        3PZ        -0.02125
  10        4S         -0.42940
  11        4PX        -0.01260
  12        4PY        -0.09225
  13        4PZ         0.02007
  14        5S          0.67943
  15        5PX         0.03894
  16        5PY         0.22684
  17        5PZ        -0.02940
  18        6D 0       -0.03971
  19        6D+1       -0.00066
  20        6D-1       -0.02492
  21        6D+2       -0.07183
  22        6D-2        0.02328
  23 2   H  1S          0.01213
  24        2S          0.00557
  25        3S          0.03515
  26 3   H  1S          0.00348
  27        2S          0.00050
  28        3S          0.05666
  29 4   C  1S         -1.47994
  30        2S          1.59920
  31        2PX        -0.00429
  32        2PY        -0.05348
  33        2PZ         0.00564
  34        3S         -0.36864
  35        3PX         0.01325
  36        3PY         0.15678
  37        3PZ        -0.01661
  38        4S          0.41815
  39        4PX         0.00871
  40        4PY        -0.13475
  41        4PZ        -0.00217
  42        5S         -0.70028
  43        5PX         0.03925
  44        5PY         0.20744
  45        5PZ        -0.04161
  46        6D 0        0.03886
  47        6D+1        0.00311
  48        6D-1        0.02236
  49        6D+2        0.06815
  50        6D-2       -0.02041
  51 5   H  1S          0.01690
  52        2S         -0.01614
  53        3S         -0.06610
  54 6   H  1S         -0.00924
  55        2S          0.00810
  56        3S          0.01635
     Density Matrix:
                           1         2         3         4         5
   1 1   C  1S          0.65950
   2        2S          0.56046   0.48967
   3        2PX         0.00191   0.00300   0.07348
   4        2PY        -0.00250  -0.00352   0.00308   0.07542
   5        2PZ         0.00220   0.00314  -0.00418  -0.00620   0.06589
   6        3S         -0.08547  -0.14748  -0.01037   0.01239  -0.00871
   7        3PX         0.00243   0.00411   0.11716   0.00390  -0.00620
   8        3PY         0.00087   0.00065   0.00294   0.11906  -0.00726
   9        3PZ         0.00041   0.00083  -0.00598  -0.00602   0.10651
  10        4S         -0.10320  -0.15480  -0.00087   0.00241  -0.02542
  11        4PX        -0.00292  -0.00427   0.09567   0.00447  -0.00973
  12        4PY        -0.00382  -0.00527   0.00308   0.09135  -0.01282
  13        4PZ         0.00383   0.00643  -0.00849  -0.01297   0.08262
  14        5S          0.00207  -0.00099  -0.00053   0.02020   0.00068
  15        5PX         0.00104   0.00111   0.00889   0.00140  -0.00030
  16        5PY         0.00494   0.00558  -0.00019   0.01043  -0.00073
  17        5PZ        -0.00105  -0.00122  -0.00180   0.00001   0.00333
  18        6D 0        0.00037   0.00088   0.00390   0.00107   0.00613
  19        6D+1       -0.00007  -0.00006   0.00433   0.00385   0.00636
  20        6D-1       -0.00206  -0.00311   0.00698  -0.00149   0.00250
  21        6D+2        0.00003   0.00039  -0.00244  -0.00452   0.00436
  22        6D-2       -0.00206  -0.00352  -0.00788   0.00172   0.00644
  23 2   H  1S         -0.01384  -0.02211   0.03718  -0.03761  -0.03043
  24        2S         -0.01473  -0.02327   0.06018  -0.05654  -0.04535
  25        3S          0.00515   0.00677   0.03385  -0.02372  -0.02883
  26 3   H  1S         -0.01875  -0.02999  -0.05898  -0.02977   0.01455
  27        2S         -0.02048  -0.03243  -0.08265  -0.03308   0.02222
  28        3S          0.00326   0.00268  -0.02987   0.00010   0.00886
  29 4   C  1S          0.00166   0.00251   0.00206  -0.01007   0.00467
  30        2S          0.00260   0.00372   0.00352  -0.01610   0.00766
  31        2PX         0.00461   0.00747   0.00781  -0.01870   0.01789
  32        2PY         0.01828   0.02942  -0.00462  -0.05758   0.02025
  33        2PZ        -0.00136  -0.00218   0.00942   0.00600   0.01719
  34        3S         -0.00544  -0.00751  -0.01321   0.04594  -0.02492
  35        3PX         0.00809   0.01264   0.01425  -0.02701   0.02774
  36        3PY         0.03169   0.04924  -0.00670  -0.08990   0.03256
  37        3PZ        -0.00234  -0.00353   0.01551   0.00923   0.03061
  38        4S          0.01802   0.02879  -0.01329  -0.00887  -0.00234
  39        4PX         0.00064   0.00171   0.00222  -0.01135   0.02811
  40        4PY         0.01056   0.01770  -0.00048  -0.04939   0.01337
  41        4PZ         0.00122   0.00194   0.01352  -0.00103   0.01497
  42        5S         -0.00620  -0.00399   0.00776  -0.03725   0.00693
  43        5PX        -0.00156  -0.00229  -0.00257   0.00224   0.00192
  44        5PY         0.00351   0.00393  -0.00116   0.00581  -0.00166
  45        5PZ        -0.00003   0.00023   0.00079  -0.00531  -0.00018
  46        6D 0        0.00255   0.00366  -0.00079  -0.00386   0.00250
  47        6D+1       -0.00056  -0.00092   0.00193   0.00105   0.00107
  48        6D-1        0.00058   0.00065  -0.00184  -0.00105  -0.00804
  49        6D+2        0.00577   0.00845  -0.00227  -0.01032   0.00494
  50        6D-2       -0.00023  -0.00020  -0.00631  -0.00094  -0.00117
  51 5   H  1S          0.00223   0.00386  -0.00102  -0.00564   0.00181
  52        2S          0.00529   0.00850  -0.00675  -0.01777   0.00410
  53        3S          0.00707   0.00995  -0.01416  -0.01706   0.00511
  54 6   H  1S         -0.01394  -0.02200   0.02710   0.00729   0.05343
  55        2S         -0.01144  -0.01816   0.03964   0.00280   0.08595
  56        3S          0.01081   0.01517   0.01284  -0.00982   0.03222
                           6         7         8         9        10
   6        3S          0.43008
   7        3PX        -0.01574   0.18683
   8        3PY         0.00710   0.00307   0.18852
   9        3PZ        -0.00470  -0.00881  -0.00567   0.17259
  10        4S          0.38944  -0.00069  -0.00835  -0.03245   0.38814
  11        4PX         0.00739   0.15253   0.00403  -0.01413   0.02888
  12        4PY         0.01758   0.00362   0.14409  -0.01554   0.02239
  13        4PZ        -0.02028  -0.01292  -0.01689   0.13298  -0.04279
  14        5S          0.01539  -0.00115   0.03270   0.00243   0.02114
  15        5PX        -0.00169   0.01416   0.00209  -0.00033   0.00070
  16        5PY        -0.00796  -0.00050   0.01713  -0.00078  -0.00307
  17        5PZ         0.00195  -0.00285   0.00013   0.00542   0.00037
  18        6D 0       -0.00333   0.00623   0.00188   0.01002  -0.00313
  19        6D+1       -0.00001   0.00690   0.00617   0.01058  -0.00214
  20        6D-1        0.00756   0.01119  -0.00282   0.00422   0.00586
  21        6D+2       -0.00224  -0.00382  -0.00685   0.00684   0.00010
  22        6D-2        0.01029  -0.01254   0.00305   0.01068   0.00864
  23 2   H  1S          0.05669   0.05982  -0.06372  -0.04975   0.06345
  24        2S          0.05746   0.09671  -0.09532  -0.07477   0.06450
  25        3S         -0.01590   0.05419  -0.03982  -0.04814  -0.01526
  26 3   H  1S          0.08094  -0.09345  -0.04725   0.02315   0.06979
  27        2S          0.08699  -0.13115  -0.05142   0.03532   0.07558
  28        3S          0.00079  -0.04767   0.00188   0.01420   0.00691
  29 4   C  1S         -0.00538   0.00320  -0.01774   0.00795   0.02366
  30        2S         -0.00765   0.00563  -0.02691   0.01277   0.03730
  31        2PX        -0.02353   0.01266  -0.02706   0.02766  -0.01133
  32        2PY        -0.08356  -0.00660  -0.08872   0.02783  -0.09746
  33        2PZ         0.00630   0.01514   0.00881   0.02848  -0.00674
  34        3S          0.01509  -0.02163   0.07241  -0.04061  -0.10368
  35        3PX        -0.03815   0.02301  -0.03886   0.04290  -0.02267
  36        3PY        -0.13438  -0.00950  -0.13833   0.04494  -0.15362
  37        3PZ         0.00950   0.02494   0.01366   0.05061  -0.01017
  38        4S         -0.08168  -0.02097  -0.01262  -0.00887  -0.21407
  39        4PX        -0.00893   0.00375  -0.01548   0.04497   0.00028
  40        4PY        -0.05319  -0.00006  -0.07711   0.01775  -0.07009
  41        4PZ        -0.00559   0.02173  -0.00213   0.02418  -0.02124
  42        5S         -0.00820   0.01305  -0.06037   0.00903  -0.03063
  43        5PX         0.00571  -0.00412   0.00364   0.00334   0.00637
  44        5PY        -0.00560  -0.00195   0.00950  -0.00262  -0.00824
  45        5PZ        -0.00174   0.00134  -0.00851  -0.00061  -0.00292
  46        6D 0       -0.00882  -0.00121  -0.00587   0.00365  -0.01012
  47        6D+1        0.00281   0.00310   0.00135   0.00193   0.00281
  48        6D-1       -0.00085  -0.00298  -0.00174  -0.01313   0.00345
  49        6D+2       -0.02145  -0.00352  -0.01534   0.00693  -0.02257
  50        6D-2        0.00042  -0.01004  -0.00158  -0.00202  -0.00225
  51 5   H  1S         -0.01392  -0.00166  -0.00683   0.00183  -0.02112
  52        2S         -0.02641  -0.01072  -0.02488   0.00479  -0.01817
  53        3S         -0.02415  -0.02249  -0.02474   0.00686  -0.00795
  54 6   H  1S          0.05697   0.04362   0.01084   0.08866   0.03735
  55        2S          0.04590   0.06388   0.00465   0.14116   0.01792
  56        3S         -0.03618   0.02075  -0.01406   0.05124  -0.04182
                          11        12        13        14        15
  11        4PX         0.13048
  12        4PY         0.01086   0.12015
  13        4PZ        -0.01728  -0.02385   0.10492
  14        5S          0.00900   0.03135   0.00111   0.03615
  15        5PX         0.01249   0.00248  -0.00073   0.00286   0.00134
  16        5PY         0.00308   0.01612  -0.00103   0.01314   0.00111
  17        5PZ        -0.00249  -0.00040   0.00426   0.00047  -0.00019
  18        6D 0        0.00490   0.00145   0.00724   0.00029   0.00054
  19        6D+1        0.00493   0.00386   0.00737   0.00008   0.00050
  20        6D-1        0.00830  -0.00290   0.00254  -0.00342   0.00053
  21        6D+2       -0.00226  -0.00407   0.00568   0.00105  -0.00010
  22        6D-2       -0.00844   0.00309   0.00834   0.00663  -0.00042
  23 2   H  1S          0.04991  -0.04656  -0.03841  -0.01878   0.00291
  24        2S          0.07601  -0.07387  -0.05683  -0.03662   0.00419
  25        3S          0.03614  -0.03631  -0.03581  -0.03141   0.00144
  26 3   H  1S         -0.07190  -0.03445   0.02132   0.00175  -0.00703
  27        2S         -0.09965  -0.03589   0.03249   0.01163  -0.00901
  28        3S         -0.03222   0.00716   0.01274   0.01976  -0.00177
  29 4   C  1S          0.01026   0.00327   0.00221  -0.01398   0.00055
  30        2S          0.01689   0.00447   0.00438  -0.01046   0.00127
  31        2PX         0.02082  -0.01610   0.02716   0.04082   0.00474
  32        2PY        -0.02210  -0.08546   0.03186  -0.03897  -0.00346
  33        2PZ         0.00413   0.00036   0.01870  -0.02282  -0.00092
  34        3S         -0.05168  -0.00789  -0.01846  -0.00624  -0.00496
  35        3PX         0.03364  -0.02464   0.04226   0.06212   0.00743
  36        3PY        -0.03295  -0.13211   0.05086  -0.05876  -0.00510
  37        3PZ         0.00784   0.00099   0.03370  -0.03482  -0.00123
  38        4S         -0.07509  -0.09165   0.01270  -0.07514  -0.01030
  39        4PX         0.01356  -0.00655   0.03848   0.03988   0.00395
  40        4PY        -0.01612  -0.07588   0.02169  -0.04042  -0.00328
  41        4PZ         0.00751  -0.01122   0.01734  -0.02495  -0.00062
  42        5S         -0.00780  -0.06282   0.00962  -0.05681  -0.00391
  43        5PX        -0.00183   0.00401   0.00231   0.00449   0.00006
  44        5PY        -0.00190   0.00579  -0.00158   0.00409   0.00011
  45        5PZ        -0.00026  -0.00777   0.00011  -0.00451  -0.00027
  46        6D 0       -0.00280  -0.00606   0.00347  -0.00451  -0.00044
  47        6D+1        0.00149   0.00122   0.00036  -0.00560  -0.00023
  48        6D-1       -0.00060   0.00072  -0.00970   0.00313   0.00008
  49        6D+2       -0.00415  -0.01439   0.00829   0.00121  -0.00008
  50        6D-2       -0.01019  -0.00256  -0.00152  -0.00686  -0.00137
  51 5   H  1S          0.00429  -0.01024   0.00914   0.04084   0.00309
  52        2S          0.00418  -0.01657   0.01356   0.05746   0.00417
  53        3S         -0.00895  -0.01156   0.01023   0.02805   0.00108
  54 6   H  1S          0.03396   0.00329   0.06347   0.00307   0.00330
  55        2S          0.04637  -0.00651   0.10372  -0.00144   0.00452
  56        3S          0.01081  -0.01666   0.04040  -0.01019   0.00092
                          16        17        18        19        20
  16        5PY         0.00555
  17        5PZ         0.00003   0.00023
  18        6D 0        0.00025   0.00019   0.00094
  19        6D+1        0.00010   0.00023   0.00096   0.00121
  20        6D-1       -0.00163  -0.00002   0.00057   0.00076   0.00137
  21        6D+2        0.00035   0.00022   0.00032  -0.00002  -0.00024
  22        6D-2        0.00205   0.00060   0.00016   0.00010  -0.00093
  23 2   H  1S         -0.01034  -0.00223  -0.00205  -0.00260   0.00549
  24        2S         -0.01788  -0.00357  -0.00282  -0.00338   0.00895
  25        3S         -0.01208  -0.00243  -0.00166  -0.00146   0.00491
  26 3   H  1S         -0.00327   0.00231  -0.00297  -0.00393  -0.00354
  27        2S         -0.00003   0.00329  -0.00364  -0.00516  -0.00648
  28        3S          0.00744   0.00116  -0.00060  -0.00163  -0.00471
  29 4   C  1S         -0.00205   0.00006   0.00213  -0.00004   0.00020
  30        2S         -0.00011  -0.00017   0.00315  -0.00000   0.00018
  31        2PX         0.01347   0.00106   0.00154  -0.00049  -0.00341
  32        2PY        -0.01529   0.00054   0.00011  -0.00081   0.00250
  33        2PZ        -0.00817   0.00047   0.00243   0.00373   0.00444
  34        3S         -0.00876   0.00112  -0.00835  -0.00061  -0.00061
  35        3PX         0.02037   0.00163   0.00239  -0.00047  -0.00496
  36        3PY        -0.02288   0.00085   0.00039  -0.00122   0.00366
  37        3PZ        -0.01243   0.00088   0.00429   0.00625   0.00710
  38        4S         -0.03323   0.00113  -0.00698   0.00047   0.00538
  39        4PX         0.01323   0.00168   0.00254   0.00085  -0.00299
  40        4PY        -0.01632   0.00025  -0.00030  -0.00060   0.00352
  41        4PZ        -0.00933   0.00029   0.00204   0.00330   0.00468
  42        5S         -0.02255  -0.00023  -0.00011   0.00081   0.00692
  43        5PX         0.00157   0.00020   0.00011   0.00005  -0.00050
  44        5PY         0.00166   0.00002  -0.00028  -0.00004  -0.00072
  45        5PZ        -0.00188  -0.00006  -0.00013  -0.00017   0.00050
  46        6D 0       -0.00157   0.00006   0.00013   0.00010   0.00030
  47        6D+1       -0.00183  -0.00007   0.00038   0.00054   0.00091
  48        6D-1        0.00127  -0.00035  -0.00088  -0.00117  -0.00095
  49        6D+2        0.00021   0.00027  -0.00001  -0.00043  -0.00067
  50        6D-2       -0.00241   0.00001  -0.00048  -0.00032   0.00006
  51 5   H  1S          0.01258   0.00085  -0.00136  -0.00195  -0.00466
  52        2S          0.01878   0.00104  -0.00133  -0.00352  -0.00734
  53        3S          0.01007   0.00062  -0.00047  -0.00261  -0.00492
  54 6   H  1S         -0.00153   0.00242   0.00660   0.00798   0.00646
  55        2S         -0.00363   0.00370   0.01042   0.01210   0.00951
  56        3S         -0.00344   0.00106   0.00387   0.00388   0.00303
                          21        22        23        24        25
  21        6D+2        0.00092
  22        6D-2        0.00089   0.00272
  23 2   H  1S         -0.00187  -0.00820   0.06703
  24        2S         -0.00367  -0.01476   0.10119   0.15714
  25        3S         -0.00367  -0.01161   0.05012   0.08468   0.05729
  26 3   H  1S          0.00430   0.00934  -0.00988  -0.02468  -0.02878
  27        2S          0.00637   0.01434  -0.02604  -0.05319  -0.04974
  28        3S          0.00319   0.00742  -0.02588  -0.04595  -0.03369
  29 4   C  1S          0.00407   0.00046   0.00038  -0.00391  -0.00706
  30        2S          0.00593   0.00098   0.00052  -0.00619  -0.01224
  31        2PX         0.00476   0.00830  -0.00972  -0.02379  -0.03105
  32        2PY         0.00162  -0.00546   0.01729   0.03850   0.03412
  33        2PZ        -0.00130  -0.00358   0.00168   0.00889   0.01332
  34        3S         -0.01480  -0.00351  -0.00260   0.01493   0.03633
  35        3PX         0.00683   0.01234  -0.01454  -0.03502  -0.04566
  36        3PY         0.00289  -0.00816   0.02541   0.05721   0.05099
  37        3PZ        -0.00166  -0.00517   0.00097   0.01108   0.01855
  38        4S         -0.01455  -0.01503   0.02020   0.06912   0.09128
  39        4PX         0.00518   0.00973  -0.01879  -0.03817  -0.03951
  40        4PY         0.00029  -0.00636   0.02369   0.04746   0.03844
  41        4PZ        -0.00165  -0.00470   0.00773   0.01964   0.02066
  42        5S         -0.00213  -0.01012   0.03619   0.06834   0.05365
  43        5PX         0.00040   0.00131  -0.00384  -0.00729  -0.00607
  44        5PY        -0.00049   0.00047  -0.00448  -0.00655  -0.00271
  45        5PZ        -0.00007  -0.00087   0.00434   0.00756   0.00512
  46        6D 0        0.00010  -0.00062   0.00039   0.00203   0.00297
  47        6D+1       -0.00025  -0.00108   0.00179   0.00376   0.00374
  48        6D-1       -0.00003   0.00004   0.00207   0.00200   0.00006
  49        6D+2        0.00088   0.00067  -0.00150  -0.00154  -0.00086
  50        6D-2       -0.00033  -0.00073  -0.00021   0.00103   0.00320
  51 5   H  1S          0.00138   0.00748  -0.01003  -0.02170  -0.02437
  52        2S          0.00441   0.01138  -0.01552  -0.03556  -0.04081
  53        3S          0.00431   0.00695  -0.01347  -0.02828  -0.02815
  54 6   H  1S          0.00158   0.00360  -0.00534  -0.00951  -0.01384
  55        2S          0.00304   0.00435  -0.01157  -0.01637  -0.01736
  56        3S          0.00162  -0.00068  -0.00572  -0.00376   0.00177
                          26        27        28        29        30
  26 3   H  1S          0.07421
  27        2S          0.09768   0.13283
  28        3S          0.02790   0.04469   0.02625
  29 4   C  1S          0.00312   0.00490   0.00841   0.66433
  30        2S          0.00491   0.00809   0.01264   0.56886   0.50357
  31        2PX         0.00921   0.02389   0.02660   0.00577   0.00860
  32        2PY         0.00868   0.00473  -0.01454  -0.01204  -0.01842
  33        2PZ        -0.01058  -0.02037  -0.01754  -0.00205  -0.00295
  34        3S         -0.01290  -0.02217  -0.03167  -0.11184  -0.18992
  35        3PX         0.01126   0.03260   0.03873   0.00315   0.00589
  36        3PY         0.01304   0.00756  -0.02101  -0.01436  -0.02349
  37        3PZ        -0.01637  -0.03125  -0.02653  -0.00030  -0.00085
  38        4S         -0.01707  -0.04161  -0.06496  -0.14035  -0.21635
  39        4PX         0.01419   0.03043   0.02855   0.00698   0.01212
  40        4PY         0.00610  -0.00109  -0.01952  -0.01022  -0.01843
  41        4PZ        -0.01351  -0.02487  -0.02068  -0.00652  -0.01062
  42        5S         -0.00157  -0.01845  -0.03538   0.00191  -0.00822
  43        5PX         0.00319   0.00542   0.00378  -0.00025   0.00078
  44        5PY        -0.00213  -0.00136   0.00140  -0.00812  -0.00993
  45        5PZ         0.00046  -0.00074  -0.00265   0.00001  -0.00073
  46        6D 0        0.00015  -0.00049  -0.00173  -0.00077  -0.00103
  47        6D+1       -0.00238  -0.00479  -0.00388   0.00172   0.00292
  48        6D-1        0.00109   0.00219   0.00236   0.00082   0.00134
  49        6D+2        0.00335   0.00588   0.00309  -0.00266  -0.00413
  50        6D-2        0.00362   0.00329  -0.00187  -0.00100  -0.00174
  51 5   H  1S          0.00930   0.02319   0.02244  -0.01932  -0.03025
  52        2S          0.02044   0.04349   0.03897  -0.00778  -0.01203
  53        3S          0.02029   0.03656   0.02755   0.01228   0.01741
  54 6   H  1S         -0.00444  -0.00830  -0.00676   0.00173   0.00308
  55        2S         -0.00979  -0.01588  -0.01109   0.00318   0.00550
  56        3S         -0.00894  -0.01254  -0.00649   0.00474   0.00607
                          31        32        33        34        35
  31        2PX         0.08222
  32        2PY        -0.00977   0.08723
  33        2PZ        -0.03493   0.01584   0.02809
  34        3S         -0.02360   0.04720   0.00611   0.55795
  35        3PX         0.12537  -0.01315  -0.05240  -0.02150   0.19169
  36        3PY        -0.01172   0.13432   0.02318   0.06456  -0.01535
  37        3PZ        -0.05257   0.02422   0.04445   0.00159  -0.07894
  38        4S         -0.08206   0.15068   0.04971   0.57331  -0.10935
  39        4PX         0.07515  -0.01503  -0.02847  -0.03818   0.11414
  40        4PY        -0.02032   0.07750   0.01933   0.05588  -0.02912
  41        4PZ        -0.03136   0.02601   0.02671   0.02865  -0.04620
  42        5S         -0.05747   0.07120   0.03799   0.05474  -0.08585
  43        5PX         0.00473  -0.00540  -0.00248  -0.00563   0.00699
  44        5PY         0.00311  -0.00309  -0.00257   0.01864   0.00526
  45        5PZ        -0.00305   0.00706   0.00201   0.00408  -0.00453
  46        6D 0       -0.00325   0.00779   0.00283   0.00219  -0.00484
  47        6D+1       -0.00957   0.00157   0.00588  -0.00867  -0.01474
  48        6D-1        0.00355  -0.00402  -0.00573  -0.00334   0.00510
  49        6D+2        0.01175   0.01204  -0.00419   0.01084   0.01829
  50        6D-2       -0.01110   0.00560   0.00429   0.00552  -0.01703
  51 5   H  1S          0.07259  -0.00860  -0.03733   0.08095   0.11294
  52        2S          0.10514  -0.01639  -0.05551   0.03140   0.16105
  53        3S          0.05445  -0.00823  -0.03034  -0.04133   0.08148
  54 6   H  1S          0.00977  -0.00242   0.02263  -0.01375   0.01629
  55        2S          0.01495   0.01283   0.03633  -0.02291   0.02507
  56        3S          0.00178   0.02529   0.01562  -0.01426   0.00357
                          36        37        38        39        40
  36        3PY         0.20714
  37        3PZ         0.03561   0.07063
  38        4S          0.22280   0.06913   0.74696
  39        4PX        -0.01996  -0.04181  -0.09607   0.07262
  40        4PY         0.11852   0.02928   0.15314  -0.02460   0.07194
  41        4PZ         0.03878   0.04188   0.07973  -0.02774   0.02846
  42        5S          0.10711   0.05799   0.16761  -0.05723   0.07363
  43        5PX        -0.00814  -0.00364  -0.01438   0.00538  -0.00562
  44        5PY        -0.00484  -0.00425   0.01170   0.00243  -0.00328
  45        5PZ         0.01072   0.00299   0.01353  -0.00359   0.00694
  46        6D 0        0.01197   0.00442   0.01330  -0.00318   0.00705
  47        6D+1        0.00219   0.00927   0.00039  -0.00810   0.00270
  48        6D-1       -0.00607  -0.00932  -0.01128   0.00186  -0.00411
  49        6D+2        0.01904  -0.00646   0.01664   0.00956   0.00853
  50        6D-2        0.00818   0.00636   0.01750  -0.01012   0.00619
  51 5   H  1S         -0.01175  -0.05846   0.01772   0.06232  -0.01612
  52        2S         -0.02190  -0.08597  -0.05777   0.09250  -0.02907
[...]
  45        5PZ         0.00000   0.00000   0.00012   0.00000   0.00000
  46        6D 0        0.00000   0.00000   0.00000   0.00000   0.00000
  47        6D+1        0.00000   0.00000   0.00000   0.00000   0.00000
  48        6D-1        0.00000   0.00000   0.00000   0.00000   0.00000
  49        6D+2        0.00000   0.00000   0.00000   0.00000   0.00000
  50        6D-2        0.00000   0.00000   0.00000   0.00000   0.00000
  51 5   H  1S          0.00887   0.00020   0.00241   0.01799   0.04248
  52        2S          0.01729   0.00050   0.00483   0.01470   0.07130
  53        3S          0.00312   0.00009   0.00092  -0.01995   0.01618
  54 6   H  1S          0.00000   0.00000   0.00003  -0.00024   0.00016
  55        2S          0.00011  -0.00038   0.00118  -0.00256   0.00088
  56        3S          0.00002  -0.00094   0.00063  -0.00369   0.00013
                          36        37        38        39        40
  36        3PY         0.20714
  37        3PZ         0.00000   0.07063
  38        4S          0.00000   0.00000   0.74696
  39        4PX         0.00000   0.00000   0.00000   0.07262
  40        4PY         0.07745   0.00000   0.00000   0.00000   0.07194
  41        4PZ         0.00000   0.02736   0.00000   0.00000   0.00000
  42        5S          0.00000   0.00000   0.12980   0.00000   0.00000
  43        5PX         0.00000   0.00000   0.00000   0.00351   0.00000
  44        5PY        -0.00110   0.00000   0.00000   0.00000  -0.00214
  45        5PZ         0.00000   0.00068   0.00000   0.00000   0.00000
  46        6D 0        0.00000   0.00000   0.00000   0.00000   0.00000
  47        6D+1        0.00000   0.00000   0.00000   0.00000   0.00000
  48        6D-1        0.00000   0.00000   0.00000   0.00000   0.00000
  49        6D+2        0.00000   0.00000   0.00000   0.00000   0.00000
  50        6D-2        0.00000   0.00000   0.00000   0.00000   0.00000
  51 5   H  1S          0.00083   0.01163   0.00503   0.02041   0.00099
  52        2S          0.00181   0.02014  -0.03519   0.05018   0.00295
  53        3S          0.00037   0.00487  -0.06485   0.02073   0.00133
  54 6   H  1S          0.00014   0.00161  -0.00131   0.00082   0.00008
  55        2S         -0.00285   0.00939  -0.00002   0.00248  -0.00414
  56        3S         -0.00558   0.00399   0.01072   0.00044  -0.00741
                          41        42        43        44        45
  41        4PZ         0.02804
  42        5S          0.00000   0.09783
  43        5PX         0.00000   0.00000   0.00077
  44        5PY         0.00000   0.00000   0.00000   0.00139
  45        5PZ         0.00188   0.00000   0.00000   0.00000   0.00076
  46        6D 0        0.00000   0.00000   0.00000   0.00000   0.00000
  47        6D+1        0.00000   0.00000   0.00000   0.00000   0.00000
  48        6D-1        0.00000   0.00000   0.00000   0.00000   0.00000
  49        6D+2        0.00000   0.00000   0.00000   0.00000   0.00000
  50        6D-2        0.00000   0.00000   0.00000   0.00000   0.00000
  51 5   H  1S          0.00527  -0.00936   0.00047  -0.00016   0.00018
  52        2S          0.01407  -0.03641   0.00175  -0.00037   0.00063
  53        3S          0.00650  -0.03560   0.00150  -0.00013   0.00050
  54 6   H  1S          0.00358   0.00097   0.00004   0.00026  -0.00006
  55        2S          0.01253   0.00686   0.00009   0.00098   0.00006
  56        3S          0.00640   0.01282  -0.00011   0.00073   0.00063
                          46        47        48        49        50
  46        6D 0        0.00082
  47        6D+1        0.00000   0.00160
  48        6D-1        0.00000   0.00000   0.00159
  49        6D+2        0.00000   0.00000   0.00000   0.00408
  50        6D-2        0.00000   0.00000   0.00000   0.00000   0.00207
  51 5   H  1S          0.00028   0.00353   0.00026   0.00346   0.00102
  52        2S          0.00024   0.00274   0.00025   0.00270   0.00085
  53        3S          0.00002   0.00022   0.00003   0.00023   0.00007
  54 6   H  1S          0.00000   0.00003   0.00043   0.00003   0.00004
  55        2S          0.00009   0.00015   0.00179  -0.00004   0.00013
  56        3S          0.00006   0.00003   0.00029  -0.00008   0.00000
                          51        52        53        54        55
  51 5   H  1S          0.08556
  52        2S          0.07687   0.15006
  53        3S          0.01735   0.05816   0.04446
  54 6   H  1S         -0.00000  -0.00011  -0.00084   0.06840
  55        2S         -0.00009  -0.00121  -0.00329   0.07080   0.15172
  56        3S         -0.00071  -0.00270  -0.00247   0.01020   0.03764
                          56
  56        3S          0.02337
     Gross orbital populations:
                           1
   1 1   C  1S          1.10489
   2        2S          0.88555
   3        2PX         0.19440
   4        2PY         0.20216
   5        2PZ         0.17540
   6        3S          0.75848
   7        3PX         0.50339
   8        3PY         0.52040
   9        3PZ         0.46735
  10        4S          0.67272
  11        4PX         0.41936
  12        4PY         0.27714
  13        4PZ         0.36779
  14        5S         -0.01194
  15        5PX         0.02390
  16        5PY         0.00260
  17        5PZ         0.00793
  18        6D 0        0.00607
  19        6D+1        0.00697
  20        6D-1        0.00961
  21        6D+2        0.00839
  22        6D-2        0.01944
  23 2   H  1S          0.22719
  24        2S          0.46287
  25        3S          0.12884
  26 3   H  1S          0.25268
  27        2S          0.42741
  28        3S          0.04315
  29 4   C  1S          1.10606
  30        2S          0.88394
  31        2PX         0.21055
  32        2PY         0.22257
  33        2PZ         0.07415
  34        3S          0.89911
  35        3PX         0.49619
  36        3PY         0.53861
  37        3PZ         0.19382
  38        4S          0.91778
  39        4PX         0.26222
  40        4PY         0.24498
  41        4PZ         0.11907
  42        5S          0.10471
  43        5PX         0.00350
  44        5PY         0.01044
  45        5PZ         0.00271
  46        6D 0        0.00437
  47        6D+1        0.00826
  48        6D-1        0.00912
  49        6D+2        0.02174
  50        6D-2        0.00773
  51 5   H  1S          0.29602
  52        2S          0.41682
  53        3S          0.04124
  54 6   H  1S          0.23186
  55        2S          0.44967
  56        3S          0.05859
          Condensed to atoms (all electrons):
               1          2          3          4          5          6
     1  C    5.673719   0.286417   0.380773   0.034652   0.008520   0.237922
     2  H    0.286417   0.595497  -0.063984   0.033777  -0.025755  -0.007046
     3  H    0.380773  -0.063984   0.462644  -0.054082   0.011002  -0.013117
     4  C    0.034652   0.033777  -0.054082   6.087364   0.186915   0.053030
     5  H    0.008520  -0.025755   0.011002   0.186915   0.584827  -0.011432
     6  H    0.237922  -0.007046  -0.013117   0.053030  -0.011432   0.480769
 Mulliken charges:
               1
     1  C   -0.622002
     2  H    0.181095
     3  H    0.276765
     4  C   -0.341656
     5  H    0.245924
     6  H    0.259875
 Sum of Mulliken charges =  -0.00000
 Mulliken charges with hydrogens summed into heavy atoms:
               1
     1  C    0.095732
     4  C   -0.095732
 Electronic spatial extent (au):  <R**2>=             93.4925
 Charge=             -0.0000 electrons
 Dipole moment (field-independent basis, Debye):
    X=              0.9311    Y=             -2.1597    Z=             -0.1314  Tot=              2.3556
 Quadrupole moment (field-independent basis, Debye-Ang):
   XX=            -14.2903   YY=            -17.4205   ZZ=            -13.4520
   XY=              1.7937   XZ=              0.1159   YZ=             -0.7375
 Traceless Quadrupole moment (field-independent basis, Debye-Ang):
   XX=              0.7639   YY=             -2.3662   ZZ=              1.6023
   XY=              1.7937   XZ=              0.1159   YZ=             -0.7375
 Octapole moment (field-independent basis, Debye-Ang**2):
  XXX=             -0.3911  YYY=             -7.3390  ZZZ=             -0.4790  XYY=             -0.1128
  XXY=             -0.8090  XXZ=             -0.3773  XZZ=              0.7225  YZZ=              0.7192
  YYZ=             -1.8847  XYZ=              0.4354
 Hexadecapole moment (field-independent basis, Debye-Ang**3):
 XXXX=            -28.8158 YYYY=            -95.9478 ZZZZ=            -24.9247 XXXY=             -1.6771
 XXXZ=              1.5928 YYYX=             -1.0827 YYYZ=              2.7521 ZZZX=              2.8405
 ZZZY=              1.9709 XXYY=            -18.8080 XXZZ=             -9.0909 YYZZ=            -19.3093
 XXYZ=              0.5979 YYXZ=              0.0642 ZZXY=             -1.3542
 N-N= 3.060417539860D+01 E-N=-2.421669020052D+02  KE= 7.772744024400D+01
 Orbital energies and kinetic energies (alpha):
                                 1                 2
   1         O               -10.349578         15.991035
   2         O               -10.341352         15.993301
   3         O                -0.874356          1.319735
   4         O                -0.684727          1.283135
   5         O                -0.534443          0.939116
   6         O                -0.477613          0.970393
   7         O                -0.434280          1.144119
   8         O                -0.329577          1.222885
   9         V                -0.011255          1.082115
  10         V                 0.062022          0.383122
  11         V                 0.084900          0.321396
  12         V                 0.104905          0.202867
  13         V                 0.109099          0.315863
  14         V                 0.132628          0.321681
  15         V                 0.146491          0.326987
  16         V                 0.153206          0.330172
  17         V                 0.168908          0.574236
  18         V                 0.194804          0.748184
  19         V                 0.212233          0.447339
  20         V                 0.232161          0.848621
  21         V                 0.272918          0.810844
  22         V                 0.309292          1.290791
  23         V                 0.475958          0.816793
  24         V                 0.485851          0.905368
  25         V                 0.525033          1.022260
  26         V                 0.554367          1.118962
  27         V                 0.616714          1.547958
  28         V                 0.634691          1.647620
  29         V                 0.637596          1.308286
  30         V                 0.658968          1.616478
  31         V                 0.683417          2.018495
  32         V                 0.747024          1.844110
  33         V                 0.840375          2.461030
  34         V                 0.892717          2.516500
  35         V                 1.234609          2.106576
  36         V                 1.264699          2.144337
  37         V                 1.347517          2.205170
  38         V                 1.518243          2.376899
  39         V                 1.620253          2.560021
  40         V                 1.674841          2.609386
  41         V                 1.716118          2.571392
  42         V                 1.861385          2.830900
  43         V                 1.871520          2.807516
  44         V                 2.082536          3.721661
  45         V                 2.437551          4.326432
  46         V                 2.518056          4.262822
  47         V                 2.560298          4.614680
  48         V                 2.609104          5.073863
  49         V                 2.788046          6.314876
  50         V                 2.889997          6.561378
  51         V                 2.979520          6.009775
  52         V                 3.060582          6.210343
  53         V                 3.205312          6.175351
  54         V                 3.607680          6.801765
  55         V                23.444487         60.134664
  56         V                23.638288         60.135239
 Total kinetic energy from orbitals= 7.772744024400D+01
 Calling FoFJK, ICntrl=      2127 FMM=F ISym2X=0 I1Cent= 0 IOpClX= 0 NMat=1 NMatS=1 NMatT=0.
 -------------------------------------------------------------------
 Center     Atomic                   Forces (Hartrees/Bohr)
 Number     Number              X              Y              Z
 -------------------------------------------------------------------
      1        6           0.013545174   -0.031576691   -0.013645793
      2        1          -0.019925417    0.061537361    0.034089147
      3        1           0.021173976    0.042287910    0.006237899
      4        6          -0.066106234   -0.063255920    0.028687773
      5        1           0.062238966    0.008616251   -0.028598834
      6        1          -0.010926465   -0.017608911   -0.026770191
 -------------------------------------------------------------------
 Cartesian Forces:  Max     0.066106234 RMS     0.036586642

 GradGradGradGradGradGradGradGradGradGradGradGradGradGradGradGradGradGrad
 Berny optimization.
 Search for a local minimum.
 Step number   1 out of a maximum of    2
 All quantities printed in internal units (Hartrees-Bohrs-Radians)
 Second derivative matrix not updated -- first step.
 The second derivative matrix:
                          X1        Y1        Z1        X2        Y2
           X1           0.46487
           Y1           0.09410   0.60524
           Z1          -0.02576   0.03859   0.38229
           X2          -0.09610   0.04195   0.03372   0.08174
           Y2           0.04191  -0.13030  -0.04823  -0.04432   0.11895
           Z2           0.02648  -0.03687  -0.07548  -0.03766   0.05160
           X3          -0.20601  -0.08473   0.03238  -0.00900  -0.00790
           Y3          -0.09134  -0.14164   0.01191   0.01752   0.01423
           Z3           0.04390   0.01848  -0.07395   0.01295   0.00761
           X4          -0.07273  -0.02996   0.02164   0.00933   0.01047
           Y4          -0.00223  -0.27262   0.01886  -0.00225  -0.00320
           Z4           0.01799   0.02339  -0.04168  -0.00575  -0.01096
           X5          -0.00275   0.00061   0.00135  -0.00019  -0.00000
           Y5          -0.02407   0.00547   0.01265  -0.00003  -0.00000
           Z5           0.00331  -0.00078  -0.00192  -0.00036  -0.00000
           X6          -0.08729  -0.02197  -0.06332   0.01423  -0.00017
           Y6          -0.01838  -0.06615  -0.03377  -0.01287   0.00033
           Z6          -0.06593  -0.04282  -0.18926  -0.00291  -0.00002
                          Z2        X3        Y3        Z3        X4
           Z2           0.06631
           X3           0.00266   0.20363
           Y3          -0.00346   0.09703   0.12515
           Z3           0.00185  -0.03691  -0.01156   0.05246
           X4          -0.00623   0.01426  -0.02084   0.00232   0.37840
           Y4           0.00253  -0.00217   0.00331   0.00011  -0.04985
           Z4           0.01066  -0.00038   0.00148   0.00299  -0.18637
           X5          -0.00020   0.00004   0.00005   0.00034  -0.33004
           Y5          -0.00003   0.00000   0.00001   0.00004   0.08120
           Z5          -0.00037   0.00007   0.00009   0.00063   0.17195
           X6           0.01494  -0.00292  -0.00242  -0.02261   0.00079
           Y6          -0.01377  -0.00224  -0.00105  -0.01469   0.00897
           Z6          -0.00297   0.00218   0.00155   0.01602  -0.00330
                          Y4        Z4        X5        Y5        Z5
           Y4           0.32921
           Z4           0.00564   0.12812
           X5           0.05654   0.17399   0.33272
           Y5          -0.05845  -0.04003  -0.05714   0.05298
           Z5          -0.02659  -0.09318  -0.17539   0.02737   0.09502
           X6          -0.00004   0.00053   0.00023   0.00003   0.00042
           Y6           0.00176   0.02047  -0.00005  -0.00001  -0.00009
           Z6          -0.00055  -0.00691  -0.00010  -0.00001  -0.00018
                          X6        Y6        Z6
           X6           0.07496
           Y6           0.02457   0.06511
           Z6           0.07005   0.04186   0.18328
 ITU=  0
     Eigenvalues ---    0.00341   0.03803   0.06076   0.06544   0.10599
     Eigenvalues ---    0.11246   0.12809   0.23320   0.48079   0.53148
     Eigenvalues ---    0.79343   0.86169
 Quadratic step=2.058D+00 exceeds max=3.000D-01 adjusted using Lamda=-2.091D-01.
 Angle between NR and scaled steps=  66.51 degrees.
 Angle between quadratic step and forces=  26.90 degrees.
 Linear search not attempted -- first point.
 B after Tr=    -0.012779   -0.033353   -0.001751
         Rot=    0.999993    0.000392    0.000075   -0.003773 Ang=   0.43 deg.
 Variable       Old X    -DE/DX   Delta X   Delta X   Delta X     New X
                                 (Linear)    (Quad)   (Total)
    X1       -0.26713   0.01355   0.00000   0.01622   0.01284  -0.25429
    Y1       -1.23252  -0.03158   0.00000  -0.01609  -0.05117  -1.28368
    Z1        0.19546  -0.01365   0.00000  -0.01758  -0.01838   0.17708
    X2        0.95251  -0.01993   0.00000  -0.03728  -0.02839   0.92412
    Y2       -3.02173   0.06154   0.00000   0.16552   0.13844  -2.88328
    Z2       -0.98681   0.03409   0.00000   0.07865   0.07928  -0.90753
    X3       -2.07578   0.02117   0.00000   0.02974   0.03428  -2.04151
    Y3       -2.42965   0.04229   0.00000   0.13074   0.08247  -2.34718
    Z3        0.55719   0.00624   0.00000   0.02544   0.02519   0.58238
    X4        0.15749  -0.06611   0.00000  -0.04773  -0.07196   0.08552
    Y4        1.63674  -0.06326   0.00000  -0.11439  -0.14713   1.48961
    Z4       -0.23758   0.02869   0.00000   0.01270   0.00977  -0.22781
    X5        1.84597   0.06224   0.00000   0.09841   0.07533   1.92130
    Y5        1.32115   0.00862   0.00000   0.06097   0.04135   1.36249
    Z5       -1.13090  -0.02860   0.00000  -0.02162  -0.02417  -1.15507
    X6        0.72038  -0.01093   0.00000  -0.01368  -0.02208   0.69829
    Y6       -0.58849  -0.01761   0.00000  -0.03761  -0.06396  -0.65244
    Z6        2.17955  -0.02677   0.00000  -0.07053  -0.07169   2.10786
         Item               Value     Threshold  Converged?
 Maximum Force            0.066106     0.000450     NO 
 RMS     Force            0.036587     0.000300     NO 
 Maximum Displacement     0.147135     0.001800     NO 
 RMS     Displacement     0.067740     0.001200     NO 
 Predicted change in Energy=-3.025459D-02
 GradGradGradGradGradGradGradGradGradGradGradGradGradGradGradGradGradGrad

 Unable to Open any file for archive entry.
 1\1\GINC-BHX0029\Force\RwB97XD\6-311+G(d)\C2H4\BWEIGHT\03-Jan-2023\0\\
 # WB97XD/6-311+G* SCF=XQC FORCE nosym pop=full\\MD Step 570\\0,1\C,-0.
 14135835,-0.65221934,0.10343543\H,0.50404545,-1.59902827,-0.52219943\H
 ,-1.09845734,-1.28571447,0.29485283\C,0.08333815,0.86612546,-0.1257223
 3\H,0.97684639,0.69912124,-0.59844541\H,0.38120638,-0.31141348,1.15337
 046\\Version=ES64L-G16RevC.01\HF=-78.4033188\RMSD=1.711e-09\RMSF=3.659
 e-02\Dipole=0.3663395,-0.8497095,-0.0516994\Quadrupole=0.5679513,-1.75
 92064,1.1912551,1.3335624,0.0861673,-0.5482878\PG=C01 [X(C2H4)]\\@
 The archive entry for this job was punched.


 ERWIN WITH HIS PSI CAN DO
 CALCULATIONS QUITE A FEW.
 BUT ONE THING HAS NOT BEEN SEEN
 JUST WHAT DOES PSI REALLY MEAN.
 -- WALTER HUCKEL, TRANS. BY FELIX BLOCH
 Job cpu time:       0 days  0 hours  0 minutes 20.5 seconds.
 Elapsed time:       0 days  0 hours  0 minutes 22.9 seconds.
 File lengths (MBytes):  RWF=    272 Int=      0 D2E=      0 Chk=     32 Scr=     32
 Normal termination of Gaussian 16 at Tue Jan  3 13:50:30 2023.
