 Entering Gaussian System, Link 0=g16
 Initial command:
 /software/gaussian/g16-c01/avx2/g16/l1.exe "/gpfs/fs2/scratch/bweight/software/many_molecule_many_mode_NAMD/src/NAMD/TEST_NVT/TRAJ/traj-16/G16/GS_NEW/Gau-36807.inp" -scrdir="/gpfs/fs2/scratch/bweight/software/many_molecule_many_mode_NAMD/src/NAMD/TEST_NVT/TRAJ/traj-16/G16/GS_NEW/"
 Entering Link 1 = /software/gaussian/g16-c01/avx2/g16/l1.exe PID=     36808.
  
 Copyright (c) 1988-2019, Gaussian, Inc.  All Rights Reserved.
  
 This is part of the Gaussian(R) 16 program.  It is based on
 the Gaussian(R) 09 system (copyright 2009, Gaussian, Inc.),
 the Gaussian(R) 03 system (copyright 2003, Gaussian, Inc.),
 the Gaussian(R) 98 system (copyright 1998, Gaussian, Inc.),
 the Gaussian(R) 94 system (copyright 1995, Gaussian, Inc.),
 the Gaussian 92(TM) system (copyright 1992, Gaussian, Inc.),
 the Gaussian 90(TM) system (copyright 1990, Gaussian, Inc.),
 the Gaussian 88(TM) system (copyright 1988, Gaussian, Inc.),
 the Gaussian 86(TM) system (copyright 1986, Carnegie Mellon
 University), and the Gaussian 82(TM) system (copyright 1983,
 Carnegie Mellon University). Gaussian is a federally registered
 trademark of Gaussian, Inc.
  
 This software contains proprietary and confidential information,
 including trade secrets, belonging to Gaussian, Inc.
  
 This software is provided under written license and may be
 used, copied, transmitted, or stored only in accord with that
 written license.
  
 The following legend is applicable only to US Government
 contracts under FAR:
  
                    RESTRICTED RIGHTS LEGEND
  
 Use, reproduction and disclosure by the US Government is
 subject to restrictions as set forth in subparagraphs (a)
 and (c) of the Commercial Computer Software - Restricted
 Rights clause in FAR 52.227-19.
  
 Gaussian, Inc.
 340 Quinnipiac St., Bldg. 40, Wallingford CT 06492
  
  
 ---------------------------------------------------------------
 Warning -- This program may not be used in any manner that
 competes with the business of Gaussian, Inc. or will provide
 assistance to any competitor of Gaussian, Inc.  The licensee
 of this program is prohibited from giving any competitor of
 Gaussian, Inc. access to this program.  By using this program,
 the user acknowledges that Gaussian, Inc. is engaged in the
 business of creating and licensing software in the field of
 computational chemistry and represents and warrants to the
 licensee that it is not a competitor of Gaussian, Inc. and that
 it will not use this program in any manner prohibited above.
 ---------------------------------------------------------------
  

 Cite this work as:
 Gaussian 16, Revision C.01,
 M. J. Frisch, G. W. Trucks, H. B. Schlegel, G. E. Scuseria, 
 M. A. Robb, J. R. Cheeseman, G. Scalmani, V. Barone, 
 G. A. Petersson, H. Nakatsuji, X. Li, M. Caricato, A. V. Marenich, 
 J. Bloino, B. G. Janesko, R. Gomperts, B. Mennucci, H. P. Hratchian, 
 J. V. Ortiz, A. F. Izmaylov, J. L. Sonnenberg, D. Williams-Young, 
 F. Ding, F. Lipparini, F. Egidi, J. Goings, B. Peng, A. Petrone, 
 T. Henderson, D. Ranasinghe, V. G. Zakrzewski, J. Gao, N. Rega, 
 G. Zheng, W. Liang, M. Hada, M. Ehara, K. Toyota, R. Fukuda, 
 J. Hasegawa, M. Ishida, T. Nakajima, Y. Honda, O. Kitao, H. Nakai, 
 T. Vreven, K. Throssell, J. A. Montgomery, Jr., J. E. Peralta, 
 F. Ogliaro, M. J. Bearpark, J. J. Heyd, E. N. Brothers, K. N. Kudin, 
 V. N. Staroverov, T. A. Keith, R. Kobayashi, J. Normand, 
 K. Raghavachari, A. P. Rendell, J. C. Burant, S. S. Iyengar, 
 J. Tomasi, M. Cossi, J. M. Millam, M. Klene, C. Adamo, R. Cammi, 
 J. W. Ochterski, R. L. Martin, K. Morokuma, O. Farkas, 
 J. B. Foresman, and D. J. Fox, Gaussian, Inc., Wallingford CT, 2019.
 
 ******************************************
 Gaussian 16:  ES64L-G16RevC.01  3-Jul-2019
                11-Jan-2023 
 ******************************************
 %oldchk=../GS_OLD/geometry.chk
 %chk=geometry.chk
 %nprocshared=4
 Will use up to    4 processors via shared memory.
 %mem=5GB
 Copying data from "../GS_OLD/geometry.chk" to current chk file "geometry.chk"
 IOpt=  2 FromEx=T IUOpen= 4 IOptOp= 5 NList=   0 IFRang= 0 IUIn= 4 IUOut= 2.
 -------------------------------------------------------
 # WB97XD/6-311G SCF=XQC FORCE nosym pop=full guess=read
 -------------------------------------------------------
 1/10=7,30=1,38=1/1,3;
 2/12=2,15=1,17=6,18=5,40=1/2;
 3/5=4,6=6,11=2,25=1,30=1,71=1,74=-58,116=-2/1,2,3;
 4/5=1/1;
 5/5=2,8=3,13=1,38=6/2,8;
 6/7=3,28=1/1;
 7/29=1,30=1/1,2,3,16;
 1/10=7,30=1/3;
 99//99;
 -----------
 MD Step 999
 -----------
 Symbolic Z-matrix:
 Charge =  0 Multiplicity = 1
 C                    -0.3369   -0.58233   0.00316 
 H                     0.22556  -1.52567  -0.00609 
 H                    -1.42107  -0.58149  -0.00619 
 C                     0.33172   0.5758    0.00212 
 H                    -0.15235   1.56787  -0.00803 
 H                     1.4443    0.65189  -0.00788 
 

 GradGradGradGradGradGradGradGradGradGradGradGradGradGradGradGradGradGrad
 Berny optimization.
 Initialization pass.
 Trust Radius=3.00D-01 FncErr=1.00D-07 GrdErr=1.00D-07 EigMax=2.50D+02 EigMin=1.00D-04
 Number of steps in this run=      2 maximum allowed number of steps=      2.
 GradGradGradGradGradGradGradGradGradGradGradGradGradGradGradGradGradGrad

                          Input orientation:                          
 ---------------------------------------------------------------------
 Center     Atomic      Atomic             Coordinates (Angstroms)
 Number     Number       Type             X           Y           Z
 ---------------------------------------------------------------------
      1          6           0       -0.336899   -0.582332    0.003162
      2          1           0        0.225559   -1.525668   -0.006094
      3          1           0       -1.421070   -0.581488   -0.006189
      4          6           0        0.331721    0.575796    0.002117
      5          1           0       -0.152354    1.567868   -0.008032
      6          1           0        1.444296    0.651887   -0.007876
 ---------------------------------------------------------------------
                    Distance matrix (angstroms):
                    1          2          3          4          5
     1  C    0.000000
     2  H    1.098329   0.000000
     3  H    1.084212   1.898121   0.000000
     4  C    1.337278   2.104159   2.100393   0.000000
     5  H    2.158134   3.116534   2.495872   1.103920   0.000000
     6  H    2.167043   2.495410   3.119542   1.115219   1.840737
                    6
     6  H    0.000000
 Symmetry turned off by external request.
 Stoichiometry    C2H4
 Framework group  C1[X(C2H4)]
 Deg. of freedom    12
 Full point group                 C1      NOp   1
 Rotational constants (GHZ):         143.4332562          29.7071817          24.6108383
 Standard basis: 6-311G (5D, 7F)
    38 basis functions,    72 primitive gaussians,    38 cartesian basis functions
     8 alpha electrons        8 beta electrons
       nuclear repulsion energy        33.0748534880 Hartrees.
 NAtoms=    6 NActive=    6 NUniq=    6 SFac= 1.00D+00 NAtFMM=   60 NAOKFM=F Big=F
 Integral buffers will be    131072 words long.
 Raffenetti 2 integral format.
 Two-electron integral symmetry is turned off.
 Nuclear repulsion after empirical dispersion term =       33.0740119646 Hartrees.
 One-electron integrals computed using PRISM.
 NBasis=    38 RedAO= T EigKep=  6.41D-03  NBF=    38
 NBsUse=    38 1.00D-06 EigRej= -1.00D+00 NBFU=    38
 Initial guess from the checkpoint file:  "geometry.chk"
 B after Tr=    -0.000213   -0.000333   -0.000521
         Rot=    1.000000    0.000004   -0.000001    0.000004 Ang=   0.00 deg.
 Keep R1 ints in memory in canonical form, NReq=4036876.
 Requested convergence on RMS density matrix=1.00D-08 within  32 cycles.
 Requested convergence on MAX density matrix=1.00D-06.
 Requested convergence on             energy=1.00D-06.
 No special actions if energy rises.
 SCF Done:  E(RwB97XD) =  -78.5555339855     A.U. after    8 cycles
            NFock=  8  Conv=0.55D-08     -V/T= 2.0052
 QCSCF skips out because SCF is already converged.

 **********************************************************************

            Population analysis using the SCF Density.

 **********************************************************************

 Alpha  occ. eigenvalues --  -10.29027 -10.28801  -0.86399  -0.67212  -0.55958
 Alpha  occ. eigenvalues --   -0.50936  -0.43607  -0.35703
 Alpha virt. eigenvalues --    0.08020   0.14089   0.16462   0.16997   0.24071
 Alpha virt. eigenvalues --    0.37195   0.39331   0.40075   0.46347   0.48848
 Alpha virt. eigenvalues --    0.49365   0.59111   0.66552   0.69127   0.77258
 Alpha virt. eigenvalues --    0.77569   0.84542   0.95268   2.23119   2.29059
 Alpha virt. eigenvalues --    2.33299   2.40799   2.67119   2.81835   2.87684
 Alpha virt. eigenvalues --    2.95181   3.14176   3.32062  23.35195  23.70654
     Molecular Orbital Coefficients:
                           1         2         3         4         5
                           O         O         O         O         O
     Eigenvalues --   -10.29027 -10.28801  -0.86399  -0.67212  -0.55958
   1 1   C  1S          0.11215   0.55212  -0.08850   0.06666  -0.00039
   2        2S          0.09250   0.45437  -0.13989   0.10675  -0.00064
   3        2PX         0.00016  -0.00001   0.02595   0.03611   0.13985
   4        2PY         0.00028  -0.00001   0.04658   0.05866  -0.07343
   5        2PZ        -0.00000  -0.00000  -0.00042   0.00055   0.00006
   6        3S          0.00205   0.01450   0.37527  -0.29125   0.00176
   7        3PX        -0.00060   0.00044   0.03451   0.05790   0.21913
   8        3PY        -0.00102   0.00079   0.06149   0.09533  -0.11623
   9        3PZ        -0.00000  -0.00001  -0.00069   0.00099   0.00009
  10        4S          0.00298  -0.01476   0.19193  -0.22503   0.00096
  11        4PX         0.00147  -0.00159   0.00483   0.02311   0.11302
  12        4PY         0.00251  -0.00273   0.00862   0.03948  -0.06087
  13        4PZ         0.00000   0.00003  -0.00023   0.00050   0.00004
  14 2   H  1S         -0.00004  -0.00006   0.05256  -0.08640   0.10336
  15        2S         -0.00030   0.00011   0.05394  -0.10449   0.13091
  16        3S          0.00086   0.00166  -0.00183  -0.01489   0.04228
  17 3   H  1S         -0.00005  -0.00007   0.05418  -0.09055  -0.10749
  18        2S         -0.00030   0.00009   0.05496  -0.10844  -0.13494
  19        3S          0.00089   0.00170  -0.00185  -0.01594  -0.04347
  20 4   C  1S          0.55211  -0.11234  -0.08679  -0.06842  -0.00023
  21        2S          0.45443  -0.09226  -0.13703  -0.10974  -0.00035
  22        2PX        -0.00002  -0.00017  -0.02779   0.03792   0.11560
  23        2PY        -0.00003  -0.00029  -0.04681   0.06815  -0.07404
  24        2PZ        -0.00000   0.00000  -0.00029  -0.00066   0.00007
  25        3S          0.01398  -0.00375   0.36701   0.29992   0.00095
  26        3PX        -0.00020   0.00073  -0.03460   0.06156   0.18098
  27        3PY        -0.00031   0.00127  -0.05826   0.10983  -0.11471
  28        3PZ        -0.00001  -0.00000  -0.00052  -0.00118   0.00010
  29        4S         -0.01208   0.00865   0.18844   0.23835  -0.00042
  30        4PX         0.00083  -0.00192  -0.00545   0.02712   0.10010
  31        4PY         0.00142  -0.00336  -0.00912   0.04691  -0.06253
  32        4PZ         0.00002  -0.00000  -0.00022  -0.00060   0.00005
  33 5   H  1S         -0.00006  -0.00004   0.04964   0.09464  -0.08854
  34        2S         -0.00003  -0.00031   0.05076   0.11271  -0.11139
  35        3S          0.00180   0.00012  -0.00104   0.01702  -0.03568
  36 6   H  1S         -0.00005  -0.00004   0.04830   0.09202   0.08327
  37        2S         -0.00003  -0.00033   0.04996   0.11032   0.10542
  38        3S          0.00175   0.00010  -0.00106   0.01632   0.03415
                           6         7         8         9        10
                           O         O         O         V         V
     Eigenvalues --    -0.50936  -0.43607  -0.35703   0.08020   0.14089
   1 1   C  1S         -0.00287   0.00029  -0.00031   0.00083  -0.03314
   2        2S         -0.00420   0.00050  -0.00050   0.00138  -0.05315
   3        2PX         0.09361  -0.10919  -0.00097   0.00038  -0.03043
   4        2PY         0.16930   0.06474  -0.00169   0.00068  -0.06519
   5        2PZ         0.00147   0.00001   0.17955  -0.18913  -0.00073
   6        3S          0.01720  -0.00124   0.00146  -0.00417   0.11544
   7        3PX         0.13547  -0.17433  -0.00137   0.00058  -0.03552
   8        3PY         0.24719   0.10390  -0.00238   0.00101  -0.08088
   9        3PZ         0.00233   0.00003   0.28880  -0.27817  -0.00117
  10        4S         -0.05711  -0.00391   0.00212  -0.00474   1.22103
  11        4PX         0.06789  -0.10883  -0.00111   0.00363  -0.18403
  12        4PY         0.12545   0.06572  -0.00195   0.00622  -0.38135
  13        4PZ         0.00133   0.00003   0.26692  -0.69662  -0.00417
  14 2   H  1S         -0.08191  -0.11376   0.00004   0.00129  -0.01784
  15        2S         -0.11375  -0.17561   0.00060   0.00204  -0.04937
  16        3S         -0.04253  -0.08117   0.00037   0.00545  -0.83640
  17 3   H  1S         -0.07885   0.11122   0.00002   0.00129  -0.01318
  18        2S         -0.10877   0.17070   0.00058   0.00207  -0.03771
  19        3S         -0.04029   0.07871   0.00035   0.00534  -0.75653
  20 4   C  1S         -0.00909  -0.00053  -0.00024  -0.00079  -0.03646
  21        2S         -0.01428  -0.00089  -0.00039  -0.00132  -0.05856
  22        2PX        -0.09866   0.12632   0.00105   0.00057   0.04216
  23        2PY        -0.16125  -0.07433   0.00189   0.00099   0.06079
  24        2PZ         0.00169   0.00005   0.17923   0.18958  -0.00093
  25        3S          0.04564   0.00252   0.00116   0.00394   0.12943
  26        3PX        -0.14630   0.20225   0.00148   0.00087   0.05205
  27        3PY        -0.23718  -0.11819   0.00266   0.00153   0.07176
  28        3PZ         0.00267   0.00007   0.28679   0.27800  -0.00140
  29        4S         -0.02561   0.00373   0.00196   0.00448   1.24370
  30        4PX        -0.07676   0.13046   0.00114   0.00412   0.27398
  31        4PY        -0.12292  -0.07519   0.00209   0.00725   0.41674
  32        4PZ         0.00154   0.00004   0.26731   0.69794  -0.00559
  33 5   H  1S         -0.07367  -0.12561   0.00008  -0.00121  -0.01137
  34        2S         -0.10031  -0.19583   0.00066  -0.00203  -0.03664
  35        3S         -0.03739  -0.09225   0.00036  -0.00529  -0.81823
  36 6   H  1S         -0.07981   0.12570   0.00005  -0.00121  -0.01597
  37        2S         -0.10928   0.19706   0.00062  -0.00202  -0.04783
  38        3S         -0.04103   0.09290   0.00034  -0.00536  -0.89789
                          11        12        13        14        15
                           V         V         V         V         V
     Eigenvalues --     0.16462   0.16997   0.24071   0.37195   0.39331
   1 1   C  1S          0.00124  -0.04582   0.00004   0.00849   0.00126
   2        2S          0.00199  -0.07470   0.00007   0.01121   0.00203
   3        2PX         0.09698  -0.01990   0.09980  -0.03470  -0.02360
   4        2PY        -0.05292  -0.03703  -0.05724  -0.06360   0.00864
   5        2PZ         0.00002  -0.00201  -0.00001  -0.00137  -0.00005
   6        3S         -0.00414   0.16946   0.00020   0.03655  -0.00202
   7        3PX         0.13878  -0.01121   0.10483  -0.04140  -0.10701
   8        3PY        -0.07689  -0.02396  -0.06128  -0.08018   0.04653
   9        3PZ         0.00003  -0.00280  -0.00003  -0.00286  -0.00005
  10        4S         -0.06151   1.44069  -0.01822  -2.45130  -0.21206
  11        4PX         0.58823  -0.12005   1.17415  -1.52893  -0.54159
  12        4PY        -0.31212  -0.20664  -0.66876  -2.66044   0.13232
  13        4PZ         0.00019  -0.01312   0.00012  -0.01168  -0.00064
  14 2   H  1S         -0.02921  -0.02579   0.01416  -0.06138   0.07498
  15        2S         -0.08230  -0.01778  -0.02398  -0.69097   0.76610
  16        3S         -1.02595  -1.00503  -1.54304  -0.27163  -0.31708
  17 3   H  1S          0.02839  -0.02547  -0.01668  -0.05448  -0.07519
  18        2S          0.08125  -0.02203   0.01738  -0.63839  -0.75063
  19        3S          1.10398  -1.01949   1.57337  -0.35241   0.23233
  20 4   C  1S          0.00176   0.04216  -0.00009  -0.01992  -0.00009
  21        2S          0.00283   0.06864  -0.00017  -0.03289   0.00004
  22        2PX         0.10113  -0.02416  -0.10051  -0.03999  -0.03229
  23        2PY        -0.06234  -0.03754   0.05764  -0.07080   0.01357
  24        2PZ         0.00007   0.00198   0.00000   0.00099   0.00012
  25        3S         -0.00576  -0.15222   0.00033   0.04736  -0.00481
  26        3PX         0.14558  -0.01989  -0.11493  -0.09319  -0.10948
  27        3PY        -0.08819  -0.02751   0.06453  -0.16705   0.05859
  28        3PZ         0.00009   0.00272   0.00002   0.00118   0.00024
  29        4S         -0.07855  -1.33109   0.01291   3.21994   0.18022
  30        4PX         0.52952  -0.12115  -1.12082  -1.10084  -0.57239
  31        4PY        -0.33569  -0.19908   0.65302  -1.93237   0.07844
  32        4PZ         0.00044   0.01285  -0.00015   0.01095   0.00097
  33 5   H  1S          0.03159   0.02460   0.00549   0.00607  -0.08108
  34        2S          0.06730   0.02260  -0.03550   0.01609  -0.79188
  35        3S          1.09028   0.93106  -1.52624   0.44395   0.49238
  36 6   H  1S         -0.03162   0.02567  -0.00377   0.00193   0.08891
  37        2S         -0.06773   0.02073   0.03747  -0.02233   0.90637
  38        3S         -0.98424   0.94464   1.50545   0.45155  -0.47057
                          16        17        18        19        20
                           V         V         V         V         V
     Eigenvalues --     0.40075   0.46347   0.48848   0.49365   0.59111
   1 1   C  1S         -0.01921   0.01311   0.04598  -0.00022  -0.00016
   2        2S         -0.03348   0.03000   0.07666  -0.00029  -0.00029
   3        2PX         0.02891  -0.06124  -0.01118   0.00035   0.00057
   4        2PY         0.05377  -0.10669  -0.01335   0.00049   0.00087
   5        2PZ         0.00015  -0.00010  -0.00193  -0.15181  -0.19258
   6        3S          0.07249  -0.33763  -0.08339  -0.00260  -0.00024
   7        3PX         0.10456  -0.23880   0.03937  -0.00017   0.00188
   8        3PY         0.20126  -0.41368   0.07978  -0.00059   0.00293
   9        3PZ        -0.00107  -0.00118  -0.00866  -0.62825  -0.68516
  10        4S          2.90273   0.11052  -3.09934   0.03474   0.02118
  11        4PX         0.34252   0.22941  -0.83164   0.01113   0.00681
  12        4PY         0.64990   0.43039  -1.44230   0.01963   0.01182
  13        4PZ        -0.00018   0.00067   0.02897   0.68705   1.24145
  14 2   H  1S         -0.02255  -0.03197   0.07621  -0.00100  -0.00050
  15        2S         -0.49403  -0.30523   0.90722  -0.01000  -0.00382
  16        3S          0.33572   0.05897  -0.64976   0.01090   0.00705
  17 3   H  1S         -0.03219  -0.03423   0.07408  -0.00098  -0.00048
  18        2S         -0.58400  -0.33099   0.87873  -0.00972  -0.00345
  19        3S          0.35645   0.05820  -0.61381   0.01049   0.00687
  20 4   C  1S          0.00083  -0.00365  -0.05112   0.00106   0.00021
  21        2S         -0.00223   0.00143  -0.08919   0.00191   0.00039
  22        2PX         0.01024   0.05450  -0.02790   0.00005   0.00066
  23        2PY         0.02071   0.09343  -0.05129   0.00010   0.00124
  24        2PZ        -0.00120  -0.00063  -0.00195  -0.15279   0.19232
  25        3S          0.07754  -0.28100   0.24088  -0.00716  -0.00079
  26        3PX        -0.04139   0.23344  -0.06122   0.00005   0.00232
  27        3PY        -0.05698   0.40532  -0.10920  -0.00001   0.00432
  28        3PZ        -0.00327  -0.00250  -0.00741  -0.63172   0.68250
  29        4S         -1.12508   0.79249   3.10571  -0.04162  -0.01841
  30        4PX         1.33698  -0.33787  -0.59738   0.00593   0.00631
  31        4PY         2.42323  -0.55644  -1.01870   0.00997   0.01080
  32        4PZ        -0.01144  -0.00504  -0.00833   0.69254  -1.23793
  33 5   H  1S         -0.04675  -0.06604  -0.06313   0.00089   0.00047
  34        2S         -0.85108  -0.67942  -0.80137   0.01301   0.00168
  35        3S         -0.23751   0.27702   0.53640  -0.00429  -0.00684
  36 6   H  1S         -0.03704  -0.06470  -0.06340   0.00090   0.00048
  37        2S         -0.73907  -0.66181  -0.80151   0.01298   0.00184
  38        3S         -0.26298   0.29528   0.55939  -0.00478  -0.00694
                          21        22        23        24        25
                           V         V         V         V         V
     Eigenvalues --     0.66552   0.69127   0.77258   0.77569   0.84542
   1 1   C  1S          0.00103  -0.00061   0.05367   0.07110   0.00089
   2        2S          0.00213  -0.00134   0.11333   0.15159   0.00210
   3        2PX        -0.13171   0.19831  -0.02164   0.11546  -0.00705
   4        2PY         0.07685  -0.11992  -0.03687   0.18587   0.01458
   5        2PZ        -0.00000   0.00003   0.00027   0.00136   0.00005
   6        3S         -0.01702   0.01764  -0.77379  -1.31895  -0.02473
   7        3PX        -0.61226   0.69719  -0.15948   0.45484  -0.21916
   8        3PY         0.35298  -0.42190  -0.27274   0.72095   0.16951
   9        3PZ        -0.00005   0.00013   0.00108   0.00470   0.00021
  10        4S          0.02674  -0.07479   0.79360   2.43472  -0.00386
  11        4PX         1.07118  -0.79512   0.15087  -0.78239   4.55690
  12        4PY        -0.61858   0.49330   0.14650  -0.98645  -2.59903
  13        4PZ        -0.00003   0.00051   0.00206  -0.01606   0.00068
  14 2   H  1S          0.02367  -0.05905   0.01145   0.03234  -0.02776
  15        2S          0.13549  -0.63124   0.07294   0.09350  -1.59117
  16        3S         -1.03727   1.11609  -0.14746  -1.07939  -1.23885
  17 3   H  1S         -0.02278   0.05841   0.01148   0.03314   0.03169
  18        2S         -0.15085   0.66774   0.11002   0.05112   1.63571
  19        3S          1.02720  -1.07118  -0.12574  -1.25296   1.23798
  20 4   C  1S          0.00123  -0.00036   0.08544   0.02796   0.00061
  21        2S          0.00252  -0.00066   0.18183   0.05878   0.00117
  22        2PX        -0.15209  -0.18491  -0.09372   0.05557   0.01014
  23        2PY         0.08702   0.10176  -0.17097   0.10307   0.00363
  24        2PZ        -0.00001  -0.00004   0.00158  -0.00042  -0.00006
  25        3S         -0.01868  -0.00226  -1.51085  -0.31957  -0.00262
  26        3PX        -0.68591  -0.62566  -0.33749   0.28987   0.23650
  27        3PY         0.39603   0.34086  -0.62339   0.53540  -0.09118
  28        3PZ        -0.00006  -0.00012   0.00560  -0.00167  -0.00020
  29        4S          0.01613   0.04885   2.70433   0.00810  -0.01137
  30        4PX         1.29921   0.76900   0.48388  -0.24417  -4.14287
  31        4PY        -0.74525  -0.40971   1.00162  -0.72658   2.37401
  32        4PZ         0.00011  -0.00043  -0.01575   0.00855  -0.00060
  33 5   H  1S         -0.02500  -0.05482   0.03479   0.00178  -0.02383
  34        2S         -0.14123  -0.55104   0.07440   0.07979  -1.40807
  35        3S          1.11895   0.97611  -1.16282   0.35250  -1.08511
  36 6   H  1S          0.02588   0.05481   0.03425   0.00248   0.02300
  37        2S          0.13269   0.51649   0.07967   0.01293   1.38547
  38        3S         -1.12393  -1.00428  -1.06883   0.25884   1.09627
                          26        27        28        29        30
                           V         V         V         V         V
     Eigenvalues --     0.95268   2.23119   2.29059   2.33299   2.40799
   1 1   C  1S          0.09599  -0.00997  -0.01463  -0.00050  -0.00053
   2        2S          0.19952   0.00187  -0.01451  -0.00099  -0.00066
   3        2PX        -0.09149  -0.07275  -0.13094  -0.35077  -0.40857
   4        2PY        -0.15863  -0.13814  -0.23316   0.19831   0.23023
   5        2PZ         0.00013  -0.00391  -0.00542   0.00001  -0.00017
   6        3S         -1.54557  -0.18789  -0.03910   0.00097  -0.00482
   7        3PX        -0.23571   0.06535   0.20554   0.41992   0.57019
   8        3PY        -0.39967   0.14008   0.38069  -0.23969  -0.32292
   9        3PZ        -0.00057   0.00390   0.00671  -0.00005   0.00018
  10        4S          5.71302  -0.09911  -0.88226  -0.00555  -0.01667
  11        4PX         1.21846   0.05601  -0.18569   0.06750   1.00138
  12        4PY         1.98819   0.07285  -0.36166  -0.02989  -0.54936
  13        4PZ        -0.00649   0.00079   0.00261   0.00010   0.00040
  14 2   H  1S          0.01514  -0.69938  -0.80862   0.70394   0.64782
  15        2S         -0.29136   0.99165   1.20780  -1.09390  -1.46080
  16        3S         -0.09833  -0.29749  -0.48530   0.46330   0.35928
  17 3   H  1S          0.01557  -0.69053  -0.79877  -0.70271  -0.67122
  18        2S         -0.25226   0.97992   1.19938   1.09646   1.51053
  19        3S         -0.07331  -0.27399  -0.45916  -0.45503  -0.34910
  20 4   C  1S         -0.09377  -0.01046   0.01207  -0.00048   0.00036
  21        2S         -0.19448  -0.00012   0.01219  -0.00071   0.00064
  22        2PX        -0.09277   0.14011  -0.12152  -0.30028   0.41744
  23        2PY        -0.16015   0.24237  -0.20439   0.17404  -0.24150
  24        2PZ         0.00017  -0.00458   0.00535  -0.00006   0.00008
  25        3S          1.50177  -0.16651   0.01611  -0.00018   0.00041
  26        3PX        -0.22765  -0.18123   0.21114   0.37622  -0.58501
  27        3PY        -0.40029  -0.30721   0.34633  -0.21461   0.33874
  28        3PZ         0.00127   0.00497  -0.00688   0.00004  -0.00010
  29        4S         -5.68644  -0.17879   0.88787  -0.01259   0.00246
  30        4PX         1.09153  -0.01118  -0.19995  -0.12467  -0.85330
  31        4PY         1.99093  -0.03168  -0.31198   0.06842   0.50799
  32        4PZ         0.00287   0.00149  -0.00177   0.00004  -0.00036
  33 5   H  1S         -0.01815  -0.79635   0.66548  -0.70168   0.69036
  34        2S          0.28743   1.15989  -1.01937   1.01252  -1.46504
  35        3S          0.05289  -0.35938   0.39375  -0.51142   0.42861
  36 6   H  1S         -0.01798  -0.79105   0.68349   0.69339  -0.68659
  37        2S          0.31820   1.14905  -1.03911  -0.99718   1.44916
  38        3S          0.06914  -0.36333   0.42142   0.51154  -0.43871
                          31        32        33        34        35
                           V         V         V         V         V
     Eigenvalues --     2.67119   2.81835   2.87684   2.95181   3.14176
   1 1   C  1S          0.00015   0.00078  -0.01352   0.00011  -0.00978
   2        2S          0.00011   0.00225  -0.04433  -0.00004  -0.03012
   3        2PX         0.00120   0.02240  -0.48142  -0.71875   0.44506
   4        2PY         0.00200   0.03973  -0.86944   0.40775   0.77049
   5        2PZ        -0.92460  -0.93921  -0.04260  -0.00019   0.00149
   6        3S         -0.00043  -0.01861   0.38809   0.00261   0.25359
   7        3PX        -0.00074  -0.03886   0.84820   0.86540  -0.42415
   8        3PY        -0.00128  -0.06816   1.50415  -0.47827  -0.72920
   9        3PZ         0.93953   1.14879   0.05328   0.00028  -0.00202
  10        4S          0.00381   0.04358  -0.88486  -0.00781  -0.49842
  11        4PX        -0.00077   0.03114  -0.71897  -0.66444   0.21086
  12        4PY        -0.00105   0.05490  -1.27938   0.35655   0.35352
  13        4PZ        -0.33791  -0.62361  -0.03351  -0.00024   0.00115
  14 2   H  1S          0.00364  -0.00601   0.25904  -0.37198  -0.20818
  15        2S         -0.00413   0.00367  -0.21376   0.38585   0.15696
  16        3S         -0.00092   0.01275  -0.30124   0.27517   0.04977
  17 3   H  1S          0.00369  -0.00579   0.24923   0.37054  -0.21270
  18        2S         -0.00423   0.00309  -0.19442  -0.38018   0.16110
  19        3S         -0.00109   0.01293  -0.30486  -0.29241   0.06170
  20 4   C  1S          0.00015  -0.00076   0.01374   0.00054  -0.00705
  21        2S          0.00015  -0.00238   0.04870   0.00117  -0.02212
  22        2PX        -0.00252   0.02010  -0.40835  -0.81397  -0.50799
  23        2PY        -0.00443   0.03545  -0.71757   0.45090  -0.90321
  24        2PZ        -0.92509   0.93850   0.04444   0.00014   0.00455
  25        3S         -0.00089   0.02060  -0.43961  -0.00830   0.19105
  26        3PX         0.00266  -0.03665   0.77328   0.96917   0.54958
  27        3PY         0.00460  -0.06440   1.35634  -0.53220   0.98667
  28        3PZ         0.94041  -1.14814  -0.05615  -0.00015  -0.00570
  29        4S          0.00478  -0.04450   0.91602   0.02522  -0.36264
  30        4PX        -0.00042   0.03139  -0.71664  -0.69989  -0.34014
  31        4PY        -0.00079   0.05464  -1.24509   0.38144  -0.61554
  32        4PZ        -0.33838   0.62314   0.03591   0.00009   0.00445
  33 5   H  1S          0.00344   0.00874  -0.29662   0.42176  -0.27090
  34        2S         -0.00428  -0.00719   0.27144  -0.43161   0.21384
  35        3S         -0.00039  -0.01175   0.28197  -0.24413   0.13410
  36 6   H  1S          0.00347   0.00879  -0.29546  -0.43312  -0.25671
  37        2S         -0.00440  -0.00753   0.27687   0.44291   0.20251
  38        3S         -0.00025  -0.01118   0.26803   0.24271   0.12343
                          36        37        38
                           V         V         V
     Eigenvalues --     3.32062  23.35195  23.70654
   1 1   C  1S         -0.00040  -1.41269  -1.45357
   2        2S         -0.00049   1.50661   1.57191
   3        2PX         0.79326  -0.00653   0.01204
   4        2PY        -0.44192  -0.01055   0.02123
   5        2PZ         0.00022  -0.00016  -0.00008
   6        3S         -0.00165  -0.29581  -0.40017
   7        3PX        -1.13479   0.02410  -0.05569
   8        3PY         0.62574   0.03965  -0.09716
   9        3PZ        -0.00035   0.00045   0.00027
  10        4S         -0.00180   0.27454   0.76989
  11        4PX         2.00449  -0.02591   0.13403
  12        4PY        -1.10261  -0.04330   0.23014
  13        4PZ         0.00059  -0.00076  -0.00102
  14 2   H  1S          0.56900   0.01290   0.00719
  15        2S         -0.89004   0.00773  -0.01484
  16        3S         -0.46694  -0.08401  -0.03961
  17 3   H  1S         -0.58162   0.01495   0.00856
  18        2S          0.90827   0.00722  -0.01475
  19        3S          0.49712  -0.08668  -0.03963
  20 4   C  1S          0.00012  -1.44876   1.41745
  21        2S         -0.00016   1.54515  -1.53293
  22        2PX        -0.69928   0.00597   0.01267
  23        2PY         0.40455   0.01087   0.02153
  24        2PZ        -0.00020  -0.00017   0.00003
  25        3S          0.00524  -0.30305   0.39025
  26        3PX         0.99574  -0.02218  -0.05671
  27        3PY        -0.58609  -0.03982  -0.09745
  28        3PZ         0.00032   0.00049  -0.00006
  29        4S         -0.02025   0.27883  -0.76054
  30        4PX        -1.76595   0.02349   0.13068
  31        4PY         1.04888   0.04312   0.22729
  32        4PZ        -0.00055  -0.00079   0.00056
  33 5   H  1S          0.47967   0.01338  -0.00449
  34        2S         -0.75181   0.00826   0.01344
  35        3S         -0.43095  -0.08310   0.03695
  36 6   H  1S         -0.47201   0.01171  -0.00329
  37        2S          0.74240   0.00935   0.01323
  38        3S          0.41485  -0.08088   0.03664
     Density Matrix:
                           1         2         3         4         5
   1 1   C  1S          0.65939
   2        2S          0.56150   0.49199
   3        2PX        -0.00047  -0.00061   0.08444
   4        2PY        -0.00125  -0.00173   0.00368   0.08772
   5        2PZ         0.00003   0.00004  -0.00004  -0.00009   0.06448
   6        3S         -0.08888  -0.15377   0.00243   0.00620  -0.00006
   7        3PX         0.00091   0.00140   0.13070   0.00113  -0.00004
   8        3PY         0.00121   0.00186   0.00116   0.13114  -0.00009
   9        3PZ         0.00005   0.00009  -0.00007  -0.00014   0.10372
  10        4S         -0.07928  -0.11413  -0.01586  -0.02851   0.00018
  11        4PX         0.00025   0.00158   0.07001  -0.00454  -0.00017
  12        4PY         0.00065   0.00309  -0.00459   0.06537  -0.00030
  13        4PZ        -0.00003  -0.00008  -0.00024  -0.00042   0.09585
  14 2   H  1S         -0.02058  -0.03277   0.03491  -0.06288  -0.00035
  15        2S         -0.02297  -0.03674   0.04892  -0.08771  -0.00027
  16        3S          0.00053  -0.00078   0.02042  -0.03304  -0.00001
  17 3   H  1S         -0.02115  -0.03365  -0.07284  -0.00209  -0.00038
  18        2S         -0.02333  -0.03725  -0.10036  -0.00251  -0.00029
  19        3S          0.00059  -0.00070  -0.03814   0.00089  -0.00001
  20 4   C  1S          0.00608   0.00980  -0.01091  -0.01892  -0.00012
  21        2S          0.00976   0.01526  -0.01747  -0.03028  -0.00019
  22        2PX         0.01034   0.01652  -0.01243  -0.03217   0.00017
  23        2PY         0.01799   0.02875  -0.03218  -0.04972   0.00031
  24        2PZ        -0.00015  -0.00025  -0.00009  -0.00014   0.06436
  25        3S         -0.02624  -0.03986   0.04897   0.08502   0.00058
  26        3PX         0.01591   0.02465  -0.01829  -0.04594   0.00022
  27        3PY         0.02767   0.04286  -0.04578  -0.07132   0.00041
  28        3PZ        -0.00026  -0.00042  -0.00016  -0.00026   0.10299
  29        4S          0.00541   0.00401   0.02126   0.03738   0.00073
  30        4PX         0.00309   0.00638  -0.01319  -0.02113   0.00023
  31        4PY         0.00518   0.01081  -0.02117  -0.03752   0.00044
  32        4PZ        -0.00021  -0.00035  -0.00028  -0.00047   0.09599
  33 5   H  1S          0.00419   0.00687  -0.00171  -0.01248  -0.00014
  34        2S          0.00624   0.01036   0.00361  -0.02501   0.00001
  35        3S          0.00317   0.00463   0.00434  -0.01747   0.00003
  36 6   H  1S          0.00413   0.00678  -0.00995  -0.00768  -0.00014
  37        2S          0.00616   0.01025  -0.02345  -0.00937  -0.00000
  38        3S          0.00313   0.00459  -0.01729  -0.00506   0.00003
                           6         7         8         9        10
   6        3S          0.45234
   7        3PX        -0.00196   0.20262
   8        3PY        -0.00153  -0.00490   0.19656
   9        3PZ        -0.00018  -0.00006  -0.00013   0.16683
  10        4S          0.27277  -0.02652  -0.04861   0.00025   0.18196
  11        4PX        -0.00688   0.10888  -0.01032  -0.00027  -0.01518
  12        4PY        -0.01266  -0.01044   0.09841  -0.00048  -0.02933
  13        4PZ         0.00036  -0.00032  -0.00055   0.15418   0.00066
  14 2   H  1S          0.08761   0.05639  -0.09817  -0.00059   0.06951
  15        2S          0.09834   0.07940  -0.13645  -0.00045   0.08235
  16        3S          0.00624   0.03346  -0.05079  -0.00001   0.01153
  17 3   H  1S          0.09004  -0.11400  -0.00149  -0.00062   0.06948
  18        2S          0.09978  -0.15689  -0.00085  -0.00048   0.08073
  19        3S          0.00622  -0.05938   0.00328  -0.00002   0.01032
  20 4   C  1S         -0.02659  -0.01705  -0.02958  -0.00020   0.00513
  21        2S         -0.04022  -0.02650  -0.04601  -0.00032   0.00386
  22        2PX        -0.04625  -0.01764  -0.04559   0.00029  -0.01722
  23        2PY        -0.08045  -0.04556  -0.07073   0.00052  -0.02976
  24        2PZ         0.00074  -0.00012  -0.00018   0.10353   0.00075
  25        3S          0.10227   0.07195   0.12514   0.00097   0.00087
  26        3PX        -0.06670  -0.02610  -0.06489   0.00038  -0.02552
  27        3PY        -0.11593  -0.06464  -0.10139   0.00070  -0.04403
  28        3PZ         0.00122  -0.00021  -0.00034   0.16566   0.00124
  29        4S          0.00191   0.03220   0.05686   0.00122  -0.03236
  30        4PX        -0.02255  -0.01966  -0.02962   0.00039  -0.00629
  31        4PY        -0.03852  -0.02970  -0.05405   0.00072  -0.00999
  32        4PZ         0.00102  -0.00039  -0.00065   0.15441   0.00114
  33 5   H  1S         -0.02041  -0.00058  -0.01779  -0.00020  -0.01431
  34        2S         -0.03092   0.00884  -0.03666   0.00004  -0.01845
  35        3S         -0.01186   0.00829  -0.02625   0.00006  -0.00312
  36 6   H  1S         -0.02012  -0.01497  -0.00920  -0.00021  -0.01458
  37        2S         -0.03065  -0.03589  -0.01041   0.00003  -0.01932
  38        3S         -0.01181  -0.02673  -0.00594   0.00005  -0.00372
                          11        12        13        14        15
  11        4PX         0.05958
  12        4PY        -0.00910   0.05083
  13        4PZ        -0.00039  -0.00067   0.14249
  14 2   H  1S          0.03352  -0.05400  -0.00030   0.08112
  15        2S          0.04806  -0.07489  -0.00011   0.10938   0.14949
  16        3S          0.02074  -0.02770   0.00007   0.03656   0.05217
  17 3   H  1S         -0.06287   0.00171  -0.00031  -0.01326  -0.02450
  18        2S         -0.08691   0.00396  -0.00012  -0.02439  -0.04194
  19        3S         -0.03319   0.00423   0.00007  -0.01773  -0.02673
  20 4   C  1S         -0.00319  -0.00584  -0.00019   0.00423   0.00678
  21        2S         -0.00659  -0.01190  -0.00030   0.00700   0.01133
  22        2PX        -0.01328  -0.01971   0.00037   0.00185  -0.00257
  23        2PY        -0.01976  -0.03665   0.00066   0.01133   0.02412
  24        2PZ        -0.00020  -0.00033   0.09568  -0.00018  -0.00006
  25        3S          0.02332   0.04176   0.00087  -0.02110  -0.03411
  26        3PX        -0.02048  -0.02790   0.00050   0.00109  -0.00696
  27        3PY        -0.02791  -0.05343   0.00091   0.01693   0.03620
  28        3PZ        -0.00033  -0.00055   0.15311  -0.00026  -0.00007
  29        4S          0.00838   0.01607   0.00113  -0.01812  -0.02507
  30        4PX        -0.01499  -0.01224   0.00045  -0.00167  -0.00840
  31        4PY        -0.01237  -0.02955   0.00083   0.01525   0.02721
  32        4PZ        -0.00041  -0.00071   0.14270  -0.00015   0.00007
  33 5   H  1S          0.00218  -0.01589  -0.00010   0.01121   0.02327
  34        2S          0.00953  -0.02757   0.00015   0.02382   0.04436
  35        3S          0.00772  -0.01583   0.00010   0.01669   0.02790
  36 6   H  1S         -0.01466  -0.00554  -0.00010  -0.00913  -0.01821
  37        2S         -0.02832  -0.00478   0.00015  -0.01895  -0.03441
  38        3S         -0.01733  -0.00096   0.00010  -0.01029  -0.01788
                          16        17        18        19        20
  16        3S          0.02083
  17 3   H  1S         -0.01794   0.08256
  18        2S         -0.02684   0.10973   0.14791
  19        3S         -0.01254   0.03589   0.05062   0.01994
  20 4   C  1S          0.00377   0.00431   0.00681   0.00377   0.65948
  21        2S          0.00557   0.00712   0.01135   0.00554   0.56159
  22        2PX        -0.00337   0.00893   0.02211   0.01668   0.00126
  23        2PY         0.01767   0.00740   0.00976   0.00573   0.00188
  24        2PZ         0.00000  -0.00017  -0.00005   0.00001   0.00002
  25        3S         -0.01447  -0.02139  -0.03404  -0.01427  -0.08931
  26        3PX        -0.00679   0.01426   0.03488   0.02606  -0.00044
  27        3PY         0.02661   0.00957   0.01199   0.00720  -0.00105
  28        3PZ         0.00002  -0.00026  -0.00005   0.00003   0.00005
  29        4S         -0.00624  -0.01779  -0.02401  -0.00560  -0.08014
  30        4PX        -0.00698   0.01410   0.02774   0.01717  -0.00020
  31        4PY         0.01600   0.00662   0.00677   0.00204  -0.00017
  32        4PZ         0.00008  -0.00015   0.00008   0.00009  -0.00001
  33 5   H  1S          0.01617  -0.00905  -0.01803  -0.00934  -0.02011
  34        2S          0.02736  -0.01871  -0.03384  -0.01684  -0.02211
  35        3S          0.01464  -0.01015  -0.01753  -0.00894   0.00061
  36 6   H  1S         -0.00950   0.01121   0.02316   0.01586  -0.01974
  37        2S         -0.01725   0.02384   0.04416   0.02696  -0.02200
  38        3S         -0.00918   0.01672   0.02777   0.01445   0.00050
                          21        22        23        24        25
  21        2S          0.49209
  22        2PX         0.00182   0.08253
  23        2PY         0.00269   0.00370   0.08770
  24        2PZ         0.00004   0.00004   0.00005   0.06425
  25        3S         -0.15432  -0.00580  -0.00871  -0.00004   0.45390
  26        3PX        -0.00065   0.12840   0.00195   0.00002  -0.00047
  27        3PY        -0.00159   0.00199   0.13148   0.00001   0.00064
  28        3PZ         0.00009   0.00006   0.00008   0.10281  -0.00018
  29        4S         -0.11580   0.01350   0.02261   0.00019   0.27857
  30        4PX        -0.00146   0.07361  -0.00525   0.00014   0.00615
  31        4PY        -0.00220  -0.00512   0.06734   0.00026   0.00980
  32        4PZ        -0.00004   0.00024   0.00044   0.09583   0.00024
  33 5   H  1S         -0.03204  -0.03325   0.06380  -0.00040   0.08568
  34        2S         -0.03533  -0.04971   0.08857  -0.00032   0.09451
  35        3S         -0.00058  -0.02283   0.03347  -0.00003   0.00555
  36 6   H  1S         -0.03148   0.07105   0.00274  -0.00038   0.08416
  37        2S         -0.03518   0.10131   0.00070  -0.00029   0.09407
  38        3S         -0.00073   0.04076  -0.00331  -0.00002   0.00584
                          26        27        28        29        30
  26        3PX         0.20010
  27        3PY        -0.00237   0.19770
  28        3PZ         0.00002   0.00002   0.16452
  29        4S          0.02517   0.04180   0.00023   0.18642
  30        4PX         0.11518  -0.01080   0.00023   0.01564   0.06740
  31        4PY        -0.01067   0.10180   0.00042   0.02463  -0.01060
  32        4PZ         0.00031   0.00056   0.15334   0.00059   0.00036
  33 5   H  1S         -0.05308   0.09996  -0.00066   0.06674  -0.03459
  34        2S         -0.07982   0.13827  -0.00053   0.07663  -0.05243
  35        3S         -0.03712   0.05159  -0.00005   0.00894  -0.02453
  36 6   H  1S          0.11232   0.00362  -0.00063   0.06702   0.06619
  37        2S          0.15997  -0.00052  -0.00049   0.07839   0.09474
  38        3S          0.06403  -0.00663  -0.00004   0.01010   0.03827
                          31        32        33        34        35
  31        4PY         0.05395
  32        4PZ         0.00067   0.14292
  33 5   H  1S          0.05605  -0.00034   0.08093
  34        2S          0.07769  -0.00014   0.11007   0.15220
  35        3S          0.02915   0.00005   0.03812   0.05531   0.02295
  36 6   H  1S         -0.00194  -0.00033  -0.01235  -0.02613  -0.02013
  37        2S         -0.00651  -0.00014  -0.02623  -0.04880  -0.03205
  38        3S         -0.00660   0.00005  -0.02036  -0.03219  -0.01594
                          36        37        38
  36 6   H  1S          0.07981
  37        2S          0.10967   0.15311
  38        3S          0.03849   0.05627   0.02350
    Full Mulliken population analysis:
                           1         2         3         4         5
   1 1   C  1S          0.65939
   2        2S          0.49325   0.49199
   3        2PX         0.00000   0.00000   0.08444
   4        2PY         0.00000   0.00000   0.00000   0.08772
   5        2PZ         0.00000   0.00000   0.00000   0.00000   0.06448
   6        3S         -0.02926  -0.06440   0.00000   0.00000   0.00000
   7        3PX         0.00000   0.00000   0.08222   0.00000   0.00000
   8        3PY         0.00000   0.00000   0.00000   0.08250   0.00000
   9        3PZ         0.00000   0.00000   0.00000   0.00000   0.06525
  10        4S         -0.01219  -0.02136   0.00000   0.00000   0.00000
  11        4PX         0.00000   0.00000   0.01542   0.00000   0.00000
  12        4PY         0.00000   0.00000   0.00000   0.01440   0.00000
  13        4PZ         0.00000   0.00000   0.00000   0.00000   0.02111
  14 2   H  1S         -0.00023  -0.00033   0.00184   0.00555   0.00000
  15        2S         -0.00167  -0.00320   0.00436   0.01310   0.00000
  16        3S          0.00004  -0.00007   0.00070   0.00189   0.00000
  17 3   H  1S         -0.00026  -0.00037   0.00795  -0.00000   0.00000
  18        2S         -0.00175  -0.00335   0.01774  -0.00000   0.00000
  19        3S          0.00005  -0.00007   0.00254   0.00000   0.00000
  20 4   C  1S          0.00000   0.00000  -0.00002  -0.00006   0.00000
  21        2S          0.00000  -0.00000  -0.00002  -0.00006   0.00000
  22        2PX        -0.00002  -0.00002   0.00011   0.00086   0.00000
  23        2PY        -0.00006  -0.00005   0.00086   0.00198   0.00000
  24        2PZ        -0.00000  -0.00000  -0.00000  -0.00000   0.00042
  25        3S         -0.00059  -0.00100   0.00256   0.00770  -0.00000
  26        3PX        -0.00054  -0.00099   0.00019   0.00556   0.00000
  27        3PY        -0.00162  -0.00298   0.00554   0.01072   0.00000
  28        3PZ        -0.00000  -0.00000  -0.00000  -0.00000   0.00613
  29        4S          0.00034   0.00030   0.00097   0.00294  -0.00000
  30        4PX        -0.00018  -0.00045  -0.00071   0.00146   0.00000
  31        4PY        -0.00052  -0.00133   0.00147   0.00097   0.00000
  32        4PZ        -0.00000  -0.00000  -0.00000  -0.00000   0.00904
  33 5   H  1S          0.00000   0.00000  -0.00000  -0.00000   0.00000
  34        2S          0.00001   0.00002   0.00000  -0.00031  -0.00000
  35        3S          0.00007   0.00013   0.00001  -0.00070  -0.00000
  36 6   H  1S          0.00000   0.00000  -0.00000  -0.00000   0.00000
  37        2S          0.00001   0.00002  -0.00023  -0.00006   0.00000
  38        3S          0.00007   0.00012  -0.00056  -0.00011  -0.00000
                           6         7         8         9        10
   6        3S          0.45234
   7        3PX         0.00000   0.20262
   8        3PY         0.00000   0.00000   0.19656
   9        3PZ         0.00000   0.00000   0.00000   0.16683
  10        4S          0.21131   0.00000   0.00000   0.00000   0.18196
  11        4PX         0.00000   0.07115   0.00000   0.00000   0.00000
  12        4PY         0.00000   0.00000   0.06431   0.00000   0.00000
  13        4PZ         0.00000   0.00000   0.00000   0.10075   0.00000
  14 2   H  1S          0.01603   0.01098   0.03205   0.00000   0.01836
  15        2S          0.04130   0.01985   0.05720   0.00000   0.04741
  16        3S          0.00287   0.00399   0.01016   0.00000   0.00869
  17 3   H  1S          0.01712   0.04445  -0.00000   0.00000   0.01862
  18        2S          0.04281   0.07722  -0.00000   0.00000   0.04700
  19        3S          0.00289   0.01378   0.00000   0.00000   0.00784
  20 4   C  1S         -0.00060  -0.00058  -0.00174   0.00000   0.00032
  21        2S         -0.00101  -0.00106  -0.00320   0.00000   0.00029
  22        2PX         0.00242   0.00018   0.00552   0.00000   0.00078
  23        2PY         0.00729   0.00552   0.01063   0.00000   0.00234
  24        2PZ         0.00000  -0.00000  -0.00000   0.00616   0.00000
  25        3S          0.02184   0.01350   0.04067  -0.00000   0.00033
  26        3PX         0.01252  -0.00127   0.01853   0.00000   0.00394
  27        3PY         0.03768   0.01846   0.02849   0.00000   0.01176
  28        3PZ         0.00000  -0.00000  -0.00000   0.03538   0.00000
  29        4S          0.00072   0.00497   0.01519  -0.00000  -0.02033
  30        4PX         0.00634  -0.00404   0.00586   0.00000   0.00191
  31        4PY         0.01875   0.00588   0.00124   0.00000   0.00524
  32        4PZ         0.00000  -0.00000  -0.00000   0.04938   0.00000
  33 5   H  1S         -0.00005  -0.00000  -0.00019   0.00000  -0.00076
  34        2S         -0.00118   0.00007  -0.00318  -0.00000  -0.00307
  35        3S         -0.00192   0.00011  -0.00421  -0.00000  -0.00112
  36 6   H  1S         -0.00005  -0.00012  -0.00005   0.00000  -0.00076
  37        2S         -0.00114  -0.00251  -0.00050  -0.00000  -0.00317
  38        3S         -0.00189  -0.00351  -0.00054  -0.00000  -0.00132
                          11        12        13        14        15
  11        4PX         0.05958
  12        4PY         0.00000   0.05083
  13        4PZ         0.00000   0.00000   0.14249
  14 2   H  1S          0.00642   0.01736   0.00000   0.08112
  15        2S          0.01551   0.04054   0.00000   0.07726   0.14949
  16        3S          0.00525   0.01176  -0.00000   0.01366   0.04116
  17 3   H  1S          0.02357   0.00000   0.00000  -0.00001  -0.00063
  18        2S          0.05468   0.00000   0.00000  -0.00062  -0.00516
  19        3S          0.01630   0.00000  -0.00000  -0.00196  -0.00772
  20 4   C  1S         -0.00019  -0.00059   0.00000   0.00000   0.00002
  21        2S         -0.00047  -0.00146   0.00000   0.00000   0.00003
  22        2PX        -0.00072   0.00137   0.00000  -0.00000   0.00000
  23        2PY         0.00137   0.00095   0.00000  -0.00000  -0.00036
  24        2PZ        -0.00000  -0.00000   0.00901   0.00000   0.00000
  25        3S          0.00655   0.02032  -0.00000  -0.00007  -0.00153
  26        3PX        -0.00421   0.00552   0.00000  -0.00000   0.00003
  27        3PY         0.00552   0.00123   0.00000  -0.00023  -0.00360
  28        3PZ        -0.00000  -0.00000   0.04896   0.00000   0.00000
  29        4S          0.00254   0.00843  -0.00000  -0.00107  -0.00454
  30        4PX        -0.00723   0.00310   0.00000   0.00001   0.00016
  31        4PY         0.00313  -0.00562   0.00000  -0.00244  -0.01031
  32        4PZ        -0.00000  -0.00000   0.08965   0.00000  -0.00000
  33 5   H  1S          0.00003  -0.00234   0.00000   0.00000   0.00000
  34        2S          0.00029  -0.00985  -0.00000   0.00000   0.00016
  35        3S          0.00031  -0.00729  -0.00000   0.00023   0.00147
  36 6   H  1S         -0.00175  -0.00046   0.00000  -0.00000  -0.00004
  37        2S         -0.00826  -0.00097  -0.00000  -0.00004  -0.00092
  38        3S         -0.00656  -0.00025  -0.00000  -0.00047  -0.00248
                          16        17        18        19        20
  16        3S          0.02083
  17 3   H  1S         -0.00198   0.08256
  18        2S         -0.00775   0.07751   0.14791
  19        3S         -0.00647   0.01341   0.03994   0.01994
  20 4   C  1S          0.00009   0.00000   0.00002   0.00010   0.65948
  21        2S          0.00017   0.00000   0.00003   0.00017   0.49332
  22        2PX         0.00001  -0.00000  -0.00028  -0.00059   0.00000
  23        2PY        -0.00075  -0.00000  -0.00008  -0.00013   0.00000
  24        2PZ        -0.00000   0.00000   0.00000  -0.00000   0.00000
  25        3S         -0.00251  -0.00008  -0.00154  -0.00249  -0.02940
  26        3PX         0.00006  -0.00016  -0.00293  -0.00367   0.00000
  27        3PY        -0.00447  -0.00007  -0.00066  -0.00067   0.00000
  28        3PZ        -0.00000   0.00000   0.00000  -0.00000   0.00000
  29        4S         -0.00235  -0.00106  -0.00437  -0.00212  -0.01232
  30        4PX         0.00017  -0.00190  -0.00882  -0.00680   0.00000
  31        4PY        -0.00757  -0.00059  -0.00142  -0.00053   0.00000
  32        4PZ        -0.00000   0.00000  -0.00000  -0.00000   0.00000
  33 5   H  1S          0.00023  -0.00000  -0.00004  -0.00042  -0.00022
  34        2S          0.00144  -0.00004  -0.00090  -0.00234  -0.00159
  35        3S          0.00246  -0.00046  -0.00243  -0.00285   0.00005
  36 6   H  1S         -0.00043   0.00000   0.00000   0.00022  -0.00020
  37        2S         -0.00240   0.00000   0.00015   0.00141  -0.00154
  38        3S         -0.00293   0.00023   0.00145   0.00242   0.00004
                          21        22        23        24        25
  21        2S          0.49209
  22        2PX         0.00000   0.08253
  23        2PY         0.00000   0.00000   0.08770
  24        2PZ         0.00000   0.00000   0.00000   0.06425
  25        3S         -0.06463   0.00000   0.00000   0.00000   0.45390
  26        3PX         0.00000   0.08078   0.00000   0.00000   0.00000
  27        3PY         0.00000   0.00000   0.08272   0.00000   0.00000
  28        3PZ         0.00000   0.00000   0.00000   0.06468   0.00000
  29        4S         -0.02167   0.00000   0.00000   0.00000   0.21581
  30        4PX         0.00000   0.01621   0.00000   0.00000   0.00000
  31        4PY         0.00000   0.00000   0.01483   0.00000   0.00000
  32        4PZ         0.00000   0.00000   0.00000   0.02110   0.00000
  33 5   H  1S         -0.00031   0.00146   0.00574   0.00000   0.01544
  34        2S         -0.00303   0.00376   0.01375   0.00000   0.03936
  35        3S         -0.00005   0.00067   0.00201   0.00000   0.00255
  36 6   H  1S         -0.00028   0.00675   0.00002   0.00000   0.01470
  37        2S         -0.00294   0.01722   0.00001   0.00000   0.03849
  38        3S         -0.00007   0.00272  -0.00002   0.00000   0.00266
                          26        27        28        29        30
  26        3PX         0.20010
  27        3PY         0.00000   0.19770
  28        3PZ         0.00000   0.00000   0.16452
  29        4S          0.00000   0.00000   0.00000   0.18642
  30        4PX         0.07526   0.00000   0.00000   0.00000   0.06740
  31        4PY         0.00000   0.06652   0.00000   0.00000   0.00000
  32        4PZ         0.00000   0.00000   0.10020   0.00000   0.00000
  33 5   H  1S          0.00876   0.03379   0.00000   0.01753   0.00567
  34        2S          0.01702   0.06044   0.00000   0.04392   0.01450
  35        3S          0.00380   0.01081   0.00000   0.00673   0.00533
  36 6   H  1S          0.04128   0.00009   0.00000   0.01740   0.02466
  37        2S          0.07706  -0.00002   0.00000   0.04453   0.05968
  38        3S          0.01493  -0.00011   0.00000   0.00756   0.01901
                          31        32        33        34        35
  31        4PY         0.05395
  32        4PZ         0.00000   0.14292
  33 5   H  1S          0.01884   0.00000   0.08093
  34        2S          0.04404   0.00000   0.07775   0.15220
  35        3S          0.01298  -0.00000   0.01424   0.04364   0.02295
  36 6   H  1S         -0.00005   0.00000  -0.00001  -0.00081  -0.00239
  37        2S         -0.00028   0.00000  -0.00082  -0.00680  -0.00983
  38        3S         -0.00022  -0.00000  -0.00241  -0.00987  -0.00856
                          36        37        38
  36 6   H  1S          0.07981
  37        2S          0.07747   0.15311
  38        3S          0.01438   0.04440   0.02350
     Gross orbital populations:
                           1
   1 1   C  1S          1.10435
   2        2S          0.88586
   3        2PX         0.22737
   4        2PY         0.23604
   5        2PZ         0.16643
   6        3S          0.79272
   7        3PX         0.56183
   8        3PY         0.55530
   9        3PZ         0.42376
  10        4S          0.50401
  11        4PX         0.25823
  12        4PY         0.21128
  13        4PZ         0.41198
  14 2   H  1S          0.27341
  15        2S          0.46690
  16        3S          0.08593
  17 3   H  1S          0.27782
  18        2S          0.46435
  19        3S          0.08216
  20 4   C  1S          1.10441
  21        2S          0.88584
  22        2PX         0.22172
  23        2PY         0.23624
  24        2PZ         0.16563
  25        3S          0.79255
  26        3PX         0.55157
  27        3PY         0.55702
  28        3PZ         0.41989
  29        4S          0.50645
  30        4PX         0.27662
  31        4PY         0.21693
  32        4PZ         0.41229
  33 5   H  1S          0.27286
  34        2S          0.46940
  35        3S          0.08872
  36 6   H  1S          0.26938
  37        2S          0.47114
  38        3S          0.09160
          Condensed to atoms (all electrons):
               1          2          3          4          5          6
     1  C    5.030144   0.387712   0.388757   0.602246  -0.035113  -0.034579
     2  H    0.387712   0.515610  -0.032292  -0.041064   0.005986  -0.009712
     3  H    0.388757  -0.032292   0.512122  -0.040656  -0.009494   0.005893
     4  C    0.602246  -0.041064  -0.040656   5.059794   0.383745   0.383102
     5  H   -0.035113   0.005986  -0.009494   0.383745   0.527349  -0.041500
     6  H   -0.034579  -0.009712   0.005893   0.383102  -0.041500   0.528922
 Mulliken charges:
               1
     1  C   -0.339166
     2  H    0.173762
     3  H    0.175670
     4  C   -0.347167
     5  H    0.169026
     6  H    0.167875
 Sum of Mulliken charges =   0.00000
 Mulliken charges with hydrogens summed into heavy atoms:
               1
     1  C    0.010265
     4  C   -0.010265
 Electronic spatial extent (au):  <R**2>=             83.7087
 Charge=              0.0000 electrons
 Dipole moment (field-independent basis, Debye):
    X=              0.0034    Y=              0.0270    Z=             -0.0321  Tot=              0.0421
 Quadrupole moment (field-independent basis, Debye-Ang):
   XX=            -12.2042   YY=            -12.2147   ZZ=            -15.6731
   XY=              0.0146   XZ=             -0.0011   YZ=             -0.0021
 Traceless Quadrupole moment (field-independent basis, Debye-Ang):
   XX=              1.1598   YY=              1.1493   ZZ=             -2.3091
   XY=              0.0146   XZ=             -0.0011   YZ=             -0.0021
 Octapole moment (field-independent basis, Debye-Ang**2):
  XXX=             -0.3992  YYY=             -0.0059  ZZZ=             -0.0551  XYY=              0.2451
  XXY=             -0.0323  XXZ=             -0.0522  XZZ=             -0.0990  YZZ=             -0.0839
  YYZ=             -0.0662  XYZ=             -0.0120
 Hexadecapole moment (field-independent basis, Debye-Ang**3):
 XXXX=            -34.3003 YYYY=            -55.1823 ZZZZ=            -17.7980 XXXY=             -7.2421
 XXXZ=              0.0090 YYYX=            -10.6933 YYYZ=              0.0140 ZZZX=              0.0134
 ZZZY=              0.0224 XXYY=            -16.1903 XXZZ=             -9.9312 YYZZ=            -13.6454
 XXYZ=              0.0048 YYXZ=              0.0018 ZZXY=             -3.2035
 N-N= 3.307401196465D+01 E-N=-2.478587074088D+02  KE= 7.815273016664D+01
 Orbital energies and kinetic energies (alpha):
                                 1                 2
   1         O               -10.290273         15.978359
   2         O               -10.288010         15.979947
   3         O                -0.863988          1.539595
   4         O                -0.672115          1.270562
   5         O                -0.559577          0.942423
   6         O                -0.509362          1.284254
   7         O                -0.436074          1.042612
   8         O                -0.357034          1.038612
   9         V                 0.080200          1.181680
  10         V                 0.140887          0.589810
  11         V                 0.164623          0.595031
  12         V                 0.169965          0.680553
  13         V                 0.240711          0.583530
  14         V                 0.371949          0.845911
  15         V                 0.393314          0.933861
  16         V                 0.400745          0.788083
  17         V                 0.463467          1.194249
  18         V                 0.488482          1.416967
  19         V                 0.493653          1.301008
  20         V                 0.591108          1.652713
  21         V                 0.665524          1.570791
  22         V                 0.691266          2.147977
  23         V                 0.772576          2.443016
  24         V                 0.775688          2.296613
  25         V                 0.845421          1.089656
  26         V                 0.952679          3.429750
  27         V                 2.231189          3.927314
  28         V                 2.290588          4.027000
  29         V                 2.332994          4.305110
  30         V                 2.407986          4.519871
  31         V                 2.671187          6.301349
  32         V                 2.818346          6.308414
  33         V                 2.876841          6.135836
  34         V                 2.951807          6.226908
  35         V                 3.141759          6.820552
  36         V                 3.320615          6.401263
  37         V                23.351949         60.074199
  38         V                23.706543         60.204338
 Total kinetic energy from orbitals= 7.815273016664D+01
 Calling FoFJK, ICntrl=      2127 FMM=F ISym2X=0 I1Cent= 0 IOpClX= 0 NMat=1 NMatS=1 NMatT=0.
 -------------------------------------------------------------------
 Center     Atomic                   Forces (Hartrees/Bohr)
 Number     Number              X              Y              Z
 -------------------------------------------------------------------
      1        6           0.015131194    0.008755428   -0.001283933
      2        1          -0.010816528    0.005860801    0.000651704
      3        1           0.001628960   -0.005676552    0.000581726
      4        6           0.012155397    0.011469840   -0.001430516
      5        1           0.000509560   -0.013556069    0.000717041
      6        1          -0.018608582   -0.006853448    0.000763979
 -------------------------------------------------------------------
 Cartesian Forces:  Max     0.018608582 RMS     0.008672998

 GradGradGradGradGradGradGradGradGradGradGradGradGradGradGradGradGradGrad
 Berny optimization.
 Search for a local minimum.
 Step number   1 out of a maximum of    2
 All quantities printed in internal units (Hartrees-Bohrs-Radians)
 Second derivative matrix not updated -- first step.
 The second derivative matrix:
                          X1        Y1        Z1        X2        Y2
           X1           0.76357
           Y1           0.09646   0.85803
           Z1           0.00170   0.00265   0.17069
           X2          -0.16633   0.09708   0.00068   0.14362
           Y2           0.10275  -0.28076  -0.00238  -0.11629   0.26931
           Z2           0.00108  -0.00300  -0.05451  -0.00099   0.00246
           X3          -0.35488   0.00020  -0.00258   0.00002   0.00001
           Y3          -0.00533  -0.11093  -0.00063   0.03231   0.01926
           Z3          -0.00332  -0.00061  -0.05604   0.00049   0.00019
           X4          -0.26777  -0.17907  -0.00015   0.02269   0.01353
           Y4          -0.17945  -0.47467  -0.00024  -0.01310  -0.00781
           Z4           0.00053   0.00093  -0.09500  -0.00019  -0.00027
           X5           0.02362  -0.01364   0.00021  -0.00000   0.00000
           Y5           0.01152  -0.00665   0.00028   0.00000  -0.00000
           Z5          -0.00017   0.00012   0.01784   0.00009  -0.00004
           X6           0.00178  -0.00103   0.00013  -0.00000   0.00000
           Y6          -0.02596   0.01499   0.00031   0.00000  -0.00000
           Z6           0.00018  -0.00009   0.01701  -0.00008   0.00004
                          Z2        X3        Y3        Z3        X4
           Z2           0.02825
           X3          -0.00009   0.35488
           Y3           0.00053  -0.00022   0.07622
           Z3           0.01058   0.00281   0.00041   0.02926
           X4           0.00016  -0.00002  -0.02676  -0.00015   0.70871
           Y4          -0.00008   0.00001   0.01545   0.00010   0.12426
           Z4           0.01558  -0.00014  -0.00031   0.01630  -0.00185
           X5          -0.00008  -0.00000   0.00000   0.00008  -0.14472
           Y5           0.00006   0.00000  -0.00000  -0.00006   0.09163
           Z5           0.00931   0.00008  -0.00006  -0.00950  -0.00102
           X6          -0.00009  -0.00000   0.00000   0.00009  -0.31890
           Y6           0.00004   0.00000  -0.00000  -0.00004  -0.02358
           Z6          -0.00921  -0.00008   0.00006   0.00940   0.00300
                          Y4        Z4        X5        Y5        Z5
           Y4           0.86309
           Z4          -0.00349   0.17755
           X5           0.08308  -0.00067   0.12333
           Y5          -0.29196   0.00248  -0.10207   0.28269
           Z5           0.00307  -0.05776   0.00090  -0.00266   0.02987
           X6          -0.01480   0.00233  -0.00224  -0.00109   0.00012
           Y6          -0.10410   0.00065   0.03263   0.01592  -0.00043
           Z6           0.00064  -0.05667  -0.00044  -0.00011   0.01023
                          X6        Y6        Z6
           X6           0.31936
           Y6           0.01691   0.07320
           Z6          -0.00258  -0.00053   0.02923
 ITU=  0
     Eigenvalues ---    0.03744   0.04379   0.09488   0.09833   0.13521
     Eigenvalues ---    0.17436   0.26580   0.28991   0.52790   0.69887
     Eigenvalues ---    0.97566   1.56652
 Angle between quadratic step and forces=  32.08 degrees.
 Linear search not attempted -- first point.
 B after Tr=     0.008067    0.008683   -0.003289
         Rot=    1.000000   -0.000015    0.000008   -0.000106 Ang=  -0.01 deg.
 Variable       Old X    -DE/DX   Delta X   Delta X   Delta X     New X
                                 (Linear)    (Quad)   (Total)
    X1       -0.63665   0.01513   0.00000   0.02315   0.03144  -0.60520
    Y1       -1.10045   0.00876   0.00000   0.02495   0.03350  -1.06695
    Z1        0.00597  -0.00128   0.00000  -0.00700  -0.01033  -0.00436
    X2        0.42624  -0.01082   0.00000  -0.04369  -0.03502   0.39123
    Y2       -2.88309   0.00586   0.00000   0.02131   0.03008  -2.85302
    Z2       -0.01152   0.00065   0.00000   0.00859   0.00522  -0.00630
    X3       -2.68543   0.00163   0.00000   0.02760   0.03590  -2.64953
    Y3       -1.09885  -0.00568   0.00000  -0.02217  -0.01404  -1.11290
    Z3       -0.01169   0.00058   0.00000   0.00838   0.00502  -0.00668
    X4        0.62686   0.01216   0.00000   0.01022   0.01806   0.64492
    Y4        1.08810   0.01147   0.00000   0.01101   0.01983   1.10793
    Z4        0.00400  -0.00143   0.00000  -0.00661  -0.00985  -0.00585
    X5       -0.28791   0.00051   0.00000  -0.02010  -0.01265  -0.30055
    Y5        2.96284  -0.01356   0.00000  -0.04517  -0.03655   2.92629
    Z5       -0.01518   0.00072   0.00000   0.00828   0.00508  -0.01010
    X6        2.72932  -0.01861   0.00000  -0.04555  -0.03774   2.69159
    Y6        1.23189  -0.00685   0.00000  -0.04207  -0.03282   1.19907
    Z6       -0.01488   0.00076   0.00000   0.00808   0.00488  -0.01001
         Item               Value     Threshold  Converged?
 Maximum Force            0.018609     0.000450     NO 
 RMS     Force            0.008673     0.000300     NO 
 Maximum Displacement     0.037738     0.001800     NO 
 RMS     Displacement     0.024438     0.001200     NO 
 Predicted change in Energy=-1.683276D-03
 GradGradGradGradGradGradGradGradGradGradGradGradGradGradGradGradGradGrad

 Unable to Open any file for archive entry.
 1\1\GINC-BHD0003\Force\RwB97XD\6-311G\C2H4\BWEIGHT\11-Jan-2023\0\\# WB
 97XD/6-311G SCF=XQC FORCE nosym pop=full guess=read\\MD Step 999\\0,1\
 C,-0.33689949,-0.58233163,0.00316164\H,0.2255585,-1.52566769,-0.006093
 56\H,-1.42107046,-0.58148802,-0.00618851\C,0.33172068,0.57579556,0.002
 11685\H,-0.1523535,1.56786823,-0.0080319\H,1.44429605,0.65188714,-0.00
 787625\\Version=ES64L-G16RevC.01\HF=-78.555534\RMSD=5.475e-09\RMSF=8.6
 73e-03\Dipole=0.0013355,0.010607,-0.0126319\Quadrupole=0.8622695,0.854
 4684,-1.7167379,0.0108764,-0.000852,-0.0015892\PG=C01 [X(C2H4)]\\@
 The archive entry for this job was punched.


 Children are likely to live up to what you believe of them.
 -- Lady Bird Johnson
 Job cpu time:       0 days  0 hours  0 minutes 51.2 seconds.
 Elapsed time:       0 days  0 hours  0 minutes 18.0 seconds.
 File lengths (MBytes):  RWF=    272 Int=      0 D2E=      0 Chk=     32 Scr=     32
 Normal termination of Gaussian 16 at Wed Jan 11 16:53:12 2023.
