 Entering Gaussian System, Link 0=g16
 Initial command:
 /software/gaussian/g16-c01/avx2/g16/l1.exe "/gpfs/fs2/scratch/bweight/software/many_molecule_many_mode_NAMD/src/NAMD/TEST_NVT/TRAJ/traj-82/G16/GS_NEW/Gau-18279.inp" -scrdir="/gpfs/fs2/scratch/bweight/software/many_molecule_many_mode_NAMD/src/NAMD/TEST_NVT/TRAJ/traj-82/G16/GS_NEW/"
 Entering Link 1 = /software/gaussian/g16-c01/avx2/g16/l1.exe PID=     18280.
  
 Copyright (c) 1988-2019, Gaussian, Inc.  All Rights Reserved.
  
 This is part of the Gaussian(R) 16 program.  It is based on
 the Gaussian(R) 09 system (copyright 2009, Gaussian, Inc.),
 the Gaussian(R) 03 system (copyright 2003, Gaussian, Inc.),
 the Gaussian(R) 98 system (copyright 1998, Gaussian, Inc.),
 the Gaussian(R) 94 system (copyright 1995, Gaussian, Inc.),
 the Gaussian 92(TM) system (copyright 1992, Gaussian, Inc.),
 the Gaussian 90(TM) system (copyright 1990, Gaussian, Inc.),
 the Gaussian 88(TM) system (copyright 1988, Gaussian, Inc.),
 the Gaussian 86(TM) system (copyright 1986, Carnegie Mellon
 University), and the Gaussian 82(TM) system (copyright 1983,
 Carnegie Mellon University). Gaussian is a federally registered
 trademark of Gaussian, Inc.
  
 This software contains proprietary and confidential information,
 including trade secrets, belonging to Gaussian, Inc.
  
 This software is provided under written license and may be
 used, copied, transmitted, or stored only in accord with that
 written license.
  
 The following legend is applicable only to US Government
 contracts under FAR:
  
                    RESTRICTED RIGHTS LEGEND
  
 Use, reproduction and disclosure by the US Government is
 subject to restrictions as set forth in subparagraphs (a)
 and (c) of the Commercial Computer Software - Restricted
 Rights clause in FAR 52.227-19.
  
 Gaussian, Inc.
 340 Quinnipiac St., Bldg. 40, Wallingford CT 06492
  
  
 ---------------------------------------------------------------
 Warning -- This program may not be used in any manner that
 competes with the business of Gaussian, Inc. or will provide
 assistance to any competitor of Gaussian, Inc.  The licensee
 of this program is prohibited from giving any competitor of
 Gaussian, Inc. access to this program.  By using this program,
 the user acknowledges that Gaussian, Inc. is engaged in the
 business of creating and licensing software in the field of
 computational chemistry and represents and warrants to the
 licensee that it is not a competitor of Gaussian, Inc. and that
 it will not use this program in any manner prohibited above.
 ---------------------------------------------------------------
  

 Cite this work as:
 Gaussian 16, Revision C.01,
 M. J. Frisch, G. W. Trucks, H. B. Schlegel, G. E. Scuseria, 
 M. A. Robb, J. R. Cheeseman, G. Scalmani, V. Barone, 
 G. A. Petersson, H. Nakatsuji, X. Li, M. Caricato, A. V. Marenich, 
 J. Bloino, B. G. Janesko, R. Gomperts, B. Mennucci, H. P. Hratchian, 
 J. V. Ortiz, A. F. Izmaylov, J. L. Sonnenberg, D. Williams-Young, 
 F. Ding, F. Lipparini, F. Egidi, J. Goings, B. Peng, A. Petrone, 
 T. Henderson, D. Ranasinghe, V. G. Zakrzewski, J. Gao, N. Rega, 
 G. Zheng, W. Liang, M. Hada, M. Ehara, K. Toyota, R. Fukuda, 
 J. Hasegawa, M. Ishida, T. Nakajima, Y. Honda, O. Kitao, H. Nakai, 
 T. Vreven, K. Throssell, J. A. Montgomery, Jr., J. E. Peralta, 
 F. Ogliaro, M. J. Bearpark, J. J. Heyd, E. N. Brothers, K. N. Kudin, 
 V. N. Staroverov, T. A. Keith, R. Kobayashi, J. Normand, 
 K. Raghavachari, A. P. Rendell, J. C. Burant, S. S. Iyengar, 
 J. Tomasi, M. Cossi, J. M. Millam, M. Klene, C. Adamo, R. Cammi, 
 J. W. Ochterski, R. L. Martin, K. Morokuma, O. Farkas, 
 J. B. Foresman, and D. J. Fox, Gaussian, Inc., Wallingford CT, 2019.
 
 ******************************************
 Gaussian 16:  ES64L-G16RevC.01  3-Jul-2019
                11-Jan-2023 
 ******************************************
 %oldchk=../GS_OLD/geometry.chk
 %chk=geometry.chk
 %nprocshared=4
 Will use up to    4 processors via shared memory.
 %mem=5GB
 Copying data from "../GS_OLD/geometry.chk" to current chk file "geometry.chk"
 IOpt=  2 FromEx=T IUOpen= 4 IOptOp= 5 NList=   0 IFRang= 0 IUIn= 4 IUOut= 2.
 -------------------------------------------------------
 # WB97XD/6-311G SCF=XQC FORCE nosym pop=full guess=read
 -------------------------------------------------------
 1/10=7,30=1,38=1/1,3;
 2/12=2,15=1,17=6,18=5,40=1/2;
 3/5=4,6=6,11=2,25=1,30=1,71=1,74=-58,116=-2/1,2,3;
 4/5=1/1;
 5/5=2,8=3,13=1,38=6/2,8;
 6/7=3,28=1/1;
 7/29=1,30=1/1,2,3,16;
 1/10=7,30=1/3;
 99//99;
 ------------
 MD Step 1000
 ------------
 Symbolic Z-matrix:
 Charge =  0 Multiplicity = 1
 C                    -0.33687  -0.58226   0.00425 
 H                     0.22399  -1.52985  -0.01182 
 H                    -1.42438  -0.58429  -0.01254 
 C                     0.33274   0.57723   0.00298 
 H                    -0.1534    1.56037  -0.01381 
 H                     1.43785   0.64861  -0.01312 
 

 GradGradGradGradGradGradGradGradGradGradGradGradGradGradGradGradGradGrad
 Berny optimization.
 Initialization pass.
 Trust Radius=3.00D-01 FncErr=1.00D-07 GrdErr=1.00D-07 EigMax=2.50D+02 EigMin=1.00D-04
 Number of steps in this run=      2 maximum allowed number of steps=      2.
 GradGradGradGradGradGradGradGradGradGradGradGradGradGradGradGradGradGrad

                          Input orientation:                          
 ---------------------------------------------------------------------
 Center     Atomic      Atomic             Coordinates (Angstroms)
 Number     Number       Type             X           Y           Z
 ---------------------------------------------------------------------
      1          6           0       -0.336866   -0.582262    0.004247
      2          1           0        0.223987   -1.529847   -0.011815
      3          1           0       -1.424378   -0.584288   -0.012543
      4          6           0        0.332737    0.577229    0.002984
      5          1           0       -0.153395    1.560367   -0.013807
      6          1           0        1.437854    0.648610   -0.013119
 ---------------------------------------------------------------------
                    Distance matrix (angstroms):
                    1          2          3          4          5
     1  C    0.000000
     2  H    1.101242   0.000000
     3  H    1.087643   1.900313   0.000000
     4  C    1.338951   2.109933   2.106375   0.000000
     5  H    2.150545   3.113173   2.492979   1.096890   0.000000
     6  H    2.159856   2.493822   3.116474   1.107537   1.833951
                    6
     6  H    0.000000
 Symmetry turned off by external request.
 Stoichiometry    C2H4
 Framework group  C1[X(C2H4)]
 Deg. of freedom    12
 Full point group                 C1      NOp   1
 Rotational constants (GHZ):         143.7509787          29.6822368          24.6044971
 Standard basis: 6-311G (5D, 7F)
    38 basis functions,    72 primitive gaussians,    38 cartesian basis functions
     8 alpha electrons        8 beta electrons
       nuclear repulsion energy        33.0814722877 Hartrees.
 NAtoms=    6 NActive=    6 NUniq=    6 SFac= 1.00D+00 NAtFMM=   60 NAOKFM=F Big=F
 Integral buffers will be    131072 words long.
 Raffenetti 2 integral format.
 Two-electron integral symmetry is turned off.
 Nuclear repulsion after empirical dispersion term =       33.0806311644 Hartrees.
 One-electron integrals computed using PRISM.
 NBasis=    38 RedAO= T EigKep=  6.45D-03  NBF=    38
 NBsUse=    38 1.00D-06 EigRej= -1.00D+00 NBFU=    38
 Initial guess from the checkpoint file:  "geometry.chk"
 B after Tr=    -0.000333   -0.000492   -0.000555
         Rot=    1.000000    0.000005   -0.000001    0.000005 Ang=   0.00 deg.
 Keep R1 ints in memory in canonical form, NReq=4036876.
 Requested convergence on RMS density matrix=1.00D-08 within  32 cycles.
 Requested convergence on MAX density matrix=1.00D-06.
 Requested convergence on             energy=1.00D-06.
 No special actions if energy rises.
 SCF Done:  E(RwB97XD) =  -78.5559280744     A.U. after    8 cycles
            NFock=  8  Conv=0.63D-08     -V/T= 2.0051
 QCSCF skips out because SCF is already converged.

 **********************************************************************

            Population analysis using the SCF Density.

 **********************************************************************

 Alpha  occ. eigenvalues --  -10.28930 -10.28842  -0.86369  -0.67286  -0.55964
 Alpha  occ. eigenvalues --   -0.50919  -0.43703  -0.35666
 Alpha virt. eigenvalues --    0.07983   0.14112   0.16514   0.17038   0.24090
 Alpha virt. eigenvalues --    0.37232   0.39401   0.39998   0.46494   0.48860
 Alpha virt. eigenvalues --    0.49394   0.59105   0.66613   0.69196   0.77399
 Alpha virt. eigenvalues --    0.77489   0.84503   0.95142   2.23131   2.29084
 Alpha virt. eigenvalues --    2.33267   2.40826   2.67109   2.81844   2.87785
 Alpha virt. eigenvalues --    2.95211   3.14099   3.32168  23.35330  23.70558
     Molecular Orbital Coefficients:
                           1         2         3         4         5
                           O         O         O         O         O
     Eigenvalues --   -10.28930 -10.28842  -0.86369  -0.67286  -0.55964
   1 1   C  1S          0.35977   0.43358  -0.08804   0.06720  -0.00038
   2        2S          0.29625   0.35671  -0.13916   0.10761  -0.00062
   3        2PX         0.00013  -0.00009   0.02598   0.03547   0.13774
   4        2PY         0.00024  -0.00015   0.04655   0.05777  -0.07268
   5        2PZ        -0.00000  -0.00000  -0.00069   0.00099   0.00014
   6        3S          0.00864   0.01178   0.37335  -0.29368   0.00171
   7        3PX        -0.00032   0.00067   0.03447   0.05705   0.21588
   8        3PY        -0.00052   0.00118   0.06135   0.09412  -0.11496
   9        3PZ        -0.00001  -0.00001  -0.00116   0.00178   0.00021
  10        4S         -0.00433  -0.01436   0.19165  -0.22659   0.00098
  11        4PX         0.00053  -0.00209   0.00494   0.02289   0.11194
  12        4PY         0.00091  -0.00358   0.00882   0.03919  -0.06055
  13        4PZ         0.00002   0.00004  -0.00040   0.00089   0.00010
  14 2   H  1S         -0.00006  -0.00003   0.05198  -0.08633   0.10158
  15        2S         -0.00021   0.00024   0.05344  -0.10452   0.12882
  16        3S          0.00153   0.00106  -0.00179  -0.01482   0.04153
  17 3   H  1S         -0.00008  -0.00003   0.05352  -0.09028  -0.10544
  18        2S         -0.00022   0.00022   0.05443  -0.10830  -0.13259
  19        3S          0.00157   0.00107  -0.00181  -0.01582  -0.04265
  20 4   C  1S          0.43346  -0.35992  -0.08716  -0.06800  -0.00024
  21        2S          0.35688  -0.29607  -0.13763  -0.10904  -0.00038
  22        2PX        -0.00009  -0.00014  -0.02729   0.03849   0.11803
  23        2PY        -0.00016  -0.00024  -0.04591   0.06907  -0.07494
  24        2PZ        -0.00000   0.00000  -0.00053  -0.00107   0.00014
  25        3S          0.01058  -0.00993   0.36866   0.29799   0.00104
  26        3PX         0.00018   0.00073  -0.03416   0.06219   0.18462
  27        3PY         0.00034   0.00125  -0.05744   0.11083  -0.11605
  28        3PZ        -0.00002   0.00001  -0.00091  -0.00192   0.00021
  29        4S         -0.00661   0.01333   0.18904   0.23565  -0.00019
  30        4PX        -0.00018  -0.00208  -0.00530   0.02715   0.10125
  31        4PY        -0.00036  -0.00362  -0.00884   0.04696  -0.06281
  32        4PZ         0.00003  -0.00002  -0.00038  -0.00098   0.00011
  33 5   H  1S         -0.00008  -0.00000   0.05082   0.09502  -0.09076
  34        2S         -0.00017  -0.00026   0.05165   0.11250  -0.11382
  35        3S          0.00167  -0.00076  -0.00101   0.01695  -0.03647
  36 6   H  1S         -0.00007  -0.00001   0.04948   0.09257   0.08584
  37        2S         -0.00018  -0.00027   0.05088   0.11031   0.10831
  38        3S          0.00162  -0.00075  -0.00105   0.01627   0.03506
                           6         7         8         9        10
                           O         O         O         V         V
     Eigenvalues --    -0.50919  -0.43703  -0.35666   0.07983   0.14112
   1 1   C  1S         -0.00294   0.00026  -0.00054   0.00143  -0.03448
   2        2S         -0.00431   0.00044  -0.00088   0.00238  -0.05534
   3        2PX         0.09418  -0.11091  -0.00175   0.00079  -0.03111
   4        2PY         0.16917   0.06600  -0.00292   0.00129  -0.06577
   5        2PZ         0.00259  -0.00003   0.17946  -0.18924  -0.00150
   6        3S          0.01759  -0.00106   0.00257  -0.00716   0.12093
   7        3PX         0.13656  -0.17720  -0.00248   0.00120  -0.03613
   8        3PY         0.24722   0.10597  -0.00411   0.00192  -0.08098
   9        3PZ         0.00412  -0.00002   0.28841  -0.27811  -0.00235
  10        4S         -0.05720  -0.00382   0.00363  -0.00869   1.24912
  11        4PX         0.06853  -0.11022  -0.00205   0.00663  -0.19013
  12        4PY         0.12556   0.06669  -0.00343   0.01096  -0.38793
  13        4PZ         0.00236   0.00001   0.26715  -0.69548  -0.00860
  14 2   H  1S         -0.08169  -0.11522   0.00006   0.00223  -0.01854
  15        2S         -0.11359  -0.17817   0.00102   0.00358  -0.04980
  16        3S         -0.04248  -0.08239   0.00060   0.00948  -0.85593
  17 3   H  1S         -0.07939   0.11256   0.00004   0.00225  -0.01417
  18        2S         -0.10969   0.17312   0.00100   0.00364  -0.03923
  19        3S         -0.04065   0.07982   0.00059   0.00933  -0.78209
  20 4   C  1S         -0.00916  -0.00053  -0.00039  -0.00131  -0.03517
  21        2S         -0.01440  -0.00088  -0.00064  -0.00217  -0.05647
  22        2PX        -0.09858   0.12515   0.00171   0.00082   0.04076
  23        2PY        -0.16120  -0.07390   0.00315   0.00154   0.05968
  24        2PZ         0.00278   0.00011   0.17910   0.18944  -0.00131
  25        3S          0.04585   0.00252   0.00189   0.00655   0.12422
  26        3PX        -0.14614   0.19973   0.00240   0.00127   0.05038
  27        3PY        -0.23709  -0.11712   0.00444   0.00238   0.07084
  28        3PZ         0.00439   0.00017   0.28692   0.27814  -0.00202
  29        4S         -0.02362   0.00354   0.00330   0.00669   1.22215
  30        4PX        -0.07659   0.12748   0.00181   0.00650   0.26652
  31        4PY        -0.12285  -0.07383   0.00345   0.01176   0.40925
  32        4PZ         0.00253   0.00009   0.26770   0.69638  -0.00800
  33 5   H  1S         -0.07332  -0.12488   0.00013  -0.00200  -0.01031
  34        2S         -0.09944  -0.19370   0.00110  -0.00327  -0.03519
  35        3S         -0.03707  -0.09083   0.00062  -0.00842  -0.80296
  36 6   H  1S         -0.07965   0.12468   0.00010  -0.00200  -0.01448
  37        2S         -0.10863   0.19448   0.00106  -0.00329  -0.04561
  38        3S         -0.04075   0.09124   0.00060  -0.00858  -0.87627
                          11        12        13        14        15
                           V         V         V         V         V
     Eigenvalues --     0.16514   0.17038   0.24090   0.37232   0.39401
   1 1   C  1S          0.00140  -0.04490   0.00005   0.00899   0.00132
   2        2S          0.00227  -0.07320   0.00008   0.01212   0.00214
   3        2PX         0.09845  -0.01900   0.09921  -0.03559  -0.02472
   4        2PY        -0.05384  -0.03637  -0.05685  -0.06511   0.00907
   5        2PZ         0.00010  -0.00340   0.00002  -0.00244  -0.00011
   6        3S         -0.00484   0.16586   0.00023   0.03364  -0.00220
   7        3PX         0.14047  -0.01035   0.10472  -0.04354  -0.10846
   8        3PY        -0.07812  -0.02363  -0.06108  -0.08409   0.04656
   9        3PZ         0.00014  -0.00473  -0.00000  -0.00508  -0.00014
  10        4S         -0.06415   1.40645  -0.01936  -2.49981  -0.22415
  11        4PX         0.59192  -0.11154   1.16695  -1.53613  -0.53758
  12        4PY        -0.31458  -0.19898  -0.66562  -2.67367   0.12696
  13        4PZ         0.00070  -0.02221   0.00058  -0.02126  -0.00133
  14 2   H  1S         -0.02895  -0.02587   0.01325  -0.06053   0.07597
  15        2S         -0.07966  -0.01825  -0.02671  -0.68369   0.77623
  16        3S         -1.02935  -0.98770  -1.52850  -0.27698  -0.33766
  17 3   H  1S          0.02840  -0.02538  -0.01563  -0.05347  -0.07596
  18        2S          0.07873  -0.02155   0.02025  -0.62934  -0.75674
  19        3S          1.11209  -0.99104   1.55897  -0.35734   0.25095
  20 4   C  1S          0.00138   0.04298  -0.00010  -0.01984  -0.00009
  21        2S          0.00220   0.06995  -0.00017  -0.03265   0.00006
  22        2PX         0.09953  -0.02395  -0.10073  -0.04018  -0.03106
  23        2PY        -0.06077  -0.03838   0.05772  -0.07132   0.01273
  24        2PZ         0.00010   0.00330  -0.00002   0.00166   0.00020
  25        3S         -0.00434  -0.15483   0.00033   0.04387  -0.00494
  26        3PX         0.14295  -0.01909  -0.11430  -0.09257  -0.10873
  27        3PY        -0.08605  -0.02789   0.06413  -0.16663   0.05818
  28        3PZ         0.00015   0.00453   0.00000   0.00187   0.00040
  29        4S         -0.06627  -1.37325   0.01346   3.23595   0.18004
  30        4PX         0.52991  -0.12389  -1.13023  -1.12288  -0.59646
  31        4PY        -0.33136  -0.20916   0.65698  -1.97234   0.07767
  32        4PZ         0.00066   0.02162  -0.00057   0.01825   0.00158
  33 5   H  1S          0.03072   0.02404   0.00674   0.00714  -0.08004
  34        2S          0.06702   0.02098  -0.03328   0.02697  -0.78323
  35        3S          1.08354   0.96402  -1.54956   0.45030   0.46217
  36 6   H  1S         -0.03111   0.02482  -0.00510   0.00267   0.08833
  37        2S         -0.06787   0.01886   0.03498  -0.01325   0.90539
  38        3S         -0.99487   0.96844   1.52948   0.45820  -0.43523
                          16        17        18        19        20
                           V         V         V         V         V
     Eigenvalues --     0.39998   0.46494   0.48860   0.49394   0.59105
   1 1   C  1S         -0.01927  -0.01032   0.04713  -0.00047  -0.00029
   2        2S         -0.03370  -0.02540   0.07919  -0.00065  -0.00051
   3        2PX         0.02843   0.06031  -0.01493   0.00079   0.00108
   4        2PY         0.05325   0.10516  -0.01991   0.00108   0.00156
   5        2PZ         0.00023   0.00025  -0.00352  -0.15218  -0.19234
   6        3S          0.07607   0.33325  -0.10982  -0.00391  -0.00024
   7        3PX         0.10393   0.24116   0.02329   0.00037   0.00361
   8        3PY         0.20095   0.41774   0.05203  -0.00025   0.00525
   9        3PZ        -0.00173   0.00215  -0.01571  -0.62930  -0.68402
  10        4S          2.80986  -0.29454  -3.05994   0.06482   0.03507
  11        4PX         0.30551  -0.28281  -0.81048   0.02001   0.01093
  12        4PY         0.58556  -0.52348  -1.40444   0.03581   0.01962
  13        4PZ        -0.00097   0.00081   0.04977   0.68797   1.23968
  14 2   H  1S         -0.02334   0.03671   0.07448  -0.00177  -0.00087
  15        2S         -0.50227   0.35843   0.88368  -0.01781  -0.00630
  16        3S          0.33017  -0.10602  -0.64635   0.01976   0.01209
  17 3   H  1S         -0.03357   0.03897   0.07217  -0.00172  -0.00083
  18        2S         -0.59704   0.38407   0.85401  -0.01735  -0.00559
  19        3S          0.35483  -0.10504  -0.61095   0.01905   0.01173
  20 4   C  1S          0.00064   0.00043  -0.05077   0.00186   0.00036
  21        2S         -0.00257  -0.00699  -0.08802   0.00334   0.00067
  22        2PX         0.00943  -0.05613  -0.02522   0.00018   0.00104
  23        2PY         0.01945  -0.09650  -0.04665   0.00025   0.00206
  24        2PZ        -0.00188   0.00088  -0.00358  -0.15250   0.19233
  25        3S          0.07712   0.29587   0.21615  -0.01190  -0.00122
  26        3PX        -0.04292  -0.23784  -0.04680   0.00025   0.00366
  27        3PY        -0.05899  -0.41351  -0.08418  -0.00000   0.00713
  28        3PZ        -0.00526   0.00372  -0.01369  -0.63102   0.68311
  29        4S         -1.00963  -0.62436   3.16284  -0.07813  -0.03161
  30        4PX         1.30184   0.29445  -0.61165   0.01189   0.01093
  31        4PY         2.37035   0.48244  -1.03852   0.02014   0.01820
  32        4PZ        -0.01777   0.00749  -0.01446   0.69149  -1.23810
  33 5   H  1S         -0.04715   0.06151  -0.06664   0.00165   0.00080
  34        2S         -0.85114   0.63481  -0.84884   0.02387   0.00335
  35        3S         -0.23658  -0.22861   0.54131  -0.00846  -0.01155
  36 6   H  1S         -0.03675   0.06022  -0.06683   0.00167   0.00082
  37        2S         -0.73268   0.61714  -0.84647   0.02371   0.00363
  38        3S         -0.26464  -0.24637   0.56539  -0.00928  -0.01168
                          21        22        23        24        25
                           V         V         V         V         V
     Eigenvalues --     0.66613   0.69196   0.77399   0.77489   0.84503
   1 1   C  1S          0.00098   0.00048   0.05475   0.06997   0.00082
   2        2S          0.00203   0.00108   0.11571   0.14921   0.00194
   3        2PX        -0.14283  -0.19040  -0.02005   0.11585  -0.00722
   4        2PY         0.08355   0.11509  -0.03431   0.18728   0.01392
   5        2PZ        -0.00006  -0.00011   0.00046   0.00244   0.00008
   6        3S         -0.01661  -0.01549  -0.79753  -1.30199  -0.02264
   7        3PX        -0.64985  -0.65934  -0.15334   0.45577  -0.22335
   8        3PY         0.37583   0.39938  -0.26311   0.72631   0.16818
   9        3PZ        -0.00033  -0.00043   0.00175   0.00850   0.00027
  10        4S          0.02959   0.07104   0.87230   2.40601  -0.01611
  11        4PX         1.10070   0.75065   0.14795  -0.77733   4.53242
  12        4PY        -0.63807  -0.46420   0.15607  -1.00271  -2.58873
  13        4PZ         0.00032  -0.00056   0.00300  -0.02840   0.00262
  14 2   H  1S          0.02690   0.05734   0.01185   0.03220  -0.02718
  15        2S          0.17460   0.60832   0.06973   0.08746  -1.57931
  16        3S         -1.08784  -1.05550  -0.15597  -1.07842  -1.22570
  17 3   H  1S         -0.02605  -0.05680   0.01184   0.03303   0.03092
  18        2S         -0.19168  -0.64250   0.10283   0.04934   1.62270
  19        3S          1.07580   1.01494  -0.13819  -1.24150   1.22711
  20 4   C  1S          0.00121   0.00026   0.08602   0.02691   0.00062
  21        2S          0.00247   0.00046   0.18308   0.05644   0.00120
  22        2PX        -0.14156   0.19344  -0.09314   0.05737   0.00905
  23        2PY         0.08121  -0.10680  -0.16952   0.10593   0.00364
  24        2PZ        -0.00004   0.00012   0.00258  -0.00069  -0.00010
  25        3S         -0.01774   0.00357  -1.51639  -0.29820  -0.00354
  26        3PX        -0.65192   0.66767  -0.33367   0.29582   0.22728
  27        3PY         0.37717  -0.36605  -0.61458   0.54394  -0.08838
  28        3PZ        -0.00025   0.00041   0.00914  -0.00265  -0.00027
  29        4S          0.01266  -0.05088   2.67019  -0.02531  -0.00336
  30        4PX         1.26740  -0.84118   0.49186  -0.26037  -4.17209
  31        4PY        -0.72798   0.45450   1.00167  -0.73809   2.38244
  32        4PZ         0.00052   0.00043  -0.02558   0.01454  -0.00215
  33 5   H  1S         -0.02219   0.05618   0.03435   0.00120  -0.02441
  34        2S         -0.11146   0.57038   0.08981   0.07653  -1.42630
  35        3S          1.07877  -1.04783  -1.16813   0.36747  -1.10461
  36 6   H  1S          0.02301  -0.05621   0.03384   0.00188   0.02380
  37        2S          0.10582  -0.53615   0.09341   0.01347   1.40562
  38        3S         -1.08220   1.07457  -1.08032   0.27731   1.11631
                          26        27        28        29        30
                           V         V         V         V         V
     Eigenvalues --     0.95142   2.23131   2.29084   2.33267   2.40826
   1 1   C  1S          0.09589  -0.00971  -0.01436   0.00042  -0.00050
   2        2S          0.19926   0.00214  -0.01391   0.00090  -0.00059
   3        2PX        -0.09110  -0.07587  -0.13242   0.35212  -0.40571
   4        2PY        -0.15790  -0.14322  -0.23135  -0.20032   0.22908
   5        2PZ         0.00015  -0.00685  -0.00957   0.00006  -0.00044
   6        3S         -1.54489  -0.18664  -0.04083  -0.00125  -0.00485
   7        3PX        -0.23285   0.07174   0.20792  -0.42549   0.56645
   8        3PY        -0.39473   0.15018   0.37862   0.24475  -0.32161
   9        3PZ        -0.00115   0.00692   0.01189  -0.00002   0.00052
  10        4S          5.71003  -0.09298  -0.87835   0.00067  -0.01847
  11        4PX         1.21164   0.05353  -0.18702  -0.06604   0.99048
  12        4PY         1.98182   0.06744  -0.36015   0.02720  -0.54535
  13        4PZ        -0.01029   0.00140   0.00424  -0.00017   0.00098
  14 2   H  1S          0.01555  -0.69991  -0.80318  -0.71866   0.63762
  15        2S         -0.29310   0.99204   1.19986   1.11618  -1.44057
  16        3S         -0.09913  -0.30165  -0.48208  -0.47623   0.35795
  17 3   H  1S          0.01596  -0.69113  -0.80085   0.70937  -0.66050
  18        2S         -0.25593   0.98127   1.20210  -1.10670   1.48902
  19        3S         -0.07564  -0.27862  -0.46253   0.46365  -0.34867
  20 4   C  1S         -0.09388  -0.01112   0.01260   0.00052   0.00035
  21        2S         -0.19469  -0.00117   0.01313   0.00074   0.00064
  22        2PX        -0.09220   0.13745  -0.12317   0.29726   0.42001
  23        2PY        -0.15902   0.23757  -0.20379  -0.17313  -0.24243
  24        2PZ         0.00021  -0.00751   0.00883   0.00021   0.00023
  25        3S          1.50433  -0.16543   0.01509   0.00031   0.00024
  26        3PX        -0.22601  -0.17440   0.21100  -0.36634  -0.58676
  27        3PY        -0.39655  -0.29519   0.34234   0.21049   0.33888
  28        3PZ         0.00198   0.00798  -0.01127  -0.00022  -0.00031
  29        4S         -5.69177  -0.19298   0.89607   0.01720   0.00460
  30        4PX         1.09289  -0.01613  -0.19793   0.11785  -0.87043
  31        4PY         1.98687  -0.03871  -0.31025  -0.06660   0.51490
  32        4PZ         0.00574   0.00261  -0.00329  -0.00004  -0.00085
  33 5   H  1S         -0.01765  -0.79618   0.66417   0.69454   0.70066
  34        2S          0.28622   1.15981  -1.01833  -1.00257  -1.48794
  35        3S          0.06138  -0.35227   0.38946   0.50055   0.42648
  36 6   H  1S         -0.01752  -0.79132   0.68895  -0.67877  -0.69624
  37        2S          0.31598   1.15051  -1.04888   0.97611   1.47193
  38        3S          0.07587  -0.35640   0.42132  -0.49646  -0.43539
                          31        32        33        34        35
                           V         V         V         V         V
     Eigenvalues --     2.67109   2.81844   2.87785   2.95211   3.14099
   1 1   C  1S          0.00027  -0.00133  -0.01363   0.00005  -0.00974
   2        2S          0.00023  -0.00381  -0.04455  -0.00021  -0.02988
   3        2PX         0.00280  -0.03798  -0.47603  -0.72737   0.44562
   4        2PY         0.00415  -0.06680  -0.86455   0.40770   0.77565
   5        2PZ        -0.92596   0.93593  -0.07239  -0.00077   0.00308
   6        3S         -0.00102   0.03137   0.38928   0.00406   0.25133
   7        3PX        -0.00225   0.06567   0.84131   0.87519  -0.42559
   8        3PY        -0.00332   0.11453   1.49740  -0.47593  -0.73765
   9        3PZ         0.94157  -1.14458   0.09066   0.00104  -0.00403
  10        4S          0.00719  -0.07339  -0.88396  -0.01169  -0.49423
  11        4PX        -0.00083  -0.05259  -0.71589  -0.67486   0.21155
  12        4PY        -0.00104  -0.09228  -1.27735   0.35597   0.36102
  13        4PZ        -0.33903   0.62102  -0.05722  -0.00084   0.00239
  14 2   H  1S          0.00627   0.01013   0.26281  -0.37732  -0.21027
  15        2S         -0.00717  -0.00625  -0.21889   0.39460   0.15932
  16        3S         -0.00138  -0.02129  -0.29983   0.26978   0.05243
  17 3   H  1S          0.00636   0.00975   0.25106   0.37850  -0.21249
  18        2S         -0.00740  -0.00529  -0.19789  -0.39128   0.16105
  19        3S         -0.00167  -0.02156  -0.30150  -0.28871   0.06234
  20 4   C  1S          0.00025   0.00127   0.01346   0.00057  -0.00755
  21        2S          0.00023   0.00397   0.04782   0.00134  -0.02297
  22        2PX        -0.00362  -0.03348  -0.40747  -0.80959  -0.50559
  23        2PY        -0.00679  -0.05972  -0.72424   0.44610  -0.89955
  24        2PZ        -0.92362  -0.93808   0.07398   0.00020   0.00709
  25        3S         -0.00124  -0.03412  -0.43130  -0.01006   0.19497
  26        3PX         0.00362   0.06119   0.77164   0.96967   0.54531
  27        3PY         0.00666   0.10834   1.36313  -0.52692   0.98021
  28        3PZ         0.93876   1.14662  -0.09337  -0.00024  -0.00895
  29        4S          0.00748   0.07393   0.90096   0.02898  -0.36856
  30        4PX        -0.00014  -0.05244  -0.71390  -0.70073  -0.33511
  31        4PY        -0.00064  -0.09182  -1.24728   0.37568  -0.60843
  32        4PZ        -0.33754  -0.62149   0.05963   0.00014   0.00699
  33 5   H  1S          0.00581  -0.01436  -0.29416   0.41586  -0.26956
  34        2S         -0.00710   0.01161   0.26650  -0.42188   0.21121
  35        3S         -0.00085   0.02016   0.28866  -0.25245   0.13329
  36 6   H  1S          0.00588  -0.01448  -0.29107  -0.42874  -0.25570
  37        2S         -0.00741   0.01219   0.27006   0.43455   0.20008
  38        3S         -0.00062   0.01914   0.27238   0.25320   0.12284
                          36        37        38
                           V         V         V
     Eigenvalues --     3.32168  23.35330  23.70558
   1 1   C  1S         -0.00040  -1.41997  -1.44644
   2        2S         -0.00053   1.51448   1.56417
   3        2PX         0.78724  -0.00649   0.01214
   4        2PY        -0.43797  -0.01052   0.02138
   5        2PZ         0.00064  -0.00028  -0.00013
   6        3S         -0.00100  -0.29797  -0.39793
   7        3PX        -1.12472   0.02358  -0.05556
   8        3PY         0.62056   0.03887  -0.09684
   9        3PZ        -0.00097   0.00079   0.00041
  10        4S         -0.00529   0.27880   0.76566
  11        4PX         1.98489  -0.02461   0.13338
  12        4PY        -1.09467  -0.04135   0.22920
  13        4PZ         0.00164  -0.00135  -0.00165
  14 2   H  1S          0.56046   0.01262   0.00669
  15        2S         -0.87720   0.00781  -0.01452
  16        3S         -0.46018  -0.08364  -0.03930
  17 3   H  1S         -0.57330   0.01458   0.00799
  18        2S          0.89555   0.00738  -0.01447
  19        3S          0.48886  -0.08611  -0.03937
  20 4   C  1S          0.00012  -1.44166   1.42468
  21        2S         -0.00013   1.53759  -1.54062
  22        2PX        -0.70766   0.00625   0.01260
  23        2PY         0.40693   0.01135   0.02138
  24        2PZ        -0.00051  -0.00029   0.00006
  25        3S          0.00477  -0.30155   0.39141
  26        3PX         1.00911  -0.02290  -0.05625
  27        3PY        -0.59024  -0.04107  -0.09654
  28        3PZ         0.00078   0.00082  -0.00015
  29        4S         -0.01786   0.27593  -0.76066
  30        4PX        -1.78682   0.02476   0.13015
  31        4PY         1.05495   0.04554   0.22585
  32        4PZ        -0.00137  -0.00131   0.00106
  33 5   H  1S          0.48924   0.01432  -0.00549
  34        2S         -0.76420   0.00772   0.01412
  35        3S         -0.44151  -0.08393   0.03796
  36 6   H  1S         -0.48307   0.01272  -0.00426
  37        2S          0.75670   0.00888   0.01379
  38        3S          0.42707  -0.08175   0.03750
     Density Matrix:
                           1         2         3         4         5
   1 1   C  1S          0.65940
   2        2S          0.56149   0.49195
   3        2PX        -0.00050  -0.00066   0.08415
   4        2PY        -0.00130  -0.00179   0.00373   0.08754
   5        2PZ         0.00004   0.00006  -0.00006  -0.00015   0.06443
   6        3S         -0.08889  -0.15376   0.00257   0.00637  -0.00009
   7        3PX         0.00090   0.00137   0.13034   0.00124  -0.00004
   8        3PY         0.00119   0.00183   0.00127   0.13095  -0.00013
   9        3PZ         0.00009   0.00014  -0.00011  -0.00023   0.10355
  10        4S         -0.07944  -0.11444  -0.01578  -0.02836   0.00029
  11        4PX         0.00024   0.00155   0.07008  -0.00452  -0.00031
  12        4PY         0.00061   0.00302  -0.00457   0.06546  -0.00053
  13        4PZ        -0.00006  -0.00015  -0.00042  -0.00071   0.09590
  14 2   H  1S         -0.02048  -0.03263   0.03473  -0.06275  -0.00061
  15        2S         -0.02292  -0.03666   0.04897  -0.08778  -0.00046
  16        3S          0.00051  -0.00079   0.02057  -0.03317  -0.00002
  17 3   H  1S         -0.02104  -0.03348  -0.07259  -0.00212  -0.00069
  18        2S         -0.02327  -0.03717  -0.10044  -0.00243  -0.00055
  19        3S          0.00057  -0.00073  -0.03833   0.00099  -0.00004
  20 4   C  1S          0.00605   0.00976  -0.01085  -0.01879  -0.00020
  21        2S          0.00972   0.01520  -0.01736  -0.03008  -0.00033
  22        2PX         0.01034   0.01654  -0.01251  -0.03209   0.00024
  23        2PY         0.01801   0.02879  -0.03211  -0.04971   0.00048
  24        2PZ        -0.00026  -0.00042  -0.00019  -0.00028   0.06430
  25        3S         -0.02614  -0.03969   0.04866   0.08444   0.00100
  26        3PX         0.01596   0.02473  -0.01834  -0.04592   0.00032
  27        3PY         0.02776   0.04301  -0.04579  -0.07138   0.00064
  28        3PZ        -0.00044  -0.00071  -0.00034  -0.00051   0.10300
  29        4S          0.00532   0.00390   0.02124   0.03730   0.00127
  30        4PX         0.00309   0.00638  -0.01317  -0.02117   0.00034
  31        4PY         0.00520   0.01084  -0.02121  -0.03760   0.00069
  32        4PZ        -0.00037  -0.00060  -0.00054  -0.00086   0.09610
  33 5   H  1S          0.00420   0.00689  -0.00173  -0.01239  -0.00024
  34        2S          0.00624   0.01037   0.00354  -0.02487   0.00001
  35        3S          0.00319   0.00465   0.00427  -0.01737   0.00006
  36 6   H  1S          0.00414   0.00680  -0.00988  -0.00767  -0.00024
  37        2S          0.00616   0.01025  -0.02330  -0.00935  -0.00001
  38        3S          0.00314   0.00461  -0.01716  -0.00506   0.00004
                           6         7         8         9        10
   6        3S          0.45234
   7        3PX        -0.00185   0.20221
   8        3PY        -0.00140  -0.00468   0.19641
   9        3PZ        -0.00028  -0.00008  -0.00020   0.16640
  10        4S          0.27381  -0.02652  -0.04852   0.00038   0.18320
  11        4PX        -0.00678   0.10907  -0.01028  -0.00050  -0.01522
  12        4PY        -0.01245  -0.01040   0.09861  -0.00085  -0.02930
  13        4PZ         0.00064  -0.00056  -0.00094   0.15412   0.00111
  14 2   H  1S          0.08723   0.05612  -0.09804  -0.00102   0.06947
  15        2S          0.09812   0.07950  -0.13667  -0.00078   0.08246
  16        3S          0.00624   0.03371  -0.05103  -0.00003   0.01156
  17 3   H  1S          0.08960  -0.11371  -0.00158  -0.00113   0.06944
  18        2S          0.09958  -0.15717  -0.00077  -0.00090   0.08091
  19        3S          0.00625  -0.05974   0.00342  -0.00007   0.01039
  20 4   C  1S         -0.02646  -0.01694  -0.02938  -0.00035   0.00503
  21        2S         -0.04004  -0.02633  -0.04570  -0.00056   0.00372
  22        2PX        -0.04631  -0.01781  -0.04547   0.00042  -0.01733
  23        2PY        -0.08062  -0.04549  -0.07079   0.00081  -0.03001
  24        2PZ         0.00125  -0.00026  -0.00037   0.10333   0.00127
  25        3S          0.10181   0.07147   0.12425   0.00168   0.00121
  26        3PX        -0.06693  -0.02626  -0.06488   0.00055  -0.02573
  27        3PY        -0.11642  -0.06469  -0.10159   0.00109  -0.04446
  28        3PZ         0.00208  -0.00047  -0.00068   0.16553   0.00210
  29        4S          0.00212   0.03214   0.05668   0.00211  -0.03196
  30        4PX        -0.02257  -0.01966  -0.02969   0.00056  -0.00628
  31        4PY        -0.03863  -0.02978  -0.05423   0.00114  -0.01004
  32        4PZ         0.00176  -0.00076  -0.00119   0.15443   0.00196
  33 5   H  1S         -0.02049  -0.00061  -0.01773  -0.00034  -0.01442
  34        2S         -0.03099   0.00874  -0.03654   0.00005  -0.01854
  35        3S         -0.01193   0.00818  -0.02614   0.00011  -0.00319
  36 6   H  1S         -0.02020  -0.01491  -0.00920  -0.00035  -0.01465
  37        2S         -0.03067  -0.03575  -0.01040   0.00003  -0.01932
  38        3S         -0.01183  -0.02655  -0.00594   0.00008  -0.00373
                          11        12        13        14        15
  11        4PX         0.05986
  12        4PY        -0.00913   0.05103
  13        4PZ        -0.00072  -0.00119   0.14275
  14 2   H  1S          0.03350  -0.05403  -0.00053   0.08085
  15        2S          0.04828  -0.07515  -0.00020   0.10939   0.15005
  16        3S          0.02093  -0.02789   0.00010   0.03673   0.05261
  17 3   H  1S         -0.06290   0.00171  -0.00058  -0.01324  -0.02465
  18        2S         -0.08730   0.00407  -0.00024  -0.02456  -0.04248
  19        3S         -0.03346   0.00432   0.00009  -0.01788  -0.02708
  20 4   C  1S         -0.00320  -0.00584  -0.00031   0.00421   0.00675
  21        2S         -0.00660  -0.01189  -0.00050   0.00697   0.01128
  22        2PX        -0.01319  -0.01983   0.00057   0.00176  -0.00275
  23        2PY        -0.01989  -0.03667   0.00107   0.01144   0.02431
  24        2PZ        -0.00040  -0.00062   0.09570  -0.00030  -0.00010
  25        3S          0.02329   0.04166   0.00146  -0.02099  -0.03395
  26        3PX        -0.02023  -0.02816   0.00077   0.00107  -0.00705
  27        3PY        -0.02818  -0.05347   0.00147   0.01704   0.03640
  28        3PZ        -0.00066  -0.00103   0.15332  -0.00044  -0.00011
  29        4S          0.00852   0.01624   0.00192  -0.01803  -0.02499
  30        4PX        -0.01474  -0.01245   0.00068  -0.00153  -0.00818
  31        4PY        -0.01256  -0.02956   0.00134   0.01530   0.02728
  32        4PZ        -0.00080  -0.00128   0.14304  -0.00025   0.00013
  33 5   H  1S          0.00201  -0.01573  -0.00017   0.01120   0.02334
  34        2S          0.00924  -0.02730   0.00025   0.02370   0.04429
  35        3S          0.00754  -0.01569   0.00018   0.01655   0.02774
  36 6   H  1S         -0.01446  -0.00564  -0.00018  -0.00912  -0.01828
  37        2S         -0.02796  -0.00492   0.00024  -0.01882  -0.03434
  38        3S         -0.01711  -0.00105   0.00017  -0.01016  -0.01774
                          16        17        18        19        20
  16        3S          0.02109
  17 3   H  1S         -0.01808   0.08221
  18        2S         -0.02721   0.10973   0.14855
  19        3S         -0.01276   0.03608   0.05110   0.02020
  20 4   C  1S          0.00374   0.00429   0.00678   0.00374   0.65947
  21        2S          0.00553   0.00709   0.01130   0.00550   0.56160
  22        2PX        -0.00348   0.00906   0.02235   0.01681   0.00115
  23        2PY         0.01777   0.00738   0.00970   0.00568   0.00171
  24        2PZ         0.00000  -0.00030  -0.00008   0.00003   0.00005
  25        3S         -0.01436  -0.02128  -0.03388  -0.01417  -0.08931
  26        3PX        -0.00688   0.01435   0.03507   0.02618  -0.00050
  27        3PY         0.02673   0.00960   0.01199   0.00719  -0.00115
  28        3PZ         0.00002  -0.00043  -0.00007   0.00005   0.00010
  29        4S         -0.00624  -0.01773  -0.02399  -0.00563  -0.07989
  30        4PX        -0.00688   0.01404   0.02763   0.01710  -0.00021
  31        4PY         0.01602   0.00671   0.00692   0.00210  -0.00020
  32        4PZ         0.00013  -0.00025   0.00015   0.00015  -0.00002
  33 5   H  1S          0.01627  -0.00905  -0.01813  -0.00943  -0.02033
  34        2S          0.02739  -0.01860  -0.03381  -0.01688  -0.02218
  35        3S          0.01459  -0.01004  -0.01742  -0.00890   0.00066
  36 6   H  1S         -0.00957   0.01120   0.02322   0.01595  -0.01999
  37        2S         -0.01727   0.02372   0.04409   0.02697  -0.02210
  38        3S         -0.00913   0.01657   0.02759   0.01438   0.00055
                          21        22        23        24        25
  21        2S          0.49213
  22        2PX         0.00166   0.08308
  23        2PY         0.00243   0.00343   0.08790
  24        2PZ         0.00007   0.00007   0.00009   0.06417
  25        3S         -0.15436  -0.00534  -0.00798  -0.00010   0.45407
  26        3PX        -0.00076   0.12904   0.00167   0.00004  -0.00013
  27        3PY        -0.00174   0.00172   0.13175   0.00003   0.00112
  28        3PZ         0.00016   0.00011   0.00016   0.10280  -0.00033
  29        4S         -0.11536   0.01333   0.02233   0.00034   0.27728
  30        4PX        -0.00146   0.07329  -0.00508   0.00023   0.00614
  31        4PY        -0.00221  -0.00498   0.06726   0.00042   0.00978
  32        4PZ        -0.00007   0.00041   0.00074   0.09590   0.00039
  33 5   H  1S         -0.03237  -0.03368   0.06416  -0.00067   0.08655
  34        2S         -0.03543  -0.04990   0.08855  -0.00053   0.09481
  35        3S         -0.00052  -0.02267   0.03328  -0.00005   0.00548
  36 6   H  1S         -0.03185   0.07160   0.00263  -0.00061   0.08515
  37        2S         -0.03533   0.10138   0.00062  -0.00044   0.09450
  38        3S         -0.00067   0.04046  -0.00326  -0.00002   0.00577
                          26        27        28        29        30
  26        3PX         0.20075
  27        3PY        -0.00260   0.19800
  28        3PZ         0.00006   0.00006   0.16469
  29        4S          0.02468   0.04099   0.00043   0.18414
  30        4PX         0.11444  -0.01040   0.00036   0.01523   0.06628
  31        4PY        -0.01032   0.10157   0.00068   0.02403  -0.01005
  32        4PZ         0.00052   0.00096   0.15364   0.00104   0.00058
  33 5   H  1S         -0.05362   0.10031  -0.00111   0.06661  -0.03436
  34        2S         -0.07987   0.13795  -0.00088   0.07592  -0.05163
  35        3S         -0.03673   0.05119  -0.00008   0.00869  -0.02393
  36 6   H  1S          0.11291   0.00348  -0.00101   0.06695   0.06587
  37        2S          0.15968  -0.00057  -0.00075   0.07769   0.09361
  38        3S          0.06340  -0.00646  -0.00003   0.00979   0.03750
                          31        32        33        34        35
  31        4PY         0.05360
  32        4PZ         0.00111   0.14334
  33 5   H  1S          0.05588  -0.00057   0.08164
  34        2S          0.07700  -0.00024   0.11025   0.15138
  35        3S          0.02872   0.00009   0.03786   0.05457   0.02249
  36 6   H  1S         -0.00180  -0.00053  -0.01242  -0.02606  -0.01997
  37        2S         -0.00616  -0.00018  -0.02617  -0.04832  -0.03154
  38        3S         -0.00631   0.00011  -0.02019  -0.03167  -0.01555
                          36        37        38
  36 6   H  1S          0.08055
  37        2S          0.10985   0.15222
  38        3S          0.03817   0.05542   0.02297
    Full Mulliken population analysis:
                           1         2         3         4         5
   1 1   C  1S          0.65940
   2        2S          0.49323   0.49195
   3        2PX         0.00000   0.00000   0.08415
   4        2PY         0.00000   0.00000   0.00000   0.08754
   5        2PZ         0.00000   0.00000   0.00000   0.00000   0.06443
   6        3S         -0.02926  -0.06439   0.00000   0.00000   0.00000
   7        3PX         0.00000   0.00000   0.08200   0.00000   0.00000
   8        3PY         0.00000   0.00000   0.00000   0.08239   0.00000
   9        3PZ         0.00000   0.00000   0.00000   0.00000   0.06514
  10        4S         -0.01222  -0.02142   0.00000   0.00000   0.00000
  11        4PX         0.00000   0.00000   0.01543   0.00000   0.00000
  12        4PY         0.00000   0.00000   0.00000   0.01442   0.00000
  13        4PZ         0.00000   0.00000   0.00000   0.00000   0.02112
  14 2   H  1S         -0.00022  -0.00032   0.00179   0.00547   0.00000
  15        2S         -0.00166  -0.00317   0.00432   0.01309   0.00000
  16        3S          0.00004  -0.00007   0.00070   0.00191   0.00000
  17 3   H  1S         -0.00025  -0.00036   0.00781   0.00000   0.00000
  18        2S         -0.00173  -0.00332   0.01769   0.00000   0.00000
  19        3S          0.00004  -0.00007   0.00255  -0.00000   0.00000
  20 4   C  1S          0.00000   0.00000  -0.00002  -0.00006   0.00000
  21        2S          0.00000  -0.00000  -0.00002  -0.00005   0.00000
  22        2PX        -0.00002  -0.00002   0.00011   0.00085   0.00000
  23        2PY        -0.00006  -0.00005   0.00085   0.00196   0.00000
  24        2PZ        -0.00000  -0.00000  -0.00000  -0.00000   0.00041
  25        3S         -0.00058  -0.00099   0.00253   0.00761  -0.00000
  26        3PX        -0.00054  -0.00099   0.00019   0.00554   0.00000
  27        3PY        -0.00162  -0.00297   0.00553   0.01070   0.00000
  28        3PZ        -0.00000  -0.00000  -0.00000  -0.00000   0.00609
  29        4S          0.00034   0.00029   0.00096   0.00293  -0.00000
  30        4PX        -0.00018  -0.00045  -0.00071   0.00147   0.00000
  31        4PY        -0.00052  -0.00133   0.00147   0.00098   0.00000
  32        4PZ        -0.00000  -0.00000  -0.00000  -0.00000   0.00903
  33 5   H  1S          0.00000   0.00000  -0.00000  -0.00000   0.00000
  34        2S          0.00001   0.00002   0.00000  -0.00032  -0.00000
  35        3S          0.00007   0.00013   0.00001  -0.00070  -0.00000
  36 6   H  1S          0.00000   0.00000  -0.00000  -0.00000   0.00000
  37        2S          0.00001   0.00002  -0.00024  -0.00007   0.00000
  38        3S          0.00007   0.00013  -0.00056  -0.00012  -0.00000
                           6         7         8         9        10
   6        3S          0.45234
   7        3PX         0.00000   0.20221
   8        3PY         0.00000   0.00000   0.19641
   9        3PZ         0.00000   0.00000   0.00000   0.16640
  10        4S          0.21212   0.00000   0.00000   0.00000   0.18320
  11        4PX         0.00000   0.07127   0.00000   0.00000   0.00000
  12        4PY         0.00000   0.00000   0.06444   0.00000   0.00000
  13        4PZ         0.00000   0.00000   0.00000   0.10071   0.00000
  14 2   H  1S          0.01583   0.01081   0.03190   0.00001   0.01829
  15        2S          0.04103   0.01972   0.05729   0.00001   0.04737
  16        3S          0.00287   0.00400   0.01023   0.00000   0.00870
  17 3   H  1S          0.01688   0.04407   0.00000   0.00001   0.01854
  18        2S          0.04251   0.07720   0.00000   0.00001   0.04698
  19        3S          0.00290   0.01387  -0.00000   0.00000   0.00788
  20 4   C  1S         -0.00059  -0.00057  -0.00172   0.00000   0.00032
  21        2S         -0.00100  -0.00105  -0.00316   0.00000   0.00028
  22        2PX         0.00241   0.00019   0.00549   0.00000   0.00079
  23        2PY         0.00727   0.00549   0.01061   0.00000   0.00236
  24        2PZ         0.00000  -0.00000  -0.00000   0.00611   0.00000
  25        3S          0.02166   0.01338   0.04027  -0.00000   0.00046
  26        3PX         0.01253  -0.00126   0.01850   0.00000   0.00397
  27        3PY         0.03774   0.01845   0.02855   0.00000   0.01187
  28        3PZ         0.00000  -0.00000  -0.00000   0.03522   0.00000
  29        4S          0.00080   0.00495   0.01513  -0.00000  -0.02005
  30        4PX         0.00634  -0.00403   0.00588   0.00000   0.00190
  31        4PY         0.01879   0.00590   0.00129   0.00000   0.00527
  32        4PZ         0.00000  -0.00000  -0.00000   0.04930   0.00000
  33 5   H  1S         -0.00006  -0.00000  -0.00019   0.00000  -0.00078
  34        2S         -0.00121   0.00007  -0.00323  -0.00000  -0.00312
  35        3S         -0.00195   0.00011  -0.00422  -0.00000  -0.00115
  36 6   H  1S         -0.00005  -0.00013  -0.00005   0.00000  -0.00078
  37        2S         -0.00116  -0.00255  -0.00051  -0.00000  -0.00321
  38        3S         -0.00191  -0.00351  -0.00054  -0.00000  -0.00134
                          11        12        13        14        15
  11        4PX         0.05986
  12        4PY         0.00000   0.05103
  13        4PZ         0.00000   0.00000   0.14275
  14 2   H  1S          0.00639   0.01740   0.00000   0.08085
  15        2S          0.01551   0.04077   0.00000   0.07727   0.15005
  16        3S          0.00528   0.01187  -0.00000   0.01373   0.04151
  17 3   H  1S          0.02357  -0.00000   0.00000  -0.00001  -0.00063
  18        2S          0.05495  -0.00000   0.00000  -0.00062  -0.00520
  19        3S          0.01646  -0.00000  -0.00000  -0.00197  -0.00780
  20 4   C  1S         -0.00019  -0.00059   0.00000   0.00000   0.00002
  21        2S         -0.00047  -0.00146   0.00000   0.00000   0.00003
  22        2PX        -0.00071   0.00137   0.00000  -0.00000   0.00000
  23        2PY         0.00138   0.00096   0.00000  -0.00000  -0.00036
  24        2PZ        -0.00000  -0.00000   0.00899   0.00000   0.00000
  25        3S          0.00654   0.02026  -0.00000  -0.00007  -0.00149
  26        3PX        -0.00414   0.00558   0.00000  -0.00000   0.00004
  27        3PY         0.00558   0.00127   0.00000  -0.00022  -0.00357
  28        3PZ        -0.00000  -0.00000   0.04895   0.00000   0.00000
  29        4S          0.00258   0.00852  -0.00000  -0.00105  -0.00448
  30        4PX        -0.00709   0.00315   0.00000   0.00001   0.00016
  31        4PY         0.00318  -0.00558   0.00000  -0.00243  -0.01028
  32        4PZ        -0.00000  -0.00000   0.08976   0.00000  -0.00000
  33 5   H  1S          0.00003  -0.00234   0.00000   0.00000   0.00000
  34        2S          0.00028  -0.00983  -0.00000   0.00000   0.00016
  35        3S          0.00030  -0.00725  -0.00000   0.00023   0.00147
  36 6   H  1S         -0.00175  -0.00047   0.00000  -0.00000  -0.00004
  37        2S         -0.00822  -0.00100  -0.00000  -0.00004  -0.00092
  38        3S         -0.00649  -0.00028  -0.00000  -0.00046  -0.00247
                          16        17        18        19        20
  16        3S          0.02109
  17 3   H  1S         -0.00199   0.08221
  18        2S         -0.00784   0.07751   0.14855
  19        3S         -0.00658   0.01348   0.04031   0.02020
  20 4   C  1S          0.00009   0.00000   0.00002   0.00009   0.65947
  21        2S          0.00016   0.00000   0.00003   0.00016   0.49333
  22        2PX         0.00001  -0.00000  -0.00028  -0.00059   0.00000
  23        2PY        -0.00075  -0.00000  -0.00008  -0.00013   0.00000
  24        2PZ        -0.00000   0.00000   0.00000  -0.00000   0.00000
  25        3S         -0.00248  -0.00007  -0.00151  -0.00245  -0.02940
  26        3PX         0.00006  -0.00016  -0.00290  -0.00367   0.00000
  27        3PY        -0.00447  -0.00007  -0.00066  -0.00067   0.00000
  28        3PZ        -0.00000   0.00000   0.00000  -0.00000   0.00000
  29        4S         -0.00234  -0.00104  -0.00433  -0.00212  -0.01228
  30        4PX         0.00017  -0.00187  -0.00873  -0.00675   0.00000
  31        4PY        -0.00756  -0.00059  -0.00144  -0.00055   0.00000
  32        4PZ        -0.00000   0.00000  -0.00000  -0.00000   0.00000
  33 5   H  1S          0.00023  -0.00000  -0.00004  -0.00043  -0.00023
  34        2S          0.00145  -0.00004  -0.00091  -0.00235  -0.00162
  35        3S          0.00247  -0.00046  -0.00243  -0.00285   0.00005
  36 6   H  1S         -0.00044   0.00000   0.00000   0.00022  -0.00021
  37        2S         -0.00240   0.00000   0.00015   0.00142  -0.00157
  38        3S         -0.00292   0.00023   0.00145   0.00242   0.00004
                          21        22        23        24        25
  21        2S          0.49213
  22        2PX         0.00000   0.08308
  23        2PY         0.00000   0.00000   0.08790
  24        2PZ         0.00000   0.00000   0.00000   0.06417
  25        3S         -0.06465   0.00000   0.00000   0.00000   0.45407
  26        3PX         0.00000   0.08118   0.00000   0.00000   0.00000
  27        3PY         0.00000   0.00000   0.08289   0.00000   0.00000
  28        3PZ         0.00000   0.00000   0.00000   0.06467   0.00000
  29        4S         -0.02159   0.00000   0.00000   0.00000   0.21481
  30        4PX         0.00000   0.01614   0.00000   0.00000   0.00000
  31        4PY         0.00000   0.00000   0.01481   0.00000   0.00000
  32        4PZ         0.00000   0.00000   0.00000   0.02112   0.00000
  33 5   H  1S         -0.00033   0.00154   0.00594   0.00000   0.01590
  34        2S         -0.00309   0.00385   0.01383   0.00000   0.03991
  35        3S         -0.00005   0.00067   0.00199   0.00000   0.00252
  36 6   H  1S         -0.00030   0.00704   0.00002   0.00000   0.01519
  37        2S         -0.00301   0.01739   0.00001   0.00000   0.03913
  38        3S         -0.00006   0.00270  -0.00001   0.00000   0.00264
                          26        27        28        29        30
  26        3PX         0.20075
  27        3PY         0.00000   0.19800
  28        3PZ         0.00000   0.00000   0.16469
  29        4S          0.00000   0.00000   0.00000   0.18414
  30        4PX         0.07478   0.00000   0.00000   0.00000   0.06628
  31        4PY         0.00000   0.06637   0.00000   0.00000   0.00000
  32        4PZ         0.00000   0.00000   0.10040   0.00000   0.00000
  33 5   H  1S          0.00906   0.03426   0.00001   0.01762   0.00570
  34        2S          0.01729   0.06040   0.00001   0.04376   0.01442
  35        3S          0.00379   0.01068   0.00000   0.00656   0.00524
  36 6   H  1S          0.04210   0.00008   0.00001   0.01752   0.02458
  37        2S          0.07731  -0.00002   0.00001   0.04441   0.05894
  38        3S          0.01476  -0.00010   0.00000   0.00735   0.01857
                          31        32        33        34        35
  31        4PY         0.05360
  32        4PZ         0.00000   0.14334
  33 5   H  1S          0.01875   0.00000   0.08164
  34        2S          0.04349   0.00000   0.07788   0.15138
  35        3S          0.01271  -0.00000   0.01415   0.04305   0.02249
  36 6   H  1S         -0.00004   0.00000  -0.00001  -0.00083  -0.00239
  37        2S         -0.00025   0.00000  -0.00083  -0.00683  -0.00974
  38        3S         -0.00020  -0.00000  -0.00241  -0.00978  -0.00839
                          36        37        38
  36 6   H  1S          0.08055
  37        2S          0.07760   0.15222
  38        3S          0.01426   0.04372   0.02297
     Gross orbital populations:
                           1
   1 1   C  1S          1.10436
   2        2S          0.88586
   3        2PX         0.22657
   4        2PY         0.23553
   5        2PZ         0.16624
   6        3S          0.79242
   7        3PX         0.56059
   8        3PY         0.55475
   9        3PZ         0.42292
  10        4S          0.50622
  11        4PX         0.25952
  12        4PY         0.21223
  13        4PZ         0.41229
  14 2   H  1S          0.27256
  15        2S          0.46774
  16        3S          0.08672
  17 3   H  1S          0.27677
  18        2S          0.46533
  19        3S          0.08303
  20 4   C  1S          1.10439
  21        2S          0.88584
  22        2PX         0.22320
  23        2PY         0.23681
  24        2PZ         0.16549
  25        3S          0.79320
  26        3PX         0.55377
  27        3PY         0.55801
  28        3PZ         0.42005
  29        4S          0.50337
  30        4PX         0.27392
  31        4PY         0.21583
  32        4PZ         0.41295
  33 5   H  1S          0.27505
  34        2S          0.46810
  35        3S          0.08713
  36 6   H  1S          0.27169
  37        2S          0.46978
  38        3S          0.08976
          Condensed to atoms (all electrons):
               1          2          3          4          5          6
     1  C    5.031680   0.387157   0.388155   0.602526  -0.035308  -0.034710
     2  H    0.387157   0.517001  -0.032626  -0.040808   0.006002  -0.009697
     3  H    0.388155  -0.032626   0.513570  -0.040352  -0.009509   0.005900
     4  C    0.602526  -0.040808  -0.040352   5.056796   0.384645   0.384033
     5  H   -0.035308   0.006002  -0.009509   0.384645   0.525660  -0.041210
     6  H   -0.034710  -0.009697   0.005900   0.384033  -0.041210   0.526905
 Mulliken charges:
               1
     1  C   -0.339499
     2  H    0.172973
     3  H    0.174863
     4  C   -0.346838
     5  H    0.169722
     6  H    0.168779
 Sum of Mulliken charges =  -0.00000
 Mulliken charges with hydrogens summed into heavy atoms:
               1
     1  C    0.008338
     4  C   -0.008338
 Electronic spatial extent (au):  <R**2>=             83.6725
 Charge=             -0.0000 electrons
 Dipole moment (field-independent basis, Debye):
    X=              0.0059    Y=              0.0306    Z=             -0.0546  Tot=              0.0629
 Quadrupole moment (field-independent basis, Debye-Ang):
   XX=            -12.1976   YY=            -12.2125   ZZ=            -15.6684
   XY=              0.0140   XZ=              0.0004   YZ=             -0.0015
 Traceless Quadrupole moment (field-independent basis, Debye-Ang):
   XX=              1.1619   YY=              1.1470   ZZ=             -2.3089
   XY=              0.0140   XZ=              0.0004   YZ=             -0.0015
 Octapole moment (field-independent basis, Debye-Ang**2):
  XXX=             -0.3554  YYY=              0.0390  ZZZ=             -0.0536  XYY=              0.2453
  XXY=             -0.0130  XXZ=             -0.0784  XZZ=             -0.0787  YZZ=             -0.0524
  YYZ=             -0.1015  XYZ=             -0.0202
 Hexadecapole moment (field-independent basis, Debye-Ang**3):
 XXXX=            -34.2433 YYYY=            -55.1625 ZZZZ=            -17.8000 XXXY=             -7.2554
 XXXZ=              0.0126 YYYX=            -10.6994 YYYZ=              0.0160 ZZZX=              0.0130
 ZZZY=              0.0245 XXYY=            -16.1712 XXZZ=             -9.9159 YYZZ=            -13.6318
 XXYZ=              0.0063 YYXZ=              0.0002 ZZXY=             -3.2042
 N-N= 3.308063116440D+01 E-N=-2.478768624706D+02  KE= 7.815856962737D+01
 Orbital energies and kinetic energies (alpha):
                                 1                 2
   1         O               -10.289305         15.975728
   2         O               -10.288417         15.982498
   3         O                -0.863691          1.537293
   4         O                -0.672863          1.272474
   5         O                -0.559644          0.942476
   6         O                -0.509191          1.285218
   7         O                -0.437030          1.045623
   8         O                -0.356656          1.037976
   9         V                 0.079832          1.181941
  10         V                 0.141123          0.588034
  11         V                 0.165145          0.592265
  12         V                 0.170376          0.678572
  13         V                 0.240900          0.581875
  14         V                 0.372323          0.848889
  15         V                 0.394006          0.934776
  16         V                 0.399982          0.787229
  17         V                 0.464939          1.189250
  18         V                 0.488599          1.423496
  19         V                 0.493942          1.301970
  20         V                 0.591046          1.651761
  21         V                 0.666131          1.573449
  22         V                 0.691955          2.147967
  23         V                 0.773989          2.454560
  24         V                 0.774894          2.291116
  25         V                 0.845032          1.088823
  26         V                 0.951420          3.420917
  27         V                 2.231313          3.929196
  28         V                 2.290838          4.028346
  29         V                 2.332669          4.305980
  30         V                 2.408258          4.522153
  31         V                 2.671087          6.300889
  32         V                 2.818441          6.308283
  33         V                 2.877851          6.136591
  34         V                 2.952107          6.225677
  35         V                 3.140986          6.820702
  36         V                 3.321682          6.402023
  37         V                23.353299         60.074949
  38         V                23.705578         60.203350
 Total kinetic energy from orbitals= 7.815856962737D+01
 Calling FoFJK, ICntrl=      2127 FMM=F ISym2X=0 I1Cent= 0 IOpClX= 0 NMat=1 NMatS=1 NMatT=0.
 -------------------------------------------------------------------
 Center     Atomic                   Forces (Hartrees/Bohr)
 Number     Number              X              Y              Z
 -------------------------------------------------------------------
      1        6           0.014330675    0.008077194   -0.002288001
      2        1          -0.011292611    0.007609720    0.001145156
      3        1           0.003872573   -0.005220170    0.001039869
      4        6           0.008265348    0.005116065   -0.002247341
      5        1          -0.000822091   -0.009509287    0.001135450
      6        1          -0.014353894   -0.006073522    0.001214866
 -------------------------------------------------------------------
 Cartesian Forces:  Max     0.014353894 RMS     0.007235119

 GradGradGradGradGradGradGradGradGradGradGradGradGradGradGradGradGradGrad
 Berny optimization.
 Search for a local minimum.
 Step number   1 out of a maximum of    2
 All quantities printed in internal units (Hartrees-Bohrs-Radians)
 Second derivative matrix not updated -- first step.
 The second derivative matrix:
                          X1        Y1        Z1        X2        Y2
           X1           0.75635
           Y1           0.09713   0.85234
           Z1           0.00320   0.00475   0.16958
           X2          -0.16429   0.09554   0.00114   0.14172
           Y2           0.10128  -0.27882  -0.00409  -0.11464   0.26753
           Z2           0.00183  -0.00517  -0.05421  -0.00166   0.00423
           X3          -0.35076  -0.00043  -0.00456  -0.00007  -0.00004
           Y3          -0.00604  -0.11014  -0.00110   0.03218   0.01903
           Z3          -0.00584  -0.00105  -0.05565   0.00085   0.00033
           X4          -0.26667  -0.17758  -0.00035   0.02265   0.01340
           Y4          -0.17797  -0.47171  -0.00055  -0.01308  -0.00774
           Z4           0.00079   0.00144  -0.09438  -0.00033  -0.00046
           X5           0.02368  -0.01368   0.00035  -0.00000   0.00000
           Y5           0.01171  -0.00676   0.00047   0.00000  -0.00000
           Z5          -0.00030   0.00019   0.01770   0.00014  -0.00007
           X6           0.00169  -0.00098   0.00021  -0.00000   0.00000
           Y6          -0.02611   0.01508   0.00052   0.00000  -0.00000
           Z6           0.00031  -0.00016   0.01695  -0.00014   0.00007
                          Z2        X3        Y3        Z3        X4
           Z2           0.02806
           X3          -0.00016   0.35079
           Y3           0.00092   0.00050   0.07572
           Z3           0.01051   0.00497   0.00073   0.02905
           X4           0.00027   0.00005  -0.02664  -0.00026   0.71923
           Y4          -0.00014  -0.00003   0.01539   0.00017   0.11918
           Z4           0.01554  -0.00025  -0.00055   0.01618  -0.00292
           X5          -0.00014  -0.00000   0.00000   0.00014  -0.14821
           Y5           0.00009   0.00000  -0.00000  -0.00009   0.09494
           Z5           0.00926   0.00015  -0.00009  -0.00944  -0.00177
           X6          -0.00014  -0.00000   0.00000   0.00014  -0.32704
           Y6           0.00007   0.00000  -0.00000  -0.00007  -0.02330
           Z6          -0.00917  -0.00014   0.00009   0.00935   0.00503
                          Y4        Z4        X5        Y5        Z5
           Y4           0.86706
           Z4          -0.00576   0.17748
           X5           0.08629  -0.00118   0.12668
           Y5          -0.29753   0.00424  -0.10560   0.28799
           Z5           0.00522  -0.05789   0.00158  -0.00452   0.03001
           X6          -0.01440   0.00389  -0.00214  -0.00106   0.00020
           Y6          -0.10547   0.00108   0.03298   0.01630  -0.00072
           Z6           0.00107  -0.05694  -0.00075  -0.00019   0.01036
                          X6        Y6        Z6
           X6           0.32750
           Y6           0.01643   0.07409
           Z6          -0.00430  -0.00088   0.02944
 ITU=  0
     Eigenvalues ---    0.03725   0.04392   0.09422   0.09907   0.13540
     Eigenvalues ---    0.17539   0.26455   0.29095   0.53092   0.70643
     Eigenvalues ---    0.97674   1.56178
 Angle between quadratic step and forces=  31.71 degrees.
 Linear search not attempted -- first point.
 B after Tr=     0.006927    0.007063   -0.005597
         Rot=    1.000000   -0.000038    0.000021   -0.000115 Ang=  -0.01 deg.
 Variable       Old X    -DE/DX   Delta X   Delta X   Delta X     New X
                                 (Linear)    (Quad)   (Total)
    X1       -0.63658   0.01433   0.00000   0.02178   0.02896  -0.60763
    Y1       -1.10032   0.00808   0.00000   0.02291   0.02983  -1.07049
    Z1        0.00803  -0.00229   0.00000  -0.01212  -0.01782  -0.00980
    X2        0.42327  -0.01129   0.00000  -0.04443  -0.03684   0.38643
    Y2       -2.89099   0.00761   0.00000   0.02593   0.03308  -2.85791
    Z2       -0.02233   0.00115   0.00000   0.01470   0.00890  -0.01343
    X3       -2.69168   0.00387   0.00000   0.03251   0.03969  -2.65199
    Y3       -1.10414  -0.00522   0.00000  -0.02118  -0.01473  -1.11887
    Z3       -0.02370   0.00104   0.00000   0.01447   0.00868  -0.01502
    X4        0.62878   0.00827   0.00000   0.00687   0.01355   0.64233
    Y4        1.09080   0.00512   0.00000   0.00635   0.01356   1.10436
    Z4        0.00564  -0.00225   0.00000  -0.01104  -0.01653  -0.01089
    X5       -0.28988  -0.00082   0.00000  -0.02365  -0.01739  -0.30727
    Y5        2.94867  -0.00951   0.00000  -0.03513  -0.02814   2.92053
    Z5       -0.02609   0.00114   0.00000   0.01390   0.00851  -0.01758
    X6        2.71715  -0.01435   0.00000  -0.03462  -0.02796   2.68919
    Y6        1.22569  -0.00607   0.00000  -0.04129  -0.03361   1.19209
    Z6       -0.02479   0.00121   0.00000   0.01365   0.00826  -0.01653
         Item               Value     Threshold  Converged?
 Maximum Force            0.014354     0.000450     NO 
 RMS     Force            0.007235     0.000300     NO 
 Maximum Displacement     0.039695     0.001800     NO 
 RMS     Displacement     0.023841     0.001200     NO 
 Predicted change in Energy=-1.369925D-03
 GradGradGradGradGradGradGradGradGradGradGradGradGradGradGradGradGradGrad

 Unable to Open any file for archive entry.
 1\1\GINC-BHD0014\Force\RwB97XD\6-311G\C2H4\BWEIGHT\11-Jan-2023\0\\# WB
 97XD/6-311G SCF=XQC FORCE nosym pop=full guess=read\\MD Step 1000\\0,1
 \C,-0.33686606,-0.58226172,0.00424712\H,0.22398743,-1.52984743,-0.0118
 1531\H,-1.42437798,-0.58428817,-0.01254259\C,0.3327373,0.57722904,0.00
 298363\H,-0.15339525,1.56036686,-0.0138067\H,1.43785422,0.64860965,-0.
 0131192\\Version=ES64L-G16RevC.01\HF=-78.5559281\RMSD=6.328e-09\RMSF=7
 .235e-03\Dipole=0.0023143,0.0120531,-0.0214933\Quadrupole=0.8638535,0.
 8527503,-1.7166038,0.0104365,0.0002883,-0.0011114\PG=C01 [X(C2H4)]\\@
 The archive entry for this job was punched.


 Democracy is the recurrent suspicion that more than half of the people
 are right more than half of the time.
 -- E. B. White
 Job cpu time:       0 days  0 hours  0 minutes 13.9 seconds.
 Elapsed time:       0 days  0 hours  0 minutes  4.3 seconds.
 File lengths (MBytes):  RWF=    272 Int=      0 D2E=      0 Chk=     32 Scr=     32
 Normal termination of Gaussian 16 at Wed Jan 11 19:41:02 2023.
