 Entering Gaussian System, Link 0=g16
 Initial command:
 /software/gaussian/g16-c01/avx2/g16/l1.exe "/gpfs/fs2/scratch/bweight/software/many_molecule_many_mode_NAMD/src/NAMD/TEST_NVT/TRAJ/traj-86/G16/GS_NEW/Gau-13876.inp" -scrdir="/gpfs/fs2/scratch/bweight/software/many_molecule_many_mode_NAMD/src/NAMD/TEST_NVT/TRAJ/traj-86/G16/GS_NEW/"
 Entering Link 1 = /software/gaussian/g16-c01/avx2/g16/l1.exe PID=     13877.
  
 Copyright (c) 1988-2019, Gaussian, Inc.  All Rights Reserved.
  
 This is part of the Gaussian(R) 16 program.  It is based on
 the Gaussian(R) 09 system (copyright 2009, Gaussian, Inc.),
 the Gaussian(R) 03 system (copyright 2003, Gaussian, Inc.),
 the Gaussian(R) 98 system (copyright 1998, Gaussian, Inc.),
 the Gaussian(R) 94 system (copyright 1995, Gaussian, Inc.),
 the Gaussian 92(TM) system (copyright 1992, Gaussian, Inc.),
 the Gaussian 90(TM) system (copyright 1990, Gaussian, Inc.),
 the Gaussian 88(TM) system (copyright 1988, Gaussian, Inc.),
 the Gaussian 86(TM) system (copyright 1986, Carnegie Mellon
 University), and the Gaussian 82(TM) system (copyright 1983,
 Carnegie Mellon University). Gaussian is a federally registered
 trademark of Gaussian, Inc.
  
 This software contains proprietary and confidential information,
 including trade secrets, belonging to Gaussian, Inc.
  
 This software is provided under written license and may be
 used, copied, transmitted, or stored only in accord with that
 written license.
  
 The following legend is applicable only to US Government
 contracts under FAR:
  
                    RESTRICTED RIGHTS LEGEND
  
 Use, reproduction and disclosure by the US Government is
 subject to restrictions as set forth in subparagraphs (a)
 and (c) of the Commercial Computer Software - Restricted
 Rights clause in FAR 52.227-19.
  
 Gaussian, Inc.
 340 Quinnipiac St., Bldg. 40, Wallingford CT 06492
  
  
 ---------------------------------------------------------------
 Warning -- This program may not be used in any manner that
 competes with the business of Gaussian, Inc. or will provide
 assistance to any competitor of Gaussian, Inc.  The licensee
 of this program is prohibited from giving any competitor of
 Gaussian, Inc. access to this program.  By using this program,
 the user acknowledges that Gaussian, Inc. is engaged in the
 business of creating and licensing software in the field of
 computational chemistry and represents and warrants to the
 licensee that it is not a competitor of Gaussian, Inc. and that
 it will not use this program in any manner prohibited above.
 ---------------------------------------------------------------
  

 Cite this work as:
 Gaussian 16, Revision C.01,
 M. J. Frisch, G. W. Trucks, H. B. Schlegel, G. E. Scuseria, 
 M. A. Robb, J. R. Cheeseman, G. Scalmani, V. Barone, 
 G. A. Petersson, H. Nakatsuji, X. Li, M. Caricato, A. V. Marenich, 
 J. Bloino, B. G. Janesko, R. Gomperts, B. Mennucci, H. P. Hratchian, 
 J. V. Ortiz, A. F. Izmaylov, J. L. Sonnenberg, D. Williams-Young, 
 F. Ding, F. Lipparini, F. Egidi, J. Goings, B. Peng, A. Petrone, 
 T. Henderson, D. Ranasinghe, V. G. Zakrzewski, J. Gao, N. Rega, 
 G. Zheng, W. Liang, M. Hada, M. Ehara, K. Toyota, R. Fukuda, 
 J. Hasegawa, M. Ishida, T. Nakajima, Y. Honda, O. Kitao, H. Nakai, 
 T. Vreven, K. Throssell, J. A. Montgomery, Jr., J. E. Peralta, 
 F. Ogliaro, M. J. Bearpark, J. J. Heyd, E. N. Brothers, K. N. Kudin, 
 V. N. Staroverov, T. A. Keith, R. Kobayashi, J. Normand, 
 K. Raghavachari, A. P. Rendell, J. C. Burant, S. S. Iyengar, 
 J. Tomasi, M. Cossi, J. M. Millam, M. Klene, C. Adamo, R. Cammi, 
 J. W. Ochterski, R. L. Martin, K. Morokuma, O. Farkas, 
 J. B. Foresman, and D. J. Fox, Gaussian, Inc., Wallingford CT, 2019.
 
 ******************************************
 Gaussian 16:  ES64L-G16RevC.01  3-Jul-2019
                11-Jan-2023 
 ******************************************
 %oldchk=../GS_OLD/geometry.chk
 %chk=geometry.chk
 %nprocshared=4
 Will use up to    4 processors via shared memory.
 %mem=5GB
 Copying data from "../GS_OLD/geometry.chk" to current chk file "geometry.chk"
 IOpt=  2 FromEx=T IUOpen= 4 IOptOp= 5 NList=   0 IFRang= 0 IUIn= 4 IUOut= 2.
 -------------------------------------------------------
 # WB97XD/6-311G SCF=XQC FORCE nosym pop=full guess=read
 -------------------------------------------------------
 1/10=7,30=1,38=1/1,3;
 2/12=2,15=1,17=6,18=5,40=1/2;
 3/5=4,6=6,11=2,25=1,30=1,71=1,74=-58,116=-2/1,2,3;
 4/5=1/1;
 5/5=2,8=3,13=1,38=6/2,8;
 6/7=3,28=1/1;
 7/29=1,30=1/1,2,3,16;
 1/10=7,30=1/3;
 99//99;
 ------------
 MD Step 1000
 ------------
 Symbolic Z-matrix:
 Charge =  0 Multiplicity = 1
 C                    -0.33602  -0.58055   0.00582 
 H                     0.21714  -1.52637  -0.01861 
 H                    -1.42236  -0.60342  -0.02167 
 C                     0.33329   0.57888   0.00505 
 H                    -0.15951   1.56432  -0.02384 
 H                     1.4422    0.63027  -0.02061 
 

 GradGradGradGradGradGradGradGradGradGradGradGradGradGradGradGradGradGrad
 Berny optimization.
 Initialization pass.
 Trust Radius=3.00D-01 FncErr=1.00D-07 GrdErr=1.00D-07 EigMax=2.50D+02 EigMin=1.00D-04
 Number of steps in this run=      2 maximum allowed number of steps=      2.
 GradGradGradGradGradGradGradGradGradGradGradGradGradGradGradGradGradGrad

                          Input orientation:                          
 ---------------------------------------------------------------------
 Center     Atomic      Atomic             Coordinates (Angstroms)
 Number     Number       Type             X           Y           Z
 ---------------------------------------------------------------------
      1          6           0       -0.336021   -0.580548    0.005824
      2          1           0        0.217140   -1.526375   -0.018607
      3          1           0       -1.422356   -0.603418   -0.021672
      4          6           0        0.333288    0.578877    0.005055
      5          1           0       -0.159505    1.564323   -0.023840
      6          1           0        1.442199    0.630272   -0.020605
 ---------------------------------------------------------------------
                    Distance matrix (angstroms):
                    1          2          3          4          5
     1  C    0.000000
     2  H    1.095981   0.000000
     3  H    1.086923   1.881437   0.000000
     4  C    1.338746   2.108586   2.116796   0.000000
     5  H    2.152326   3.113567   2.508765   1.102172   0.000000
     6  H    2.151476   2.480302   3.118921   1.110398   1.854162
                    6
     6  H    0.000000
 Symmetry turned off by external request.
 Stoichiometry    C2H4
 Framework group  C1[X(C2H4)]
 Deg. of freedom    12
 Full point group                 C1      NOp   1
 Rotational constants (GHZ):         143.6272845          29.6766685          24.6006744
 Standard basis: 6-311G (5D, 7F)
    38 basis functions,    72 primitive gaussians,    38 cartesian basis functions
     8 alpha electrons        8 beta electrons
       nuclear repulsion energy        33.0755198658 Hartrees.
 NAtoms=    6 NActive=    6 NUniq=    6 SFac= 1.00D+00 NAtFMM=   60 NAOKFM=F Big=F
 Integral buffers will be    131072 words long.
 Raffenetti 2 integral format.
 Two-electron integral symmetry is turned off.
 Nuclear repulsion after empirical dispersion term =       33.0746791413 Hartrees.
 One-electron integrals computed using PRISM.
 NBasis=    38 RedAO= T EigKep=  6.44D-03  NBF=    38
 NBsUse=    38 1.00D-06 EigRej= -1.00D+00 NBFU=    38
 Initial guess from the checkpoint file:  "geometry.chk"
 B after Tr=    -0.000283   -0.000356   -0.000392
         Rot=    1.000000   -0.000002    0.000003    0.000006 Ang=  -0.00 deg.
 Keep R1 ints in memory in canonical form, NReq=4036876.
 Requested convergence on RMS density matrix=1.00D-08 within  32 cycles.
 Requested convergence on MAX density matrix=1.00D-06.
 Requested convergence on             energy=1.00D-06.
 No special actions if energy rises.
 SCF Done:  E(RwB97XD) =  -78.5561650822     A.U. after    8 cycles
            NFock=  8  Conv=0.47D-08     -V/T= 2.0051
 QCSCF skips out because SCF is already converged.

 **********************************************************************

            Population analysis using the SCF Density.

 **********************************************************************

 Alpha  occ. eigenvalues --  -10.29007 -10.28787  -0.86366  -0.67258  -0.55936
 Alpha  occ. eigenvalues --   -0.50942  -0.43707  -0.35670
 Alpha virt. eigenvalues --    0.07974   0.14111   0.16499   0.17039   0.24091
 Alpha virt. eigenvalues --    0.37564   0.39347   0.39715   0.46471   0.48826
 Alpha virt. eigenvalues --    0.49391   0.59105   0.66591   0.69153   0.77313
 Alpha virt. eigenvalues --    0.77574   0.84340   0.95167   2.23162   2.29004
 Alpha virt. eigenvalues --    2.33278   2.40753   2.67115   2.81799   2.87870
 Alpha virt. eigenvalues --    2.95201   3.14004   3.32038  23.35300  23.70567
     Molecular Orbital Coefficients:
                           1         2         3         4         5
                           O         O         O         O         O
     Eigenvalues --   -10.29007 -10.28787  -0.86366  -0.67258  -0.55936
   1 1   C  1S          0.11409   0.55172  -0.08827   0.06693   0.00004
   2        2S          0.09409   0.45405  -0.13951   0.10721   0.00007
   3        2PX         0.00016  -0.00002   0.02632   0.03667   0.13713
   4        2PY         0.00028  -0.00003   0.04589   0.06130  -0.07164
   5        2PZ         0.00000  -0.00000  -0.00104   0.00161   0.00038
   6        3S          0.00210   0.01447   0.37414  -0.29260  -0.00025
   7        3PX        -0.00060   0.00045   0.03477   0.05878   0.21455
   8        3PY        -0.00102   0.00078   0.05990   0.09910  -0.11305
   9        3PZ        -0.00001  -0.00003  -0.00175   0.00287   0.00058
  10        4S          0.00296  -0.01473   0.19153  -0.22726  -0.00164
  11        4PX         0.00147  -0.00161   0.00504   0.02418   0.11187
  12        4PY         0.00250  -0.00268   0.00848   0.04077  -0.05937
  13        4PZ         0.00001   0.00007  -0.00063   0.00144   0.00030
  14 2   H  1S         -0.00005  -0.00006   0.05278  -0.08816   0.10029
  15        2S         -0.00030   0.00013   0.05379  -0.10603   0.12691
  16        3S          0.00085   0.00168  -0.00156  -0.01540   0.04107
  17 3   H  1S         -0.00006  -0.00006   0.05324  -0.09151  -0.10445
  18        2S         -0.00029   0.00008   0.05416  -0.10905  -0.13114
  19        3S          0.00089   0.00167  -0.00172  -0.01599  -0.04226
  20 4   C  1S          0.55171  -0.11428  -0.08695  -0.06833   0.00010
  21        2S          0.45411  -0.09385  -0.13731  -0.10955   0.00018
  22        2PX        -0.00002  -0.00016  -0.02714   0.03696   0.11880
  23        2PY        -0.00004  -0.00028  -0.04665   0.06580  -0.07587
  24        2PZ        -0.00000   0.00000  -0.00093  -0.00173   0.00037
  25        3S          0.01399  -0.00380   0.36796   0.29932  -0.00065
  26        3PX        -0.00019   0.00073  -0.03407   0.05998   0.18628
  27        3PY        -0.00031   0.00126  -0.05894   0.10618  -0.11765
  28        3PZ        -0.00003  -0.00000  -0.00159  -0.00310   0.00057
  29        4S         -0.01210   0.00864   0.18923   0.23647  -0.00197
  30        4PX         0.00081  -0.00189  -0.00505   0.02553   0.10145
  31        4PY         0.00144  -0.00338  -0.00925   0.04511  -0.06407
  32        4PZ         0.00006  -0.00002  -0.00063  -0.00158   0.00031
  33 5   H  1S         -0.00006  -0.00004   0.05004   0.09344  -0.09201
  34        2S         -0.00004  -0.00030   0.05130   0.11135  -0.11584
  35        3S          0.00181   0.00013  -0.00119   0.01657  -0.03705
  36 6   H  1S         -0.00006  -0.00003   0.04949   0.09099   0.08700
  37        2S         -0.00002  -0.00033   0.05085   0.10932   0.11032
  38        3S          0.00179   0.00009  -0.00119   0.01615   0.03578
                           6         7         8         9        10
                           O         O         O         V         V
     Eigenvalues --    -0.50942  -0.43707  -0.35670   0.07974   0.14111
   1 1   C  1S         -0.00434   0.00029  -0.00079   0.00222  -0.03327
   2        2S         -0.00660   0.00051  -0.00128   0.00369  -0.05336
   3        2PX         0.09254  -0.11282  -0.00298   0.00143  -0.02998
   4        2PY         0.16872   0.06646  -0.00474   0.00190  -0.06489
   5        2PZ         0.00426  -0.00014   0.17933  -0.18908  -0.00196
   6        3S          0.02391  -0.00143   0.00373  -0.01119   0.11608
   7        3PX         0.13450  -0.18007  -0.00423   0.00216  -0.03483
   8        3PY         0.24693   0.10592  -0.00667   0.00288  -0.08023
   9        3PZ         0.00675  -0.00020   0.28828  -0.27809  -0.00313
  10        4S         -0.04863  -0.00314   0.00572  -0.01202   1.21595
  11        4PX         0.06784  -0.11130  -0.00344   0.01150  -0.18799
  12        4PY         0.12588   0.06726  -0.00536   0.01698  -0.39219
  13        4PZ         0.00383  -0.00007   0.26726  -0.69504  -0.01145
  14 2   H  1S         -0.08075  -0.11662   0.00015   0.00344  -0.01660
  15        2S         -0.11148  -0.17990   0.00169   0.00530  -0.04764
  16        3S         -0.04175  -0.08309   0.00103   0.01413  -0.84196
  17 3   H  1S         -0.07821   0.11372   0.00009   0.00345  -0.01213
  18        2S         -0.10731   0.17524   0.00160   0.00560  -0.03600
  19        3S         -0.03976   0.08113   0.00097   0.01439  -0.76260
  20 4   C  1S         -0.00777  -0.00054  -0.00072  -0.00223  -0.03630
  21        2S         -0.01213  -0.00091  -0.00118  -0.00369  -0.05830
  22        2PX        -0.09977   0.12339   0.00258   0.00118   0.04226
  23        2PY        -0.16188  -0.07309   0.00513   0.00266   0.06043
  24        2PZ         0.00443   0.00035   0.17917   0.18945  -0.00258
  25        3S          0.03961   0.00272   0.00348   0.01107   0.12864
  26        3PX        -0.14764   0.19727   0.00358   0.00183   0.05229
  27        3PY        -0.23767  -0.11671   0.00723   0.00407   0.07147
  28        3PZ         0.00701   0.00054   0.28693   0.27789  -0.00391
  29        4S         -0.03233   0.00305   0.00550   0.01304   1.25165
  30        4PX        -0.07695   0.12586   0.00276   0.00975   0.26933
  31        4PY        -0.12233  -0.07262   0.00580   0.01981   0.40339
  32        4PZ         0.00406   0.00032   0.26742   0.69595  -0.01530
  33 5   H  1S         -0.07473  -0.12338   0.00018  -0.00341  -0.01216
  34        2S         -0.10209  -0.19214   0.00180  -0.00579  -0.03690
  35        3S         -0.03800  -0.09014   0.00099  -0.01487  -0.81511
  36 6   H  1S         -0.08060   0.12378   0.00010  -0.00341  -0.01645
  37        2S         -0.11067   0.19331   0.00167  -0.00559  -0.04792
  38        3S         -0.04150   0.09042   0.00092  -0.01475  -0.89500
                          11        12        13        14        15
                           V         V         V         V         V
     Eigenvalues --     0.16499   0.17039   0.24091   0.37564   0.39347
   1 1   C  1S          0.00210  -0.04529  -0.00025   0.01153   0.00268
   2        2S          0.00339  -0.07379  -0.00039   0.01644   0.00480
   3        2PX         0.09859  -0.01966   0.09993  -0.03703  -0.02772
   4        2PY        -0.05173  -0.03792  -0.05742  -0.06926   0.00356
   5        2PZ         0.00034  -0.00545   0.00016  -0.00385  -0.00017
   6        3S         -0.00736   0.16624   0.00031   0.02679  -0.01599
   7        3PX         0.14067  -0.01075   0.10660  -0.05125  -0.12057
   8        3PY        -0.07555  -0.02568  -0.06181  -0.09939   0.02250
   9        3PZ         0.00050  -0.00752   0.00011  -0.00751  -0.00005
  10        4S         -0.08447   1.43648   0.01999  -2.82036  -0.36632
  11        4PX         0.58479  -0.12053   1.17385  -1.58714  -0.52600
  12        4PY        -0.29845  -0.20799  -0.65249  -2.79334   0.17322
  13        4PZ         0.00215  -0.03580   0.00221  -0.03628  -0.00202
  14 2   H  1S         -0.02868  -0.02554   0.01267  -0.05334   0.07867
  15        2S         -0.07762  -0.01673  -0.02478  -0.61132   0.83190
  16        3S         -1.00408  -1.01145  -1.56014  -0.35669  -0.35754
  17 3   H  1S          0.02948  -0.02428  -0.01459  -0.04604  -0.07370
  18        2S          0.07892  -0.02059   0.02059  -0.56164  -0.70905
  19        3S          1.11635  -1.00599   1.56042  -0.41967   0.24817
  20 4   C  1S          0.00102   0.04254   0.00017  -0.01982   0.00069
  21        2S          0.00161   0.06926   0.00024  -0.03225   0.00182
  22        2PX         0.10001  -0.02074  -0.10012  -0.04347  -0.02894
  23        2PY        -0.06193  -0.03819   0.05720  -0.07472   0.01545
  24        2PZ         0.00025   0.00541  -0.00017   0.00309   0.00044
  25        3S         -0.00299  -0.15416   0.00032   0.03593  -0.01941
  26        3PX         0.14371  -0.01505  -0.11252  -0.09500  -0.09676
  27        3PY        -0.08797  -0.02768   0.06354  -0.16599   0.07599
  28        3PZ         0.00036   0.00747  -0.00015   0.00423   0.00101
  29        4S         -0.05713  -1.34335  -0.02219   3.40526   0.17440
  30        4PX         0.53864  -0.09920  -1.12134  -1.28668  -0.65316
  31        4PY        -0.33954  -0.20660   0.66812  -2.22940  -0.07292
  32        4PZ         0.00146   0.03523  -0.00229   0.02985   0.00358
  33 5   H  1S          0.03071   0.02495   0.00746   0.01297  -0.07540
  34        2S          0.06894   0.02359  -0.03325   0.11032  -0.70377
  35        3S          1.08263   0.96700  -1.51765   0.47264   0.45785
  36 6   H  1S         -0.03108   0.02503  -0.00587   0.01101   0.08961
  37        2S         -0.06919   0.01749   0.03389   0.08615   0.94699
  38        3S         -1.00925   0.92434   1.52291   0.47422  -0.42117
                          16        17        18        19        20
                           V         V         V         V         V
     Eigenvalues --     0.39715   0.46471   0.48826   0.49391   0.59105
   1 1   C  1S         -0.01671   0.01146  -0.04719   0.00030  -0.00048
   2        2S         -0.02973   0.02726  -0.07922   0.00074  -0.00088
   3        2PX         0.01978  -0.05959   0.01269   0.00100   0.00184
   4        2PY         0.04348  -0.10697   0.02007   0.00117   0.00265
   5        2PZ        -0.00009  -0.00047   0.00231  -0.15193  -0.19248
   6        3S          0.07586  -0.33518   0.10458  -0.00888  -0.00010
   7        3PX         0.08190  -0.23676  -0.02725   0.00156   0.00633
   8        3PY         0.18480  -0.42312  -0.05051   0.00036   0.00886
   9        3PZ        -0.00387  -0.00369   0.01122  -0.62881  -0.68471
  10        4S          2.31528   0.13478   3.15484   0.03571   0.05633
  11        4PX         0.02282   0.24366   0.81429   0.01282   0.01443
  12        4PY         0.19029   0.42286   1.36397   0.02459   0.03225
  13        4PZ        -0.00279  -0.00009  -0.06396   0.68705   1.24023
  14 2   H  1S         -0.02119  -0.03802  -0.07526  -0.00123  -0.00132
  15        2S         -0.48922  -0.37099  -0.91849  -0.00964  -0.00876
  16        3S          0.22386   0.08654   0.62426   0.01650   0.01898
  17 3   H  1S         -0.04485  -0.03702  -0.07483  -0.00118  -0.00138
  18        2S         -0.72012  -0.35221  -0.88535  -0.00919  -0.00992
  19        3S          0.29785   0.08183   0.61924   0.01634   0.01889
  20 4   C  1S         -0.00309  -0.00154   0.05078   0.00188   0.00056
  21        2S         -0.00855   0.00515   0.08807   0.00344   0.00103
  22        2PX         0.00291   0.05699   0.02792  -0.00007   0.00155
  23        2PY         0.01287   0.09476   0.04690  -0.00072   0.00324
  24        2PZ        -0.00285  -0.00128   0.00240  -0.15275   0.19222
  25        3S          0.07984  -0.29227  -0.22042  -0.01473  -0.00166
  26        3PX        -0.06059   0.24261   0.05246   0.00021   0.00526
  27        3PY        -0.06865   0.40947   0.08330  -0.00213   0.01131
  28        3PZ        -0.00851  -0.00542   0.00798  -0.63154   0.68244
  29        4S         -0.46714   0.74539  -3.10731  -0.05272  -0.05118
  30        4PX         1.04757  -0.34411   0.63290   0.00390   0.02086
  31        4PY         2.00154  -0.61114   1.10922   0.00856   0.02838
  32        4PZ        -0.02515  -0.01319   0.03934   0.69291  -1.23753
  33 5   H  1S         -0.05735  -0.05990   0.06637   0.00118   0.00138
  34        2S         -0.92881  -0.60184   0.81605   0.01928   0.00677
  35        3S         -0.08921   0.25277  -0.57068  -0.00126  -0.01898
  36 6   H  1S         -0.03361  -0.06199   0.06396   0.00112   0.00130
  37        2S         -0.67077  -0.63298   0.80438   0.01858   0.00511
  38        3S         -0.19179   0.27772  -0.56552  -0.00145  -0.01905
                          21        22        23        24        25
                           V         V         V         V         V
     Eigenvalues --     0.66591   0.69153   0.77313   0.77574   0.84340
   1 1   C  1S          0.00084  -0.00073   0.04884   0.07480   0.00095
   2        2S          0.00180  -0.00148   0.10302   0.15944   0.00238
   3        2PX        -0.13138   0.19880  -0.03107   0.11310  -0.00503
   4        2PY         0.07558  -0.11909  -0.05072   0.18446   0.01626
   5        2PZ        -0.00024   0.00029   0.00034   0.00406   0.00005
   6        3S         -0.01578   0.01353  -0.68534  -1.37028  -0.03415
   7        3PX        -0.61405   0.69738  -0.19879   0.44136  -0.20886
   8        3PY         0.34920  -0.41997  -0.32642   0.70385   0.17370
   9        3PZ        -0.00119   0.00101   0.00130   0.01427  -0.00028
  10        4S          0.02079  -0.00592   0.64966   2.48211   0.16521
  11        4PX         1.11525  -0.78301   0.25880  -0.80115   4.51625
  12        4PY        -0.63014   0.52361   0.23018  -0.98535  -2.47297
  13        4PZ         0.00186   0.00037   0.00975  -0.04523   0.01010
  14 2   H  1S          0.02288  -0.05905   0.00918   0.03287  -0.02561
  15        2S          0.11903  -0.63440   0.05386   0.11322  -1.54952
  16        3S         -1.03529   1.13332  -0.06900  -1.09168  -1.22263
  17 3   H  1S         -0.02170   0.05811   0.00965   0.03304   0.03063
  18        2S         -0.13285   0.64507   0.11057   0.05120   1.58820
  19        3S          1.02826  -1.06879  -0.01313  -1.26187   1.20821
  20 4   C  1S          0.00107   0.00029   0.08291   0.03401   0.00030
  21        2S          0.00224   0.00056   0.17652   0.07161   0.00036
  22        2PX        -0.15275  -0.18458  -0.09751   0.04847   0.01363
  23        2PY         0.08821   0.10211  -0.17774   0.09000   0.00476
  24        2PZ        -0.00030  -0.00029   0.00424  -0.00069  -0.00008
  25        3S         -0.01824  -0.00660  -1.47953  -0.42612   0.01064
  26        3PX        -0.68596  -0.62439  -0.35476   0.25999   0.25130
  27        3PY         0.39966   0.34212  -0.65868   0.48520  -0.08681
  28        3PZ        -0.00141  -0.00093   0.01497  -0.00265   0.00026
  29        4S          0.01525  -0.00666   2.65317   0.22417  -0.17895
  30        4PX         1.25687   0.75574   0.47485  -0.17273  -4.17920
  31        4PY        -0.73407  -0.36433   1.07052  -0.65838   2.48970
  32        4PZ         0.00249  -0.00042  -0.04428   0.01954  -0.00966
  33 5   H  1S         -0.02606  -0.05455   0.03445   0.00418  -0.02516
  34        2S         -0.16226  -0.56174   0.06281   0.09585  -1.44465
  35        3S          1.12427   0.95376  -1.19747   0.26564  -1.10832
  36 6   H  1S          0.02704   0.05536   0.03395   0.00398   0.02302
  37        2S          0.15348   0.54800   0.09224   0.00835   1.42515
  38        3S         -1.12751  -1.00806  -1.08199   0.16697   1.13209
                          26        27        28        29        30
                           V         V         V         V         V
     Eigenvalues --     0.95167   2.23162   2.29004   2.33278   2.40753
   1 1   C  1S          0.09556  -0.01047  -0.01436   0.00027  -0.00041
   2        2S          0.19853   0.00081  -0.01458   0.00050  -0.00068
   3        2PX        -0.09141  -0.08425  -0.12970   0.33845  -0.41673
   4        2PY        -0.15788  -0.16123  -0.22941  -0.19036   0.22575
   5        2PZ         0.00005  -0.01108  -0.01484   0.00059  -0.00119
   6        3S         -1.53819  -0.18232  -0.03267   0.00111  -0.00327
   7        3PX        -0.23293   0.08518   0.20601  -0.40541   0.58209
   8        3PY        -0.39539   0.17426   0.37526   0.23009  -0.31352
   9        3PZ        -0.00229   0.01111   0.01856  -0.00060   0.00145
  10        4S          5.71635  -0.12346  -0.89168  -0.00604   0.02626
  11        4PX         1.21699   0.04402  -0.17499  -0.02560   0.98528
  12        4PY         1.97291   0.06815  -0.35870   0.00213  -0.51664
  13        4PZ        -0.01416   0.00274   0.00665  -0.00012   0.00275
  14 2   H  1S          0.01535  -0.72773  -0.77557  -0.69921   0.66195
  15        2S         -0.29701   1.03989   1.16117   1.06808  -1.46874
  16        3S         -0.10478  -0.31068  -0.46710  -0.46980   0.37814
  17 3   H  1S          0.01626  -0.71123  -0.77747   0.69387  -0.68113
  18        2S         -0.26009   1.01381   1.17629  -1.06060   1.50948
  19        3S         -0.06599  -0.29016  -0.44699   0.46095  -0.36654
  20 4   C  1S         -0.09421  -0.01034   0.01255   0.00053   0.00025
  21        2S         -0.19546   0.00029   0.01252   0.00056   0.00073
  22        2PX        -0.09188   0.12873  -0.12993   0.31113   0.40995
  23        2PY        -0.15911   0.22083  -0.20986  -0.18342  -0.24541
  24        2PZ         0.00015  -0.01220   0.01485   0.00096   0.00084
  25        3S          1.51197  -0.17055   0.02150   0.00245  -0.00124
  26        3PX        -0.22569  -0.16174   0.21980  -0.38708  -0.57204
  27        3PY        -0.39641  -0.27268   0.35192   0.22621   0.34673
  28        3PZ         0.00279   0.01301  -0.01884  -0.00109  -0.00115
  29        4S         -5.69777  -0.15906   0.88851   0.01898  -0.03867
  30        4PX         1.08966  -0.01904  -0.21435   0.08390  -0.86425
  31        4PY         2.00334  -0.03760  -0.31451  -0.04706   0.53573
  32        4PZ         0.01170   0.00376  -0.00570   0.00002  -0.00258
  33 5   H  1S         -0.01780  -0.77356   0.69234   0.71685   0.67529
  34        2S          0.28187   1.11981  -1.05928  -1.05161  -1.45390
  35        3S          0.05457  -0.34544   0.40447   0.51020   0.40914
  36 6   H  1S         -0.01755  -0.77412   0.71498  -0.69290  -0.67715
  37        2S          0.31399   1.11942  -1.07961   1.01466   1.44763
  38        3S          0.08319  -0.34874   0.44100  -0.50191  -0.42226
                          31        32        33        34        35
                           V         V         V         V         V
     Eigenvalues --     2.67115   2.81799   2.87870   2.95201   3.14004
   1 1   C  1S          0.00041   0.00209  -0.01331  -0.00019  -0.00948
   2        2S          0.00031   0.00612  -0.04455  -0.00081  -0.02888
   3        2PX         0.00546   0.05936  -0.45081  -0.73577   0.46613
   4        2PY         0.00626   0.10535  -0.84328   0.42093   0.79510
   5        2PZ        -0.92391  -0.93350  -0.11608  -0.00205   0.00620
   6        3S         -0.00120  -0.05092   0.39265   0.00915   0.24235
   7        3PX        -0.00439  -0.10374   0.81184   0.88893  -0.46070
   8        3PY        -0.00441  -0.18250   1.47907  -0.49089  -0.77811
   9        3PZ         0.93899   1.14089   0.14591   0.00261  -0.00789
  10        4S          0.01049   0.11700  -0.87576  -0.01914  -0.47005
  11        4PX        -0.00120   0.08353  -0.70474  -0.67524   0.24648
  12        4PY        -0.00247   0.14857  -1.27490   0.35542   0.40135
  13        4PZ        -0.33779  -0.61787  -0.09264  -0.00199   0.00501
  14 2   H  1S          0.00981  -0.01729   0.26607  -0.38331  -0.21451
  15        2S         -0.01121   0.01133  -0.22232   0.39335   0.16101
  16        3S         -0.00245   0.03483  -0.30530   0.27159   0.06143
  17 3   H  1S          0.01012  -0.01752   0.26036   0.38169  -0.22632
  18        2S         -0.01188   0.01097  -0.21438  -0.38909   0.17251
  19        3S         -0.00254   0.03340  -0.29367  -0.28663   0.08215
  20 4   C  1S          0.00044  -0.00207   0.01363   0.00042  -0.00772
  21        2S          0.00043  -0.00636   0.04751   0.00096  -0.02393
  22        2PX        -0.00492   0.05494  -0.42739  -0.80296  -0.48792
  23        2PY        -0.01153   0.09799  -0.74156   0.43087  -0.88243
  24        2PZ        -0.92555   0.93138   0.11866  -0.00064   0.01026
  25        3S         -0.00244   0.05429  -0.42566  -0.00648   0.20483
  26        3PX         0.00514  -0.09942   0.79324   0.95787   0.51334
  27        3PY         0.01180  -0.17558   1.37526  -0.50768   0.94131
  28        3PZ         0.94125  -1.13878  -0.14926   0.00075  -0.01302
  29        4S          0.01330  -0.11913   0.89976   0.02365  -0.39107
  30        4PX        -0.00013   0.08459  -0.71915  -0.69892  -0.30192
  31        4PY        -0.00179   0.14685  -1.24424   0.37199  -0.56544
  32        4PZ        -0.33899   0.61685   0.09512  -0.00060   0.01002
  33 5   H  1S          0.00973   0.02221  -0.29392   0.40934  -0.26291
  34        2S         -0.01189  -0.01752   0.26615  -0.42153   0.20614
  35        3S         -0.00127  -0.03174   0.28319  -0.24833   0.12320
  36 6   H  1S          0.00978   0.02145  -0.28330  -0.42789  -0.23997
  37        2S         -0.01224  -0.01727   0.25624   0.43818   0.18583
  38        3S         -0.00103  -0.03163   0.27765   0.25236   0.10459
                          36        37        38
                           V         V         V
     Eigenvalues --     3.32038  23.35300  23.70567
   1 1   C  1S          0.00006  -1.41740  -1.44895
   2        2S          0.00031   1.51167   1.56684
   3        2PX         0.78112  -0.00655   0.01228
   4        2PY        -0.42713  -0.01095   0.02114
   5        2PZ         0.00198  -0.00045  -0.00018
   6        3S         -0.00706  -0.29683  -0.39835
   7        3PX        -1.11957   0.02396  -0.05591
   8        3PY         0.60359   0.04040  -0.09632
   9        3PZ        -0.00294   0.00129   0.00054
  10        4S          0.04298   0.27444   0.76741
  11        4PX         1.97782  -0.02556   0.13538
  12        4PY        -1.04951  -0.04475   0.22704
  13        4PZ         0.00513  -0.00212  -0.00236
  14 2   H  1S          0.55286   0.01351   0.00743
  15        2S         -0.86076   0.00721  -0.01579
  16        3S         -0.45681  -0.08405  -0.04070
  17 3   H  1S         -0.56265   0.01481   0.00756
  18        2S          0.87611   0.00767  -0.01385
  19        3S          0.48841  -0.08603  -0.03843
  20 4   C  1S         -0.00023  -1.44418   1.42213
  21        2S         -0.00077   1.54033  -1.53794
  22        2PX        -0.71422   0.00610   0.01248
  23        2PY         0.41967   0.01090   0.02158
  24        2PZ        -0.00182  -0.00046   0.00013
  25        3S          0.00984  -0.30257   0.39124
  26        3PX         1.01450  -0.02232  -0.05600
  27        3PY        -0.60919  -0.03959  -0.09712
  28        3PZ         0.00270   0.00132  -0.00036
  29        4S         -0.06147   0.28016  -0.76024
  30        4PX        -1.78234   0.02361   0.12853
  31        4PY         1.09406   0.04238   0.22849
  32        4PZ        -0.00482  -0.00217   0.00201
  33 5   H  1S          0.49739   0.01342  -0.00482
  34        2S         -0.77710   0.00827   0.01300
  35        3S         -0.44123  -0.08375   0.03659
  36 6   H  1S         -0.49187   0.01224  -0.00437
  37        2S          0.76963   0.00863   0.01421
  38        3S          0.42143  -0.08151   0.03831
     Density Matrix:
                           1         2         3         4         5
   1 1   C  1S          0.65941
   2        2S          0.56152   0.49203
   3        2PX        -0.00058  -0.00078   0.08429
   4        2PY        -0.00130  -0.00179   0.00352   0.08780
   5        2PZ         0.00008   0.00012  -0.00008  -0.00023   0.06437
   6        3S         -0.08898  -0.15392   0.00289   0.00634  -0.00018
   7        3PX         0.00084   0.00128   0.13053   0.00115  -0.00004
   8        3PY         0.00124   0.00191   0.00126   0.13131  -0.00020
   9        3PZ         0.00015   0.00025  -0.00014  -0.00037   0.10347
  10        4S         -0.07940  -0.11436  -0.01536  -0.02693   0.00050
  11        4PX         0.00026   0.00160   0.07041  -0.00447  -0.00047
  12        4PY         0.00053   0.00283  -0.00469   0.06575  -0.00080
  13        4PZ        -0.00008  -0.00019  -0.00071  -0.00117   0.09590
  14 2   H  1S         -0.02056  -0.03274   0.03518  -0.06308  -0.00092
  15        2S         -0.02274  -0.03638   0.04981  -0.08779  -0.00065
  16        3S          0.00058  -0.00071   0.02107  -0.03306   0.00002
  17 3   H  1S         -0.02100  -0.03341  -0.07269  -0.00264  -0.00115
  18        2S         -0.02312  -0.03690  -0.10053  -0.00254  -0.00095
  19        3S          0.00060  -0.00066  -0.03853   0.00129  -0.00010
  20 4   C  1S          0.00606   0.00977  -0.01069  -0.01874  -0.00036
  21        2S          0.00974   0.01522  -0.01709  -0.03000  -0.00059
  22        2PX         0.01050   0.01679  -0.01246  -0.03227   0.00031
  23        2PY         0.01807   0.02890  -0.03194  -0.04973   0.00073
  24        2PZ        -0.00039  -0.00063  -0.00040  -0.00051   0.06430
  25        3S         -0.02624  -0.03983   0.04784   0.08426   0.00178
  26        3PX         0.01621   0.02516  -0.01816  -0.04610   0.00038
  27        3PY         0.02792   0.04328  -0.04528  -0.07131   0.00098
  28        3PZ        -0.00066  -0.00106  -0.00069  -0.00089   0.10297
  29        4S          0.00529   0.00389   0.02005   0.03608   0.00206
  30        4PX         0.00315   0.00647  -0.01323  -0.02113   0.00047
  31        4PY         0.00528   0.01097  -0.02104  -0.03712   0.00117
  32        4PZ        -0.00056  -0.00090  -0.00098  -0.00142   0.09595
  33 5   H  1S          0.00419   0.00687  -0.00174  -0.01238  -0.00041
  34        2S          0.00627   0.01041   0.00355  -0.02505  -0.00001
  35        3S          0.00326   0.00474   0.00429  -0.01758   0.00008
  36 6   H  1S          0.00417   0.00686  -0.00971  -0.00752  -0.00043
  37        2S          0.00637   0.01062  -0.02316  -0.00940  -0.00007
  38        3S          0.00329   0.00485  -0.01716  -0.00525   0.00003
                           6         7         8         9        10
   6        3S          0.45279
   7        3PX        -0.00157   0.20246
   8        3PY        -0.00164  -0.00436   0.19686
   9        3PZ        -0.00052  -0.00009  -0.00032   0.16633
  10        4S          0.27363  -0.02612  -0.04652   0.00066   0.18194
  11        4PX        -0.00694   0.10955  -0.00993  -0.00077  -0.01531
  12        4PY        -0.01176  -0.01041   0.09900  -0.00128  -0.02772
  13        4PZ         0.00086  -0.00095  -0.00154   0.15416   0.00178
  14 2   H  1S          0.08750   0.05661  -0.09841  -0.00153   0.06855
  15        2S          0.09743   0.08052  -0.13645  -0.00111   0.08037
  16        3S          0.00613   0.03439  -0.05076   0.00003   0.01082
  17 3   H  1S          0.08938  -0.11387  -0.00268  -0.00188   0.06922
  18        2S          0.09879  -0.15732  -0.00137  -0.00156   0.08009
  19        3S          0.00602  -0.06006   0.00371  -0.00015   0.01007
  20 4   C  1S         -0.02644  -0.01669  -0.02923  -0.00062   0.00513
  21        2S         -0.04004  -0.02590  -0.04545  -0.00100   0.00382
  22        2PX        -0.04710  -0.01786  -0.04596   0.00054  -0.01862
  23        2PY        -0.08088  -0.04533  -0.07089   0.00126  -0.03126
  24        2PZ         0.00187  -0.00056  -0.00067   0.10336   0.00205
  25        3S          0.10203   0.07012   0.12362   0.00298   0.00127
  26        3PX        -0.06827  -0.02617  -0.06548   0.00067  -0.02778
  27        3PY        -0.11712  -0.06406  -0.10161   0.00169  -0.04656
  28        3PZ         0.00310  -0.00097  -0.00119   0.16552   0.00340
  29        4S          0.00190   0.03029   0.05463   0.00343  -0.03213
  30        4PX        -0.02284  -0.01987  -0.02986   0.00078  -0.00708
  31        4PY        -0.03897  -0.02964  -0.05357   0.00194  -0.01130
  32        4PZ         0.00264  -0.00138  -0.00195   0.15423   0.00314
  33 5   H  1S         -0.02042  -0.00068  -0.01772  -0.00060  -0.01496
  34        2S         -0.03104   0.00867  -0.03674   0.00007  -0.01941
  35        3S         -0.01211   0.00820  -0.02636   0.00015  -0.00359
  36 6   H  1S         -0.02047  -0.01479  -0.00930  -0.00063  -0.01562
  37        2S         -0.03182  -0.03568  -0.01091  -0.00003  -0.02099
  38        3S         -0.01259  -0.02657  -0.00639   0.00007  -0.00443
                          11        12        13        14        15
  11        4PX         0.06026
  12        4PY        -0.00906   0.05134
  13        4PZ        -0.00117  -0.00184   0.14289
  14 2   H  1S          0.03371  -0.05422  -0.00078   0.08147
  15        2S          0.04872  -0.07508  -0.00022   0.10979   0.15007
  16        3S          0.02125  -0.02786   0.00022   0.03691   0.05273
  17 3   H  1S         -0.06318   0.00145  -0.00096  -0.01309  -0.02486
  18        2S         -0.08765   0.00413  -0.00045  -0.02490  -0.04346
  19        3S         -0.03371   0.00457   0.00013  -0.01834  -0.02784
  20 4   C  1S         -0.00310  -0.00571  -0.00054   0.00423   0.00672
  21        2S         -0.00644  -0.01168  -0.00087   0.00700   0.01124
  22        2PX        -0.01293  -0.02010   0.00081   0.00178  -0.00274
  23        2PY        -0.01999  -0.03706   0.00172   0.01145   0.02418
  24        2PZ        -0.00072  -0.00096   0.09580  -0.00046  -0.00014
  25        3S          0.02283   0.04112   0.00257  -0.02110  -0.03386
  26        3PX        -0.01974  -0.02848   0.00108   0.00103  -0.00715
  27        3PY        -0.02811  -0.05399   0.00237   0.01706   0.03628
  28        3PZ        -0.00118  -0.00159   0.15342  -0.00067  -0.00015
  29        4S          0.00773   0.01483   0.00314  -0.01761  -0.02415
  30        4PX        -0.01459  -0.01251   0.00101  -0.00161  -0.00833
  31        4PY        -0.01270  -0.02948   0.00228   0.01492   0.02660
  32        4PZ        -0.00137  -0.00198   0.14297  -0.00037   0.00023
  33 5   H  1S          0.00176  -0.01602  -0.00030   0.01120   0.02327
  34        2S          0.00889  -0.02786   0.00040   0.02385   0.04440
  35        3S          0.00741  -0.01597   0.00028   0.01668   0.02786
  36 6   H  1S         -0.01413  -0.00572  -0.00033  -0.00922  -0.01845
  37        2S         -0.02758  -0.00520   0.00033  -0.01899  -0.03458
  38        3S         -0.01699  -0.00124   0.00023  -0.01019  -0.01775
                          16        17        18        19        20
  16        3S          0.02115
  17 3   H  1S         -0.01829   0.08233
  18        2S         -0.02774   0.10976   0.14850
  19        3S         -0.01313   0.03624   0.05136   0.02043
  20 4   C  1S          0.00367   0.00427   0.00659   0.00360   0.65946
  21        2S          0.00543   0.00704   0.01097   0.00527   0.56156
  22        2PX        -0.00346   0.00920   0.02251   0.01683   0.00112
  23        2PY         0.01756   0.00753   0.00964   0.00549   0.00171
  24        2PZ         0.00003  -0.00044  -0.00008   0.00008   0.00007
  25        3S         -0.01416  -0.02104  -0.03280  -0.01348  -0.08921
  26        3PX        -0.00688   0.01444   0.03521   0.02622  -0.00053
  27        3PY         0.02651   0.00950   0.01145   0.00673  -0.00110
  28        3PZ         0.00006  -0.00064  -0.00004   0.00014   0.00015
  29        4S         -0.00582  -0.01697  -0.02253  -0.00496  -0.08006
  30        4PX        -0.00693   0.01426   0.02791   0.01717  -0.00021
  31        4PY         0.01566   0.00676   0.00679   0.00195  -0.00024
  32        4PZ         0.00023  -0.00036   0.00029   0.00027  -0.00005
  33 5   H  1S          0.01615  -0.00893  -0.01803  -0.00946  -0.02026
  34        2S          0.02735  -0.01845  -0.03377  -0.01701  -0.02234
  35        3S          0.01461  -0.00998  -0.01746  -0.00899   0.00059
  36 6   H  1S         -0.00965   0.01120   0.02338   0.01606  -0.01996
  37        2S         -0.01734   0.02364   0.04424   0.02718  -0.02220
  38        3S         -0.00911   0.01650   0.02756   0.01444   0.00051
                          21        22        23        24        25
  21        2S          0.49205
  22        2PX         0.00160   0.08280
  23        2PY         0.00243   0.00366   0.08767
  24        2PZ         0.00010   0.00014   0.00016   0.06425
  25        3S         -0.15419  -0.00522  -0.00802  -0.00012   0.45357
  26        3PX        -0.00081   0.12870   0.00180   0.00011  -0.00002
  27        3PY        -0.00167   0.00175   0.13141   0.00006   0.00091
  28        3PZ         0.00024   0.00021   0.00025   0.10290  -0.00047
  29        4S         -0.11563   0.01397   0.02384   0.00052   0.27791
  30        4PX        -0.00145   0.07269  -0.00502   0.00039   0.00609
  31        4PY        -0.00234  -0.00487   0.06680   0.00076   0.01030
  32        4PZ        -0.00015   0.00064   0.00119   0.09587   0.00077
  33 5   H  1S         -0.03226  -0.03321   0.06382  -0.00117   0.08629
  34        2S         -0.03568  -0.04911   0.08860  -0.00096   0.09544
  35        3S         -0.00061  -0.02217   0.03341  -0.00013   0.00564
  36 6   H  1S         -0.03181   0.07134   0.00216  -0.00093   0.08506
  37        2S         -0.03550   0.10133   0.00049  -0.00064   0.09502
  38        3S         -0.00075   0.04036  -0.00297  -0.00000   0.00600
                          26        27        28        29        30
  26        3PX         0.20037
  27        3PY        -0.00289   0.19750
  28        3PZ         0.00015   0.00009   0.16478
  29        4S          0.02554   0.04314   0.00064   0.18607
  30        4PX         0.11360  -0.01062   0.00061   0.01549   0.06549
  31        4PY        -0.01032   0.10092   0.00121   0.02552  -0.01001
  32        4PZ         0.00081   0.00153   0.15353   0.00169   0.00092
  33 5   H  1S         -0.05309   0.09992  -0.00192   0.06758  -0.03396
  34        2S         -0.07894   0.13825  -0.00159   0.07798  -0.05098
  35        3S         -0.03607   0.05150  -0.00020   0.00941  -0.02349
  36 6   H  1S          0.11259   0.00244  -0.00156   0.06739   0.06536
  37        2S          0.15970  -0.00123  -0.00110   0.07886   0.09315
  38        3S          0.06329  -0.00621  -0.00001   0.01025   0.03725
                          31        32        33        34        35
  31        4PY         0.05302
  32        4PZ         0.00189   0.14307
  33 5   H  1S          0.05550  -0.00100   0.08102
  34        2S          0.07685  -0.00047   0.10993   0.15158
  35        3S          0.02867   0.00009   0.03772   0.05456   0.02245
  36 6   H  1S         -0.00211  -0.00082  -0.01255  -0.02592  -0.01974
  37        2S         -0.00619  -0.00023  -0.02594  -0.04768  -0.03111
  38        3S         -0.00607   0.00018  -0.01980  -0.03109  -0.01525
                          36        37        38
  36 6   H  1S          0.08023
  37        2S          0.10982   0.15265
  38        3S          0.03812   0.05545   0.02289
    Full Mulliken population analysis:
                           1         2         3         4         5
   1 1   C  1S          0.65941
   2        2S          0.49327   0.49203
   3        2PX         0.00000   0.00000   0.08429
   4        2PY         0.00000   0.00000   0.00000   0.08780
   5        2PZ         0.00000   0.00000   0.00000   0.00000   0.06437
   6        3S         -0.02929  -0.06446   0.00000   0.00000   0.00000
   7        3PX         0.00000   0.00000   0.08212   0.00000   0.00000
   8        3PY         0.00000   0.00000   0.00000   0.08261   0.00000
   9        3PZ         0.00000   0.00000   0.00000   0.00000   0.06509
  10        4S         -0.01221  -0.02140   0.00000   0.00000   0.00000
  11        4PX         0.00000   0.00000   0.01551   0.00000   0.00000
  12        4PY         0.00000   0.00000   0.00000   0.01448   0.00000
  13        4PZ         0.00000   0.00000   0.00000   0.00000   0.02112
  14 2   H  1S         -0.00023  -0.00033   0.00184   0.00565   0.00000
  15        2S         -0.00166  -0.00318   0.00438   0.01321   0.00000
  16        3S          0.00005  -0.00007   0.00071   0.00190  -0.00000
  17 3   H  1S         -0.00025  -0.00036   0.00784   0.00001   0.00000
  18        2S         -0.00173  -0.00330   0.01771   0.00001   0.00000
  19        3S          0.00005  -0.00006   0.00257  -0.00000   0.00000
  20 4   C  1S          0.00000   0.00000  -0.00002  -0.00006   0.00000
  21        2S          0.00000  -0.00000  -0.00002  -0.00005   0.00000
  22        2PX        -0.00002  -0.00002   0.00011   0.00085   0.00000
  23        2PY        -0.00006  -0.00005   0.00085   0.00196   0.00000
  24        2PZ        -0.00000  -0.00000  -0.00000  -0.00000   0.00041
  25        3S         -0.00059  -0.00099   0.00249   0.00760  -0.00000
  26        3PX        -0.00055  -0.00100   0.00019   0.00557   0.00000
  27        3PY        -0.00163  -0.00299   0.00547   0.01069   0.00000
  28        3PZ        -0.00000  -0.00000  -0.00000  -0.00000   0.00610
  29        4S          0.00033   0.00029   0.00091   0.00283  -0.00000
  30        4PX        -0.00018  -0.00046  -0.00071   0.00146   0.00000
  31        4PY        -0.00053  -0.00135   0.00146   0.00097   0.00000
  32        4PZ        -0.00000  -0.00000  -0.00000  -0.00000   0.00902
  33 5   H  1S          0.00000   0.00000  -0.00000  -0.00000   0.00000
  34        2S          0.00001   0.00002   0.00000  -0.00032   0.00000
  35        3S          0.00008   0.00013   0.00001  -0.00071  -0.00000
  36 6   H  1S          0.00000   0.00000  -0.00000  -0.00000   0.00000
  37        2S          0.00001   0.00002  -0.00024  -0.00007   0.00000
  38        3S          0.00008   0.00013  -0.00057  -0.00012  -0.00000
                           6         7         8         9        10
   6        3S          0.45279
   7        3PX         0.00000   0.20246
   8        3PY         0.00000   0.00000   0.19686
   9        3PZ         0.00000   0.00000   0.00000   0.16633
  10        4S          0.21198   0.00000   0.00000   0.00000   0.18194
  11        4PX         0.00000   0.07159   0.00000   0.00000   0.00000
  12        4PY         0.00000   0.00000   0.06469   0.00000   0.00000
  13        4PZ         0.00000   0.00000   0.00000   0.10074   0.00000
  14 2   H  1S          0.01611   0.01091   0.03242   0.00001   0.01815
  15        2S          0.04107   0.01986   0.05755   0.00001   0.04636
  16        3S          0.00282   0.00404   0.01019  -0.00000   0.00817
  17 3   H  1S          0.01687   0.04416   0.00002   0.00002   0.01850
  18        2S          0.04222   0.07727   0.00001   0.00002   0.04653
  19        3S          0.00279   0.01394  -0.00002   0.00000   0.00764
  20 4   C  1S         -0.00059  -0.00056  -0.00171   0.00000   0.00032
  21        2S         -0.00100  -0.00103  -0.00314   0.00000   0.00029
  22        2PX         0.00245   0.00019   0.00555   0.00000   0.00084
  23        2PY         0.00730   0.00547   0.01063   0.00000   0.00246
  24        2PZ         0.00000  -0.00000  -0.00000   0.00612   0.00000
  25        3S          0.02172   0.01313   0.04009  -0.00000   0.00048
  26        3PX         0.01278  -0.00126   0.01868   0.00000   0.00428
  27        3PY         0.03798   0.01827   0.02857   0.00000   0.01243
  28        3PZ         0.00000  -0.00000  -0.00000   0.03523   0.00000
  29        4S          0.00072   0.00467   0.01458  -0.00000  -0.02016
  30        4PX         0.00641  -0.00407   0.00591   0.00000   0.00215
  31        4PY         0.01896   0.00587   0.00127   0.00000   0.00593
  32        4PZ         0.00000  -0.00000  -0.00000   0.04925   0.00000
  33 5   H  1S         -0.00005  -0.00000  -0.00019   0.00000  -0.00080
  34        2S         -0.00120   0.00006  -0.00324  -0.00000  -0.00326
  35        3S         -0.00198   0.00011  -0.00425  -0.00000  -0.00129
  36 6   H  1S         -0.00006  -0.00013  -0.00006   0.00000  -0.00084
  37        2S         -0.00124  -0.00261  -0.00054   0.00000  -0.00353
  38        3S         -0.00206  -0.00356  -0.00058  -0.00000  -0.00160
                          11        12        13        14        15
  11        4PX         0.06026
  12        4PY         0.00000   0.05134
  13        4PZ         0.00000   0.00000   0.14289
  14 2   H  1S          0.00637   0.01752   0.00001   0.08147
  15        2S          0.01549   0.04083   0.00000   0.07755   0.15007
  16        3S          0.00529   0.01187  -0.00000   0.01379   0.04160
  17 3   H  1S          0.02367  -0.00001   0.00001  -0.00001  -0.00067
  18        2S          0.05514  -0.00005   0.00001  -0.00068  -0.00554
  19        3S          0.01657  -0.00005  -0.00000  -0.00207  -0.00818
  20 4   C  1S         -0.00018  -0.00058   0.00000   0.00000   0.00002
  21        2S         -0.00046  -0.00144   0.00000   0.00000   0.00003
  22        2PX        -0.00070   0.00139   0.00000  -0.00000   0.00000
  23        2PY         0.00139   0.00096   0.00000  -0.00000  -0.00036
  24        2PZ        -0.00000  -0.00000   0.00901   0.00000   0.00000
  25        3S          0.00641   0.02000  -0.00000  -0.00007  -0.00150
  26        3PX        -0.00405   0.00564   0.00000  -0.00000   0.00004
  27        3PY         0.00557   0.00128   0.00000  -0.00023  -0.00357
  28        3PZ        -0.00000  -0.00000   0.04899   0.00000   0.00000
  29        4S          0.00234   0.00778  -0.00000  -0.00103  -0.00434
  30        4PX        -0.00702   0.00317   0.00000   0.00001   0.00017
  31        4PY         0.00322  -0.00557   0.00000  -0.00237  -0.01003
  32        4PZ        -0.00000  -0.00000   0.08973   0.00000  -0.00000
  33 5   H  1S          0.00002  -0.00238   0.00000   0.00000   0.00000
  34        2S          0.00026  -0.01001  -0.00000   0.00000   0.00016
  35        3S          0.00028  -0.00737  -0.00000   0.00023   0.00147
  36 6   H  1S         -0.00174  -0.00048   0.00000  -0.00000  -0.00005
  37        2S         -0.00823  -0.00106  -0.00000  -0.00005  -0.00096
  38        3S         -0.00651  -0.00032  -0.00000  -0.00047  -0.00252
                          16        17        18        19        20
  16        3S          0.02115
  17 3   H  1S         -0.00206   0.08233
  18        2S         -0.00815   0.07753   0.14850
  19        3S         -0.00686   0.01354   0.04052   0.02043
  20 4   C  1S          0.00009   0.00000   0.00002   0.00009   0.65946
  21        2S          0.00016   0.00000   0.00003   0.00015   0.49330
  22        2PX         0.00001  -0.00000  -0.00027  -0.00058   0.00000
  23        2PY        -0.00074  -0.00000  -0.00008  -0.00013   0.00000
  24        2PZ        -0.00000   0.00000   0.00000  -0.00000   0.00000
  25        3S         -0.00245  -0.00007  -0.00141  -0.00230  -0.02937
  26        3PX         0.00006  -0.00015  -0.00282  -0.00362   0.00000
  27        3PY        -0.00444  -0.00007  -0.00062  -0.00063   0.00000
  28        3PZ        -0.00000   0.00000   0.00000  -0.00000   0.00000
  29        4S         -0.00219  -0.00098  -0.00400  -0.00185  -0.01231
  30        4PX         0.00018  -0.00186  -0.00867  -0.00671   0.00000
  31        4PY        -0.00739  -0.00059  -0.00142  -0.00051   0.00000
  32        4PZ        -0.00000   0.00000  -0.00000  -0.00000   0.00000
  33 5   H  1S          0.00023  -0.00000  -0.00004  -0.00042  -0.00022
  34        2S          0.00144  -0.00004  -0.00087  -0.00232  -0.00161
  35        3S          0.00247  -0.00044  -0.00238  -0.00283   0.00005
  36 6   H  1S         -0.00045   0.00000   0.00000   0.00022  -0.00021
  37        2S         -0.00246   0.00000   0.00015   0.00142  -0.00157
  38        3S         -0.00295   0.00023   0.00144   0.00242   0.00004
                          21        22        23        24        25
  21        2S          0.49205
  22        2PX         0.00000   0.08280
  23        2PY         0.00000   0.00000   0.08767
  24        2PZ         0.00000   0.00000   0.00000   0.06425
  25        3S         -0.06458   0.00000   0.00000   0.00000   0.45357
  26        3PX         0.00000   0.08097   0.00000   0.00000   0.00000
  27        3PY         0.00000   0.00000   0.08267   0.00000   0.00000
  28        3PZ         0.00000   0.00000   0.00000   0.06473   0.00000
  29        4S         -0.02164   0.00000   0.00000   0.00000   0.21530
  30        4PX         0.00000   0.01601   0.00000   0.00000   0.00000
  31        4PY         0.00000   0.00000   0.01471   0.00000   0.00000
  32        4PZ         0.00000   0.00000   0.00000   0.02111   0.00000
  33 5   H  1S         -0.00031   0.00150   0.00576   0.00000   0.01562
  34        2S         -0.00308   0.00380   0.01371   0.00000   0.03985
  35        3S         -0.00006   0.00066   0.00199   0.00000   0.00259
  36 6   H  1S         -0.00029   0.00694   0.00001   0.00000   0.01506
  37        2S         -0.00300   0.01734   0.00000   0.00000   0.03917
  38        3S         -0.00007   0.00269  -0.00001   0.00000   0.00274
                          26        27        28        29        30
  26        3PX         0.20037
  27        3PY         0.00000   0.19750
  28        3PZ         0.00000   0.00000   0.16478
  29        4S          0.00000   0.00000   0.00000   0.18607
  30        4PX         0.07423   0.00000   0.00000   0.00000   0.06549
  31        4PY         0.00000   0.06595   0.00000   0.00000   0.00000
  32        4PZ         0.00000   0.00000   0.10033   0.00000   0.00000
  33 5   H  1S          0.00896   0.03372   0.00002   0.01778   0.00568
  34        2S          0.01719   0.06019   0.00002   0.04476   0.01437
  35        3S          0.00376   0.01073   0.00000   0.00708   0.00520
  36 6   H  1S          0.04179   0.00004   0.00001   0.01758   0.02440
  37        2S          0.07725  -0.00003   0.00001   0.04497   0.05872
  38        3S          0.01476  -0.00007   0.00000   0.00769   0.01848
                          31        32        33        34        35
  31        4PY         0.05302
  32        4PZ         0.00000   0.14307
  33 5   H  1S          0.01857   0.00001   0.08102
  34        2S          0.04333   0.00001   0.07765   0.15158
  35        3S          0.01269  -0.00000   0.01409   0.04304   0.02245
  36 6   H  1S         -0.00004   0.00001  -0.00001  -0.00077  -0.00230
  37        2S         -0.00018   0.00000  -0.00077  -0.00645  -0.00941
  38        3S         -0.00014  -0.00000  -0.00231  -0.00940  -0.00812
                          36        37        38
  36 6   H  1S          0.08023
  37        2S          0.07757   0.15265
  38        3S          0.01424   0.04375   0.02289
     Gross orbital populations:
                           1
   1 1   C  1S          1.10435
   2        2S          0.88586
   3        2PX         0.22689
   4        2PY         0.23628
   5        2PZ         0.16612
   6        3S          0.79304
   7        3PX         0.56088
   8        3PY         0.55591
   9        3PZ         0.42282
  10        4S          0.50333
  11        4PX         0.26049
  12        4PY         0.21164
  13        4PZ         0.41249
  14 2   H  1S          0.27452
  15        2S          0.46732
  16        3S          0.08604
  17 3   H  1S          0.27717
  18        2S          0.46509
  19        3S          0.08320
  20 4   C  1S          1.10440
  21        2S          0.88584
  22        2PX         0.22253
  23        2PY         0.23612
  24        2PZ         0.16565
  25        3S          0.79250
  26        3PX         0.55306
  27        3PY         0.55678
  28        3PZ         0.42022
  29        4S          0.50720
  30        4PX         0.27236
  31        4PY         0.21580
  32        4PZ         0.41252
  33 5   H  1S          0.27312
  34        2S          0.46891
  35        3S          0.08798
  36 6   H  1S          0.27069
  37        2S          0.47065
  38        3S          0.09022
          Condensed to atoms (all electrons):
               1          2          3          4          5          6
     1  C    5.034430   0.387340   0.387716   0.602588  -0.036069  -0.035904
     2  H    0.387340   0.518583  -0.034217  -0.039924   0.006006  -0.009905
     3  H    0.387716  -0.034217   0.514454  -0.039059  -0.009342   0.005898
     4  C    0.602588  -0.039924  -0.039059   5.052941   0.384329   0.384116
     5  H   -0.036069   0.006006  -0.009342   0.384329   0.524624  -0.039539
     6  H   -0.035904  -0.009905   0.005898   0.384116  -0.039539   0.526898
 Mulliken charges:
               1
     1  C   -0.340101
     2  H    0.172117
     3  H    0.174549
     4  C   -0.344991
     5  H    0.169991
     6  H    0.168435
 Sum of Mulliken charges =  -0.00000
 Mulliken charges with hydrogens summed into heavy atoms:
               1
     1  C    0.006565
     4  C   -0.006565
 Electronic spatial extent (au):  <R**2>=             83.6965
 Charge=             -0.0000 electrons
 Dipole moment (field-independent basis, Debye):
    X=              0.0031    Y=              0.0120    Z=             -0.0883  Tot=              0.0892
 Quadrupole moment (field-independent basis, Debye-Ang):
   XX=            -12.1990   YY=            -12.2142   ZZ=            -15.6676
   XY=              0.0163   XZ=              0.0027   YZ=             -0.0055
 Traceless Quadrupole moment (field-independent basis, Debye-Ang):
   XX=              1.1613   YY=              1.1461   ZZ=             -2.3073
   XY=              0.0163   XZ=              0.0027   YZ=             -0.0055
 Octapole moment (field-independent basis, Debye-Ang**2):
  XXX=             -0.3072  YYY=              0.0141  ZZZ=             -0.0670  XYY=              0.1098
  XXY=             -0.0818  XXZ=             -0.1216  XZZ=             -0.0855  YZZ=             -0.0701
  YYZ=             -0.1595  XYZ=             -0.0327
 Hexadecapole moment (field-independent basis, Debye-Ang**3):
 XXXX=            -34.2614 YYYY=            -55.1626 ZZZZ=            -17.8053 XXXY=             -7.2510
 XXXZ=              0.0084 YYYX=            -10.7116 YYYZ=              0.0051 ZZZX=              0.0065
 ZZZY=              0.0285 XXYY=            -16.1863 XXZZ=             -9.9227 YYZZ=            -13.6311
 XXYZ=              0.0088 YYXZ=              0.0003 ZZXY=             -3.2070
 N-N= 3.307467914133D+01 E-N=-2.478635673136D+02  KE= 7.815625505025D+01
 Orbital energies and kinetic energies (alpha):
                                 1                 2
   1         O               -10.290070         15.978248
   2         O               -10.287868         15.980037
   3         O                -0.863659          1.537686
   4         O                -0.672580          1.272387
   5         O                -0.559359          0.942287
   6         O                -0.509421          1.284366
   7         O                -0.437069          1.044896
   8         O                -0.356698          1.038221
   9         V                 0.079745          1.181996
  10         V                 0.141111          0.588131
  11         V                 0.164992          0.593532
  12         V                 0.170392          0.678274
  13         V                 0.240910          0.582003
  14         V                 0.375644          0.859101
  15         V                 0.393468          0.930734
  16         V                 0.397148          0.777259
  17         V                 0.464707          1.190920
  18         V                 0.488258          1.425910
  19         V                 0.493912          1.301866
  20         V                 0.591047          1.652161
  21         V                 0.665913          1.573159
  22         V                 0.691532          2.147619
  23         V                 0.773133          2.413227
  24         V                 0.775741          2.330365
  25         V                 0.843400          1.088176
  26         V                 0.951666          3.421259
  27         V                 2.231624          3.924384
  28         V                 2.290037          4.031484
  29         V                 2.332781          4.303699
  30         V                 2.407534          4.522409
  31         V                 2.671149          6.300837
  32         V                 2.817985          6.306651
  33         V                 2.878705          6.136282
  34         V                 2.952008          6.225522
  35         V                 3.140044          6.822021
  36         V                 3.320376          6.401882
  37         V                23.353002         60.074828
  38         V                23.705672         60.203475
 Total kinetic energy from orbitals= 7.815625505025D+01
 Calling FoFJK, ICntrl=      2127 FMM=F ISym2X=0 I1Cent= 0 IOpClX= 0 NMat=1 NMatS=1 NMatT=0.
 -------------------------------------------------------------------
 Center     Atomic                   Forces (Hartrees/Bohr)
 Number     Number              X              Y              Z
 -------------------------------------------------------------------
      1        6           0.011767546    0.007854449   -0.003447827
      2        1          -0.008161282    0.005291463    0.001752105
      3        1           0.003288833   -0.002813143    0.001650078
      4        6           0.007321459    0.005352225   -0.003931475
      5        1           0.002200852   -0.012051558    0.001963187
      6        1          -0.016417407   -0.003633435    0.002013934
 -------------------------------------------------------------------
 Cartesian Forces:  Max     0.016417407 RMS     0.006950689

 GradGradGradGradGradGradGradGradGradGradGradGradGradGradGradGradGradGrad
 Berny optimization.
 Search for a local minimum.
 Step number   1 out of a maximum of    2
 All quantities printed in internal units (Hartrees-Bohrs-Radians)
 Second derivative matrix not updated -- first step.
 The second derivative matrix:
                          X1        Y1        Z1        X2        Y2
           X1           0.75787
           Y1           0.10042   0.85845
           Z1           0.00564   0.00785   0.17186
           X2          -0.16462   0.09695   0.00175   0.14251
           Y2           0.10326  -0.28440  -0.00638  -0.11620   0.27318
           Z2           0.00281  -0.00804  -0.05477  -0.00253   0.00660
           X3          -0.35122  -0.00504  -0.00743  -0.00072  -0.00041
           Y3          -0.01155  -0.11022  -0.00179   0.03242   0.01893
           Z3          -0.00942  -0.00174  -0.05683   0.00129   0.00048
           X4          -0.26678  -0.17805  -0.00088   0.02283   0.01334
           Y4          -0.17782  -0.47211  -0.00132  -0.01318  -0.00770
           Z4           0.00097   0.00191  -0.09419  -0.00052  -0.00071
           X5           0.02352  -0.01358   0.00058  -0.00001   0.00000
           Y5           0.01175  -0.00678   0.00081   0.00000  -0.00000
           Z5          -0.00045   0.00027   0.01764   0.00021  -0.00012
           X6           0.00122  -0.00070   0.00034  -0.00000   0.00000
           Y6          -0.02607   0.01505   0.00083   0.00000  -0.00000
           Z6           0.00045  -0.00025   0.01628  -0.00021   0.00011
                          Z2        X3        Y3        Z3        X4
           Z2           0.02854
           X3          -0.00030   0.35138
           Y3           0.00144   0.00577   0.07591
           Z3           0.01056   0.00813   0.00125   0.02964
           X4           0.00047   0.00057  -0.02666  -0.00047   0.71573
           Y4          -0.00026  -0.00033   0.01539   0.00028   0.11641
           Z4           0.01552  -0.00041  -0.00089   0.01678  -0.00418
           X5          -0.00025  -0.00001   0.00000   0.00025  -0.14781
           Y5           0.00015   0.00000  -0.00000  -0.00015   0.09323
           Z5           0.00926   0.00024  -0.00015  -0.00948  -0.00303
           X6          -0.00022  -0.00001   0.00000   0.00022  -0.32455
           Y6           0.00012   0.00000  -0.00000  -0.00012  -0.01828
           Z6          -0.00911  -0.00024   0.00014   0.00933   0.00809
                          Y4        Z4        X5        Y5        Z5
           Y4           0.86054
           Z4          -0.00915   0.17505
           X5           0.08512  -0.00202   0.12585
           Y5          -0.29160   0.00711  -0.10423   0.28209
           Z5           0.00877  -0.05745   0.00272  -0.00757   0.02975
           X6          -0.01021   0.00616  -0.00154  -0.00076   0.00029
           Y6          -0.10451   0.00172   0.03268   0.01630  -0.00120
           Z6           0.00168  -0.05571  -0.00129  -0.00034   0.01027
                          X6        Y6        Z6
           X6           0.32488
           Y6           0.01167   0.07316
           Z6          -0.00680  -0.00134   0.02894
 ITU=  0
     Eigenvalues ---    0.03720   0.04390   0.09284   0.10024   0.13524
     Eigenvalues ---    0.17518   0.26389   0.29049   0.53085   0.70437
     Eigenvalues ---    0.97599   1.56178
 Angle between quadratic step and forces=  33.81 degrees.
 Linear search not attempted -- first point.
 B after Tr=     0.006269    0.004742   -0.009035
         Rot=    1.000000   -0.000009    0.000006   -0.000105 Ang=  -0.01 deg.
 Variable       Old X    -DE/DX   Delta X   Delta X   Delta X     New X
                                 (Linear)    (Quad)   (Total)
    X1       -0.63499   0.01177   0.00000   0.02019   0.02669  -0.60830
    Y1       -1.09708   0.00785   0.00000   0.01810   0.02271  -1.07436
    Z1        0.01101  -0.00345   0.00000  -0.01878  -0.02784  -0.01683
    X2        0.41034  -0.00816   0.00000  -0.03553  -0.02866   0.38168
    Y2       -2.88443   0.00529   0.00000   0.01405   0.01887  -2.86556
    Z2       -0.03516   0.00175   0.00000   0.02323   0.01415  -0.02101
    X3       -2.68786   0.00329   0.00000   0.02878   0.03529  -2.65258
    Y3       -1.14030  -0.00281   0.00000   0.00201   0.00620  -1.13410
    Z3       -0.04095   0.00165   0.00000   0.02278   0.01369  -0.02727
    X4        0.62982   0.00732   0.00000   0.00574   0.01178   0.64161
    Y4        1.09392   0.00535   0.00000   0.00154   0.00642   1.10034
    Z4        0.00955  -0.00393   0.00000  -0.01862  -0.02763  -0.01808
    X5       -0.30142   0.00220   0.00000  -0.01330  -0.00764  -0.30906
    Y5        2.95614  -0.01205   0.00000  -0.04625  -0.04158   2.91456
    Z5       -0.04505   0.00196   0.00000   0.02313   0.01414  -0.03091
    X6        2.72536  -0.01642   0.00000  -0.04349  -0.03747   2.68790
    Y6        1.19104  -0.00363   0.00000  -0.01793  -0.01262   1.17842
    Z6       -0.03894   0.00201   0.00000   0.02246   0.01348  -0.02546
         Item               Value     Threshold  Converged?
 Maximum Force            0.016417     0.000450     NO 
 RMS     Force            0.006951     0.000300     NO 
 Maximum Displacement     0.041578     0.001800     NO 
 RMS     Displacement     0.023006     0.001200     NO 
 Predicted change in Energy=-1.248781D-03
 GradGradGradGradGradGradGradGradGradGradGradGradGradGradGradGradGradGrad

 Unable to Open any file for archive entry.
 1\1\GINC-BHD0007\Force\RwB97XD\6-311G\C2H4\BWEIGHT\11-Jan-2023\0\\# WB
 97XD/6-311G SCF=XQC FORCE nosym pop=full guess=read\\MD Step 1000\\0,1
 \C,-0.33602136,-0.58054752,0.00582373\H,0.2171403,-1.52637465,-0.01860
 695\H,-1.42235629,-0.60341831,-0.02167217\C,0.33328804,0.5788771,0.005
 05481\H,-0.15950501,1.56432321,-0.02384042\H,1.44219901,0.63027216,-0.
 02060505\\Version=ES64L-G16RevC.01\HF=-78.5561651\RMSD=4.669e-09\RMSF=
 6.951e-03\Dipole=0.0012196,0.0047066,-0.0347523\Quadrupole=0.8633647,0
 .8520709,-1.7154356,0.0121473,0.0019889,-0.0040839\PG=C01 [X(C2H4)]\\@
 The archive entry for this job was punched.


 IF YOU'RE NOT PART OF THE SOLUTION,
 THEN YOU'RE PART OF THE PRECIPITATE.
 Job cpu time:       0 days  0 hours  0 minutes 12.6 seconds.
 Elapsed time:       0 days  0 hours  0 minutes  3.4 seconds.
 File lengths (MBytes):  RWF=    272 Int=      0 D2E=      0 Chk=     32 Scr=     32
 Normal termination of Gaussian 16 at Wed Jan 11 19:43:01 2023.
