 Entering Gaussian System, Link 0=g16
 Initial command:
 /software/gaussian/g16-c01/avx2/g16/l1.exe "/gpfs/fs2/scratch/bweight/software/many_molecule_many_mode_NAMD/src/NAMD/TEST_NVT/TRAJ/traj-40/G16/GS_NEW/Gau-30909.inp" -scrdir="/gpfs/fs2/scratch/bweight/software/many_molecule_many_mode_NAMD/src/NAMD/TEST_NVT/TRAJ/traj-40/G16/GS_NEW/"
 Entering Link 1 = /software/gaussian/g16-c01/avx2/g16/l1.exe PID=     30910.
  
 Copyright (c) 1988-2019, Gaussian, Inc.  All Rights Reserved.
  
 This is part of the Gaussian(R) 16 program.  It is based on
 the Gaussian(R) 09 system (copyright 2009, Gaussian, Inc.),
 the Gaussian(R) 03 system (copyright 2003, Gaussian, Inc.),
 the Gaussian(R) 98 system (copyright 1998, Gaussian, Inc.),
 the Gaussian(R) 94 system (copyright 1995, Gaussian, Inc.),
 the Gaussian 92(TM) system (copyright 1992, Gaussian, Inc.),
 the Gaussian 90(TM) system (copyright 1990, Gaussian, Inc.),
 the Gaussian 88(TM) system (copyright 1988, Gaussian, Inc.),
 the Gaussian 86(TM) system (copyright 1986, Carnegie Mellon
 University), and the Gaussian 82(TM) system (copyright 1983,
 Carnegie Mellon University). Gaussian is a federally registered
 trademark of Gaussian, Inc.
  
 This software contains proprietary and confidential information,
 including trade secrets, belonging to Gaussian, Inc.
  
 This software is provided under written license and may be
 used, copied, transmitted, or stored only in accord with that
 written license.
  
 The following legend is applicable only to US Government
 contracts under FAR:
  
                    RESTRICTED RIGHTS LEGEND
  
 Use, reproduction and disclosure by the US Government is
 subject to restrictions as set forth in subparagraphs (a)
 and (c) of the Commercial Computer Software - Restricted
 Rights clause in FAR 52.227-19.
  
 Gaussian, Inc.
 340 Quinnipiac St., Bldg. 40, Wallingford CT 06492
  
  
 ---------------------------------------------------------------
 Warning -- This program may not be used in any manner that
 competes with the business of Gaussian, Inc. or will provide
 assistance to any competitor of Gaussian, Inc.  The licensee
 of this program is prohibited from giving any competitor of
 Gaussian, Inc. access to this program.  By using this program,
 the user acknowledges that Gaussian, Inc. is engaged in the
 business of creating and licensing software in the field of
 computational chemistry and represents and warrants to the
 licensee that it is not a competitor of Gaussian, Inc. and that
 it will not use this program in any manner prohibited above.
 ---------------------------------------------------------------
  

 Cite this work as:
 Gaussian 16, Revision C.01,
 M. J. Frisch, G. W. Trucks, H. B. Schlegel, G. E. Scuseria, 
 M. A. Robb, J. R. Cheeseman, G. Scalmani, V. Barone, 
 G. A. Petersson, H. Nakatsuji, X. Li, M. Caricato, A. V. Marenich, 
 J. Bloino, B. G. Janesko, R. Gomperts, B. Mennucci, H. P. Hratchian, 
 J. V. Ortiz, A. F. Izmaylov, J. L. Sonnenberg, D. Williams-Young, 
 F. Ding, F. Lipparini, F. Egidi, J. Goings, B. Peng, A. Petrone, 
 T. Henderson, D. Ranasinghe, V. G. Zakrzewski, J. Gao, N. Rega, 
 G. Zheng, W. Liang, M. Hada, M. Ehara, K. Toyota, R. Fukuda, 
 J. Hasegawa, M. Ishida, T. Nakajima, Y. Honda, O. Kitao, H. Nakai, 
 T. Vreven, K. Throssell, J. A. Montgomery, Jr., J. E. Peralta, 
 F. Ogliaro, M. J. Bearpark, J. J. Heyd, E. N. Brothers, K. N. Kudin, 
 V. N. Staroverov, T. A. Keith, R. Kobayashi, J. Normand, 
 K. Raghavachari, A. P. Rendell, J. C. Burant, S. S. Iyengar, 
 J. Tomasi, M. Cossi, J. M. Millam, M. Klene, C. Adamo, R. Cammi, 
 J. W. Ochterski, R. L. Martin, K. Morokuma, O. Farkas, 
 J. B. Foresman, and D. J. Fox, Gaussian, Inc., Wallingford CT, 2019.
 
 ******************************************
 Gaussian 16:  ES64L-G16RevC.01  3-Jul-2019
                11-Jan-2023 
 ******************************************
 %oldchk=../GS_OLD/geometry.chk
 %chk=geometry.chk
 %nprocshared=4
 Will use up to    4 processors via shared memory.
 %mem=5GB
 Copying data from "../GS_OLD/geometry.chk" to current chk file "geometry.chk"
 IOpt=  2 FromEx=T IUOpen= 4 IOptOp= 5 NList=   0 IFRang= 0 IUIn= 4 IUOut= 2.
 -------------------------------------------------------
 # WB97XD/6-311G SCF=XQC FORCE nosym pop=full guess=read
 -------------------------------------------------------
 1/10=7,30=1,38=1/1,3;
 2/12=2,15=1,17=6,18=5,40=1/2;
 3/5=4,6=6,11=2,25=1,30=1,71=1,74=-58,116=-2/1,2,3;
 4/5=1/1;
 5/5=2,8=3,13=1,38=6/2,8;
 6/7=3,28=1/1;
 7/29=1,30=1/1,2,3,16;
 1/10=7,30=1/3;
 99//99;
 ------------
 MD Step 1000
 ------------
 Symbolic Z-matrix:
 Charge =  0 Multiplicity = 1
 C                    -0.33636  -0.58203   0.00492 
 H                     0.21855  -1.5327   -0.015 
 H                    -1.42376  -0.5833   -0.01518 
 C                     0.33344   0.57757   0.00364 
 H                    -0.1618    1.55972  -0.01644 
 H                     1.44084   0.64843  -0.01636 
 

 GradGradGradGradGradGradGradGradGradGradGradGradGradGradGradGradGradGrad
 Berny optimization.
 Initialization pass.
 Trust Radius=3.00D-01 FncErr=1.00D-07 GrdErr=1.00D-07 EigMax=2.50D+02 EigMin=1.00D-04
 Number of steps in this run=      2 maximum allowed number of steps=      2.
 GradGradGradGradGradGradGradGradGradGradGradGradGradGradGradGradGradGrad

                          Input orientation:                          
 ---------------------------------------------------------------------
 Center     Atomic      Atomic             Coordinates (Angstroms)
 Number     Number       Type             X           Y           Z
 ---------------------------------------------------------------------
      1          6           0       -0.336364   -0.582031    0.004917
      2          1           0        0.218546   -1.532701   -0.014996
      3          1           0       -1.423759   -0.583302   -0.015184
      4          6           0        0.333439    0.577570    0.003640
      5          1           0       -0.161803    1.559722   -0.016445
      6          1           0        1.440840    0.648433   -0.016355
 ---------------------------------------------------------------------
                    Distance matrix (angstroms):
                    1          2          3          4          5
     1  C    0.000000
     2  H    1.100952   0.000000
     3  H    1.087582   1.896978   0.000000
     4  C    1.339146   2.113479   2.106116   0.000000
     5  H    2.148961   3.115726   2.486984   1.100133   0.000000
     6  H    2.161700   2.500271   3.118189   1.109846   1.843614
                    6
     6  H    0.000000
 Symmetry turned off by external request.
 Stoichiometry    C2H4
 Framework group  C1[X(C2H4)]
 Deg. of freedom    12
 Full point group                 C1      NOp   1
 Rotational constants (GHZ):         143.2681404          29.6742126          24.5858829
 Standard basis: 6-311G (5D, 7F)
    38 basis functions,    72 primitive gaussians,    38 cartesian basis functions
     8 alpha electrons        8 beta electrons
       nuclear repulsion energy        33.0620302362 Hartrees.
 NAtoms=    6 NActive=    6 NUniq=    6 SFac= 1.00D+00 NAtFMM=   60 NAOKFM=F Big=F
 Integral buffers will be    131072 words long.
 Raffenetti 2 integral format.
 Two-electron integral symmetry is turned off.
 Nuclear repulsion after empirical dispersion term =       33.0611876836 Hartrees.
 One-electron integrals computed using PRISM.
 NBasis=    38 RedAO= T EigKep=  6.45D-03  NBF=    38
 NBsUse=    38 1.00D-06 EigRej= -1.00D+00 NBFU=    38
 Initial guess from the checkpoint file:  "geometry.chk"
 B after Tr=    -0.000241   -0.000350   -0.000365
         Rot=    1.000000   -0.000001    0.000001    0.000005 Ang=  -0.00 deg.
 Keep R1 ints in memory in canonical form, NReq=4036876.
 Requested convergence on RMS density matrix=1.00D-08 within  32 cycles.
 Requested convergence on MAX density matrix=1.00D-06.
 Requested convergence on             energy=1.00D-06.
 No special actions if energy rises.
 SCF Done:  E(RwB97XD) =  -78.5559183597     A.U. after    8 cycles
            NFock=  8  Conv=0.55D-08     -V/T= 2.0052
 QCSCF skips out because SCF is already converged.

 **********************************************************************

            Population analysis using the SCF Density.

 **********************************************************************

 Alpha  occ. eigenvalues --  -10.28979 -10.28855  -0.86358  -0.67233  -0.55947
 Alpha  occ. eigenvalues --   -0.50894  -0.43698  -0.35665
 Alpha virt. eigenvalues --    0.07975   0.14094   0.16484   0.17021   0.24078
 Alpha virt. eigenvalues --    0.37300   0.39387   0.39865   0.46466   0.48800
 Alpha virt. eigenvalues --    0.49391   0.59097   0.66587   0.69125   0.77335
 Alpha virt. eigenvalues --    0.77496   0.84481   0.95125   2.23154   2.29078
 Alpha virt. eigenvalues --    2.33224   2.40753   2.67096   2.81824   2.87753
 Alpha virt. eigenvalues --    2.95243   3.13986   3.32074  23.35266  23.70518
     Molecular Orbital Coefficients:
                           1         2         3         4         5
                           O         O         O         O         O
     Eigenvalues --   -10.28979 -10.28855  -0.86358  -0.67233  -0.55947
   1 1   C  1S          0.21408   0.52115  -0.08813   0.06708  -0.00053
   2        2S          0.17638   0.42884  -0.13930   0.10743  -0.00087
   3        2PX         0.00015  -0.00005   0.02585   0.03608   0.13690
   4        2PY         0.00027  -0.00007   0.04657   0.05878  -0.07366
   5        2PZ        -0.00000  -0.00000  -0.00083   0.00122   0.00010
   6        3S          0.00473   0.01382   0.37370  -0.29324   0.00242
   7        3PX        -0.00050   0.00054   0.03416   0.05789   0.21459
   8        3PY        -0.00085   0.00097   0.06129   0.09549  -0.11631
   9        3PZ        -0.00001  -0.00002  -0.00139   0.00218   0.00015
  10        4S          0.00016  -0.01500   0.19173  -0.22720   0.00218
  11        4PX         0.00113  -0.00181   0.00483   0.02305   0.11142
  12        4PY         0.00194  -0.00315   0.00882   0.03980  -0.06140
  13        4PZ         0.00001   0.00005  -0.00049   0.00109   0.00007
  14 2   H  1S         -0.00005  -0.00004   0.05193  -0.08689   0.10176
  15        2S         -0.00027   0.00016   0.05343  -0.10504   0.12899
  16        3S          0.00115   0.00146  -0.00177  -0.01495   0.04160
  17 3   H  1S         -0.00006  -0.00006   0.05366  -0.09056  -0.10472
  18        2S         -0.00027   0.00015   0.05451  -0.10864  -0.13174
  19        3S          0.00118   0.00150  -0.00175  -0.01598  -0.04246
  20 4   C  1S          0.52109  -0.21426  -0.08705  -0.06814  -0.00031
  21        2S          0.42894  -0.17615  -0.13747  -0.10928  -0.00050
  22        2PX        -0.00005  -0.00016  -0.02754   0.03793   0.11874
  23        2PY        -0.00008  -0.00028  -0.04615   0.06792  -0.07401
  24        2PZ        -0.00000   0.00000  -0.00065  -0.00129   0.00010
  25        3S          0.01305  -0.00632   0.36829   0.29864   0.00140
  26        3PX        -0.00005   0.00075  -0.03466   0.06136   0.18584
  27        3PY        -0.00006   0.00130  -0.05784   0.10917  -0.11486
  28        3PZ        -0.00002   0.00000  -0.00112  -0.00231   0.00015
  29        4S         -0.01027   0.01074   0.18916   0.23663   0.00034
  30        4PX         0.00047  -0.00205  -0.00550   0.02692   0.10204
  31        4PY         0.00075  -0.00355  -0.00888   0.04614  -0.06201
  32        4PZ         0.00004  -0.00002  -0.00046  -0.00118   0.00007
  33 5   H  1S         -0.00008  -0.00002   0.05059   0.09414  -0.09058
  34        2S         -0.00008  -0.00031   0.05151   0.11203  -0.11397
  35        3S          0.00181  -0.00024  -0.00105   0.01689  -0.03658
  36 6   H  1S         -0.00006  -0.00003   0.04915   0.09223   0.08640
  37        2S         -0.00009  -0.00031   0.05073   0.11025   0.10916
  38        3S          0.00176  -0.00022  -0.00112   0.01623   0.03529
                           6         7         8         9        10
                           O         O         O         V         V
     Eigenvalues --    -0.50894  -0.43698  -0.35665   0.07975   0.14094
   1 1   C  1S         -0.00335   0.00017  -0.00065   0.00173  -0.03407
   2        2S         -0.00497   0.00029  -0.00105   0.00287  -0.05467
   3        2PX         0.09500  -0.11112  -0.00210   0.00091  -0.03200
   4        2PY         0.16821   0.06638  -0.00360   0.00161  -0.06494
   5        2PZ         0.00318   0.00001   0.17943  -0.18922  -0.00174
   6        3S          0.01945  -0.00054   0.00308  -0.00867   0.11932
   7        3PX         0.13799  -0.17738  -0.00297   0.00138  -0.03762
   8        3PY         0.24593   0.10667  -0.00508   0.00239  -0.07997
   9        3PZ         0.00506   0.00004   0.28836  -0.27809  -0.00273
  10        4S         -0.05464  -0.00345   0.00439  -0.01032   1.23648
  11        4PX         0.06953  -0.11060  -0.00244   0.00777  -0.19603
  12        4PY         0.12505   0.06674  -0.00423   0.01352  -0.38507
  13        4PZ         0.00289   0.00005   0.26725  -0.69516  -0.01004
  14 2   H  1S         -0.08085  -0.11534   0.00007   0.00270  -0.01771
  15        2S         -0.11232  -0.17846   0.00124   0.00434  -0.04819
  16        3S         -0.04205  -0.08262   0.00073   0.01144  -0.84151
  17 3   H  1S         -0.07947   0.11296   0.00005   0.00272  -0.01405
  18        2S         -0.10972   0.17371   0.00123   0.00436  -0.03982
  19        3S         -0.04077   0.08003   0.00073   0.01118  -0.78255
  20 4   C  1S         -0.00868  -0.00047  -0.00049  -0.00162  -0.03565
  21        2S         -0.01362  -0.00077  -0.00080  -0.00268  -0.05724
  22        2PX        -0.09796   0.12464   0.00213   0.00107   0.04000
  23        2PY        -0.16197  -0.07355   0.00379   0.00183   0.06094
  24        2PZ         0.00337   0.00008   0.17913   0.18950  -0.00170
  25        3S          0.04376   0.00217   0.00235   0.00807   0.12615
  26        3PX        -0.14510   0.19931   0.00299   0.00164   0.04912
  27        3PY        -0.23823  -0.11663   0.00532   0.00283   0.07252
  28        3PZ         0.00532   0.00011   0.28687   0.27804  -0.00260
  29        4S         -0.02668   0.00311   0.00407   0.00858   1.23194
  30        4PX        -0.07586   0.12701   0.00229   0.00824   0.26054
  31        4PY        -0.12329  -0.07395   0.00414   0.01413   0.41185
  32        4PZ         0.00307   0.00006   0.26765   0.69610  -0.01017
  33 5   H  1S         -0.07389  -0.12474   0.00015  -0.00245  -0.01155
  34        2S         -0.10070  -0.19378   0.00131  -0.00400  -0.03717
  35        3S         -0.03765  -0.09078   0.00075  -0.01044  -0.81525
  36 6   H  1S         -0.07980   0.12404   0.00012  -0.00247  -0.01498
  37        2S         -0.10920   0.19386   0.00129  -0.00411  -0.04573
  38        3S         -0.04098   0.09096   0.00073  -0.01077  -0.87452
                          11        12        13        14        15
                           V         V         V         V         V
     Eigenvalues --     0.16484   0.17021   0.24078   0.37300   0.39387
   1 1   C  1S          0.00093  -0.04515   0.00018   0.00954   0.00108
   2        2S          0.00150  -0.07358   0.00027   0.01305   0.00165
   3        2PX         0.09762  -0.01945   0.09962  -0.03652  -0.02398
   4        2PY        -0.05475  -0.03682  -0.05698  -0.06595   0.01067
   5        2PZ         0.00005  -0.00417  -0.00001  -0.00298  -0.00012
   6        3S         -0.00319   0.16656   0.00020   0.03227   0.00168
   7        3PX         0.13955  -0.01114   0.10547  -0.04581  -0.10529
   8        3PY        -0.07922  -0.02409  -0.06142  -0.08780   0.05224
   9        3PZ         0.00006  -0.00579  -0.00003  -0.00613  -0.00011
  10        4S         -0.04550   1.41776  -0.03363  -2.57567  -0.21476
  11        4PX         0.58426  -0.11150   1.16325  -1.55419  -0.54496
  12        4PY        -0.31849  -0.20332  -0.67147  -2.69842   0.12514
  13        4PZ         0.00041  -0.02717   0.00023  -0.02638  -0.00155
  14 2   H  1S         -0.02941  -0.02569   0.01309  -0.05897   0.07621
  15        2S         -0.08016  -0.01875  -0.02624  -0.67003   0.77638
  16        3S         -1.03640  -0.99428  -1.52848  -0.29307  -0.33840
  17 3   H  1S          0.02835  -0.02554  -0.01527  -0.05196  -0.07614
  18        2S          0.07850  -0.02106   0.01979  -0.61222  -0.76315
  19        3S          1.09455  -0.99807   1.56758  -0.37222   0.25613
  20 4   C  1S          0.00127   0.04285  -0.00019  -0.01977  -0.00021
  21        2S          0.00203   0.06975  -0.00033  -0.03243  -0.00023
  22        2PX         0.10046  -0.02425  -0.10054  -0.04031  -0.03185
  23        2PY        -0.06040  -0.03756   0.05765  -0.07265   0.01164
  24        2PZ         0.00008   0.00403   0.00002   0.00209   0.00025
  25        3S         -0.00405  -0.15479   0.00034   0.04146  -0.00121
  26        3PX         0.14430  -0.01944  -0.11398  -0.09152  -0.11158
  27        3PY        -0.08568  -0.02708   0.06395  -0.16765   0.05327
  28        3PZ         0.00011   0.00555   0.00005   0.00245   0.00056
  29        4S         -0.05890  -1.36059   0.02562   3.27516   0.17285
  30        4PX         0.53648  -0.12687  -1.13204  -1.15400  -0.58022
  31        4PY        -0.32847  -0.20037   0.64967  -2.03864   0.08855
  32        4PZ         0.00056   0.02632  -0.00018   0.02233   0.00205
  33 5   H  1S          0.03088   0.02443   0.00668   0.00980  -0.07949
  34        2S          0.06782   0.02066  -0.03326   0.05511  -0.78311
  35        3S          1.07957   0.94658  -1.54288   0.45073   0.46268
  36 6   H  1S         -0.03115   0.02530  -0.00531   0.00389   0.08822
  37        2S         -0.06876   0.02044   0.03502   0.00493   0.90034
  38        3S         -1.00021   0.96773   1.51620   0.46472  -0.43751
                          16        17        18        19        20
                           V         V         V         V         V
     Eigenvalues --     0.39865   0.46466   0.48800   0.49391   0.59097
   1 1   C  1S         -0.01854   0.01105   0.04711  -0.00029  -0.00035
   2        2S         -0.03252   0.02660   0.07905  -0.00033  -0.00062
   3        2PX         0.02715  -0.06133  -0.01481   0.00082   0.00130
   4        2PY         0.05000  -0.10548  -0.01886   0.00121   0.00195
   5        2PZ         0.00020  -0.00032  -0.00341  -0.15210  -0.19240
   6        3S          0.07510  -0.33424  -0.10537  -0.00553  -0.00027
   7        3PX         0.10218  -0.24410   0.02414   0.00037   0.00431
   8        3PY         0.19380  -0.41746   0.05539   0.00008   0.00658
   9        3PZ        -0.00226  -0.00268  -0.01540  -0.62908  -0.68424
  10        4S          2.67792   0.20799  -3.10198   0.06238   0.04239
  11        4PX         0.25155   0.25491  -0.80720   0.01981   0.01408
  12        4PY         0.47896   0.48568  -1.41646   0.03564   0.02310
  13        4PZ        -0.00140  -0.00054   0.05621   0.68743   1.23981
  14 2   H  1S         -0.02548  -0.03537   0.07548  -0.00174  -0.00107
  15        2S         -0.52414  -0.33757   0.89278  -0.01675  -0.00788
  16        3S          0.31375   0.09189  -0.65302   0.02041   0.01470
  17 3   H  1S         -0.03384  -0.03878   0.07267  -0.00170  -0.00099
  18        2S         -0.60105  -0.37989   0.86760  -0.01656  -0.00637
  19        3S          0.33262   0.09434  -0.61005   0.01963   0.01421
  20 4   C  1S         -0.00051  -0.00121  -0.05086   0.00197   0.00044
  21        2S         -0.00441   0.00568  -0.08823   0.00356   0.00081
  22        2PX         0.00860   0.05505  -0.02546   0.00003   0.00129
  23        2PY         0.01799   0.09625  -0.04823   0.00013   0.00245
  24        2PZ        -0.00225  -0.00102  -0.00347  -0.15263   0.19228
  25        3S          0.07808  -0.29275   0.22023  -0.01336  -0.00146
  26        3PX        -0.04342   0.23507  -0.04763  -0.00013   0.00456
  27        3PY        -0.06230   0.41415  -0.08924  -0.00013   0.00846
  28        3PZ        -0.00637  -0.00431  -0.01296  -0.63127   0.68276
  29        4S         -0.87500   0.68290   3.14608  -0.07641  -0.03827
  30        4PX         1.24608  -0.33245  -0.63457   0.01172   0.01245
  31        4PY         2.26770  -0.53595  -1.06599   0.01900   0.02281
  32        4PZ        -0.02072  -0.00929  -0.02120   0.69212  -1.23774
  33 5   H  1S         -0.04855  -0.06258  -0.06523   0.00158   0.00096
  34        2S         -0.85179  -0.64268  -0.82799   0.02355   0.00380
  35        3S         -0.20074   0.24798   0.54650  -0.00729  -0.01407
  36 6   H  1S         -0.03928  -0.06010  -0.06635   0.00164   0.00101
  37        2S         -0.74945  -0.60751  -0.82776   0.02351   0.00471
  38        3S         -0.22778   0.26011   0.57703  -0.00829  -0.01426
                          21        22        23        24        25
                           V         V         V         V         V
     Eigenvalues --     0.66587   0.69125   0.77335   0.77496   0.84481
   1 1   C  1S          0.00083  -0.00039   0.05431   0.07048   0.00080
   2        2S          0.00170  -0.00094   0.11471   0.15031   0.00180
   3        2PX        -0.13836   0.19368  -0.02090   0.11523  -0.00861
   4        2PY         0.08118  -0.11652  -0.03681   0.18762   0.01169
   5        2PZ        -0.00002   0.00009   0.00053   0.00301   0.00011
   6        3S         -0.01337   0.01529  -0.78735  -1.30944  -0.01702
   7        3PX        -0.63488   0.67414  -0.15573   0.45084  -0.22801
   8        3PY         0.36888  -0.40529  -0.27325   0.72713   0.15826
   9        3PZ        -0.00012   0.00038   0.00198   0.01048   0.00051
  10        4S          0.02648  -0.08995   0.84579   2.41644  -0.09038
  11        4PX         1.09978  -0.77387   0.12650  -0.74207   4.49848
  12        4PY        -0.64136   0.45642   0.18354  -1.02460  -2.61487
  13        4PZ        -0.00000   0.00071   0.00409  -0.03454   0.00093
  14 2   H  1S          0.02524  -0.05794   0.01183   0.03214  -0.02736
  15        2S          0.15467  -0.61314   0.07816   0.08023  -1.57160
  16        3S         -1.06716   1.07088  -0.13661  -1.09499  -1.21984
  17 3   H  1S         -0.02464   0.05760   0.01160   0.03313   0.03011
  18        2S         -0.16902   0.65229   0.09416   0.06036   1.61240
  19        3S          1.05671  -1.04509  -0.13450  -1.22986   1.22679
  20 4   C  1S          0.00107  -0.00058   0.08551   0.02774   0.00079
  21        2S          0.00216  -0.00108   0.18201   0.05820   0.00166
  22        2PX        -0.14598  -0.18996  -0.09441   0.05691   0.00888
  23        2PY         0.08345   0.10554  -0.17007   0.10417   0.00056
  24        2PZ         0.00002  -0.00009   0.00312  -0.00079  -0.00012
  25        3S         -0.01476   0.00029  -1.51055  -0.31281  -0.01151
  26        3PX        -0.66611  -0.64999  -0.34021   0.29503   0.22915
  27        3PY         0.38327   0.35900  -0.61656   0.53580  -0.10281
  28        3PZ         0.00001  -0.00034   0.01103  -0.00300  -0.00047
  29        4S          0.01008   0.06280   2.66758   0.00544   0.07086
  30        4PX         1.27256   0.79025   0.51994  -0.28472  -4.20937
  31        4PY        -0.72398  -0.44909   0.98786  -0.70553   2.35890
  32        4PZ         0.00000  -0.00053  -0.03125   0.01715  -0.00033
  33 5   H  1S         -0.02369  -0.05602   0.03452   0.00127  -0.02380
  34        2S         -0.12639  -0.57185   0.08819   0.06826  -1.42825
  35        3S          1.09410   1.02628  -1.15230   0.34335  -1.10896
  36 6   H  1S          0.02425   0.05562   0.03412   0.00219   0.02411
  37        2S          0.12184   0.53510   0.08295   0.02285   1.41367
  38        3S         -1.09787  -1.03432  -1.09215   0.27442   1.11388
                          26        27        28        29        30
                           V         V         V         V         V
     Eigenvalues --     0.95125   2.23154   2.29078   2.33224   2.40753
   1 1   C  1S          0.09579  -0.00986  -0.01431   0.00036  -0.00048
   2        2S          0.19905   0.00189  -0.01399   0.00090  -0.00047
   3        2PX        -0.09097  -0.07953  -0.13334   0.34738  -0.40589
   4        2PY        -0.15780  -0.14738  -0.22943  -0.19915   0.23363
   5        2PZ         0.00015  -0.00843  -0.01156  -0.00013  -0.00034
   6        3S         -1.54347  -0.18586  -0.03883  -0.00244  -0.00504
   7        3PX        -0.23181   0.07674   0.20990  -0.41878   0.56587
   8        3PY        -0.39396   0.15630   0.37635   0.24282  -0.32911
   9        3PZ        -0.00148   0.00853   0.01440   0.00022   0.00037
  10        4S          5.71281  -0.09934  -0.88142   0.00059  -0.03575
  11        4PX         1.19824   0.05461  -0.19331  -0.05213   0.97907
  12        4PY         1.98688   0.06477  -0.35648   0.02137  -0.55238
  13        4PZ        -0.01211   0.00183   0.00505  -0.00018   0.00066
  14 2   H  1S          0.01572  -0.70519  -0.79474  -0.71521   0.64557
  15        2S         -0.29089   1.00022   1.19023   1.10427  -1.44993
  16        3S         -0.09419  -0.30468  -0.47555  -0.47548   0.36343
  17 3   H  1S          0.01588  -0.69982  -0.79523   0.70076  -0.66747
  18        2S         -0.26074   0.99588   1.19301  -1.08773   1.49593
  19        3S         -0.08073  -0.28244  -0.46251   0.46108  -0.35635
  20 4   C  1S         -0.09398  -0.01074   0.01247   0.00046   0.00031
  21        2S         -0.19493  -0.00045   0.01273   0.00069   0.00047
  22        2PX        -0.09219   0.13347  -0.12302   0.30293   0.41995
  23        2PY        -0.15880   0.23326  -0.20620  -0.17515  -0.23805
  24        2PZ         0.00022  -0.00907   0.01082   0.00008   0.00007
  25        3S          1.50729  -0.16770   0.01751  -0.00036   0.00040
  26        3PX        -0.22570  -0.16918   0.21097  -0.37521  -0.58805
  27        3PY        -0.39483  -0.29046   0.34690   0.21449   0.33213
  28        3PZ         0.00230   0.00967  -0.01381  -0.00007  -0.00010
  29        4S         -5.69372  -0.17956   0.89170   0.01580   0.02044
  30        4PX         1.10627  -0.01523  -0.19463   0.10873  -0.87578
  31        4PY         1.98263  -0.03616  -0.31924  -0.06231   0.50354
  32        4PZ         0.00749   0.00296  -0.00397  -0.00011  -0.00048
  33 5   H  1S         -0.01767  -0.79258   0.67202   0.69919   0.69313
  34        2S          0.28845   1.15196  -1.02607  -1.01443  -1.47593
  35        3S          0.06659  -0.35350   0.39849   0.50358   0.42449
  36 6   H  1S         -0.01766  -0.78414   0.69707  -0.68573  -0.68924
  37        2S          0.31196   1.13742  -1.06063   0.99093   1.46271
  38        3S          0.07145  -0.35457   0.42530  -0.49979  -0.43018
                          31        32        33        34        35
                           V         V         V         V         V
     Eigenvalues --     2.67096   2.81824   2.87753   2.95243   3.13986
   1 1   C  1S          0.00032  -0.00161  -0.01358   0.00009  -0.00963
   2        2S          0.00027  -0.00465  -0.04460  -0.00005  -0.02950
   3        2PX         0.00317  -0.04622  -0.47617  -0.73228   0.44597
   4        2PY         0.00536  -0.08109  -0.85364   0.40665   0.78512
   5        2PZ        -0.92519   0.93528  -0.08850  -0.00064   0.00410
   6        3S         -0.00121   0.03838   0.39010   0.00241   0.24793
   7        3PX        -0.00248   0.08010   0.84260   0.88090  -0.42835
   8        3PY        -0.00434   0.13934   1.48498  -0.47634  -0.75439
   9        3PZ         0.94067  -1.14349   0.11090   0.00091  -0.00531
  10        4S          0.00866  -0.08930  -0.88050  -0.01016  -0.48502
  11        4PX        -0.00112  -0.06444  -0.71768  -0.67391   0.21414
  12        4PY        -0.00117  -0.11236  -1.27094   0.35660   0.37739
  13        4PZ        -0.33859   0.62002  -0.07003  -0.00075   0.00323
  14 2   H  1S          0.00762   0.01271   0.26454  -0.37775  -0.21538
  15        2S         -0.00875  -0.00804  -0.22237   0.39350   0.16382
  16        3S         -0.00164  -0.02568  -0.29691   0.26928   0.05936
  17 3   H  1S          0.00769   0.01206   0.25139   0.38075  -0.21219
  18        2S         -0.00894  -0.00672  -0.19873  -0.39149   0.16010
  19        3S         -0.00205  -0.02645  -0.30242  -0.28807   0.06331
  20 4   C  1S          0.00031   0.00156   0.01360   0.00059  -0.00754
  21        2S          0.00028   0.00484   0.04784   0.00141  -0.02315
  22        2PX        -0.00465  -0.04109  -0.40761  -0.80378  -0.50487
  23        2PY        -0.00796  -0.07329  -0.73324   0.44816  -0.89165
  24        2PZ        -0.92433  -0.93589   0.09013   0.00057   0.00824
  25        3S         -0.00151  -0.04155  -0.42975  -0.01100   0.19727
  26        3PX         0.00467   0.07480   0.76957   0.96154   0.54140
  27        3PY         0.00783   0.13251   1.37089  -0.52758   0.96414
  28        3PZ         0.93975   1.14403  -0.11362  -0.00068  -0.01040
  29        4S          0.00913   0.09027   0.90056   0.02982  -0.37377
  30        4PX        -0.00031  -0.06368  -0.70961  -0.69914  -0.32985
  31        4PY        -0.00072  -0.11200  -1.24687   0.37559  -0.59096
  32        4PZ        -0.33809  -0.61994   0.07242   0.00046   0.00807
  33 5   H  1S          0.00712  -0.01717  -0.29094   0.41745  -0.26302
  34        2S         -0.00869   0.01376   0.26182  -0.42559   0.20561
  35        3S         -0.00100   0.02475   0.28900  -0.24995   0.12539
  36 6   H  1S          0.00724  -0.01760  -0.29079  -0.42656  -0.25417
  37        2S         -0.00910   0.01473   0.26957   0.43470   0.19903
  38        3S         -0.00073   0.02313   0.26977   0.25071   0.12058
                          36        37        38
                           V         V         V
     Eigenvalues --     3.32074  23.35266  23.70518
   1 1   C  1S         -0.00055  -1.41869  -1.44769
   2        2S         -0.00084   1.51307   1.56549
   3        2PX         0.78309  -0.00656   0.01208
   4        2PY        -0.43963  -0.01061   0.02140
   5        2PZ         0.00038  -0.00034  -0.00016
   6        3S          0.00202  -0.29741  -0.39814
   7        3PX        -1.11762   0.02383  -0.05537
   8        3PY         0.62505   0.03924  -0.09683
   9        3PZ        -0.00060   0.00097   0.00048
  10        4S         -0.02685   0.27687   0.76620
  11        4PX         1.96754  -0.02528   0.13216
  12        4PY        -1.10800  -0.04221   0.22966
  13        4PZ         0.00096  -0.00164  -0.00195
  14 2   H  1S          0.55794   0.01269   0.00655
  15        2S         -0.87285   0.00795  -0.01418
  16        3S         -0.46119  -0.08375  -0.03894
  17 3   H  1S         -0.57059   0.01462   0.00810
  18        2S          0.89043   0.00730  -0.01490
  19        3S          0.48492  -0.08600  -0.03994
  20 4   C  1S          0.00024  -1.44291   1.42341
  21        2S          0.00011   1.53892  -1.53926
  22        2PX        -0.71267   0.00616   0.01269
  23        2PY         0.40465   0.01117   0.02143
  24        2PZ        -0.00022  -0.00034   0.00008
  25        3S          0.00218  -0.30190   0.39122
  26        3PX         1.01584  -0.02259  -0.05646
  27        3PY        -0.58423  -0.04045  -0.09658
  28        3PZ         0.00036   0.00099  -0.00020
  29        4S          0.00179   0.27720  -0.76021
  30        4PX        -1.79972   0.02396   0.13153
  31        4PY         1.03794   0.04440   0.22571
  32        4PZ        -0.00060  -0.00159   0.00134
  33 5   H  1S          0.49031   0.01382  -0.00532
  34        2S         -0.76632   0.00778   0.01421
  35        3S         -0.43554  -0.08352   0.03827
  36 6   H  1S         -0.48540   0.01235  -0.00394
  37        2S          0.76099   0.00917   0.01324
  38        3S          0.42701  -0.08175   0.03690
     Density Matrix:
                           1         2         3         4         5
   1 1   C  1S          0.65940
   2        2S          0.56149   0.49197
   3        2PX        -0.00052  -0.00068   0.08417
   4        2PY        -0.00131  -0.00181   0.00371   0.08753
   5        2PZ         0.00005   0.00008  -0.00008  -0.00017   0.06442
   6        3S         -0.08892  -0.15380   0.00263   0.00643  -0.00011
   7        3PX         0.00089   0.00137   0.13035   0.00127  -0.00006
   8        3PY         0.00117   0.00180   0.00126   0.13100  -0.00015
   9        3PZ         0.00011   0.00018  -0.00014  -0.00027   0.10352
  10        4S         -0.07948  -0.11451  -0.01552  -0.02804   0.00036
  11        4PX         0.00022   0.00151   0.07022  -0.00453  -0.00036
  12        4PY         0.00059   0.00299  -0.00453   0.06551  -0.00065
  13        4PZ        -0.00007  -0.00017  -0.00051  -0.00088   0.09593
  14 2   H  1S         -0.02048  -0.03263   0.03455  -0.06288  -0.00077
  15        2S         -0.02290  -0.03662   0.04881  -0.08786  -0.00059
  16        3S          0.00053  -0.00077   0.02059  -0.03317  -0.00003
  17 3   H  1S         -0.02102  -0.03344  -0.07263  -0.00196  -0.00082
  18        2S         -0.02322  -0.03708  -0.10055  -0.00215  -0.00064
  19        3S          0.00057  -0.00072  -0.03840   0.00112  -0.00004
  20 4   C  1S          0.00605   0.00975  -0.01086  -0.01874  -0.00025
  21        2S          0.00972   0.01519  -0.01739  -0.03000  -0.00041
  22        2PX         0.01033   0.01651  -0.01250  -0.03203   0.00031
  23        2PY         0.01806   0.02887  -0.03219  -0.04969   0.00055
  24        2PZ        -0.00031  -0.00050  -0.00023  -0.00037   0.06430
  25        3S         -0.02615  -0.03969   0.04880   0.08420   0.00124
  26        3PX         0.01594   0.02470  -0.01836  -0.04577   0.00040
  27        3PY         0.02784   0.04315  -0.04593  -0.07130   0.00073
  28        3PZ        -0.00053  -0.00085  -0.00040  -0.00066   0.10298
  29        4S          0.00537   0.00399   0.02117   0.03679   0.00155
  30        4PX         0.00308   0.00637  -0.01305  -0.02106   0.00044
  31        4PY         0.00523   0.01089  -0.02112  -0.03759   0.00081
  32        4PZ        -0.00045  -0.00072  -0.00065  -0.00108   0.09607
  33 5   H  1S          0.00420   0.00691  -0.00171  -0.01230  -0.00029
  34        2S          0.00633   0.01052   0.00347  -0.02485  -0.00001
  35        3S          0.00324   0.00474   0.00417  -0.01745   0.00006
  36 6   H  1S          0.00414   0.00679  -0.00988  -0.00769  -0.00030
  37        2S          0.00616   0.01026  -0.02337  -0.00941  -0.00002
  38        3S          0.00316   0.00463  -0.01723  -0.00511   0.00005
                           6         7         8         9        10
   6        3S          0.45249
   7        3PX        -0.00183   0.20217
   8        3PY        -0.00133  -0.00461   0.19658
   9        3PZ        -0.00034  -0.00011  -0.00022   0.16637
  10        4S          0.27405  -0.02617  -0.04808   0.00046   0.18326
  11        4PX        -0.00659   0.10925  -0.01030  -0.00059  -0.01494
  12        4PY        -0.01235  -0.01028   0.09875  -0.00104  -0.02904
  13        4PZ         0.00076  -0.00068  -0.00115   0.15416   0.00135
  14 2   H  1S          0.08724   0.05576  -0.09827  -0.00128   0.06947
  15        2S          0.09799   0.07915  -0.13685  -0.00101   0.08229
  16        3S          0.00615   0.03370  -0.05106  -0.00006   0.01142
  17 3   H  1S          0.08950  -0.11377  -0.00135  -0.00134   0.06918
  18        2S          0.09937  -0.15731  -0.00034  -0.00105   0.08049
  19        3S          0.00624  -0.05984   0.00363  -0.00006   0.01027
  20 4   C  1S         -0.02643  -0.01695  -0.02928  -0.00043   0.00512
  21        2S         -0.04000  -0.02636  -0.04553  -0.00070   0.00385
  22        2PX        -0.04619  -0.01779  -0.04537   0.00052  -0.01741
  23        2PY        -0.08089  -0.04569  -0.07087   0.00094  -0.03063
  24        2PZ         0.00150  -0.00031  -0.00050   0.10334   0.00154
  25        3S          0.10178   0.07161   0.12378   0.00208   0.00095
  26        3PX        -0.06681  -0.02627  -0.06464   0.00069  -0.02588
  27        3PY        -0.11689  -0.06501  -0.10163   0.00126  -0.04544
  28        3PZ         0.00249  -0.00055  -0.00089   0.16549   0.00256
  29        4S          0.00178   0.03200   0.05584   0.00258  -0.03238
  30        4PX        -0.02253  -0.01948  -0.02951   0.00073  -0.00640
  31        4PY        -0.03878  -0.02970  -0.05432   0.00134  -0.01052
  32        4PZ         0.00212  -0.00090  -0.00150   0.15439   0.00237
  33 5   H  1S         -0.02058  -0.00066  -0.01771  -0.00043  -0.01483
  34        2S         -0.03146   0.00852  -0.03666   0.00004  -0.01929
  35        3S         -0.01222   0.00799  -0.02629   0.00011  -0.00348
  36 6   H  1S         -0.02018  -0.01491  -0.00925  -0.00043  -0.01482
  37        2S         -0.03067  -0.03584  -0.01048   0.00003  -0.01955
  38        3S         -0.01187  -0.02664  -0.00601   0.00010  -0.00379
                          11        12        13        14        15
  11        4PX         0.06009
  12        4PY        -0.00910   0.05111
  13        4PZ        -0.00085  -0.00146   0.14286
  14 2   H  1S          0.03344  -0.05411  -0.00067   0.08088
  15        2S          0.04827  -0.07518  -0.00027   0.10938   0.14998
  16        3S          0.02098  -0.02789   0.00011   0.03674   0.05262
  17 3   H  1S         -0.06303   0.00180  -0.00068  -0.01321  -0.02472
  18        2S         -0.08752   0.00422  -0.00027  -0.02460  -0.04269
  19        3S         -0.03359   0.00439   0.00012  -0.01792  -0.02719
  20 4   C  1S         -0.00320  -0.00578  -0.00038   0.00421   0.00670
  21        2S         -0.00659  -0.01179  -0.00062   0.00696   0.01118
  22        2PX        -0.01326  -0.01993   0.00071   0.00180  -0.00275
  23        2PY        -0.02008  -0.03668   0.00126   0.01150   0.02435
  24        2PZ        -0.00047  -0.00079   0.09576  -0.00036  -0.00011
  25        3S          0.02328   0.04140   0.00180  -0.02094  -0.03363
  26        3PX        -0.02037  -0.02827   0.00097   0.00105  -0.00718
  27        3PY        -0.02848  -0.05343   0.00174   0.01707   0.03641
  28        3PZ        -0.00077  -0.00130   0.15336  -0.00053  -0.00012
  29        4S          0.00833   0.01573   0.00235  -0.01781  -0.02451
  30        4PX        -0.01472  -0.01251   0.00087  -0.00151  -0.00820
  31        4PY        -0.01257  -0.02958   0.00159   0.01543   0.02746
  32        4PZ        -0.00094  -0.00160   0.14307  -0.00030   0.00017
  33 5   H  1S          0.00196  -0.01562  -0.00022   0.01118   0.02338
  34        2S          0.00912  -0.02724   0.00028   0.02367   0.04435
  35        3S          0.00746  -0.01571   0.00021   0.01654   0.02776
  36 6   H  1S         -0.01455  -0.00580  -0.00022  -0.00905  -0.01818
  37        2S         -0.02817  -0.00518   0.00029  -0.01873  -0.03423
  38        3S         -0.01722  -0.00117   0.00020  -0.01011  -0.01769
                          16        17        18        19        20
  16        3S          0.02111
  17 3   H  1S         -0.01818   0.08224
  18        2S         -0.02738   0.10980   0.14869
  19        3S         -0.01283   0.03616   0.05122   0.02026
  20 4   C  1S          0.00370   0.00429   0.00679   0.00372   0.65947
  21        2S          0.00545   0.00710   0.01132   0.00548   0.56158
  22        2PX        -0.00351   0.00903   0.02228   0.01674   0.00115
  23        2PY         0.01776   0.00737   0.00971   0.00571   0.00174
  24        2PZ         0.00001  -0.00036  -0.00009   0.00003   0.00005
  25        3S         -0.01414  -0.02132  -0.03396  -0.01416  -0.08928
  26        3PX        -0.00697   0.01433   0.03502   0.02612  -0.00049
  27        3PY         0.02670   0.00959   0.01201   0.00724  -0.00111
  28        3PZ         0.00004  -0.00053  -0.00009   0.00006   0.00011
  29        4S         -0.00597  -0.01768  -0.02393  -0.00557  -0.08003
  30        4PX        -0.00690   0.01391   0.02745   0.01701  -0.00021
  31        4PY         0.01608   0.00657   0.00672   0.00204  -0.00020
  32        4PZ         0.00016  -0.00030   0.00019   0.00018  -0.00002
  33 5   H  1S          0.01630  -0.00909  -0.01820  -0.00944  -0.02025
  34        2S          0.02747  -0.01867  -0.03392  -0.01689  -0.02219
  35        3S          0.01463  -0.01004  -0.01742  -0.00889   0.00063
  36 6   H  1S         -0.00953   0.01118   0.02316   0.01590  -0.01996
  37        2S         -0.01724   0.02376   0.04413   0.02696  -0.02218
  38        3S         -0.00912   0.01661   0.02765   0.01439   0.00052
                          21        22        23        24        25
  21        2S          0.49209
  22        2PX         0.00165   0.08286
  23        2PY         0.00246   0.00354   0.08776
  24        2PZ         0.00008   0.00008   0.00013   0.06420
  25        3S         -0.15430  -0.00532  -0.00811  -0.00011   0.45392
  26        3PX        -0.00074   0.12882   0.00173   0.00005  -0.00019
  27        3PY        -0.00169   0.00182   0.13154   0.00006   0.00093
  28        3PZ         0.00019   0.00013   0.00020   0.10282  -0.00039
  29        4S         -0.11560   0.01363   0.02284   0.00042   0.27795
  30        4PX        -0.00148   0.07311  -0.00503   0.00029   0.00628
  31        4PY        -0.00222  -0.00500   0.06712   0.00052   0.00981
  32        4PZ        -0.00008   0.00051   0.00090   0.09591   0.00048
  33 5   H  1S         -0.03224  -0.03377   0.06381  -0.00079   0.08623
  34        2S         -0.03546  -0.04997   0.08847  -0.00062   0.09489
  35        3S         -0.00056  -0.02260   0.03336  -0.00005   0.00558
  36 6   H  1S         -0.03182   0.07137   0.00281  -0.00076   0.08508
  37        2S         -0.03545   0.10122   0.00100  -0.00057   0.09481
  38        3S         -0.00071   0.04038  -0.00302  -0.00003   0.00583
                          26        27        28        29        30
  26        3PX         0.20057
  27        3PY        -0.00261   0.19769
  28        3PZ         0.00006   0.00009   0.16466
  29        4S          0.02507   0.04176   0.00053   0.18546
  30        4PX         0.11427  -0.01039   0.00045   0.01553   0.06613
  31        4PY        -0.01045   0.10137   0.00084   0.02449  -0.01012
  32        4PZ         0.00065   0.00115   0.15360   0.00128   0.00073
  33 5   H  1S         -0.05390   0.09982  -0.00130   0.06680  -0.03445
  34        2S         -0.08020   0.13788  -0.00103   0.07660  -0.05173
  35        3S         -0.03671   0.05134  -0.00008   0.00898  -0.02389
  36 6   H  1S          0.11263   0.00369  -0.00126   0.06733   0.06568
  37        2S          0.15955  -0.00005  -0.00097   0.07848   0.09348
  38        3S          0.06334  -0.00612  -0.00006   0.01000   0.03742
                          31        32        33        34        35
  31        4PY         0.05350
  32        4PZ         0.00134   0.14329
  33 5   H  1S          0.05569  -0.00067   0.08129
  34        2S          0.07706  -0.00027   0.11018   0.15178
  35        3S          0.02884   0.00012   0.03791   0.05478   0.02257
  36 6   H  1S         -0.00175  -0.00066  -0.01247  -0.02597  -0.01982
  37        2S         -0.00600  -0.00025  -0.02611  -0.04809  -0.03134
  38        3S         -0.00620   0.00012  -0.02009  -0.03152  -0.01545
                          36        37        38
  36 6   H  1S          0.08029
  37        2S          0.10971   0.15230
  38        3S          0.03809   0.05539   0.02294
    Full Mulliken population analysis:
                           1         2         3         4         5
   1 1   C  1S          0.65940
   2        2S          0.49324   0.49197
   3        2PX         0.00000   0.00000   0.08417
   4        2PY         0.00000   0.00000   0.00000   0.08753
   5        2PZ         0.00000   0.00000   0.00000   0.00000   0.06442
   6        3S         -0.02927  -0.06441   0.00000   0.00000   0.00000
   7        3PX         0.00000   0.00000   0.08200   0.00000   0.00000
   8        3PY         0.00000   0.00000   0.00000   0.08242   0.00000
   9        3PZ         0.00000   0.00000   0.00000   0.00000   0.06513
  10        4S         -0.01222  -0.02143   0.00000   0.00000   0.00000
  11        4PX         0.00000   0.00000   0.01546   0.00000   0.00000
  12        4PY         0.00000   0.00000   0.00000   0.01443   0.00000
  13        4PZ         0.00000   0.00000   0.00000   0.00000   0.02113
  14 2   H  1S         -0.00022  -0.00032   0.00177   0.00551   0.00000
  15        2S         -0.00165  -0.00317   0.00426   0.01315   0.00000
  16        3S          0.00004  -0.00007   0.00069   0.00191   0.00000
  17 3   H  1S         -0.00025  -0.00036   0.00782   0.00000   0.00000
  18        2S         -0.00173  -0.00331   0.01771   0.00000   0.00000
  19        3S          0.00005  -0.00007   0.00256  -0.00000   0.00000
  20 4   C  1S          0.00000   0.00000  -0.00002  -0.00006   0.00000
  21        2S          0.00000  -0.00000  -0.00002  -0.00005   0.00000
  22        2PX        -0.00002  -0.00002   0.00011   0.00085   0.00000
  23        2PY        -0.00006  -0.00005   0.00085   0.00195   0.00000
  24        2PZ        -0.00000  -0.00000  -0.00000  -0.00000   0.00041
  25        3S         -0.00058  -0.00099   0.00254   0.00759  -0.00000
  26        3PX        -0.00054  -0.00099   0.00019   0.00552   0.00000
  27        3PY        -0.00162  -0.00298   0.00554   0.01068   0.00000
  28        3PZ        -0.00000  -0.00000  -0.00000  -0.00000   0.00609
  29        4S          0.00034   0.00030   0.00096   0.00289  -0.00000
  30        4PX        -0.00018  -0.00045  -0.00070   0.00146   0.00000
  31        4PY        -0.00053  -0.00134   0.00146   0.00098   0.00000
  32        4PZ        -0.00000  -0.00000  -0.00000  -0.00000   0.00903
  33 5   H  1S          0.00000   0.00000  -0.00000  -0.00000   0.00000
  34        2S          0.00001   0.00002   0.00000  -0.00032   0.00000
  35        3S          0.00008   0.00013   0.00001  -0.00070  -0.00000
  36 6   H  1S          0.00000   0.00000  -0.00000  -0.00000   0.00000
  37        2S          0.00001   0.00002  -0.00024  -0.00007   0.00000
  38        3S          0.00007   0.00013  -0.00056  -0.00012  -0.00000
                           6         7         8         9        10
   6        3S          0.45249
   7        3PX         0.00000   0.20217
   8        3PY         0.00000   0.00000   0.19658
   9        3PZ         0.00000   0.00000   0.00000   0.16637
  10        4S          0.21231   0.00000   0.00000   0.00000   0.18326
  11        4PX         0.00000   0.07139   0.00000   0.00000   0.00000
  12        4PY         0.00000   0.00000   0.06453   0.00000   0.00000
  13        4PZ         0.00000   0.00000   0.00000   0.10074   0.00000
  14 2   H  1S          0.01585   0.01063   0.03210   0.00001   0.01830
  15        2S          0.04099   0.01944   0.05758   0.00001   0.04728
  16        3S          0.00283   0.00396   0.01027   0.00000   0.00860
  17 3   H  1S          0.01686   0.04409   0.00000   0.00001   0.01847
  18        2S          0.04242   0.07726   0.00000   0.00001   0.04674
  19        3S          0.00289   0.01389  -0.00000   0.00000   0.00779
  20 4   C  1S         -0.00059  -0.00057  -0.00171   0.00000   0.00032
  21        2S         -0.00099  -0.00105  -0.00314   0.00000   0.00029
  22        2PX         0.00240   0.00019   0.00548   0.00000   0.00079
  23        2PY         0.00729   0.00551   0.01062   0.00000   0.00241
  24        2PZ         0.00000  -0.00000  -0.00000   0.00611   0.00000
  25        3S          0.02165   0.01340   0.04011  -0.00000   0.00036
  26        3PX         0.01250  -0.00126   0.01843   0.00000   0.00399
  27        3PY         0.03787   0.01854   0.02856   0.00000   0.01213
  28        3PZ         0.00000  -0.00000  -0.00000   0.03519   0.00000
  29        4S          0.00068   0.00493   0.01490  -0.00000  -0.02032
  30        4PX         0.00633  -0.00399   0.00585   0.00000   0.00194
  31        4PY         0.01886   0.00588   0.00129   0.00000   0.00552
  32        4PZ         0.00000  -0.00000  -0.00000   0.04928   0.00000
  33 5   H  1S         -0.00006  -0.00000  -0.00019   0.00000  -0.00080
  34        2S         -0.00123   0.00006  -0.00326  -0.00000  -0.00326
  35        3S         -0.00200   0.00011  -0.00425  -0.00000  -0.00126
  36 6   H  1S         -0.00005  -0.00013  -0.00005   0.00000  -0.00078
  37        2S         -0.00116  -0.00254  -0.00052  -0.00000  -0.00324
  38        3S         -0.00191  -0.00352  -0.00055  -0.00000  -0.00136
                          11        12        13        14        15
  11        4PX         0.06009
  12        4PY         0.00000   0.05111
  13        4PZ         0.00000   0.00000   0.14286
  14 2   H  1S          0.00631   0.01749   0.00000   0.08088
  15        2S          0.01534   0.04093   0.00000   0.07727   0.14998
  16        3S          0.00523   0.01191  -0.00000   0.01373   0.04151
  17 3   H  1S          0.02361  -0.00000   0.00000  -0.00001  -0.00064
  18        2S          0.05508  -0.00000   0.00000  -0.00063  -0.00526
  19        3S          0.01652  -0.00000  -0.00000  -0.00198  -0.00786
  20 4   C  1S         -0.00019  -0.00058   0.00000   0.00000   0.00002
  21        2S         -0.00047  -0.00145   0.00000   0.00000   0.00003
  22        2PX        -0.00071   0.00138   0.00000  -0.00000   0.00000
  23        2PY         0.00139   0.00096   0.00000  -0.00000  -0.00036
  24        2PZ        -0.00000  -0.00000   0.00900   0.00000   0.00000
  25        3S          0.00654   0.02013  -0.00000  -0.00007  -0.00146
  26        3PX        -0.00417   0.00560   0.00000  -0.00000   0.00004
  27        3PY         0.00564   0.00127   0.00000  -0.00022  -0.00354
  28        3PZ        -0.00000  -0.00000   0.04895   0.00000   0.00000
  29        4S          0.00252   0.00825  -0.00000  -0.00103  -0.00437
  30        4PX        -0.00708   0.00317   0.00000   0.00001   0.00017
  31        4PY         0.00318  -0.00559   0.00000  -0.00243  -0.01030
  32        4PZ        -0.00000  -0.00000   0.08976   0.00000  -0.00000
  33 5   H  1S          0.00002  -0.00233   0.00000   0.00000   0.00000
  34        2S          0.00027  -0.00982  -0.00000   0.00000   0.00016
  35        3S          0.00028  -0.00727  -0.00000   0.00023   0.00146
  36 6   H  1S         -0.00176  -0.00049   0.00000  -0.00000  -0.00004
  37        2S         -0.00827  -0.00105  -0.00000  -0.00004  -0.00090
  38        3S         -0.00653  -0.00031  -0.00000  -0.00045  -0.00244
                          16        17        18        19        20
  16        3S          0.02111
  17 3   H  1S         -0.00201   0.08224
  18        2S         -0.00792   0.07756   0.14869
  19        3S         -0.00663   0.01351   0.04041   0.02026
  20 4   C  1S          0.00009   0.00000   0.00002   0.00009   0.65947
  21        2S          0.00016   0.00000   0.00003   0.00016   0.49332
  22        2PX         0.00001  -0.00000  -0.00028  -0.00059   0.00000
  23        2PY        -0.00074  -0.00000  -0.00008  -0.00013   0.00000
  24        2PZ        -0.00000   0.00000   0.00000  -0.00000   0.00000
  25        3S         -0.00243  -0.00007  -0.00151  -0.00245  -0.02939
  26        3PX         0.00006  -0.00016  -0.00290  -0.00366   0.00000
  27        3PY        -0.00445  -0.00007  -0.00066  -0.00067   0.00000
  28        3PZ        -0.00000   0.00000   0.00000  -0.00000   0.00000
  29        4S         -0.00223  -0.00104  -0.00432  -0.00210  -0.01231
  30        4PX         0.00018  -0.00185  -0.00867  -0.00671   0.00000
  31        4PY        -0.00757  -0.00058  -0.00140  -0.00053   0.00000
  32        4PZ        -0.00000   0.00000  -0.00000  -0.00000   0.00000
  33 5   H  1S          0.00023  -0.00000  -0.00004  -0.00043  -0.00022
  34        2S          0.00145  -0.00004  -0.00093  -0.00237  -0.00161
  35        3S          0.00246  -0.00046  -0.00245  -0.00286   0.00005
  36 6   H  1S         -0.00043   0.00000   0.00000   0.00022  -0.00021
  37        2S         -0.00238   0.00000   0.00015   0.00141  -0.00157
  38        3S         -0.00290   0.00023   0.00145   0.00242   0.00004
                          21        22        23        24        25
  21        2S          0.49209
  22        2PX         0.00000   0.08286
  23        2PY         0.00000   0.00000   0.08776
  24        2PZ         0.00000   0.00000   0.00000   0.06420
  25        3S         -0.06462   0.00000   0.00000   0.00000   0.45392
  26        3PX         0.00000   0.08104   0.00000   0.00000   0.00000
  27        3PY         0.00000   0.00000   0.08275   0.00000   0.00000
  28        3PZ         0.00000   0.00000   0.00000   0.06469   0.00000
  29        4S         -0.02163   0.00000   0.00000   0.00000   0.21533
  30        4PX         0.00000   0.01610   0.00000   0.00000   0.00000
  31        4PY         0.00000   0.00000   0.01478   0.00000   0.00000
  32        4PZ         0.00000   0.00000   0.00000   0.02112   0.00000
  33 5   H  1S         -0.00032   0.00155   0.00580   0.00000   0.01570
  34        2S         -0.00307   0.00390   0.01370   0.00000   0.03975
  35        3S         -0.00005   0.00068   0.00199   0.00000   0.00256
  36 6   H  1S         -0.00029   0.00695   0.00002   0.00000   0.01508
  37        2S         -0.00300   0.01732   0.00001   0.00000   0.03912
  38        3S         -0.00007   0.00269  -0.00001   0.00000   0.00266
                          26        27        28        29        30
  26        3PX         0.20057
  27        3PY         0.00000   0.19769
  28        3PZ         0.00000   0.00000   0.16466
  29        4S          0.00000   0.00000   0.00000   0.18546
  30        4PX         0.07467   0.00000   0.00000   0.00000   0.06613
  31        4PY         0.00000   0.06624   0.00000   0.00000   0.00000
  32        4PZ         0.00000   0.00000   0.10037   0.00000   0.00000
  33 5   H  1S          0.00919   0.03376   0.00001   0.01761   0.00580
  34        2S          0.01760   0.06001   0.00001   0.04404   0.01468
  35        3S          0.00385   0.01068   0.00000   0.00677   0.00532
  36 6   H  1S          0.04182   0.00009   0.00001   0.01757   0.02450
  37        2S          0.07714  -0.00000   0.00001   0.04478   0.05887
  38        3S          0.01476  -0.00009   0.00000   0.00750   0.01854
                          31        32        33        34        35
  31        4PY         0.05350
  32        4PZ         0.00000   0.14329
  33 5   H  1S          0.01861   0.00000   0.08129
  34        2S          0.04337   0.00000   0.07783   0.15178
  35        3S          0.01273  -0.00000   0.01417   0.04322   0.02257
  36 6   H  1S         -0.00004   0.00000  -0.00001  -0.00080  -0.00234
  37        2S         -0.00024   0.00000  -0.00081  -0.00666  -0.00958
  38        3S         -0.00020  -0.00000  -0.00237  -0.00964  -0.00828
                          36        37        38
  36 6   H  1S          0.08029
  37        2S          0.07750   0.15230
  38        3S          0.01423   0.04370   0.02294
     Gross orbital populations:
                           1
   1 1   C  1S          1.10436
   2        2S          0.88585
   3        2PX         0.22658
   4        2PY         0.23555
   5        2PZ         0.16621
   6        3S          0.79254
   7        3PX         0.56041
   8        3PY         0.55504
   9        3PZ         0.42285
  10        4S          0.50583
  11        4PX         0.25972
  12        4PY         0.21227
  13        4PZ         0.41245
  14 2   H  1S          0.27267
  15        2S          0.46763
  16        3S          0.08668
  17 3   H  1S          0.27687
  18        2S          0.46545
  19        3S          0.08313
  20 4   C  1S          1.10440
  21        2S          0.88584
  22        2PX         0.22268
  23        2PY         0.23636
  24        2PZ         0.16554
  25        3S          0.79285
  26        3PX         0.55331
  27        3PY         0.55715
  28        3PZ         0.41999
  29        4S          0.50548
  30        4PX         0.27408
  31        4PY         0.21567
  32        4PZ         0.41287
  33 5   H  1S          0.27399
  34        2S          0.46886
  35        3S          0.08783
  36 6   H  1S          0.27086
  37        2S          0.47009
  38        3S          0.09005
          Condensed to atoms (all electrons):
               1          2          3          4          5          6
     1  C    5.033296   0.386980   0.388058   0.602049  -0.035768  -0.034955
     2  H    0.386980   0.516986  -0.032930  -0.040461   0.005990  -0.009585
     3  H    0.388058  -0.032930   0.514164  -0.040141  -0.009592   0.005889
     4  C    0.602049  -0.040461  -0.040141   5.056558   0.384465   0.383756
     5  H   -0.035768   0.005990  -0.009592   0.384465   0.526084  -0.040489
     6  H   -0.034955  -0.009585   0.005889   0.383756  -0.040489   0.526379
 Mulliken charges:
               1
     1  C   -0.339660
     2  H    0.173020
     3  H    0.174553
     4  C   -0.346227
     5  H    0.169309
     6  H    0.169005
 Sum of Mulliken charges =  -0.00000
 Mulliken charges with hydrogens summed into heavy atoms:
               1
     1  C    0.007913
     4  C   -0.007913
 Electronic spatial extent (au):  <R**2>=             83.7332
 Charge=             -0.0000 electrons
 Dipole moment (field-independent basis, Debye):
    X=              0.0020    Y=              0.0262    Z=             -0.0665  Tot=              0.0715
 Quadrupole moment (field-independent basis, Debye-Ang):
   XX=            -12.1973   YY=            -12.2192   ZZ=            -15.6747
   XY=              0.0075   XZ=             -0.0004   YZ=             -0.0011
 Traceless Quadrupole moment (field-independent basis, Debye-Ang):
   XX=              1.1664   YY=              1.1445   ZZ=             -2.3110
   XY=              0.0075   XZ=             -0.0004   YZ=             -0.0011
 Octapole moment (field-independent basis, Debye-Ang**2):
  XXX=             -0.3232  YYY=             -0.0227  ZZZ=             -0.0591  XYY=              0.2094
  XXY=             -0.0027  XXZ=             -0.0941  XZZ=             -0.0808  YZZ=             -0.0618
  YYZ=             -0.1220  XYZ=             -0.0245
 Hexadecapole moment (field-independent basis, Debye-Ang**3):
 XXXX=            -34.2720 YYYY=            -55.2242 ZZZZ=            -17.8126 XXXY=             -7.2465
 XXXZ=              0.0127 YYYX=            -10.7202 YYYZ=              0.0175 ZZZX=              0.0154
 ZZZY=              0.0248 XXYY=            -16.1958 XXZZ=             -9.9283 YYZZ=            -13.6482
 XXYZ=              0.0052 YYXZ=             -0.0001 ZZXY=             -3.2036
 N-N= 3.306118768363D+01 E-N=-2.478327017813D+02  KE= 7.815127396699D+01
 Orbital energies and kinetic energies (alpha):
                                 1                 2
   1         O               -10.289790         15.977032
   2         O               -10.288550         15.981411
   3         O                -0.863577          1.537215
   4         O                -0.672329          1.271946
   5         O                -0.559467          0.941508
   6         O                -0.508937          1.284199
   7         O                -0.436978          1.044303
   8         O                -0.356651          1.038022
   9         V                 0.079754          1.182100
  10         V                 0.140941          0.589165
  11         V                 0.164845          0.593507
  12         V                 0.170214          0.680058
  13         V                 0.240784          0.582484
  14         V                 0.372996          0.851407
  15         V                 0.393874          0.934684
  16         V                 0.398646          0.783115
  17         V                 0.464657          1.190171
  18         V                 0.488003          1.424175
  19         V                 0.493915          1.302111
  20         V                 0.590968          1.651751
  21         V                 0.665865          1.572517
  22         V                 0.691254          2.148185
  23         V                 0.773346          2.448435
  24         V                 0.774964          2.296687
  25         V                 0.844811          1.087420
  26         V                 0.951254          3.419342
  27         V                 2.231535          3.925980
  28         V                 2.290781          4.027634
  29         V                 2.332240          4.304915
  30         V                 2.407526          4.520425
  31         V                 2.670959          6.300706
  32         V                 2.818240          6.307712
  33         V                 2.877530          6.136678
  34         V                 2.952434          6.225777
  35         V                 3.139857          6.821002
  36         V                 3.320740          6.402596
  37         V                23.352657         60.074849
  38         V                23.705177         60.203192
 Total kinetic energy from orbitals= 7.815127396699D+01
 Calling FoFJK, ICntrl=      2127 FMM=F ISym2X=0 I1Cent= 0 IOpClX= 0 NMat=1 NMatS=1 NMatT=0.
 -------------------------------------------------------------------
 Center     Atomic                   Forces (Hartrees/Bohr)
 Number     Number              X              Y              Z
 -------------------------------------------------------------------
      1        6           0.013896286    0.007793582   -0.002769282
      2        1          -0.010625563    0.007814224    0.001395062
      3        1           0.003734975   -0.004990597    0.001262447
      4        6           0.007869868    0.005935102   -0.002796927
      5        1           0.001022375   -0.010937817    0.001406138
      6        1          -0.015897941   -0.005614495    0.001502561
 -------------------------------------------------------------------
 Cartesian Forces:  Max     0.015897941 RMS     0.007423845

 GradGradGradGradGradGradGradGradGradGradGradGradGradGradGradGradGradGrad
 Berny optimization.
 Search for a local minimum.
 Step number   1 out of a maximum of    2
 All quantities printed in internal units (Hartrees-Bohrs-Radians)
 Second derivative matrix not updated -- first step.
 The second derivative matrix:
                          X1        Y1        Z1        X2        Y2
           X1           0.75515
           Y1           0.09740   0.85332
           Z1           0.00381   0.00595   0.16979
           X2          -0.16309   0.09481   0.00142   0.14043
           Y2           0.10074  -0.28030  -0.00506  -0.11398   0.26913
           Z2           0.00226  -0.00637  -0.05454  -0.00205   0.00524
           X3          -0.35080  -0.00026  -0.00546  -0.00006  -0.00003
           Y3          -0.00597  -0.10993  -0.00133   0.03229   0.01883
           Z3          -0.00701  -0.00127  -0.05556   0.00104   0.00039
           X4          -0.26645  -0.17740  -0.00045   0.02273   0.01326
           Y4          -0.17798  -0.47129  -0.00077  -0.01313  -0.00766
           Z4           0.00094   0.00166  -0.09401  -0.00041  -0.00057
           X5           0.02352  -0.01358   0.00042  -0.00000   0.00000
           Y5           0.01185  -0.00684   0.00056   0.00000  -0.00000
           Z5          -0.00036   0.00022   0.01734   0.00017  -0.00009
           X6           0.00167  -0.00097   0.00027  -0.00000   0.00000
           Y6          -0.02605   0.01505   0.00064   0.00000  -0.00000
           Z6           0.00037  -0.00020   0.01698  -0.00017   0.00009
                          Z2        X3        Y3        Z3        X4
           Z2           0.02822
           X3          -0.00020   0.35083
           Y3           0.00110   0.00031   0.07572
           Z3           0.01051   0.00595   0.00088   0.02905
           X4           0.00033   0.00004  -0.02664  -0.00032   0.71693
           Y4          -0.00017  -0.00002   0.01539   0.00020   0.11878
           Z4           0.01577  -0.00030  -0.00066   0.01603  -0.00362
           X5          -0.00016  -0.00000   0.00000   0.00017  -0.14865
           Y5           0.00011   0.00000  -0.00000  -0.00011   0.09477
           Z5           0.00920   0.00017  -0.00011  -0.00935  -0.00211
           X6          -0.00017  -0.00000   0.00000   0.00017  -0.32460
           Y6           0.00009   0.00000  -0.00000  -0.00009  -0.02277
           Z6          -0.00917  -0.00017   0.00011   0.00932   0.00617
                          Y4        Z4        X5        Y5        Z5
           Y4           0.86178
           Z4          -0.00676   0.17611
           X5           0.08646  -0.00139   0.12725
           Y5          -0.29295   0.00501  -0.10556   0.28334
           Z5           0.00620  -0.05714   0.00188  -0.00533   0.02964
           X6          -0.01411   0.00478  -0.00211  -0.00106   0.00024
           Y6          -0.10526   0.00132   0.03268   0.01646  -0.00090
           Z6           0.00130  -0.05675  -0.00090  -0.00024   0.01031
                          X6        Y6        Z6
           X6           0.32504
           Y6           0.01613   0.07375
           Z6          -0.00529  -0.00106   0.02932
 ITU=  0
     Eigenvalues ---    0.03707   0.04380   0.09352   0.09922   0.13501
     Eigenvalues ---    0.17504   0.26344   0.29000   0.52859   0.70358
     Eigenvalues ---    0.97427   1.55859
 Angle between quadratic step and forces=  31.44 degrees.
 Linear search not attempted -- first point.
 B after Tr=     0.006054    0.006883   -0.006827
         Rot=    1.000000   -0.000040    0.000021   -0.000119 Ang=  -0.01 deg.
 Variable       Old X    -DE/DX   Delta X   Delta X   Delta X     New X
                                 (Linear)    (Quad)   (Total)
    X1       -0.63564   0.01390   0.00000   0.02013   0.02644  -0.60919
    Y1       -1.09988   0.00779   0.00000   0.02263   0.02937  -1.07051
    Z1        0.00929  -0.00277   0.00000  -0.01467  -0.02161  -0.01232
    X2        0.41299  -0.01063   0.00000  -0.03804  -0.03131   0.38169
    Y2       -2.89639   0.00781   0.00000   0.02983   0.03680  -2.85959
    Z2       -0.02834   0.00140   0.00000   0.01786   0.01082  -0.01752
    X3       -2.69052   0.00373   0.00000   0.03028   0.03660  -2.65391
    Y3       -1.10228  -0.00499   0.00000  -0.02308  -0.01683  -1.11911
    Z3       -0.02869   0.00126   0.00000   0.01758   0.01055  -0.01815
    X4        0.63011   0.00787   0.00000   0.00491   0.01070   0.64081
    Y4        1.09145   0.00594   0.00000   0.00588   0.01291   1.10436
    Z4        0.00688  -0.00280   0.00000  -0.01358  -0.02029  -0.01341
    X5       -0.30576   0.00102   0.00000  -0.01207  -0.00671  -0.31247
    Y5        2.94745  -0.01094   0.00000  -0.03616  -0.02936   2.91809
    Z5       -0.03108   0.00141   0.00000   0.01701   0.01040  -0.02068
    X6        2.72279  -0.01590   0.00000  -0.04151  -0.03573   2.68706
    Y6        1.22536  -0.00561   0.00000  -0.04041  -0.03289   1.19247
    Z6       -0.03091   0.00150   0.00000   0.01676   0.01014  -0.02077
         Item               Value     Threshold  Converged?
 Maximum Force            0.015898     0.000450     NO 
 RMS     Force            0.007424     0.000300     NO 
 Maximum Displacement     0.036799     0.001800     NO 
 RMS     Displacement     0.024018     0.001200     NO 
 Predicted change in Energy=-1.420012D-03
 GradGradGradGradGradGradGradGradGradGradGradGradGradGradGradGradGradGrad

 Unable to Open any file for archive entry.
 1\1\GINC-BHD0008\Force\RwB97XD\6-311G\C2H4\BWEIGHT\11-Jan-2023\0\\# WB
 97XD/6-311G SCF=XQC FORCE nosym pop=full guess=read\\MD Step 1000\\0,1
 \C,-0.33636408,-0.58203076,0.00491675\H,0.21854569,-1.53270133,-0.0149
 958\H,-1.42375928,-0.58330204,-0.01518401\C,0.3334393,0.57756983,0.003
 64044\H,-0.16180318,1.55972221,-0.01644458\H,1.44083976,0.64843342,-0.
 01635517\\Version=ES64L-G16RevC.01\HF=-78.5559184\RMSD=5.453e-09\RMSF=
 7.424e-03\Dipole=0.0007976,0.0103041,-0.026167\Quadrupole=0.8672197,0.
 8509418,-1.7181615,0.0055666,-0.0003255,-0.000782\PG=C01 [X(C2H4)]\\@
 The archive entry for this job was punched.


 CHARLIE BROWN.."I CAN'T GET THAT STUPID KITE IN THE
 AIR... I CAN'T... I C A N N O T..."
 LUCY.."OH COME NOW CHARLIE BROWN...THAT'S NO WAY TO TALK...
 THE TROUBLE WITH YOU IS YOU DON'T BELIEVE IN YOURSELF... YOU
 DON'T BELIEVE IN YOUR OWN ABILITIES...  YOU'VE GOT TO SAY TO
 YOURSELF...'I BELIEVE I CAN FLY THIS KITE.'... GO AHEAD SAY
 IT...."
 CHARLIE BROWN.."I BELIEVE THAT I CAN FLY THIS STUPID
 KITE.....I BELIEVE THAT I CAN FLY THIS KITE........
 I  A C T U A L L Y  B E L I E V E  T H A T  I  C A N ******"
 LUCY.."I'LL BET YOU TEN-TO-ONE YOU'RE WRONG......."    SCHULZ
 Job cpu time:       0 days  0 hours  0 minutes 50.6 seconds.
 Elapsed time:       0 days  0 hours  0 minutes 16.6 seconds.
 File lengths (MBytes):  RWF=    272 Int=      0 D2E=      0 Chk=     32 Scr=     32
 Normal termination of Gaussian 16 at Wed Jan 11 16:35:38 2023.
