6
MD Step 0
C  -0.33763715 -0.58748864 0.00000000
H  0.19552659 -1.51519357 0.00000000
H  -1.40763715 -0.58748864 0.00000000
C  0.33763715 0.58748865 0.00000000
H  -0.19552659 1.51519357 0.00000000
H  1.40763715 0.58748865 0.00000000
6
MD Step 1
C  -0.33800543 -0.58783566 -0.00039461
H  0.19788721 -1.51299308 0.00234883
H  -1.40541433 -0.58520733 0.00235271
C  0.33721609 0.58704688 -0.00039437
H  -0.19318496 1.51769251 0.00234803
H  1.41011791 0.58990701 0.00235192
6
MD Step 2
C  -0.33831621 -0.58808475 -0.00078792
H  0.20026330 -1.51110884 0.00468991
H  -1.40351946 -0.58308271 0.00469776
C  0.33674883 0.58651460 -0.00078741
H  -0.19086730 1.52045131 0.00468820
H  1.41280041 0.59245012 0.00469587
6
MD Step 3
C  -0.33856722 -0.58823632 -0.00118112
H  0.20266063 -1.50954396 0.00703021
H  -1.40198987 -0.58111467 0.00704236
C  0.33623925 0.58589465 -0.00118023
H  -0.18855923 1.52344691 0.00702712
H  1.41562869 0.59511518 0.00703820
6
MD Step 4
C  -0.33875637 -0.58829135 -0.00157482
H  0.20507837 -1.50829774 0.00937334
H  -1.40085696 -0.57930549 0.00939054
C  0.33569206 0.58519138 -0.00157331
H  -0.18624758 1.52664742 0.00936784
H  1.41854051 0.59789508 0.00938153
6
MD Step 5
C  -0.33887988 -0.58824936 -0.00196715
H  0.20749752 -1.50737739 0.01170794
H  -1.40015667 -0.57767149 0.01173153
C  0.33511471 0.58441257 -0.00196460
H  -0.18393244 1.53000134 0.01169823
H  1.42145742 0.60076678 0.01171322
6
MD Step 6
C  -0.33893534 -0.58811138 -0.00235664
H  0.20989843 -1.50678076 0.01402503
H  -1.39991098 -0.57622560 0.01405706
C  0.33451431 0.58356637 -0.00235242
H  -0.18161034 1.53345599 0.01400839
H  1.42430399 0.60370887 0.01402278
6
MD Step 7
C  -0.33892258 -0.58788071 -0.00274302
H  0.21226591 -1.50649184 0.01632286
H  -1.40012232 -0.57497248 0.01636615
C  0.33389674 0.58266037 -0.00273627
H  -0.17926986 1.53696345 0.01629555
H  1.42701435 0.60670655 0.01630679
6
MD Step 8
C  -0.33884069 -0.58755981 -0.00312425
H  0.21457180 -1.50649918 0.01858909
H  -1.40079130 -0.57392635 0.01864722
C  0.33326952 0.58170448 -0.00311387
H  -0.17691003 1.54046384 0.01854622
H  1.42951574 0.60973388 0.01855113
6
MD Step 9
C  -0.33869159 -0.58715382 -0.00350002
H  0.21679640 -1.50677548 0.02082173
H  -1.40189573 -0.57308990 0.02089904
C  0.33263825 0.58070729 -0.00348471
H  -0.17451982 1.54390745 0.02075729
H  1.43175088 0.61277501 0.02075210
6
MD Step 10
C  -0.33847487 -0.58666534 -0.00386662
H  0.21889851 -1.50730894 0.02299873
H  -1.40342185 -0.57248475 0.02310023
C  0.33201163 0.57968102 -0.00384488
H  -0.17210905 1.54722534 0.02290559
H  1.43364852 0.61579379 0.02288597
6
MD Step 11
C  -0.33818888 -0.58609540 -0.00421806
H  0.22082247 -1.50809748 0.02508437
H  -1.40535844 -0.57214486 0.02521579
C  0.33140032 0.57864031 -0.00418827
H  -0.16970236 1.55033694 0.02495447
H  1.43513111 0.61874053 0.02491547
6
MD Step 12
C  -0.33785018 -0.58546296 -0.00456563
H  0.22261513 -1.50903309 0.02714587
H  -1.40758118 -0.57200014 0.02731274
C  0.33079725 0.57758256 -0.00452595
H  -0.16722339 1.55326761 0.02697002
H  1.43623236 0.62166862 0.02690684
6
MD Step 13
C  -0.33746433 -0.58477568 -0.00490881
H  0.22425363 -1.51007613 0.02918041
H  -1.41002869 -0.57204926 0.02938823
C  0.33020680 0.57651687 -0.00485732
H  -0.16466760 1.55597606 0.02894855
H  1.43692366 0.62456162 0.02885634
6
MD Step 14
C  -0.33703462 -0.58403870 -0.00524415
H  0.22569852 -1.51120372 0.03116764
H  -1.41265188 -0.57230716 0.03142188
C  0.32963589 0.57545509 -0.00517891
H  -0.16205007 1.55840756 0.03086911
H  1.43716693 0.62738581 0.03074289
6
MD Step 15
C  -0.33656499 -0.58325753 -0.00556828
H  0.22691260 -1.51239216 0.03308815
H  -1.41539703 -0.57278663 0.03339406
C  0.32909088 0.57440869 -0.00548747
H  -0.15938742 1.56051308 0.03271185
H  1.43693353 0.63010882 0.03254663
6
MD Step 16
C  -0.33606183 -0.58243993 -0.00587992
H  0.22787271 -1.51360643 0.03493475
H  -1.41819607 -0.57348704 0.03529703
C  0.32857562 0.57338668 -0.00578180
H  -0.15668667 1.56226118 0.03446928
H  1.43621593 0.63271109 0.03426033
6
MD Step 17
C  -0.33553317 -0.58159507 -0.00617917
H  0.22856612 -1.51480492 0.03670858
H  -1.42097224 -0.57439828 0.03713100
C  0.32809206 0.57239626 -0.00606211
H  -0.15394937 1.56363454 0.03614238
H  1.43502391 0.63518200 0.03588549
6
MD Step 18
C  -0.33498497 -0.58072988 -0.00646387
H  0.22896959 -1.51596149 0.03839764
H  -1.42366335 -0.57552215 0.03888314
C  0.32764391 0.57144627 -0.00632653
H  -0.15119292 1.56460887 0.03771928
H  1.43336304 0.63749860 0.03741072
6
MD Step 19
C  -0.33442555 -0.57985349 -0.00673430
H  0.22907680 -1.51703897 0.04000410
H  -1.42619597 -0.57684533 0.04055432
C  0.32723196 0.57054259 -0.00657551
H  -0.14842356 1.56518033 0.03920237
H  1.43126177 0.63965292 0.03883928
6
MD Step 20
C  -0.33385987 -0.57897154 -0.00698743
H  0.22886534 -1.51802292 0.04151093
H  -1.42852017 -0.57837254 0.04212652
C  0.32685974 0.56969363 -0.00680642
H  -0.14566940 1.56533248 0.04057523
H  1.42873800 0.64161875 0.04015534
6
MD Step 21
C  -0.33329232 -0.57808895 -0.00721985
H  0.22831380 -1.51890517 0.04289882
H  -1.43059366 -0.58010981 0.04357959
C  0.32653064 0.56890746 -0.00701635
H  -0.14296359 1.56505330 0.04181945
H  1.42581579 0.64336864 0.04134103
6
MD Step 22
C  -0.33273048 -0.57721379 -0.00743175
H  0.22742525 -1.51966073 0.04416974
H  -1.43235920 -0.58204125 0.04491390
C  0.32624395 0.56818779 -0.00720583
H  -0.14032094 1.56435861 0.04293784
H  1.42254853 0.64489749 0.04240041
6
MD Step 23
C  -0.33217612 -0.57634816 -0.00761776
H  0.22617370 -1.52030174 0.04529301
H  -1.43379907 -0.58418253 0.04609838
C  0.32600390 0.56754296 -0.00737022
H  -0.13779111 1.56323843 0.04390121
H  1.41896487 0.64616888 0.04330456
6
MD Step 24
C  -0.33163991 -0.57550306 -0.00778216
H  0.22459272 -1.52078894 0.04629443
H  -1.43484691 -0.58649271 0.04715653
C  0.32580472 0.56697105 -0.00751401
H  -0.13537031 1.56174547 0.04473633
H  1.41515683 0.64720390 0.04408234
6
MD Step 25
C  -0.33113460 -0.57469154 -0.00793209
H  0.22273519 -1.52107234 0.04721581
H  -1.43542901 -0.58891459 0.04812704
C  0.32563754 0.56646664 -0.00764424
H  -0.13304117 1.55995431 0.04548582
H  1.41123819 0.64804078 0.04477938
6
MD Step 26
C  -0.33065637 -0.57390987 -0.00805806
H  0.22056187 -1.52120275 0.04800293
H  -1.43557667 -0.59148578 0.04895649
C  0.32550921 0.56603945 -0.00775260
H  -0.13088298 1.55784945 0.04609778
H  1.40723156 0.64862318 0.04534316
6
MD Step 27
C  -0.33021230 -0.57316532 -0.00816271
H  0.21810620 -1.52116670 0.04867145
H  -1.43526099 -0.59417452 0.04965872
C  0.32541455 0.56568681 -0.00784197
H  -0.12890752 1.55548984 0.04658932
H  1.40323247 0.64896549 0.04579272
6
MD Step 28
C  -0.32980800 -0.57246366 -0.00824790
H  0.21540026 -1.52096038 0.04923255
H  -1.43446710 -0.59695345 0.05024341
C  0.32534889 0.56540601 -0.00791451
H  -0.12713211 1.55293430 0.04697323
H  1.39933386 0.64907873 0.04614256
6
MD Step 29
C  -0.32944862 -0.57181020 -0.00831585
H  0.21248085 -1.52058324 0.04969928
H  -1.43318822 -0.59979351 0.05072205
C  0.32530713 0.56519333 -0.00797268
H  -0.12557288 1.55024680 0.04726411
H  1.39563034 0.64897671 0.04640906
6
MD Step 30
C  -0.32913296 -0.57120387 -0.00836296
H  0.20935417 -1.52007293 0.05005121
H  -1.43146090 -0.60269906 0.05107446
C  0.32528979 0.56505004 -0.00801356
H  -0.12427910 1.54746040 0.04744356
H  1.39218115 0.64864077 0.04657394
6
MD Step 31
C  -0.32885948 -0.57064331 -0.00838612
H  0.20603159 -1.51946886 0.05027065
H  -1.42932860 -0.60567212 0.05128336
C  0.32529700 0.56497640 -0.00803472
H  -0.12329689 1.54461234 0.04749581
H  1.38904444 0.64805580 0.04662139
6
MD Step 32
C  -0.32862906 -0.57012971 -0.00838559
H  0.20254572 -1.51879517 0.05035927
H  -1.42682461 -0.60869591 0.05135019
C  0.32532585 0.56496900 -0.00803673
H  -0.12265220 1.54175951 0.04742412
H  1.38629218 0.64722675 0.04655520
6
MD Step 33
C  -0.32844169 -0.56966345 -0.00836154
H  0.19893022 -1.51808013 0.05031804
H  -1.42399154 -0.61175483 0.05127598
C  0.32537380 0.56502423 -0.00802000
H  -0.12236998 1.53895738 0.04723094
H  1.38398837 0.64615865 0.04637800
6
MD Step 34
C  -0.32829776 -0.56924546 -0.00831540
H  0.19522699 -1.51734788 0.05015491
H  -1.42087320 -0.61482690 0.05106865
C  0.32543752 0.56513708 -0.00798601
H  -0.12246590 1.53626629 0.04692544
H  1.38219471 0.64486412 0.04609915
6
MD Step 35
C  -0.32819567 -0.56887487 -0.00824730
H  0.19147132 -1.51663217 0.04987029
H  -1.41752832 -0.61789825 0.05072925
C  0.32551547 0.56530370 -0.00793498
H  -0.12296001 1.53373572 0.04650915
H  1.38095440 0.64334887 0.04571974
6
MD Step 36
C  -0.32813132 -0.56854848 -0.00815540
H  0.18768792 -1.51597907 0.04945364
H  -1.41403317 -0.62096667 0.05024860
C  0.32560847 0.56552214 -0.00786533
H  -0.12387957 1.53139944 0.04597240
H  1.38028721 0.64160821 0.04522880
6
MD Step 37
C  -0.32810287 -0.56826563 -0.00804103
H  0.18391882 -1.51541763 0.04891187
H  -1.41045184 -0.62401318 0.04963451
C  0.32571500 0.56578765 -0.00777817
H  -0.12523014 1.52930295 0.04532265
H  1.38021710 0.63965548 0.04463299
6
MD Step 38
C  -0.32810593 -0.56802335 -0.00790336
H  0.18019336 -1.51498841 0.04823990
H  -1.40686444 -0.62703159 0.04888345
C  0.32583617 0.56609776 -0.00767266
H  -0.12702437 1.52747276 0.04455505
H  1.38074205 0.63749261 0.04392593
6
MD Step 39
C  -0.32813629 -0.56781909 -0.00774224
H  0.17654333 -1.51472686 0.04743628
H  -1.40334982 -0.63001269 0.04799568
C  0.32597305 0.56644970 -0.00754848
H  -0.12926591 1.52593133 0.04366813
H  1.38184965 0.63512586 0.04310449
6
MD Step 40
C  -0.32819568 -0.56765650 -0.00756422
H  0.17303630 -1.51462834 0.04653715
H  -1.39994991 -0.63291032 0.04700774
C  0.32612093 0.56683479 -0.00741116
H  -0.13191514 1.52473034 0.04269786
H  1.38355148 0.63259985 0.04220426
6
MD Step 41
C  -0.32828222 -0.56753587 -0.00737236
H  0.16971764 -1.51470510 0.04555869
H  -1.39672613 -0.63569899 0.04593708
C  0.32627899 0.56724819 -0.00726302
H  -0.13494633 1.52389228 0.04166003
H  1.38582541 0.62993989 0.04123985
6
MD Step 42
C  -0.32838829 -0.56745198 -0.00716380
H  0.16659704 -1.51499857 0.04448416
H  -1.39377093 -0.63838712 0.04476945
C  0.32645236 0.56769112 -0.00710118
H  -0.13836077 1.52339708 0.04053700
H  1.38860331 0.62713900 0.04019134
6
MD Step 43
C  -0.32850685 -0.56740038 -0.00693631
H  0.16368462 -1.51554182 0.04330053
H  -1.39116874 -0.64098007 0.04349416
C  0.32664587 0.56816473 -0.00692332
H  -0.14215015 1.52321917 0.03931460
H  1.39180980 0.62419470 0.03904249
6
MD Step 44
C  -0.32863900 -0.56738474 -0.00669618
H  0.16103403 -1.51631512 0.04204180
H  -1.38895012 -0.64343627 0.04214598
C  0.32685661 0.56866259 -0.00673450
H  -0.14625315 1.52337181 0.03802628
H  1.39540823 0.62115265 0.03782630
6
MD Step 45
C  -0.32876882 -0.56739198 -0.00643141
H  0.15859346 -1.51739489 0.04064090
H  -1.38723959 -0.64581690 0.04066114
C  0.32709872 0.56919593 -0.00652384
H  -0.15070539 1.52375811 0.03660261
H  1.39925251 0.61795778 0.03647042
6
MD Step 46
C  -0.32890025 -0.56742854 -0.00615050
H  0.15642093 -1.51873643 0.03914433
H  -1.38603621 -0.64806841 0.03908639
C  0.32736708 0.56975693 -0.00629843
H  -0.15542308 1.52438936 0.03508987
H  1.40330757 0.61467034 0.03502124
6
MD Step 47
C  -0.32902311 -0.56748675 -0.00584646
H  0.15448414 -1.52037501 0.03751318
H  -1.38541374 -0.65022419 0.03738462
C  0.32767077 0.57035257 -0.00605190
H  -0.16040517 1.52518456 0.03344709
H  1.40744922 0.61126542 0.03343635
6
MD Step 48
C  -0.32914527 -0.56757648 -0.00553062
H  0.15284838 -1.52223675 0.03580988
H  -1.38533009 -0.65221477 0.03561798
C  0.32800144 0.57097268 -0.00579400
H  -0.16554456 1.52616112 0.03173729
H  1.41165617 0.60782124 0.03177934
6
MD Step 49
C  -0.32926502 -0.56769784 -0.00520353
H  0.15151462 -1.52430222 0.03403732
H  -1.38579064 -0.65403147 0.03378975
C  0.32836043 0.57161731 -0.00552505
H  -0.17079225 1.52727255 0.02996270
H  1.41584741 0.60435656 0.03005226
6
MD Step 50
C  -0.32937517 -0.56784519 -0.00485931
H  0.15044386 -1.52658260 0.03216296
H  -1.38682386 -0.65570220 0.03186788
C  0.32875464 0.57229264 -0.00523975
H  -0.17613393 1.52843409 0.02808918
H  1.41990819 0.60085480 0.02822062
6
MD Step 51
C  -0.32947515 -0.56801901 -0.00449825
H  0.14962786 -1.52904916 0.03018879
H  -1.38840998 -0.65722003 0.02985414
C  0.32918466 0.57299880 -0.00493838
H  -0.18151965 1.52959525 0.02611814
H  1.42376323 0.59733456 0.02628608
6
MD Step 52
C  -0.32957609 -0.56823068 -0.00413216
H  0.14911886 -1.53160430 0.02818039
H  -1.39045208 -0.65851341 0.02781319
C  0.32963988 0.57372480 -0.00463144
H  -0.18683469 1.53077070 0.02411692
H  1.42740780 0.59387892 0.02431678
6
MD Step 53
C  -0.32967351 -0.56847592 -0.00375599
H  0.14887195 -1.53424200 0.02611036
H  -1.39293750 -0.65960658 0.02571719
C  0.33012484 0.57447542 -0.00431456
H  -0.19206035 1.53188164 0.02205696
H  1.43074795 0.59047678 0.02228446
6
MD Step 54
C  -0.32977376 -0.56876052 -0.00337549
H  0.14889967 -1.53689339 0.02401109
H  -1.39578366 -0.66046350 0.02359766
C  0.33063354 0.57524485 -0.00399301
H  -0.19711867 1.53291232 0.01997152
H  1.43375757 0.58717711 0.02022300
6
MD Step 55
C  -0.32988158 -0.56908824 -0.00299440
H  0.14920092 -1.53949979 0.02190380
H  -1.39891220 -0.66106051 0.02147498
C  0.33116139 0.57602885 -0.00367026
H  -0.20194542 1.53383871 0.01788258
H  1.43640637 0.58401708 0.01815494
6
MD Step 56
C  -0.32999178 -0.56945276 -0.00260597
H  0.14971378 -1.54206191 0.01975148
H  -1.40229903 -0.66143492 0.01931133
C  0.33171319 0.57683288 -0.00334040
H  -0.20653911 1.53458106 0.01575179
H  1.43861197 0.58097409 0.01604245
6
MD Step 57
C  -0.33010332 -0.56985134 -0.00220752
H  0.15039796 -1.54455775 0.01754002
H  -1.40589274 -0.66160185 0.01709177
C  0.33228940 0.57765798 -0.00300123
H  -0.21087849 1.53508755 0.01356447
H  1.44032389 0.57804791 0.01387140
6
MD Step 58
C  -0.33022337 -0.57028889 -0.00180488
H  0.15125974 -1.54691869 0.01530243
H  -1.40959140 -0.66152950 0.01484851
C  0.33288204 0.57849662 -0.00265818
H  -0.21489814 1.53535967 0.01135470
H  1.44154893 0.57528505 0.01167636
6
MD Step 59
C  -0.33035494 -0.57076592 -0.00139963
H  0.15228086 -1.54910249 0.01304799
H  -1.41331679 -0.66121182 0.01259013
C  0.33348674 0.57934487 -0.00231280
H  -0.21856136 1.53538032 0.00913200
H  1.44227860 0.57270693 0.00946731
6
MD Step 60
C  -0.33049573 -0.57127740 -0.00098801
H  0.15341294 -1.55110007 0.01075631
H  -1.41702216 -0.66067470 0.01029561
C  0.33410371 0.58020344 -0.00196184
H  -0.22186658 1.53510804 0.00687514
H  1.44248302 0.57030375 0.00722348
6
MD Step 61
C  -0.33064841 -0.57182289 -0.00057163
H  0.15463800 -1.55287543 0.00843680
H  -1.42063278 -0.65991505 0.00797390
C  0.33472774 0.58106740 -0.00160686
H  -0.22478669 1.53453798 0.00459366
H  1.44217212 0.56809460 0.00495467
6
MD Step 62
C  -0.33081253 -0.57239866 -0.00014917
H  0.15592220 -1.55441311 0.00608260
H  -1.42409413 -0.65894808 0.00561778
C  0.33535599 0.58193416 -0.00124678
H  -0.22731647 1.53365510 0.00228007
H  1.44134840 0.56608078 0.00265367
6
MD Step 63
C  -0.33099853 -0.57301145 0.00026914
H  0.15729812 -1.55563604 0.00375160
H  -1.42729054 -0.65772423 0.00328508
C  0.33597440 0.58278952 -0.00089100
H  -0.22938976 1.53251682 -0.00000633
H  1.44008961 0.56432766 0.00037974
6
MD Step 64
C  -0.33119975 -0.57365108 0.00069019
H  0.15870220 -1.55657016 0.00140516
H  -1.43021070 -0.65629418 0.00093699
C  0.33658489 0.58363545 -0.00053318
H  -0.23104424 1.53108869 -0.00230583
H  1.43838332 0.56280157 -0.00190730
6
MD Step 65
C  -0.33141124 -0.57430890 0.00111872
H  0.16008472 -1.55723387 -0.00098320
H  -1.43283733 -0.65469759 -0.00145295
C  0.33718709 0.58447140 -0.00016893
H  -0.23231052 1.52935511 -0.00464631
H  1.43623793 0.56147965 -0.00423531
6
MD Step 66
C  -0.33163867 -0.57498663 0.00154815
H  0.16146223 -1.55758553 -0.00337599
H  -1.43509491 -0.65291018 -0.00384699
C  0.33776963 0.58528550 0.00019573
H  -0.23315938 1.52737189 -0.00699010
H  1.43373537 0.56040218 -0.00656697
6
MD Step 67
C  -0.33188753 -0.57568572 0.00197169
H  0.16285448 -1.55758734 -0.00573453
H  -1.43691417 -0.65090762 -0.00620599
C  0.33832080 0.58606531 0.00055457
H  -0.23356549 1.52520225 -0.00929844
H  1.43096612 0.55960918 -0.00886397
6
MD Step 68
C  -0.33215287 -0.57639738 0.00239270
H  0.16422522 -1.55726525 -0.00807785
H  -1.43829270 -0.64872558 -0.00854868
C  0.33883856 0.58680802 0.00091089
H  -0.23356728 1.52285644 -0.01159189
H  1.42796789 0.55908088 -0.01114722
6
MD Step 69
C  -0.33243131 -0.57711439 0.00281251
H  0.16555199 -1.55663870 -0.01041354
H  -1.43922474 -0.64638908 -0.01088223
C  0.33931898 0.58750867 0.00126614
H  -0.23319622 1.52036172 -0.01387940
H  1.42479528 0.55880758 -0.01342615
6
MD Step 70
C  -0.33272323 -0.57783330 0.00322820
H  0.16683927 -1.55570724 -0.01272479
H  -1.43968804 -0.64389917 -0.01318929
C  0.33975413 0.58815794 0.00161778
H  -0.23246347 1.51777495 -0.01614517
H  1.42153193 0.55880276 -0.01568559
6
MD Step 71
C  -0.33303214 -0.57855384 0.00363327
H  0.16811466 -1.55445424 -0.01497422
H  -1.43964796 -0.64123670 -0.01543166
C  0.34013279 0.58874294 0.00195987
H  -0.23136325 1.51517807 -0.01835244
H  1.41828504 0.55909931 -0.01788970
6
MD Step 72
C  -0.33334416 -0.57925878 0.00403836
H  0.16930843 -1.55296781 -0.01722357
H  -1.43917874 -0.63848369 -0.01767104
C  0.34046080 0.58926769 0.00230295
H  -0.22999372 1.51255609 -0.02056563
H  1.41506201 0.55962898 -0.02010307
6
MD Step 73
C  -0.33365743 -0.57994292 0.00444167
H  0.17042566 -1.55126702 -0.01946252
H  -1.43828953 -0.63564943 -0.01989660
C  0.34073224 0.58972403 0.00264563
H  -0.22838295 1.50996961 -0.02277589
H  1.41194320 0.56039491 -0.02231746
6
MD Step 74
C  -0.33397720 -0.58060838 0.00483393
H  0.17151750 -1.54933025 -0.02163709
H  -1.43695293 -0.63269916 -0.02205338
C  0.34093432 0.59009654 0.00297918
H  -0.22651710 1.50752500 -0.02493001
H  1.40905128 0.56144317 -0.02448076
6
MD Step 75
C  -0.33429631 -0.58124526 0.00521805
H  0.17256577 -1.54721081 -0.02376439
H  -1.43522117 -0.62967022 -0.02415833
C  0.34106690 0.59038224 0.00330678
H  -0.22445557 1.50525720 -0.02704708
H  1.40643240 0.56274729 -0.02661233
6
MD Step 76
C  -0.33461046 -0.58184690 0.00559375
H  0.17357296 -1.54494577 -0.02584292
H  -1.43313496 -0.62658110 -0.02620973
C  0.34112742 0.59057541 0.00362849
H  -0.22223955 1.50321898 -0.02912726
H  1.40414528 0.56429865 -0.02871257
6
MD Step 77
C  -0.33491971 -0.58241132 0.00595624
H  0.17457016 -1.54254702 -0.02784429
H  -1.43071462 -0.62342297 -0.02817866
C  0.34110965 0.59066634 0.00393977
H  -0.21988275 1.50148800 -0.03114340
H  1.40226775 0.56611485 -0.03075484
6
MD Step 78
C  -0.33522339 -0.58293628 0.00630129
H  0.17558700 -1.54003087 -0.02974302
H  -1.42798984 -0.62018973 -0.03003919
C  0.34100878 0.59064653 0.00423648
H  -0.21740049 1.50013518 -0.03307112
H  1.40086455 0.56820979 -0.03271513
6
MD Step 79
C  -0.33550945 -0.58340875 0.00663564
H  0.17658816 -1.53748080 -0.03157951
H  -1.42506263 -0.61694141 -0.03183277
C  0.34083208 0.59051951 0.00452570
H  -0.21487224 1.49915979 -0.03495245
H  1.39992206 0.57053048 -0.03463422
6
MD Step 80
C  -0.33576954 -0.58381990 0.00696228
H  0.17756147 -1.53495766 -0.03337179
H  -1.42201679 -0.61371498 -0.03357845
C  0.34058406 0.59028596 0.00481066
H  -0.21235183 1.49857715 -0.03680652
H  1.39943712 0.57304571 -0.03652997
6
MD Step 81
C  -0.33600645 -0.58417245 0.00727342
H  0.17856071 -1.53245540 -0.03507234
H  -1.41887306 -0.61048076 -0.03522828
C  0.34025916 0.58993660 0.00508318
H  -0.20982332 1.49846093 -0.03858590
H  1.39946025 0.57578941 -0.03835508
6
MD Step 82
C  -0.33621664 -0.58446337 0.00756749
H  0.17960196 -1.53000420 -0.03667118
H  -1.41569222 -0.60724621 -0.03677287
C  0.33985907 0.58946966 0.00534145
H  -0.20730396 1.49883811 -0.04028065
H  1.39999088 0.57875710 -0.04009867
6
MD Step 83
C  -0.33638986 -0.58468349 0.00784949
H  0.18066042 -1.52767272 -0.03819867
H  -1.41257664 -0.60405881 -0.03824474
C  0.33939322 0.58889154 0.00559064
H  -0.20484651 1.49968526 -0.04192103
H  1.40097463 0.58190297 -0.04178852
6
MD Step 84
C  -0.33652550 -0.58483372 0.00811544
H  0.18176593 -1.52547079 -0.03962962
H  -1.40957191 -0.60090940 -0.03961923
C  0.33886249 0.58820058 0.00582606
H  -0.20244263 1.50102448 -0.04348082
H  1.40240105 0.58523608 -0.04339760
6
MD Step 85
C  -0.33661570 -0.58490818 0.00836858
H  0.18290199 -1.52344990 -0.04098382
H  -1.40676646 -0.59783329 -0.04091842
C  0.33827605 0.58740412 0.00605088
H  -0.20012369 1.50282209 -0.04497859
H  1.40420341 0.58871943 -0.04494195
6
MD Step 86
C  -0.33665755 -0.58490632 0.00860791
H  0.18407696 -1.52163068 -0.04225448
H  -1.40421769 -0.59483836 -0.04213705
C  0.33763921 0.58650641 0.00626353
H  -0.19788913 1.50506059 -0.04640564
H  1.40633235 0.59234163 -0.04641128
6
MD Step 87
C  -0.33665274 -0.58483248 0.00882865
H  0.18532117 -1.52000503 -0.04341080
H  -1.40195305 -0.59190767 -0.04324474
C  0.33695372 0.58550903 0.00645801
H  -0.19570944 1.50773654 -0.04772873
H  1.40875487 0.59611432 -0.04777194
6
MD Step 88
C  -0.33659568 -0.58468394 0.00903349
H  0.18661548 -1.51860753 -0.04446923
H  -1.40004046 -0.58907104 -0.04426040
C  0.33622968 0.58442281 0.00663672
H  -0.19359793 1.51078957 -0.04896164
H  1.41138420 0.60000065 -0.04903544
6
MD Step 89
C  -0.33648237 -0.58445973 0.00922427
H  0.18794336 -1.51746255 -0.04544122
H  -1.39853411 -0.58635260 -0.04519780
C  0.33547661 0.58325894 0.00680119
H  -0.19155911 1.51415602 -0.05011273
H  1.41413449 0.60396772 -0.05020808
6
MD Step 90
C  -0.33631864 -0.58416875 0.00939454
H  0.18933914 -1.51653567 -0.04628473
H  -1.39742460 -0.58372232 -0.04601447
C  0.33469521 0.58202073 0.00694322
H  -0.18954108 1.51781864 -0.05113663
H  1.41697137 0.60803513 -0.05124538
6
MD Step 91
C  -0.33610438 -0.58381389 0.00954421
H  0.19079399 -1.51582832 -0.04699851
H  -1.39673310 -0.58119050 -0.04671035
C  0.33389313 0.58071928 0.00706194
H  -0.18753045 1.52171359 -0.05202865
H  1.41981885 0.61218063 -0.05214189
6
MD Step 92
C  -0.33583478 -0.58339323 0.00967822
H  0.19226335 -1.51537052 -0.04761482
H  -1.39650340 -0.57880028 -0.04732041
C  0.33308364 0.57937209 0.00716267
H  -0.18554577 1.52573925 -0.05281735
H  1.42256854 0.61634767 -0.05292393
6
MD Step 93
C  -0.33551183 -0.58291148 0.00979618
H  0.19373497 -1.51515283 -0.04813125
H  -1.39673287 -0.57655968 -0.04784299
C  0.33227406 0.57799144 0.00724442
H  -0.18357054 1.52982617 -0.05349681
H  1.42514980 0.62051366 -0.05358532
6
MD Step 94
C  -0.33513996 -0.58237550 0.00989638
H  0.19520337 -1.51515257 -0.04853664
H  -1.39739840 -0.57446738 -0.04826677
C  0.33147007 0.57658858 0.00730467
H  -0.18157984 1.53391276 -0.05405261
H  1.42750535 0.62466434 -0.05411222
6
MD Step 95
C  -0.33472187 -0.58179017 0.00997946
H  0.19664559 -1.51535897 -0.04883576
H  -1.39848172 -0.57253728 -0.04859682
C  0.33067973 0.57517762 0.00734386
H  -0.17956547 1.53792220 -0.05448640
H  1.42956780 0.62876932 -0.05450625
6
MD Step 96
C  -0.33425948 -0.58115922 0.01004756
H  0.19802732 -1.51576781 -0.04904351
H  -1.39996427 -0.57079263 -0.04884846
C  0.32991249 0.57377442 0.00736438
H  -0.17753078 1.54176973 -0.05481007
H  1.43126659 0.63278819 -0.05477909
6
MD Step 97
C  -0.33375414 -0.58048546 0.01010398
H  0.19930484 -1.51638032 -0.04918349
H  -1.40182644 -0.56926439 -0.04904589
C  0.32917884 0.57239608 0.00737035
H  -0.17548961 1.54536560 -0.05504434
H  1.43253073 0.63667232 -0.05495085
6
MD Step 98
C  -0.33321730 -0.57978158 0.01014363
H  0.20049035 -1.51713877 -0.04922242
H  -1.40398354 -0.56792646 -0.04915325
C  0.32847923 0.57104996 0.00735546
H  -0.17340224 1.54868126 -0.05515457
H  1.43335446 0.64043023 -0.05498946
6
MD Step 99
C  -0.33265861 -0.57905822 0.01016359
H  0.20158194 -1.51799787 -0.04914129
H  -1.40635867 -0.56676598 -0.04914931
C  0.32781602 0.56974531 0.00731608
H  -0.17124582 1.55167963 -0.05512077
H  1.43372700 0.64405710 -0.05487694
6
MD Step 100
C  -0.33208153 -0.57831943 0.01016676
H  0.20253835 -1.51895121 -0.04896142
H  -1.40891044 -0.56580876 -0.04905499
C  0.32719776 0.56849740 0.00725617
H  -0.16903991 1.55429035 -0.05496263
H  1.43360705 0.64750914 -0.05463309
6
MD Step 101
C  -0.33149802 -0.57757775 0.01014873
H  0.20336902 -1.51994232 -0.04865385
H  -1.41154476 -0.56503019 -0.04883843
C  0.32662401 0.56731249 0.00717043
H  -0.16675794 1.55649990 -0.05465154
H  1.43301260 0.65079368 -0.05423186
6
MD Step 102
C  -0.33091454 -0.57683990 0.01011017
H  0.20405067 -1.52094912 -0.04822416
H  -1.41420081 -0.56443844 -0.04850372
C  0.32609944 0.56620161 0.00706002
H  -0.16441021 1.55826850 -0.05419290
H  1.43193725 0.65388531 -0.05367976
6
MD Step 103
C  -0.33033627 -0.57611121 0.01005282
H  0.20455418 -1.52195803 -0.04768571
H  -1.41682599 -0.56404804 -0.04806313
C  0.32562939 0.56517606 0.00692764
H  -0.16201767 1.55955702 -0.05359997
H  1.43037682 0.65675262 -0.05299079
6
MD Step 104
C  -0.32977541 -0.57540403 0.00997208
H  0.20489591 -1.52291363 -0.04700801
H  -1.41932629 -0.56382946 -0.04748330
C  0.32521112 0.56423886 0.00676793
H  -0.15956156 1.56037813 -0.05284420
H  1.42838006 0.65940944 -0.05213891
6
MD Step 105
C  -0.32924103 -0.57472752 0.00986596
H  0.20507758 -1.52377950 -0.04617783
H  -1.42162848 -0.56376890 -0.04674892
C  0.32484409 0.56339469 0.00657875
H  -0.15704305 1.56073623 -0.05191426
H  1.42598811 0.66185445 -0.05111461
6
MD Step 106
C  -0.32873455 -0.57408288 0.00973900
H  0.20505916 -1.52456606 -0.04522712
H  -1.42370871 -0.56389534 -0.04589150
C  0.32453454 0.56265435 0.00636633
H  -0.15451000 1.56060035 -0.05084252
H  1.42320698 0.66404380 -0.04995050
6
MD Step 107
C  -0.32825583 -0.57346968 0.00959674
H  0.20479666 -1.52529310 -0.04419486
H  -1.42555528 -0.56424312 -0.04494991
C  0.32428917 0.56202839 0.00613826
H  -0.15201965 1.55994188 -0.04966817
H  1.42004512 0.66592907 -0.04868576
6
MD Step 108
C  -0.32781567 -0.57289871 0.00943451
H  0.20431897 -1.52591354 -0.04304913
H  -1.42709241 -0.56477639 -0.04389003
C  0.32410194 0.56151445 0.00588909
H  -0.14956308 1.55881083 -0.04836299
H  1.41658942 0.66753423 -0.04729431
6
MD Step 109
C  -0.32741662 -0.57237221 0.00925462
H  0.20361102 -1.52643023 -0.04180582
H  -1.42829795 -0.56550447 -0.04272706
C  0.32397408 0.56111651 0.00562217
H  -0.14718003 1.55721941 -0.04694475
H  1.41288833 0.66883857 -0.04579465
6
MD Step 110
C  -0.32705818 -0.57188929 0.00906154
H  0.20264603 -1.52686387 -0.04049595
H  -1.42917153 -0.56644998 -0.04149191
C  0.32390857 0.56083954 0.00534366
H  -0.14492692 1.55517395 -0.04544571
H  1.40898331 0.66980905 -0.04421926
6
MD Step 111
C  -0.32675020 -0.57145965 0.00884985
H  0.20146755 -1.52717157 -0.03908245
H  -1.42965293 -0.56756823 -0.04014604
C  0.32389624 0.56067600 0.00504733
H  -0.14279599 1.55275584 -0.04383340
H  1.40498925 0.67048230 -0.04253726
6
MD Step 112
C  -0.32650220 -0.57109277 0.00861375
H  0.20012494 -1.52731122 -0.03752545
H  -1.42968722 -0.56881087 -0.03864841
C  0.32392684 0.56061656 0.00472643
H  -0.14077843 1.55005681 -0.04207301
H  1.40102883 0.67090004 -0.04071516
6
MD Step 113
C  -0.32631040 -0.57078437 0.00835898
H  0.19859380 -1.52732086 -0.03586328
H  -1.42930492 -0.57020434 -0.03703777
C  0.32400271 0.56066330 0.00438836
H  -0.13894194 1.54709903 -0.04020422
H  1.39715152 0.67102915 -0.03879238
6
MD Step 114
C  -0.32617142 -0.57053068 0.00809013
H  0.19686007 -1.52723461 -0.03412684
H  -1.42853761 -0.57176686 -0.03534546
C  0.32412454 0.56081582 0.00403916
H  -0.13734751 1.54391801 -0.03825950
H  1.39341582 0.67084596 -0.03680113
6
MD Step 115
C  -0.32609202 -0.57033841 0.00780191
H  0.19497891 -1.52702371 -0.03227960
H  -1.42735864 -0.57345050 -0.03353467
C  0.32428139 0.56106174 0.00367266
H  -0.13599095 1.54062008 -0.03620711
H  1.38994620 0.67039523 -0.03471004
6
MD Step 116
C  -0.32606654 -0.57020162 0.00749975
H  0.19293703 -1.52673312 -0.03035717
H  -1.42582052 -0.57527649 -0.03164176
C  0.32447426 0.56139940 0.00329563
H  -0.13493718 1.53724470 -0.03408391
H  1.38679433 0.66965237 -0.03255530
6
MD Step 117
C  -0.32609522 -0.57012050 0.00718297
H  0.19076387 -1.52637037 -0.02835423
H  -1.42394326 -0.57722567 -0.02966188
C  0.32469726 0.56181973 0.00290744
H  -0.13421013 1.53387353 -0.03188749
H  1.38404762 0.66863472 -0.03033403
6
MD Step 118
C  -0.32617623 -0.57009329 0.00685214
H  0.18848284 -1.52595337 -0.02627364
H  -1.42176241 -0.57928629 -0.02759859
C  0.32494597 0.56231437 0.00250886
H  -0.13383953 1.53058065 -0.02962303
H  1.38177884 0.66735288 -0.02805065
6
MD Step 119
C  -0.32630543 -0.57011604 0.00650938
H  0.18610913 -1.52551199 -0.02412837
H  -1.41933046 -0.58145596 -0.02546571
C  0.32521793 0.56287625 0.00210238
H  -0.13386202 1.52742893 -0.02730510
H  1.38004198 0.66580859 -0.02571879
6
MD Step 120
C  -0.32647713 -0.57018335 0.00615769
H  0.18365359 -1.52508318 -0.02193718
H  -1.41671184 -0.58373754 -0.02328294
C  0.32551202 0.56349904 0.00169146
H  -0.13431602 1.52447236 -0.02495345
H  1.37887454 0.66399880 -0.02335711
6
MD Step 121
C  -0.32669152 -0.57029607 0.00579399
H  0.18116726 -1.52466573 -0.01967908
H  -1.41393704 -0.58609485 -0.02103014
C  0.32582092 0.56416997 0.00127248
H  -0.13519666 1.52179890 -0.02254924
H  1.37834057 0.66196053 -0.02094581
6
MD Step 122
C  -0.32694213 -0.57044846 0.00542100
H  0.17866437 -1.52429609 -0.01737093
H  -1.41107855 -0.58852846 -0.01872511
C  0.32614421 0.56488271 0.00084843
H  -0.13653042 1.51945228 -0.02010969
H  1.37845265 0.65969398 -0.01850102
6
MD Step 123
C  -0.32722612 -0.57063868 0.00503758
H  0.17618384 -1.52398606 -0.01500474
H  -1.40818770 -0.59101459 -0.01636075
C  0.32647793 0.56562731 0.00041790
H  -0.13831327 1.51749191 -0.01762763
H  1.37923255 0.65722444 -0.01601461
6
MD Step 124
C  -0.32754068 -0.57086514 0.00464219
H  0.17376662 -1.52374440 -0.01257018
H  -1.40531583 -0.59352713 -0.01392757
C  0.32681835 0.56639405 -0.00002095
H  -0.14053194 1.51596918 -0.01509318
H  1.38068841 0.65457992 -0.01347589
6
MD Step 125
C  -0.32787817 -0.57112151 0.00423769
H  0.17142522 -1.52360625 -0.01008491
H  -1.40254316 -0.59606765 -0.01144394
C  0.32716708 0.56717864 -0.00046516
H  -0.14319318 1.51489621 -0.01252346