 Entering Gaussian System, Link 0=g16
 Initial command:
 /software/gaussian/g16-c01/avx2/g16/l1.exe "/gpfs/fs2/scratch/bweight/software/many_molecule_many_mode_NAMD/src/NAMD/TEST_NVT/TRAJ/traj-72/G16/GS_NEW/Gau-9976.inp" -scrdir="/gpfs/fs2/scratch/bweight/software/many_molecule_many_mode_NAMD/src/NAMD/TEST_NVT/TRAJ/traj-72/G16/GS_NEW/"
 Entering Link 1 = /software/gaussian/g16-c01/avx2/g16/l1.exe PID=      9977.
  
 Copyright (c) 1988-2019, Gaussian, Inc.  All Rights Reserved.
  
 This is part of the Gaussian(R) 16 program.  It is based on
 the Gaussian(R) 09 system (copyright 2009, Gaussian, Inc.),
 the Gaussian(R) 03 system (copyright 2003, Gaussian, Inc.),
 the Gaussian(R) 98 system (copyright 1998, Gaussian, Inc.),
 the Gaussian(R) 94 system (copyright 1995, Gaussian, Inc.),
 the Gaussian 92(TM) system (copyright 1992, Gaussian, Inc.),
 the Gaussian 90(TM) system (copyright 1990, Gaussian, Inc.),
 the Gaussian 88(TM) system (copyright 1988, Gaussian, Inc.),
 the Gaussian 86(TM) system (copyright 1986, Carnegie Mellon
 University), and the Gaussian 82(TM) system (copyright 1983,
 Carnegie Mellon University). Gaussian is a federally registered
 trademark of Gaussian, Inc.
  
 This software contains proprietary and confidential information,
 including trade secrets, belonging to Gaussian, Inc.
  
 This software is provided under written license and may be
 used, copied, transmitted, or stored only in accord with that
 written license.
  
 The following legend is applicable only to US Government
 contracts under FAR:
  
                    RESTRICTED RIGHTS LEGEND
  
 Use, reproduction and disclosure by the US Government is
 subject to restrictions as set forth in subparagraphs (a)
 and (c) of the Commercial Computer Software - Restricted
 Rights clause in FAR 52.227-19.
  
 Gaussian, Inc.
 340 Quinnipiac St., Bldg. 40, Wallingford CT 06492
  
  
 ---------------------------------------------------------------
 Warning -- This program may not be used in any manner that
 competes with the business of Gaussian, Inc. or will provide
 assistance to any competitor of Gaussian, Inc.  The licensee
 of this program is prohibited from giving any competitor of
 Gaussian, Inc. access to this program.  By using this program,
 the user acknowledges that Gaussian, Inc. is engaged in the
 business of creating and licensing software in the field of
 computational chemistry and represents and warrants to the
 licensee that it is not a competitor of Gaussian, Inc. and that
 it will not use this program in any manner prohibited above.
 ---------------------------------------------------------------
  

 Cite this work as:
 Gaussian 16, Revision C.01,
 M. J. Frisch, G. W. Trucks, H. B. Schlegel, G. E. Scuseria, 
 M. A. Robb, J. R. Cheeseman, G. Scalmani, V. Barone, 
 G. A. Petersson, H. Nakatsuji, X. Li, M. Caricato, A. V. Marenich, 
 J. Bloino, B. G. Janesko, R. Gomperts, B. Mennucci, H. P. Hratchian, 
 J. V. Ortiz, A. F. Izmaylov, J. L. Sonnenberg, D. Williams-Young, 
 F. Ding, F. Lipparini, F. Egidi, J. Goings, B. Peng, A. Petrone, 
 T. Henderson, D. Ranasinghe, V. G. Zakrzewski, J. Gao, N. Rega, 
 G. Zheng, W. Liang, M. Hada, M. Ehara, K. Toyota, R. Fukuda, 
 J. Hasegawa, M. Ishida, T. Nakajima, Y. Honda, O. Kitao, H. Nakai, 
 T. Vreven, K. Throssell, J. A. Montgomery, Jr., J. E. Peralta, 
 F. Ogliaro, M. J. Bearpark, J. J. Heyd, E. N. Brothers, K. N. Kudin, 
 V. N. Staroverov, T. A. Keith, R. Kobayashi, J. Normand, 
 K. Raghavachari, A. P. Rendell, J. C. Burant, S. S. Iyengar, 
 J. Tomasi, M. Cossi, J. M. Millam, M. Klene, C. Adamo, R. Cammi, 
 J. W. Ochterski, R. L. Martin, K. Morokuma, O. Farkas, 
 J. B. Foresman, and D. J. Fox, Gaussian, Inc., Wallingford CT, 2019.
 
 ******************************************
 Gaussian 16:  ES64L-G16RevC.01  3-Jul-2019
                11-Jan-2023 
 ******************************************
 %oldchk=../GS_OLD/geometry.chk
 %chk=geometry.chk
 %nprocshared=4
 Will use up to    4 processors via shared memory.
 %mem=5GB
 Copying data from "../GS_OLD/geometry.chk" to current chk file "geometry.chk"
 IOpt=  2 FromEx=T IUOpen= 4 IOptOp= 5 NList=   0 IFRang= 0 IUIn= 4 IUOut= 2.
 -------------------------------------------------------
 # WB97XD/6-311G SCF=XQC FORCE nosym pop=full guess=read
 -------------------------------------------------------
 1/10=7,30=1,38=1/1,3;
 2/12=2,15=1,17=6,18=5,40=1/2;
 3/5=4,6=6,11=2,25=1,30=1,71=1,74=-58,116=-2/1,2,3;
 4/5=1/1;
 5/5=2,8=3,13=1,38=6/2,8;
 6/7=3,28=1/1;
 7/29=1,30=1/1,2,3,16;
 1/10=7,30=1/3;
 99//99;
 -----------
 MD Step 999
 -----------
 Symbolic Z-matrix:
 Charge =  0 Multiplicity = 1
 C                    -0.33625  -0.58154   0.00663 
 H                     0.21497  -1.52595  -0.02419 
 H                    -1.4182   -0.59007  -0.02524 
 C                     0.33218   0.57625   0.00483 
 H                    -0.16      1.56738  -0.0272 
 H                     1.44583   0.64591  -0.02587 
 

 GradGradGradGradGradGradGradGradGradGradGradGradGradGradGradGradGradGrad
 Berny optimization.
 Initialization pass.
 Trust Radius=3.00D-01 FncErr=1.00D-07 GrdErr=1.00D-07 EigMax=2.50D+02 EigMin=1.00D-04
 Number of steps in this run=      2 maximum allowed number of steps=      2.
 GradGradGradGradGradGradGradGradGradGradGradGradGradGradGradGradGradGrad

                          Input orientation:                          
 ---------------------------------------------------------------------
 Center     Atomic      Atomic             Coordinates (Angstroms)
 Number     Number       Type             X           Y           Z
 ---------------------------------------------------------------------
      1          6           0       -0.336250   -0.581545    0.006634
      2          1           0        0.214975   -1.525947   -0.024186
      3          1           0       -1.418197   -0.590065   -0.025239
      4          6           0        0.332182    0.576246    0.004832
      5          1           0       -0.160000    1.567382   -0.027197
      6          1           0        1.445828    0.645907   -0.025866
 ---------------------------------------------------------------------
                    Distance matrix (angstroms):
                    1          2          3          4          5
     1  C    0.000000
     2  H    1.093935   0.000000
     3  H    1.082450   1.882320   0.000000
     4  C    1.336894   2.105658   2.103572   0.000000
     5  H    2.156408   3.115975   2.497527   1.107077   0.000000
     6  H    2.164139   2.496388   3.119338   1.116245   1.851433
                    6
     6  H    0.000000
 Symmetry turned off by external request.
 Stoichiometry    C2H4
 Framework group  C1[X(C2H4)]
 Deg. of freedom    12
 Full point group                 C1      NOp   1
 Rotational constants (GHZ):         143.7268841          29.7026418          24.6237019
 Standard basis: 6-311G (5D, 7F)
    38 basis functions,    72 primitive gaussians,    38 cartesian basis functions
     8 alpha electrons        8 beta electrons
       nuclear repulsion energy        33.0847897039 Hartrees.
 NAtoms=    6 NActive=    6 NUniq=    6 SFac= 1.00D+00 NAtFMM=   60 NAOKFM=F Big=F
 Integral buffers will be    131072 words long.
 Raffenetti 2 integral format.
 Two-electron integral symmetry is turned off.
 Nuclear repulsion after empirical dispersion term =       33.0839499647 Hartrees.
 One-electron integrals computed using PRISM.
 NBasis=    38 RedAO= T EigKep=  6.41D-03  NBF=    38
 NBsUse=    38 1.00D-06 EigRej= -1.00D+00 NBFU=    38
 Initial guess from the checkpoint file:  "geometry.chk"
 B after Tr=    -0.000217   -0.000332   -0.000517
         Rot=    1.000000    0.000004   -0.000001    0.000005 Ang=   0.00 deg.
 Keep R1 ints in memory in canonical form, NReq=4036876.
 Requested convergence on RMS density matrix=1.00D-08 within  32 cycles.
 Requested convergence on MAX density matrix=1.00D-06.
 Requested convergence on             energy=1.00D-06.
 No special actions if energy rises.
 SCF Done:  E(RwB97XD) =  -78.5556299059     A.U. after    8 cycles
            NFock=  8  Conv=0.55D-08     -V/T= 2.0051
 QCSCF skips out because SCF is already converged.

 **********************************************************************

            Population analysis using the SCF Density.

 **********************************************************************

 Alpha  occ. eigenvalues --  -10.29079 -10.28725  -0.86408  -0.67230  -0.55932
 Alpha  occ. eigenvalues --   -0.50993  -0.43609  -0.35709
 Alpha virt. eigenvalues --    0.08002   0.14104   0.16465   0.17013   0.24085
 Alpha virt. eigenvalues --    0.37480   0.39272   0.39919   0.46345   0.48884
 Alpha virt. eigenvalues --    0.49365   0.59117   0.66537   0.69143   0.77222
 Alpha virt. eigenvalues --    0.77656   0.84154   0.95309   2.23146   2.28965
 Alpha virt. eigenvalues --    2.33356   2.40702   2.67143   2.81754   2.87870
 Alpha virt. eigenvalues --    2.95111   3.14164   3.31866  23.35216  23.70699
     Molecular Orbital Coefficients:
                           1         2         3         4         5
                           O         O         O         O         O
     Eigenvalues --   -10.29079 -10.28725  -0.86408  -0.67230  -0.55932
   1 1   C  1S          0.07112   0.55888  -0.08868   0.06646  -0.00033
   2        2S          0.05874   0.45996  -0.14016   0.10644  -0.00054
   3        2PX         0.00016  -0.00000   0.02591   0.03704   0.13896
   4        2PY         0.00028   0.00000   0.04616   0.06102  -0.07410
   5        2PZ         0.00000  -0.00001  -0.00131   0.00198   0.00023
   6        3S          0.00098   0.01463   0.37588  -0.29039   0.00149
   7        3PX        -0.00063   0.00039   0.03426   0.05927   0.21748
   8        3PY        -0.00108   0.00071   0.06061   0.09869  -0.11689
   9        3PZ        -0.00001  -0.00003  -0.00220   0.00351   0.00035
  10        4S          0.00409  -0.01452   0.19182  -0.22507   0.00083
  11        4PX         0.00158  -0.00147   0.00473   0.02374   0.11231
  12        4PY         0.00272  -0.00251   0.00842   0.04065  -0.06113
  13        4PZ        -0.00000   0.00008  -0.00076   0.00174   0.00017
  14 2   H  1S         -0.00004  -0.00007   0.05302  -0.08785   0.10312
  15        2S         -0.00031   0.00009   0.05410  -0.10549   0.13036
  16        3S          0.00074   0.00174  -0.00171  -0.01523   0.04221
  17 3   H  1S         -0.00005  -0.00008   0.05429  -0.09133  -0.10650
  18        2S         -0.00030   0.00007   0.05490  -0.10878  -0.13362
  19        3S          0.00076   0.00177  -0.00175  -0.01609  -0.04320
  20 4   C  1S          0.55890  -0.07132  -0.08664  -0.06865  -0.00016
  21        2S          0.46000  -0.05849  -0.13680  -0.11009  -0.00024
  22        2PX        -0.00001  -0.00016  -0.02783   0.03692   0.11678
  23        2PY        -0.00001  -0.00029  -0.04713   0.06595  -0.07351
  24        2PZ        -0.00000   0.00000  -0.00100  -0.00194   0.00024
  25        3S          0.01421  -0.00271   0.36649   0.30082   0.00063
  26        3PX        -0.00025   0.00072  -0.03482   0.06011   0.18298
  27        3PY        -0.00041   0.00124  -0.05895   0.10676  -0.11412
  28        3PZ        -0.00003  -0.00001  -0.00172  -0.00351   0.00037
  29        4S         -0.01270   0.00771   0.18847   0.23865  -0.00056
  30        4PX         0.00099  -0.00185  -0.00545   0.02629   0.10088
  31        4PY         0.00168  -0.00325  -0.00923   0.04552  -0.06219
  32        4PZ         0.00007  -0.00001  -0.00072  -0.00182   0.00019
  33 5   H  1S         -0.00006  -0.00004   0.04930   0.09338  -0.08888
  34        2S         -0.00001  -0.00031   0.05055   0.11165  -0.11221
  35        3S          0.00178   0.00025  -0.00114   0.01676  -0.03599
  36 6   H  1S         -0.00004  -0.00004   0.04821   0.09130   0.08440
  37        2S         -0.00001  -0.00032   0.04989   0.10978   0.10708
  38        3S          0.00174   0.00023  -0.00118   0.01620   0.03468
                           6         7         8         9        10
                           O         O         O         V         V
     Eigenvalues --    -0.50993  -0.43609  -0.35709   0.08002   0.14104
   1 1   C  1S         -0.00384   0.00021  -0.00102   0.00267  -0.03221
   2        2S         -0.00578   0.00036  -0.00165   0.00444  -0.05164
   3        2PX         0.09379  -0.11030  -0.00333   0.00146  -0.03086
   4        2PY         0.16830   0.06530  -0.00565   0.00241  -0.06374
   5        2PZ         0.00501  -0.00000   0.17940  -0.18887  -0.00225
   6        3S          0.02153  -0.00088   0.00483  -0.01343   0.11168
   7        3PX         0.13605  -0.17573  -0.00470   0.00222  -0.03645
   8        3PY         0.24584   0.10447  -0.00798   0.00361  -0.07913
   9        3PZ         0.00794   0.00003   0.28867  -0.27800  -0.00360
  10        4S         -0.05124  -0.00317   0.00671  -0.01511   1.19860
  11        4PX         0.06849  -0.10941  -0.00390   0.01245  -0.18957
  12        4PY         0.12490   0.06579  -0.00663   0.02072  -0.37982
  13        4PZ         0.00452   0.00007   0.26690  -0.69567  -0.01350
  14 2   H  1S         -0.08086  -0.11450   0.00014   0.00420  -0.01587
  15        2S         -0.11151  -0.17655   0.00202   0.00663  -0.04607
  16        3S         -0.04163  -0.08167   0.00118   0.01716  -0.81759
  17 3   H  1S         -0.07860   0.11219   0.00006   0.00420  -0.01199
  18        2S         -0.10773   0.17223   0.00191   0.00671  -0.03646
  19        3S         -0.03987   0.07952   0.00112   0.01691  -0.75225
  20 4   C  1S         -0.00821  -0.00047  -0.00076  -0.00258  -0.03725
  21        2S         -0.01282  -0.00077  -0.00123  -0.00427  -0.05985
  22        2PX        -0.09852   0.12537   0.00321   0.00160   0.04172
  23        2PY        -0.16229  -0.07379   0.00595   0.00300   0.06214
  24        2PZ         0.00523   0.00023   0.17921   0.18946  -0.00309
  25        3S          0.04161   0.00221   0.00364   0.01280   0.13249
  26        3PX        -0.14578   0.20102   0.00448   0.00246   0.05114
  27        3PY        -0.23846  -0.11764   0.00835   0.00460   0.07340
  28        3PZ         0.00827   0.00035   0.28672   0.27770  -0.00469
  29        4S         -0.03127   0.00304   0.00648   0.01449   1.26621
  30        4PX        -0.07608   0.12917   0.00339   0.01258   0.26911
  31        4PY        -0.12304  -0.07471   0.00646   0.02280   0.41807
  32        4PZ         0.00477   0.00020   0.26702   0.69706  -0.01800
  33 5   H  1S         -0.07485  -0.12505   0.00026  -0.00388  -0.01293
  34        2S         -0.10230  -0.19536   0.00210  -0.00650  -0.03865
  35        3S         -0.03808  -0.09201   0.00119  -0.01734  -0.83758
  36 6   H  1S         -0.08031   0.12491   0.00017  -0.00387  -0.01669
  37        2S         -0.11023   0.19606   0.00195  -0.00647  -0.04795
  38        3S         -0.04124   0.09237   0.00110  -0.01752  -0.90400
                          11        12        13        14        15
                           V         V         V         V         V
     Eigenvalues --     0.16465   0.17013   0.24085   0.37480   0.39272
   1 1   C  1S          0.00118  -0.04603   0.00002   0.01015   0.00119
   2        2S          0.00191  -0.07500   0.00003   0.01401   0.00194
   3        2PX         0.09623  -0.02027   0.10030  -0.03594  -0.02348
   4        2PY        -0.05284  -0.03809  -0.05749  -0.06569   0.00862
   5        2PZ         0.00013  -0.00659   0.00003  -0.00466  -0.00018
   6        3S         -0.00406   0.16927   0.00023   0.03296  -0.00216
   7        3PX         0.13790  -0.01158   0.10600  -0.04564  -0.10678
   8        3PY        -0.07682  -0.02506  -0.06168  -0.08821   0.04624
   9        3PZ         0.00019  -0.00916  -0.00002  -0.00959  -0.00023
  10        4S         -0.05471   1.46436  -0.01409  -2.65897  -0.20824
  11        4PX         0.57882  -0.12198   1.17280  -1.57777  -0.54826
  12        4PY        -0.30945  -0.21531  -0.66831  -2.75502   0.14833
  13        4PZ         0.00096  -0.04318   0.00092  -0.04204  -0.00226
  14 2   H  1S         -0.02938  -0.02505   0.01392  -0.05658   0.07567
  15        2S         -0.08154  -0.01698  -0.02215  -0.65180   0.77367
  16        3S         -1.02393  -1.02499  -1.55913  -0.32865  -0.31853
  17 3   H  1S          0.02886  -0.02459  -0.01596  -0.04955  -0.07582
  18        2S          0.08089  -0.02000   0.01677  -0.59664  -0.75719
  19        3S          1.09466  -1.02934   1.58369  -0.39920   0.24114
  20 4   C  1S          0.00130   0.04171  -0.00007  -0.02021  -0.00005
  21        2S          0.00208   0.06791  -0.00013  -0.03319   0.00013
  22        2PX         0.10216  -0.02268  -0.09999  -0.04148  -0.03175
  23        2PY        -0.06211  -0.03681   0.05731  -0.07360   0.01372
  24        2PZ         0.00021   0.00624  -0.00005   0.00331   0.00034
  25        3S         -0.00416  -0.15098   0.00032   0.04415  -0.00502
  26        3PX         0.14702  -0.01782  -0.11368  -0.09388  -0.10855
  27        3PY        -0.08822  -0.02662   0.06404  -0.16921   0.05909
  28        3PZ         0.00030   0.00858  -0.00003   0.00395   0.00068
  29        4S         -0.06108  -1.30977   0.00890   3.35545   0.16795
  30        4PX         0.53969  -0.11223  -1.11869  -1.19703  -0.55717
  31        4PY        -0.33457  -0.19150   0.65079  -2.10022   0.07478
  32        4PZ         0.00133   0.04067  -0.00101   0.03540   0.00262
  33 5   H  1S          0.03159   0.02491   0.00581   0.01003  -0.08049
  34        2S          0.06832   0.02272  -0.03497   0.06742  -0.78418
  35        3S          1.08422   0.92125  -1.51166   0.45771   0.48883
  36 6   H  1S         -0.03173   0.02557  -0.00439   0.00536   0.08836
  37        2S         -0.06884   0.02067   0.03644   0.02460   0.89836
  38        3S         -1.00274   0.92390   1.49584   0.47025  -0.46676
                          16        17        18        19        20
                           V         V         V         V         V
     Eigenvalues --     0.39919   0.46345   0.48884   0.49365   0.59117
   1 1   C  1S         -0.01791   0.01379  -0.04592  -0.00079  -0.00052
   2        2S         -0.03156   0.03109  -0.07654  -0.00104  -0.00093
   3        2PX         0.02576  -0.06155   0.01025   0.00132   0.00201
   4        2PY         0.04817  -0.10720   0.01281   0.00186   0.00304
   5        2PZ         0.00023  -0.00062   0.00648  -0.15143  -0.19268
   6        3S          0.07464  -0.33869   0.08024  -0.00866  -0.00087
   7        3PX         0.09949  -0.23904  -0.04069   0.00014   0.00673
   8        3PY         0.19131  -0.41458  -0.08008  -0.00109   0.01023
   9        3PZ        -0.00382  -0.00480   0.02857  -0.62710  -0.68576
  10        4S          2.63810   0.01619   3.14894   0.12318   0.06853
  11        4PX         0.20587   0.19625   0.81158   0.03742   0.02075
  12        4PY         0.40979   0.36854   1.40328   0.06637   0.03712
  13        4PZ        -0.00313   0.00231  -0.09427   0.68329   1.24182
  14 2   H  1S         -0.02532  -0.03208  -0.07711  -0.00337  -0.00165
  15        2S         -0.52896  -0.30382  -0.93009  -0.03445  -0.01213
  16        3S          0.28917   0.04465   0.63480   0.03653   0.02277
  17 3   H  1S         -0.03459  -0.03402  -0.07531  -0.00330  -0.00159
  18        2S         -0.61536  -0.32575  -0.90439  -0.03364  -0.01117
  19        3S          0.30850   0.04529   0.60567   0.03536   0.02237
  20 4   C  1S         -0.00142  -0.00432   0.05095   0.00350   0.00070
  21        2S         -0.00592   0.00032   0.08893   0.00631   0.00132
  22        2PX         0.00755   0.05408   0.02855   0.00044   0.00195
  23        2PY         0.01606   0.09283   0.05162   0.00061   0.00381
  24        2PZ        -0.00354  -0.00177   0.00658  -0.15279   0.19223
  25        3S          0.08135  -0.27882  -0.24287  -0.02346  -0.00271
  26        3PX        -0.04709   0.23292   0.06181   0.00103   0.00683
  27        3PY        -0.06750   0.40425   0.10909   0.00089   0.01330
  28        3PZ        -0.01010  -0.00721   0.02476  -0.63156   0.68199
  29        4S         -0.81972   0.87180  -3.05323  -0.14100  -0.06002
  30        4PX         1.22226  -0.37527   0.61061   0.02187   0.02169
  31        4PY         2.21814  -0.62849   1.04378   0.03750   0.03577
  32        4PZ        -0.03081  -0.01604   0.02678   0.69539  -1.23755
  33 5   H  1S         -0.04907  -0.06593   0.06219   0.00294   0.00153
  34        2S         -0.86002  -0.67338   0.77974   0.04221   0.00602
  35        3S         -0.17266   0.29442  -0.54371  -0.01598  -0.02213
  36 6   H  1S         -0.03952  -0.06498   0.06218   0.00296   0.00156
  37        2S         -0.75165  -0.66055   0.77726   0.04193   0.00632
  38        3S         -0.20383   0.31059  -0.56047  -0.01723  -0.02246
                          21        22        23        24        25
                           V         V         V         V         V
     Eigenvalues --     0.66537   0.69143   0.77222   0.77656   0.84154
   1 1   C  1S          0.00081  -0.00059   0.05078   0.07363   0.00099
   2        2S          0.00168  -0.00128   0.10714   0.15695   0.00229
   3        2PX        -0.12297   0.20400  -0.02658   0.11358  -0.00784
   4        2PY         0.07144  -0.12230  -0.04513   0.18501   0.01363
   5        2PZ        -0.00006   0.00017   0.00064   0.00481   0.00015
   6        3S         -0.01323   0.01568  -0.71859  -1.35486  -0.02536
   7        3PX        -0.58391   0.72411  -0.17929   0.44456  -0.21682
   8        3PY         0.33586  -0.43418  -0.30577   0.71369   0.16195
   9        3PZ        -0.00038   0.00065   0.00243   0.01680   0.00049
  10        4S          0.01880  -0.06225   0.67801   2.47877   0.00781
  11        4PX         1.07552  -0.82261   0.17462  -0.76281   4.50566
  12        4PY        -0.61930   0.50627   0.19878  -1.00107  -2.56839
  13        4PZ         0.00045   0.00107   0.00937  -0.05416   0.00406
  14 2   H  1S          0.02066  -0.05995   0.01025   0.03243  -0.02684
  15        2S          0.09708  -0.64774   0.07517   0.10101  -1.56664
  16        3S         -0.99964   1.15795  -0.09581  -1.10429  -1.23455
  17 3   H  1S         -0.01988   0.05936   0.01027   0.03302   0.03036
  18        2S         -0.10822   0.67749   0.10577   0.06275   1.60537
  19        3S          0.99236  -1.11772  -0.07241  -1.25342   1.22940
  20 4   C  1S          0.00100  -0.00036   0.08393   0.03131   0.00055
  21        2S          0.00205  -0.00068   0.17863   0.06596   0.00107
  22        2PX        -0.15993  -0.17788  -0.09658   0.05150   0.01220
  23        2PY         0.09155   0.09862  -0.17457   0.09486   0.00098
  24        2PZ        -0.00012  -0.00019   0.00484  -0.00100  -0.00014
  25        3S         -0.01551  -0.00077  -1.49349  -0.38066  -0.00275
  26        3PX        -0.70984  -0.59203  -0.35230   0.27476   0.24704
  27        3PY         0.40924   0.32516  -0.64304   0.50450  -0.10324
  28        3PZ        -0.00061  -0.00066   0.01716  -0.00380  -0.00035
  29        4S          0.01516   0.03591   2.70187   0.13069  -0.01943
  30        4PX         1.29103   0.68519   0.50364  -0.22998  -4.16813
  31        4PY        -0.74065  -0.36667   1.01655  -0.66767   2.38882
  32        4PZ         0.00101  -0.00077  -0.05019   0.02436  -0.00382
  33 5   H  1S         -0.02793  -0.05379   0.03477   0.00300  -0.02330
  34        2S         -0.17745  -0.55028   0.06543   0.08016  -1.41159
  35        3S          1.15041   0.91947  -1.16314   0.29344  -1.09216
  36 6   H  1S          0.02859   0.05377   0.03432   0.00351   0.02270
  37        2S          0.16907   0.52254   0.07295   0.01817   1.39573
  38        3S         -1.15466  -0.94236  -1.08422   0.21417   1.10415
                          26        27        28        29        30
                           V         V         V         V         V
     Eigenvalues --     0.95309   2.23146   2.28965   2.33356   2.40702
   1 1   C  1S          0.09578  -0.01060  -0.01472   0.00037  -0.00046
   2        2S          0.19905   0.00077  -0.01518   0.00079  -0.00058
   3        2PX        -0.09167  -0.07958  -0.13134   0.34025  -0.41226
   4        2PY        -0.15883  -0.14953  -0.23146  -0.19289   0.23247
   5        2PZ         0.00020  -0.01354  -0.01781   0.00010  -0.00071
   6        3S         -1.54075  -0.18438  -0.03257  -0.00104  -0.00419
   7        3PX        -0.23591   0.07526   0.20713  -0.40426   0.57427
   8        3PY        -0.40166   0.15493   0.37726   0.23118  -0.32545
   9        3PZ        -0.00246   0.01353   0.02214  -0.00000   0.00081
  10        4S          5.71630  -0.12344  -0.89500   0.00163  -0.01387
  11        4PX         1.20467   0.05363  -0.18596  -0.03915   0.98154
  12        4PY         1.99134   0.07270  -0.35478   0.01449  -0.54068
  13        4PZ        -0.01846   0.00351   0.00830  -0.00025   0.00162
  14 2   H  1S          0.01512  -0.71591  -0.78878  -0.69404   0.66456
  15        2S         -0.28972   1.02006   1.18364   1.06511  -1.47712
  16        3S         -0.09451  -0.30229  -0.47040  -0.46039   0.37283
  17 3   H  1S          0.01550  -0.70658  -0.78390   0.68939  -0.68550
  18        2S         -0.25997   1.00714   1.18150  -1.06130   1.52080
  19        3S         -0.07412  -0.28085  -0.45113   0.45193  -0.36438
  20 4   C  1S         -0.09397  -0.01002   0.01208   0.00043   0.00027
  21        2S         -0.19495   0.00069   0.01188   0.00059   0.00052
  22        2PX        -0.09281   0.13356  -0.12499   0.30965   0.41285
  23        2PY        -0.16029   0.23233  -0.20999  -0.17932  -0.23851
  24        2PZ         0.00034  -0.01383   0.01716   0.00039   0.00040
  25        3S          1.50617  -0.16929   0.01979   0.00045  -0.00009
  26        3PX        -0.22886  -0.17142   0.21508  -0.39001  -0.57893
  27        3PY        -0.40096  -0.29347   0.35468   0.22323   0.33507
  28        3PZ         0.00353   0.01491  -0.02194  -0.00042  -0.00054
  29        4S         -5.68888  -0.15838   0.88569   0.01298  -0.00039
  30        4PX         1.10555  -0.01350  -0.20137   0.10102  -0.84999
  31        4PY         1.99145  -0.03245  -0.31917  -0.05604   0.50228
  32        4PZ         0.01179   0.00408  -0.00618  -0.00008  -0.00140
  33 5   H  1S         -0.01812  -0.78308   0.68353   0.71550   0.67416
  34        2S          0.28937   1.13655  -1.04365  -1.04395  -1.43903
  35        3S          0.05481  -0.35491   0.40571   0.51787   0.42102
  36 6   H  1S         -0.01807  -0.77744   0.70142  -0.70478  -0.67307
  37        2S          0.31313   1.12572  -1.06405   1.02528   1.42937
  38        3S          0.06652  -0.35633   0.43089  -0.51602  -0.42943
                          31        32        33        34        35
                           V         V         V         V         V
     Eigenvalues --     2.67143   2.81754   2.87870   2.95111   3.14164
   1 1   C  1S          0.00051   0.00245  -0.01311   0.00003  -0.00965
   2        2S          0.00043   0.00711  -0.04391  -0.00019  -0.02957
   3        2PX         0.00530   0.07064  -0.46829  -0.72807   0.45288
   4        2PY         0.00814   0.12465  -0.84669   0.41132   0.78638
   5        2PZ        -0.92295  -0.93174  -0.13617  -0.00098   0.00693
   6        3S         -0.00190  -0.05900   0.38749   0.00353   0.24856
   7        3PX        -0.00412  -0.12272   0.83295   0.87854  -0.43970
   8        3PY        -0.00630  -0.21461   1.47917  -0.48373  -0.75996
   9        3PZ         0.93746   1.13890   0.17091   0.00136  -0.00904
  10        4S          0.01347   0.13714  -0.87305  -0.01043  -0.48422
  11        4PX        -0.00173   0.09862  -0.71425  -0.66431   0.22639
  12        4PY        -0.00243   0.17332  -1.27009   0.35555   0.38406
  13        4PZ        -0.33710  -0.61649  -0.10842  -0.00110   0.00559
  14 2   H  1S          0.01177  -0.01914   0.26353  -0.37375  -0.21514
  15        2S         -0.01346   0.01186  -0.21994   0.38216   0.16205
  16        3S         -0.00299   0.04026  -0.30127   0.27687   0.06035
  17 3   H  1S          0.01193  -0.01857   0.25455   0.37368  -0.21799
  18        2S         -0.01382   0.01038  -0.20354  -0.37808   0.16463
  19        3S         -0.00341   0.04043  -0.30215  -0.29263   0.07076
  20 4   C  1S          0.00048  -0.00241   0.01369   0.00049  -0.00718
  21        2S          0.00044  -0.00751   0.04812   0.00111  -0.02280
  22        2PX        -0.00680   0.06312  -0.41226  -0.80638  -0.50123
  23        2PY        -0.01283   0.11239  -0.72723   0.44669  -0.88982
  24        2PZ        -0.92653   0.92762   0.13810   0.00002   0.01239
  25        3S         -0.00237   0.06469  -0.43341  -0.00815   0.19802
  26        3PX         0.00693  -0.11506   0.77453   0.95848   0.53521
  27        3PY         0.01286  -0.20335   1.36074  -0.52491   0.95866
  28        3PZ         0.94226  -1.13477  -0.17417  -0.00001  -0.01553
  29        4S          0.01450  -0.14049   0.90969   0.02454  -0.37851
  30        4PX        -0.00055   0.09820  -0.71230  -0.69876  -0.32434
  31        4PY        -0.00156   0.17177  -1.24091   0.37917  -0.58530
  32        4PZ        -0.33961   0.61456   0.11135  -0.00006   0.01212
  33 5   H  1S          0.01125   0.02705  -0.29490   0.41943  -0.26334
  34        2S         -0.01388  -0.02207   0.26882  -0.43286   0.20737
  35        3S         -0.00130  -0.03695   0.28042  -0.24191   0.12434
  36 6   H  1S          0.01136   0.02713  -0.29250  -0.43016  -0.25070
  37        2S         -0.01431  -0.02287   0.27154   0.44309   0.19719
  38        3S         -0.00090  -0.03536   0.26788   0.24237   0.11579
                          36        37        38
                           V         V         V
     Eigenvalues --     3.31866  23.35216  23.70699
   1 1   C  1S         -0.00032  -1.41057  -1.45564
   2        2S         -0.00041   1.50430   1.57413
   3        2PX         0.78719  -0.00662   0.01202
   4        2PY        -0.43948  -0.01085   0.02109
   5        2PZ         0.00101  -0.00055  -0.00025
   6        3S         -0.00129  -0.29502  -0.40059
   7        3PX        -1.12739   0.02450  -0.05568
   8        3PY         0.62428   0.04075  -0.09692
   9        3PZ        -0.00156   0.00156   0.00075
  10        4S         -0.00155   0.27174   0.77140
  11        4PX         1.97701  -0.02696   0.13360
  12        4PY        -1.09276  -0.04568   0.22951
  13        4PZ         0.00266  -0.00261  -0.00305
  14 2   H  1S          0.56325   0.01362   0.00759
  15        2S         -0.87452   0.00739  -0.01526
  16        3S         -0.46729  -0.08449  -0.03988
  17 3   H  1S         -0.57391   0.01530   0.00864
  18        2S          0.89001   0.00708  -0.01510
  19        3S          0.49314  -0.08665  -0.03980
  20 4   C  1S          0.00008  -1.45083   1.41534
  21        2S         -0.00018   1.54741  -1.53070
  22        2PX        -0.70736   0.00587   0.01267
  23        2PY         0.40790   0.01059   0.02159
  24        2PZ        -0.00092  -0.00052   0.00012
  25        3S          0.00470  -0.30390   0.39008
  26        3PX         1.00620  -0.02179  -0.05679
  27        3PY        -0.58905  -0.03888  -0.09771
  28        3PZ         0.00139   0.00150  -0.00030
  29        4S         -0.01945   0.28215  -0.76034
  30        4PX        -1.76960   0.02251   0.13119
  31        4PY         1.04452   0.04118   0.22797
  32        4PZ        -0.00239  -0.00244   0.00209
  33 5   H  1S          0.48346   0.01287  -0.00426
  34        2S         -0.75443   0.00832   0.01330
  35        3S         -0.42639  -0.08282   0.03673
  36 6   H  1S         -0.47756   0.01152  -0.00326
  37        2S          0.74751   0.00929   0.01311
  38        3S          0.41390  -0.08097   0.03648
     Density Matrix:
                           1         2         3         4         5
   1 1   C  1S          0.65940
   2        2S          0.56153   0.49204
   3        2PX        -0.00050  -0.00067   0.08465
   4        2PY        -0.00124  -0.00171   0.00352   0.08793
   5        2PZ         0.00009   0.00013  -0.00011  -0.00026   0.06443
   6        3S         -0.08894  -0.15388   0.00258   0.00612  -0.00019
   7        3PX         0.00090   0.00138   0.13092   0.00106  -0.00008
   8        3PY         0.00125   0.00193   0.00109   0.13145  -0.00022
   9        3PZ         0.00017   0.00029  -0.00020  -0.00041   0.10367
  10        4S         -0.07921  -0.11400  -0.01546  -0.02762   0.00050
  11        4PX         0.00026   0.00158   0.07022  -0.00450  -0.00058
  12        4PY         0.00061   0.00299  -0.00458   0.06551  -0.00102
  13        4PZ        -0.00012  -0.00027  -0.00080  -0.00137   0.09581
  14 2   H  1S         -0.02066  -0.03289   0.03499  -0.06328  -0.00120
  15        2S         -0.02286  -0.03656   0.04923  -0.08782  -0.00089
  16        3S          0.00058  -0.00071   0.02071  -0.03296  -0.00003
  17 3   H  1S         -0.02114  -0.03363  -0.07304  -0.00215  -0.00132
  18        2S         -0.02318  -0.03701  -0.10056  -0.00219  -0.00103
  19        3S          0.00062  -0.00066  -0.03832   0.00123  -0.00008
  20 4   C  1S          0.00609   0.00982  -0.01087  -0.01886  -0.00040
  21        2S          0.00978   0.01530  -0.01739  -0.03018  -0.00065
  22        2PX         0.01038   0.01660  -0.01241  -0.03220   0.00044
  23        2PY         0.01806   0.02887  -0.03219  -0.04974   0.00086
  24        2PZ        -0.00048  -0.00078  -0.00039  -0.00060   0.06435
  25        3S         -0.02635  -0.04001   0.04876   0.08472   0.00195
  26        3PX         0.01600   0.02481  -0.01822  -0.04587   0.00056
  27        3PY         0.02781   0.04311  -0.04569  -0.07122   0.00113
  28        3PZ        -0.00082  -0.00132  -0.00068  -0.00105   0.10294
  29        4S          0.00534   0.00392   0.02071   0.03640   0.00246
  30        4PX         0.00310   0.00639  -0.01309  -0.02102   0.00062
  31        4PY         0.00524   0.01090  -0.02103  -0.03732   0.00126
  32        4PZ        -0.00070  -0.00113  -0.00105  -0.00170   0.09585
  33 5   H  1S          0.00419   0.00688  -0.00169  -0.01241  -0.00046
  34        2S          0.00630   0.01047   0.00360  -0.02505  -0.00001
  35        3S          0.00324   0.00473   0.00433  -0.01757   0.00010
  36 6   H  1S          0.00414   0.00680  -0.00990  -0.00764  -0.00047
  37        2S          0.00623   0.01038  -0.02346  -0.00939  -0.00005
  38        3S          0.00320   0.00470  -0.01734  -0.00510   0.00006
                           6         7         8         9        10
   6        3S          0.45263
   7        3PX        -0.00189   0.20280
   8        3PY        -0.00176  -0.00475   0.19698
   9        3PZ        -0.00056  -0.00015  -0.00035   0.16682
  10        4S          0.27236  -0.02608  -0.04736   0.00064   0.18072
  11        4PX        -0.00683   0.10911  -0.01013  -0.00095  -0.01501
  12        4PY        -0.01233  -0.01028   0.09859  -0.00163  -0.02838
  13        4PZ         0.00119  -0.00107  -0.00181   0.15418   0.00204
  14 2   H  1S          0.08790   0.05631  -0.09870  -0.00199   0.06907
  15        2S          0.09785   0.07959  -0.13649  -0.00150   0.08103
  16        3S          0.00610   0.03380  -0.05063  -0.00005   0.01103
  17 3   H  1S          0.08995  -0.11425  -0.00175  -0.00216   0.06911
  18        2S          0.09913  -0.15712  -0.00059  -0.00170   0.07977
  19        3S          0.00611  -0.05962   0.00371  -0.00012   0.01005
  20 4   C  1S         -0.02661  -0.01697  -0.02945  -0.00068   0.00514
  21        2S         -0.04028  -0.02636  -0.04578  -0.00109   0.00384
  22        2PX        -0.04645  -0.01763  -0.04569   0.00076  -0.01775
  23        2PY        -0.08077  -0.04566  -0.07081   0.00147  -0.03070
  24        2PZ         0.00233  -0.00054  -0.00080   0.10354   0.00236
  25        3S          0.10258   0.07153   0.12448   0.00326   0.00116
  26        3PX        -0.06711  -0.02603  -0.06488   0.00098  -0.02641
  27        3PY        -0.11661  -0.06464  -0.10135   0.00196  -0.04560
  28        3PZ         0.00388  -0.00094  -0.00142   0.16565   0.00392
  29        4S          0.00199   0.03134   0.05528   0.00409  -0.03217
  30        4PX        -0.02259  -0.01951  -0.02953   0.00103  -0.00667
  31        4PY        -0.03876  -0.02957  -0.05381   0.00209  -0.01086
  32        4PZ         0.00330  -0.00147  -0.00237   0.15423   0.00364
  33 5   H  1S         -0.02044  -0.00063  -0.01775  -0.00067  -0.01480
  34        2S         -0.03124   0.00870  -0.03676   0.00006  -0.01930
  35        3S         -0.01215   0.00822  -0.02639   0.00018  -0.00353
  36 6   H  1S         -0.02021  -0.01492  -0.00926  -0.00068  -0.01502
  37        2S         -0.03102  -0.03591  -0.01058   0.00001  -0.02001
  38        3S         -0.01211  -0.02677  -0.00605   0.00013  -0.00402
                          11        12        13        14        15
  11        4PX         0.05976
  12        4PY        -0.00894   0.05089
  13        4PZ        -0.00136  -0.00229   0.14251
  14 2   H  1S          0.03347  -0.05412  -0.00102   0.08162
  15        2S          0.04812  -0.07472  -0.00036   0.10962   0.14931
  16        3S          0.02090  -0.02759   0.00021   0.03664   0.05216
  17 3   H  1S         -0.06306   0.00164  -0.00110  -0.01314  -0.02471
  18        2S         -0.08712   0.00415  -0.00044  -0.02464  -0.04273
  19        3S         -0.03336   0.00443   0.00018  -0.01803  -0.02724
  20 4   C  1S         -0.00315  -0.00573  -0.00060   0.00424   0.00671
  21        2S         -0.00652  -0.01172  -0.00096   0.00701   0.01120
  22        2PX        -0.01323  -0.01990   0.00105   0.00187  -0.00263
  23        2PY        -0.01996  -0.03677   0.00198   0.01140   0.02409
  24        2PZ        -0.00078  -0.00124   0.09570  -0.00056  -0.00016
  25        3S          0.02313   0.04127   0.00281  -0.02110  -0.03371
  26        3PX        -0.02037  -0.02810   0.00142   0.00103  -0.00719
  27        3PY        -0.02812  -0.05352   0.00271   0.01696   0.03610
  28        3PZ        -0.00128  -0.00205   0.15311  -0.00082  -0.00016
  29        4S          0.00793   0.01504   0.00372  -0.01770  -0.02417
  30        4PX        -0.01485  -0.01233   0.00127  -0.00167  -0.00846
  31        4PY        -0.01244  -0.02948   0.00248   0.01520   0.02703
  32        4PZ        -0.00152  -0.00250   0.14257  -0.00046   0.00030
  33 5   H  1S          0.00204  -0.01587  -0.00033   0.01123   0.02331
  34        2S          0.00929  -0.02764   0.00045   0.02388   0.04446
  35        3S          0.00761  -0.01588   0.00033   0.01674   0.02794
  36 6   H  1S         -0.01459  -0.00571  -0.00035  -0.00914  -0.01823
  37        2S         -0.02828  -0.00509   0.00041  -0.01898  -0.03448
  38        3S         -0.01732  -0.00110   0.00030  -0.01030  -0.01792
                          16        17        18        19        20
  16        3S          0.02085
  17 3   H  1S         -0.01818   0.08279
  18        2S         -0.02731   0.10987   0.14795
  19        3S         -0.01281   0.03606   0.05084   0.02009
  20 4   C  1S          0.00371   0.00431   0.00672   0.00370   0.65948
  21        2S          0.00547   0.00711   0.01120   0.00543   0.56156
  22        2PX        -0.00344   0.00898   0.02213   0.01662   0.00122
  23        2PY         0.01752   0.00745   0.00969   0.00561   0.00188
  24        2PZ         0.00003  -0.00055  -0.00012   0.00007   0.00008
  25        3S         -0.01417  -0.02133  -0.03357  -0.01396  -0.08923
  26        3PX        -0.00695   0.01428   0.03487   0.02598  -0.00046
  27        3PY         0.02641   0.00950   0.01169   0.00696  -0.00104
  28        3PZ         0.00008  -0.00081  -0.00009   0.00013   0.00018
  29        4S         -0.00583  -0.01741  -0.02326  -0.00529  -0.08022
  30        4PX        -0.00703   0.01406   0.02762   0.01707  -0.00021
  31        4PY         0.01585   0.00651   0.00650   0.00187  -0.00021
  32        4PZ         0.00028  -0.00046   0.00033   0.00030  -0.00003
  33 5   H  1S          0.01614  -0.00906  -0.01809  -0.00942  -0.02005
  34        2S          0.02739  -0.01876  -0.03400  -0.01699  -0.02216
  35        3S          0.01466  -0.01018  -0.01764  -0.00902   0.00057
  36 6   H  1S         -0.00954   0.01123   0.02320   0.01587  -0.01976
  37        2S         -0.01732   0.02388   0.04427   0.02701  -0.02209
  38        3S         -0.00921   0.01673   0.02778   0.01447   0.00047
                          21        22        23        24        25
  21        2S          0.49205
  22        2PX         0.00177   0.08242
  23        2PY         0.00269   0.00384   0.08758
  24        2PZ         0.00012   0.00015   0.00021   0.06429
  25        3S         -0.15420  -0.00566  -0.00875  -0.00016   0.45354
  26        3PX        -0.00069   0.12827   0.00201   0.00010  -0.00035
  27        3PY        -0.00157   0.00205   0.13127   0.00009   0.00056
  28        3PZ         0.00030   0.00022   0.00032   0.10287  -0.00060
  29        4S         -0.11592   0.01396   0.02357   0.00069   0.27879
  30        4PX        -0.00148   0.07321  -0.00518   0.00044   0.00626
  31        4PY        -0.00228  -0.00510   0.06706   0.00080   0.01009
  32        4PZ        -0.00012   0.00078   0.00140   0.09576   0.00072
  33 5   H  1S         -0.03194  -0.03321   0.06349  -0.00125   0.08543
  34        2S         -0.03541  -0.04959   0.08852  -0.00099   0.09472
  35        3S         -0.00064  -0.02266   0.03356  -0.00009   0.00569
  36 6   H  1S         -0.03150   0.07091   0.00272  -0.00113   0.08425
  37        2S         -0.03532   0.10123   0.00090  -0.00084   0.09446
  38        3S         -0.00077   0.04066  -0.00308  -0.00004   0.00596
                          26        27        28        29        30
  26        3PX         0.19998
  27        3PY        -0.00252   0.19734
  28        3PZ         0.00013   0.00013   0.16458
  29        4S          0.02577   0.04320   0.00087   0.18745
  30        4PX         0.11460  -0.01083   0.00068   0.01592   0.06677
  31        4PY        -0.01075   0.10136   0.00128   0.02555  -0.01057
  32        4PZ         0.00098   0.00179   0.15321   0.00202   0.00109
  33 5   H  1S         -0.05318   0.09954  -0.00206   0.06718  -0.03447
  34        2S         -0.07986   0.13828  -0.00166   0.07771  -0.05221
  35        3S         -0.03695   0.05176  -0.00015   0.00941  -0.02433
  36 6   H  1S          0.11214   0.00346  -0.00189   0.06744   0.06580
  37        2S          0.15989  -0.00041  -0.00143   0.07919   0.09427
  38        3S          0.06389  -0.00637  -0.00007   0.01036   0.03801
                          31        32        33        34        35
  31        4PY         0.05360
  32        4PZ         0.00207   0.14266
  33 5   H  1S          0.05576  -0.00107   0.08058
  34        2S          0.07759  -0.00045   0.10996   0.15250
  35        3S          0.02916   0.00016   0.03813   0.05545   0.02299
  36 6   H  1S         -0.00197  -0.00100  -0.01242  -0.02605  -0.01999
  37        2S         -0.00639  -0.00036  -0.02614  -0.04851  -0.03182
  38        3S         -0.00645   0.00019  -0.02018  -0.03193  -0.01580
                          36        37        38
  36 6   H  1S          0.07967
  37        2S          0.10962   0.15320
  38        3S          0.03840   0.05618   0.02341
    Full Mulliken population analysis:
                           1         2         3         4         5
   1 1   C  1S          0.65940
   2        2S          0.49327   0.49204
   3        2PX         0.00000   0.00000   0.08465
   4        2PY         0.00000   0.00000   0.00000   0.08793
   5        2PZ         0.00000   0.00000   0.00000   0.00000   0.06443
   6        3S         -0.02928  -0.06444   0.00000   0.00000   0.00000
   7        3PX         0.00000   0.00000   0.08237   0.00000   0.00000
   8        3PY         0.00000   0.00000   0.00000   0.08270   0.00000
   9        3PZ         0.00000   0.00000   0.00000   0.00000   0.06522
  10        4S         -0.01218  -0.02133   0.00000   0.00000   0.00000
  11        4PX         0.00000   0.00000   0.01547   0.00000   0.00000
  12        4PY         0.00000   0.00000   0.00000   0.01443   0.00000
  13        4PZ         0.00000   0.00000   0.00000   0.00000   0.02110
  14 2   H  1S         -0.00024  -0.00034   0.00185   0.00572   0.00000
  15        2S         -0.00168  -0.00322   0.00434   0.01325   0.00000
  16        3S          0.00005  -0.00007   0.00070   0.00190   0.00000
  17 3   H  1S         -0.00026  -0.00038   0.00803   0.00000   0.00000
  18        2S         -0.00175  -0.00335   0.01781   0.00000   0.00001
  19        3S          0.00005  -0.00006   0.00255  -0.00000   0.00000
  20 4   C  1S          0.00000   0.00000  -0.00002  -0.00006   0.00000
  21        2S          0.00000  -0.00000  -0.00002  -0.00006   0.00000
  22        2PX        -0.00002  -0.00002   0.00011   0.00086   0.00000
  23        2PY        -0.00006  -0.00005   0.00086   0.00198   0.00000
  24        2PZ        -0.00000  -0.00000  -0.00000  -0.00000   0.00042
  25        3S         -0.00059  -0.00100   0.00255   0.00768  -0.00000
  26        3PX        -0.00054  -0.00100   0.00019   0.00556   0.00000
  27        3PY        -0.00164  -0.00300   0.00554   0.01071   0.00000
  28        3PZ        -0.00000  -0.00000  -0.00000  -0.00000   0.00613
  29        4S          0.00034   0.00030   0.00094   0.00286  -0.00000
  30        4PX        -0.00018  -0.00045  -0.00071   0.00146   0.00000
  31        4PY        -0.00053  -0.00134   0.00146   0.00096   0.00000
  32        4PZ        -0.00000  -0.00000  -0.00000  -0.00000   0.00903
  33 5   H  1S          0.00000   0.00000  -0.00000  -0.00000   0.00000
  34        2S          0.00001   0.00002   0.00000  -0.00031   0.00000
  35        3S          0.00008   0.00013   0.00001  -0.00070  -0.00000
  36 6   H  1S          0.00000   0.00000  -0.00000  -0.00000   0.00000
  37        2S          0.00001   0.00002  -0.00024  -0.00006   0.00000
  38        3S          0.00007   0.00013  -0.00057  -0.00012  -0.00000
                           6         7         8         9        10
   6        3S          0.45263
   7        3PX         0.00000   0.20280
   8        3PY         0.00000   0.00000   0.19698
   9        3PZ         0.00000   0.00000   0.00000   0.16682
  10        4S          0.21100   0.00000   0.00000   0.00000   0.18072
  11        4PX         0.00000   0.07130   0.00000   0.00000   0.00000
  12        4PY         0.00000   0.00000   0.06442   0.00000   0.00000
  13        4PZ         0.00000   0.00000   0.00000   0.10075   0.00000
  14 2   H  1S          0.01628   0.01087   0.03265   0.00002   0.01832
  15        2S          0.04137   0.01963   0.05766   0.00002   0.04682
  16        3S          0.00282   0.00396   0.01017   0.00000   0.00833
  17 3   H  1S          0.01718   0.04467   0.00001   0.00002   0.01855
  18        2S          0.04265   0.07738   0.00000   0.00002   0.04651
  19        3S          0.00284   0.01382  -0.00001   0.00000   0.00764
  20 4   C  1S         -0.00060  -0.00058  -0.00173   0.00000   0.00033
  21        2S         -0.00101  -0.00106  -0.00319   0.00000   0.00029
  22        2PX         0.00243   0.00018   0.00554   0.00000   0.00081
  23        2PY         0.00732   0.00553   0.01065   0.00000   0.00242
  24        2PZ         0.00000  -0.00000  -0.00000   0.00617   0.00000
  25        3S          0.02193   0.01343   0.04048  -0.00000   0.00044
  26        3PX         0.01260  -0.00127   0.01853   0.00000   0.00407
  27        3PY         0.03792   0.01846   0.02847   0.00000   0.01218
  28        3PZ         0.00000  -0.00000  -0.00000   0.03541   0.00000
  29        4S          0.00076   0.00483   0.01476  -0.00000  -0.02022
  30        4PX         0.00635  -0.00401   0.00584   0.00000   0.00202
  31        4PY         0.01887   0.00585   0.00123   0.00000   0.00570
  32        4PZ         0.00000  -0.00000  -0.00000   0.04934   0.00000
  33 5   H  1S         -0.00005  -0.00000  -0.00019   0.00000  -0.00079
  34        2S         -0.00120   0.00006  -0.00320  -0.00000  -0.00322
  35        3S         -0.00197   0.00011  -0.00424  -0.00000  -0.00127
  36 6   H  1S         -0.00005  -0.00012  -0.00005   0.00000  -0.00079
  37        2S         -0.00116  -0.00254  -0.00051  -0.00000  -0.00330
  38        3S         -0.00195  -0.00353  -0.00055  -0.00000  -0.00144
                          11        12        13        14        15
  11        4PX         0.05976
  12        4PY         0.00000   0.05089
  13        4PZ         0.00000   0.00000   0.14251
  14 2   H  1S          0.00632   0.01750   0.00001   0.08162
  15        2S          0.01528   0.04064   0.00001   0.07743   0.14931
  16        3S          0.00519   0.01175  -0.00000   0.01369   0.04115
  17 3   H  1S          0.02363  -0.00000   0.00001  -0.00001  -0.00067
  18        2S          0.05477  -0.00002   0.00001  -0.00067  -0.00544
  19        3S          0.01636  -0.00002  -0.00000  -0.00203  -0.00800
  20 4   C  1S         -0.00018  -0.00058   0.00000   0.00000   0.00002
  21        2S         -0.00046  -0.00144   0.00000   0.00000   0.00003
  22        2PX        -0.00072   0.00138   0.00000  -0.00000   0.00000
  23        2PY         0.00138   0.00095   0.00000  -0.00000  -0.00036
  24        2PZ        -0.00000  -0.00000   0.00902   0.00000   0.00000
  25        3S          0.00650   0.02009  -0.00000  -0.00007  -0.00150
  26        3PX        -0.00419   0.00556   0.00000  -0.00000   0.00004
  27        3PY         0.00556   0.00122   0.00000  -0.00023  -0.00358
  28        3PZ        -0.00000  -0.00000   0.04899   0.00000   0.00000
  29        4S          0.00240   0.00789  -0.00000  -0.00104  -0.00436
  30        4PX        -0.00716   0.00312   0.00000   0.00001   0.00018
  31        4PY         0.00314  -0.00561   0.00000  -0.00243  -0.01022
  32        4PZ        -0.00000  -0.00000   0.08959   0.00000  -0.00000
  33 5   H  1S          0.00002  -0.00234   0.00000   0.00000   0.00000
  34        2S          0.00027  -0.00989  -0.00000   0.00000   0.00016
  35        3S          0.00029  -0.00732  -0.00000   0.00023   0.00147
  36 6   H  1S         -0.00176  -0.00047   0.00000  -0.00000  -0.00004
  37        2S         -0.00829  -0.00103  -0.00000  -0.00004  -0.00092
  38        3S         -0.00657  -0.00029  -0.00000  -0.00047  -0.00249
                          16        17        18        19        20
  16        3S          0.02085
  17 3   H  1S         -0.00205   0.08279
  18        2S         -0.00802   0.07761   0.14795
  19        3S         -0.00669   0.01347   0.04011   0.02009
  20 4   C  1S          0.00009   0.00000   0.00002   0.00009   0.65948
  21        2S          0.00016   0.00000   0.00003   0.00016   0.49330
  22        2PX         0.00001  -0.00000  -0.00028  -0.00058   0.00000
  23        2PY        -0.00074  -0.00000  -0.00008  -0.00013   0.00000
  24        2PZ        -0.00000   0.00000   0.00000  -0.00000   0.00000
  25        3S         -0.00246  -0.00007  -0.00151  -0.00243  -0.02937
  26        3PX         0.00007  -0.00016  -0.00289  -0.00364   0.00000
  27        3PY        -0.00443  -0.00007  -0.00065  -0.00065   0.00000
  28        3PZ        -0.00000   0.00000   0.00000  -0.00000   0.00000
  29        4S         -0.00220  -0.00103  -0.00421  -0.00200  -0.01234
  30        4PX         0.00019  -0.00188  -0.00873  -0.00673   0.00000
  31        4PY        -0.00749  -0.00058  -0.00137  -0.00049   0.00000
  32        4PZ        -0.00000   0.00000  -0.00000  -0.00000   0.00000
  33 5   H  1S          0.00023  -0.00000  -0.00004  -0.00043  -0.00021
  34        2S          0.00144  -0.00004  -0.00090  -0.00235  -0.00158
  35        3S          0.00247  -0.00046  -0.00244  -0.00287   0.00004
  36 6   H  1S         -0.00043   0.00000   0.00000   0.00022  -0.00020
  37        2S         -0.00240   0.00000   0.00015   0.00141  -0.00154
  38        3S         -0.00294   0.00023   0.00145   0.00243   0.00004
                          21        22        23        24        25
  21        2S          0.49205
  22        2PX         0.00000   0.08242
  23        2PY         0.00000   0.00000   0.08758
  24        2PZ         0.00000   0.00000   0.00000   0.06429
  25        3S         -0.06458   0.00000   0.00000   0.00000   0.45354
  26        3PX         0.00000   0.08070   0.00000   0.00000   0.00000
  27        3PY         0.00000   0.00000   0.08259   0.00000   0.00000
  28        3PZ         0.00000   0.00000   0.00000   0.06472   0.00000
  29        4S         -0.02169   0.00000   0.00000   0.00000   0.21598
  30        4PX         0.00000   0.01612   0.00000   0.00000   0.00000
  31        4PY         0.00000   0.00000   0.01477   0.00000   0.00000
  32        4PZ         0.00000   0.00000   0.00000   0.02109   0.00000
  33 5   H  1S         -0.00030   0.00146   0.00562   0.00000   0.01526
  34        2S         -0.00302   0.00379   0.01364   0.00000   0.03925
  35        3S         -0.00006   0.00067   0.00201   0.00000   0.00260
  36 6   H  1S         -0.00028   0.00671   0.00002   0.00000   0.01467
  37        2S         -0.00294   0.01718   0.00001   0.00000   0.03859
  38        3S         -0.00007   0.00271  -0.00001   0.00000   0.00271
                          26        27        28        29        30
  26        3PX         0.19998
  27        3PY         0.00000   0.19734
  28        3PZ         0.00000   0.00000   0.16458
  29        4S          0.00000   0.00000   0.00000   0.18745
  30        4PX         0.07489   0.00000   0.00000   0.00000   0.06677
  31        4PY         0.00000   0.06624   0.00000   0.00000   0.00000
  32        4PZ         0.00000   0.00000   0.10012   0.00000   0.00000
  33 5   H  1S          0.00884   0.03333   0.00002   0.01758   0.00573
  34        2S          0.01723   0.06009   0.00002   0.04443   0.01464
  35        3S          0.00383   0.01081   0.00000   0.00707   0.00537
  36 6   H  1S          0.04113   0.00008   0.00002   0.01749   0.02452
  37        2S          0.07697  -0.00001   0.00002   0.04495   0.05940
  38        3S          0.01490  -0.00009   0.00000   0.00775   0.01889
                          31        32        33        34        35
  31        4PY         0.05360
  32        4PZ         0.00000   0.14266
  33 5   H  1S          0.01867   0.00001   0.08058
  34        2S          0.04383   0.00001   0.07767   0.15250
  35        3S          0.01295  -0.00000   0.01425   0.04375   0.02299
  36 6   H  1S         -0.00005   0.00001  -0.00001  -0.00078  -0.00234
  37        2S         -0.00025   0.00001  -0.00079  -0.00660  -0.00965
  38        3S         -0.00020  -0.00000  -0.00236  -0.00968  -0.00842
                          36        37        38
  36 6   H  1S          0.07967
  37        2S          0.07743   0.15320
  38        3S          0.01435   0.04433   0.02341
     Gross orbital populations:
                           1
   1 1   C  1S          1.10434
   2        2S          0.88586
   3        2PX         0.22787
   4        2PY         0.23668
   5        2PZ         0.16635
   6        3S          0.79322
   7        3PX         0.56214
   8        3PY         0.55642
   9        3PZ         0.42381
  10        4S          0.50159
  11        4PX         0.25831
  12        4PY         0.21080
  13        4PZ         0.41198
  14 2   H  1S          0.27498
  15        2S          0.46633
  16        3S          0.08530
  17 3   H  1S          0.27857
  18        2S          0.46414
  19        3S          0.08214
  20 4   C  1S          1.10442
  21        2S          0.88584
  22        2PX         0.22146
  23        2PY         0.23588
  24        2PZ         0.16572
  25        3S          0.79212
  26        3PX         0.55140
  27        3PY         0.55620
  28        3PZ         0.42003
  29        4S          0.50869
  30        4PX         0.27564
  31        4PY         0.21670
  32        4PZ         0.41186
  33 5   H  1S          0.27178
  34        2S          0.47004
  35        3S          0.08938
  36 6   H  1S          0.26895
  37        2S          0.47140
  38        3S          0.09165
          Condensed to atoms (all electrons):
               1          2          3          4          5          6
     1  C    5.031122   0.387876   0.388681   0.602557  -0.035696  -0.035160
     2  H    0.387876   0.516340  -0.033561  -0.040318   0.005999  -0.009726
     3  H    0.388681  -0.033561   0.513220  -0.039860  -0.009538   0.005903
     4  C    0.602557  -0.040318  -0.039860   5.056790   0.383665   0.383128
     5  H   -0.035696   0.005999  -0.009538   0.383665   0.527407  -0.040637
     6  H   -0.035160  -0.009726   0.005903   0.383128  -0.040637   0.528493
 Mulliken charges:
               1
     1  C   -0.339380
     2  H    0.173389
     3  H    0.175154
     4  C   -0.345962
     5  H    0.168800
     6  H    0.167998
 Sum of Mulliken charges =  -0.00000
 Mulliken charges with hydrogens summed into heavy atoms:
               1
     1  C    0.009163
     4  C   -0.009163
 Electronic spatial extent (au):  <R**2>=             83.6868
 Charge=             -0.0000 electrons
 Dipole moment (field-independent basis, Debye):
    X=             -0.0004    Y=              0.0159    Z=             -0.1039  Tot=              0.1051
 Quadrupole moment (field-independent basis, Debye-Ang):
   XX=            -12.2097   YY=            -12.2114   ZZ=            -15.6645
   XY=              0.0232   XZ=              0.0009   YZ=             -0.0020
 Traceless Quadrupole moment (field-independent basis, Debye-Ang):
   XX=              1.1522   YY=              1.1505   ZZ=             -2.3027
   XY=              0.0232   XZ=              0.0009   YZ=             -0.0020
 Octapole moment (field-independent basis, Debye-Ang**2):
  XXX=             -0.3385  YYY=             -0.0592  ZZZ=             -0.0466  XYY=              0.1653
  XXY=             -0.0457  XXZ=             -0.1346  XZZ=             -0.0971  YZZ=             -0.0943
  YYZ=             -0.1796  XYZ=             -0.0384
 Hexadecapole moment (field-independent basis, Debye-Ang**3):
 XXXX=            -34.2865 YYYY=            -55.1629 ZZZZ=            -17.7987 XXXY=             -7.2409
 XXXZ=              0.0184 YYYX=            -10.6874 YYYZ=              0.0230 ZZZX=              0.0210
 ZZZY=              0.0398 XXYY=            -16.1842 XXZZ=             -9.9211 YYZZ=            -13.6353
 XXYZ=              0.0096 YYXZ=              0.0005 ZZXY=             -3.2047
 N-N= 3.308394996472D+01 E-N=-2.478811777358D+02  KE= 7.815648458113D+01
 Orbital energies and kinetic energies (alpha):
                                 1                 2
   1         O               -10.290785         15.979028
   2         O               -10.287252         15.979154
   3         O                -0.864084          1.540086
   4         O                -0.672303          1.270920
   5         O                -0.559319          0.942918
   6         O                -0.509927          1.284282
   7         O                -0.436091          1.042854
   8         O                -0.357092          1.039001
   9         V                 0.080017          1.181713
  10         V                 0.141044          0.588997
  11         V                 0.164645          0.595806
  12         V                 0.170132          0.678648
  13         V                 0.240846          0.583238
  14         V                 0.374799          0.852708
  15         V                 0.392722          0.932497
  16         V                 0.399185          0.780000
  17         V                 0.463447          1.195918
  18         V                 0.488836          1.417916
  19         V                 0.493655          1.301167
  20         V                 0.591173          1.653429
  21         V                 0.665366          1.572870
  22         V                 0.691432          2.145649
  23         V                 0.772219          2.422415
  24         V                 0.776562          2.317659
  25         V                 0.841537          1.084756
  26         V                 0.953085          3.431528
  27         V                 2.231464          3.925569
  28         V                 2.289653          4.031363
  29         V                 2.333560          4.303021
  30         V                 2.407022          4.519061
  31         V                 2.671429          6.301353
  32         V                 2.817536          6.305310
  33         V                 2.878700          6.137256
  34         V                 2.951110          6.226535
  35         V                 3.141638          6.821675
  36         V                 3.318655          6.400976
  37         V                23.352164         60.074160
  38         V                23.706995         60.204615
 Total kinetic energy from orbitals= 7.815648458113D+01
 Calling FoFJK, ICntrl=      2127 FMM=F ISym2X=0 I1Cent= 0 IOpClX= 0 NMat=1 NMatS=1 NMatT=0.
 -------------------------------------------------------------------
 Center     Atomic                   Forces (Hartrees/Bohr)
 Number     Number              X              Y              Z
 -------------------------------------------------------------------
      1        6           0.013597754    0.008816321   -0.004189549
      2        1          -0.008017481    0.004088160    0.002100859
      3        1           0.000251641   -0.004223036    0.001904083
      4        6           0.011130782    0.011940731   -0.004542563
      5        1           0.002439798   -0.014840194    0.002314899
      6        1          -0.019402495   -0.005781982    0.002412272
 -------------------------------------------------------------------
 Cartesian Forces:  Max     0.019402495 RMS     0.008568250

 GradGradGradGradGradGradGradGradGradGradGradGradGradGradGradGradGradGrad
 Berny optimization.
 Search for a local minimum.
 Step number   1 out of a maximum of    2
 All quantities printed in internal units (Hartrees-Bohrs-Radians)
 Second derivative matrix not updated -- first step.
 The second derivative matrix:
                          X1        Y1        Z1        X2        Y2
           X1           0.76529
           Y1           0.09825   0.86431
           Z1           0.00625   0.00958   0.17269
           X2          -0.16567   0.09755   0.00229   0.14307
           Y2           0.10375  -0.28635  -0.00807  -0.11695   0.27508
           Z2           0.00361  -0.01013  -0.05541  -0.00328   0.00836
           X3          -0.35660  -0.00188  -0.00883  -0.00031  -0.00017
           Y3          -0.00799  -0.11085  -0.00214   0.03262   0.01898
           Z3          -0.01129  -0.00206  -0.05677   0.00163   0.00061
           X4          -0.26815  -0.17942  -0.00076   0.02292   0.01336
           Y4          -0.17970  -0.47537  -0.00123  -0.01323  -0.00771
           Z4           0.00142   0.00258  -0.09489  -0.00065  -0.00089
           X5           0.02349  -0.01356   0.00065  -0.00001   0.00000
           Y5           0.01165  -0.00672   0.00089   0.00000  -0.00000
           Z5          -0.00057   0.00036   0.01754   0.00027  -0.00014
           X6           0.00164  -0.00095   0.00040  -0.00001   0.00000
           Y6          -0.02595   0.01498   0.00097   0.00000  -0.00000
           Z6           0.00059  -0.00032   0.01684  -0.00027   0.00014
                          Z2        X3        Y3        Z3        X4
           Z2           0.02891
           X3          -0.00033   0.35670
           Y3           0.00175   0.00217   0.07640
           Z3           0.01061   0.00963   0.00145   0.02982
           X4           0.00053   0.00023  -0.02681  -0.00051   0.70794
           Y4          -0.00028  -0.00013   0.01548   0.00032   0.12340
           Z4           0.01581  -0.00048  -0.00105   0.01641  -0.00529
           X5          -0.00027  -0.00001   0.00001   0.00027  -0.14508
           Y5           0.00017   0.00001  -0.00000  -0.00017   0.09128
           Z5           0.00933   0.00028  -0.00018  -0.00950  -0.00323
           X6          -0.00026  -0.00001   0.00001   0.00027  -0.31786
           Y6           0.00014   0.00000  -0.00000  -0.00014  -0.02181
           Z6          -0.00925  -0.00028   0.00018   0.00942   0.00926
                          Y4        Z4        X5        Y5        Z5
           Y4           0.85896
           Z4          -0.01034   0.17638
           X5           0.08311  -0.00214   0.12368
           Y5          -0.28754   0.00772  -0.10192   0.27823
           Z5           0.00956  -0.05730   0.00288  -0.00824   0.02976
           X6          -0.01344   0.00713  -0.00206  -0.00101   0.00036
           Y6          -0.10382   0.00199   0.03237   0.01603  -0.00135
           Z6           0.00197  -0.05642  -0.00140  -0.00037   0.01017
                          X6        Y6        Z6
           X6           0.31830
           Y6           0.01539   0.07281
           Z6          -0.00790  -0.00161   0.02924
 ITU=  0
     Eigenvalues ---    0.03755   0.04387   0.09229   0.10097   0.13542
     Eigenvalues ---    0.17430   0.26543   0.29027   0.53006   0.69865
     Eigenvalues ---    0.97722   1.56900
 Angle between quadratic step and forces=  35.92 degrees.
 Linear search not attempted -- first point.
 B after Tr=     0.006941    0.007649   -0.010636
         Rot=    1.000000   -0.000052    0.000029   -0.000104 Ang=  -0.01 deg.
 Variable       Old X    -DE/DX   Delta X   Delta X   Delta X     New X
                                 (Linear)    (Quad)   (Total)
    X1       -0.63542   0.01360   0.00000   0.02067   0.02784  -0.60758
    Y1       -1.09896   0.00882   0.00000   0.02260   0.03012  -1.06884
    Z1        0.01254  -0.00419   0.00000  -0.02272  -0.03351  -0.02097
    X2        0.40624  -0.00802   0.00000  -0.03074  -0.02321   0.38304
    Y2       -2.88362   0.00409   0.00000   0.01665   0.02438  -2.85924
    Z2       -0.04571   0.00210   0.00000   0.02789   0.01698  -0.02873
    X3       -2.68000   0.00025   0.00000   0.02025   0.02743  -2.65257
    Y3       -1.11506  -0.00422   0.00000  -0.01300  -0.00590  -1.12096
    Z3       -0.04770   0.00190   0.00000   0.02712   0.01621  -0.03148
    X4        0.62773   0.01113   0.00000   0.00804   0.01476   0.64249
    Y4        1.08895   0.01194   0.00000   0.00909   0.01687   1.10582
    Z4        0.00913  -0.00454   0.00000  -0.02129  -0.03177  -0.02264
    X5       -0.30236   0.00244   0.00000  -0.00982  -0.00348  -0.30584
    Y5        2.96192  -0.01484   0.00000  -0.04723  -0.03964   2.92228
    Z5       -0.05139   0.00231   0.00000   0.02681   0.01645  -0.03494
    X6        2.73222  -0.01940   0.00000  -0.05003  -0.04333   2.68888
    Y6        1.22059  -0.00578   0.00000  -0.03403  -0.02582   1.19476
    Z6       -0.04888   0.00241   0.00000   0.02599   0.01563  -0.03325
         Item               Value     Threshold  Converged?
 Maximum Force            0.019402     0.000450     NO 
 RMS     Force            0.008568     0.000300     NO 
 Maximum Displacement     0.043334     0.001800     NO 
 RMS     Displacement     0.025201     0.001200     NO 
 Predicted change in Energy=-1.662119D-03
 GradGradGradGradGradGradGradGradGradGradGradGradGradGradGradGradGradGrad

 Unable to Open any file for archive entry.
 1\1\GINC-BHD0015\Force\RwB97XD\6-311G\C2H4\BWEIGHT\11-Jan-2023\0\\# WB
 97XD/6-311G SCF=XQC FORCE nosym pop=full guess=read\\MD Step 999\\0,1\
 C,-0.33625001,-0.58154472,0.00663443\H,0.21497491,-1.52594694,-0.02418
 628\H,-1.41819714,-0.59006506,-0.02523933\C,0.33218243,0.57624629,0.00
 483226\H,-0.15999988,1.56738229,-0.0271967\H,1.44582818,0.64590673,-0.
 02586631\\Version=ES64L-G16RevC.01\HF=-78.5556299\RMSD=5.468e-09\RMSF=
 8.568e-03\Dipole=-0.0001697,0.0062703,-0.0408758\Quadrupole=0.8565976,
 0.855369,-1.7119666,0.0172493,0.0006672,-0.0014913\PG=C01 [X(C2H4)]\\@
 The archive entry for this job was punched.


 IF I AM NOT FOR MYSELF, WHO WILL BE?
 BUT IF I AM ONLY FOR MYSELF, WHAT AM I?
 THOUGH A SEEKER SINCE MY BIRTH,
 HERE IS ALL I'VE LEARNED ON EARTH,
 THIS IS THE GIST OF WHAT I KNOW:
 GIVE ADVICE AND BUY A FOE.

 PRESSED FOR RULES AND VERITIES,
 ALL I RECOLLECT ARE THESE:
 FEED A COLD TO STARVE A FEVER,
 ARGUE WITH NO TRUE-BELIEVER.
 THINK-TOO-LONG IS NEVER-ACT,
 SCRATCH A MYTH AND FIND A FACT.

 STITCH IN TIME SAVES TWENTY STITCHES,
 GIVE THE RICH TO PLEASE THEM, RICHES.
 GIVE TO LOVE YOU HEARTH AND HALL,
 BUT DO NOT GIVE ADVICE AT ALL.

                                  -- HILLEL
 Job cpu time:       0 days  0 hours  0 minutes 45.0 seconds.
 Elapsed time:       0 days  0 hours  0 minutes 15.8 seconds.
 File lengths (MBytes):  RWF=    272 Int=      0 D2E=      0 Chk=     32 Scr=     32
 Normal termination of Gaussian 16 at Wed Jan 11 16:33:25 2023.
