 Entering Gaussian System, Link 0=g16
 Initial command:
 /software/gaussian/g16-c01/avx2/g16/l1.exe "/gpfs/fs2/scratch/bweight/software/many_molecule_many_mode_NAMD/src/NAMD/TEST_NVT/TRAJ/traj-60/G16/GS_NEW/Gau-32626.inp" -scrdir="/gpfs/fs2/scratch/bweight/software/many_molecule_many_mode_NAMD/src/NAMD/TEST_NVT/TRAJ/traj-60/G16/GS_NEW/"
 Entering Link 1 = /software/gaussian/g16-c01/avx2/g16/l1.exe PID=     32627.
  
 Copyright (c) 1988-2019, Gaussian, Inc.  All Rights Reserved.
  
 This is part of the Gaussian(R) 16 program.  It is based on
 the Gaussian(R) 09 system (copyright 2009, Gaussian, Inc.),
 the Gaussian(R) 03 system (copyright 2003, Gaussian, Inc.),
 the Gaussian(R) 98 system (copyright 1998, Gaussian, Inc.),
 the Gaussian(R) 94 system (copyright 1995, Gaussian, Inc.),
 the Gaussian 92(TM) system (copyright 1992, Gaussian, Inc.),
 the Gaussian 90(TM) system (copyright 1990, Gaussian, Inc.),
 the Gaussian 88(TM) system (copyright 1988, Gaussian, Inc.),
 the Gaussian 86(TM) system (copyright 1986, Carnegie Mellon
 University), and the Gaussian 82(TM) system (copyright 1983,
 Carnegie Mellon University). Gaussian is a federally registered
 trademark of Gaussian, Inc.
  
 This software contains proprietary and confidential information,
 including trade secrets, belonging to Gaussian, Inc.
  
 This software is provided under written license and may be
 used, copied, transmitted, or stored only in accord with that
 written license.
  
 The following legend is applicable only to US Government
 contracts under FAR:
  
                    RESTRICTED RIGHTS LEGEND
  
 Use, reproduction and disclosure by the US Government is
 subject to restrictions as set forth in subparagraphs (a)
 and (c) of the Commercial Computer Software - Restricted
 Rights clause in FAR 52.227-19.
  
 Gaussian, Inc.
 340 Quinnipiac St., Bldg. 40, Wallingford CT 06492
  
  
 ---------------------------------------------------------------
 Warning -- This program may not be used in any manner that
 competes with the business of Gaussian, Inc. or will provide
 assistance to any competitor of Gaussian, Inc.  The licensee
 of this program is prohibited from giving any competitor of
 Gaussian, Inc. access to this program.  By using this program,
 the user acknowledges that Gaussian, Inc. is engaged in the
 business of creating and licensing software in the field of
 computational chemistry and represents and warrants to the
 licensee that it is not a competitor of Gaussian, Inc. and that
 it will not use this program in any manner prohibited above.
 ---------------------------------------------------------------
  

 Cite this work as:
 Gaussian 16, Revision C.01,
 M. J. Frisch, G. W. Trucks, H. B. Schlegel, G. E. Scuseria, 
 M. A. Robb, J. R. Cheeseman, G. Scalmani, V. Barone, 
 G. A. Petersson, H. Nakatsuji, X. Li, M. Caricato, A. V. Marenich, 
 J. Bloino, B. G. Janesko, R. Gomperts, B. Mennucci, H. P. Hratchian, 
 J. V. Ortiz, A. F. Izmaylov, J. L. Sonnenberg, D. Williams-Young, 
 F. Ding, F. Lipparini, F. Egidi, J. Goings, B. Peng, A. Petrone, 
 T. Henderson, D. Ranasinghe, V. G. Zakrzewski, J. Gao, N. Rega, 
 G. Zheng, W. Liang, M. Hada, M. Ehara, K. Toyota, R. Fukuda, 
 J. Hasegawa, M. Ishida, T. Nakajima, Y. Honda, O. Kitao, H. Nakai, 
 T. Vreven, K. Throssell, J. A. Montgomery, Jr., J. E. Peralta, 
 F. Ogliaro, M. J. Bearpark, J. J. Heyd, E. N. Brothers, K. N. Kudin, 
 V. N. Staroverov, T. A. Keith, R. Kobayashi, J. Normand, 
 K. Raghavachari, A. P. Rendell, J. C. Burant, S. S. Iyengar, 
 J. Tomasi, M. Cossi, J. M. Millam, M. Klene, C. Adamo, R. Cammi, 
 J. W. Ochterski, R. L. Martin, K. Morokuma, O. Farkas, 
 J. B. Foresman, and D. J. Fox, Gaussian, Inc., Wallingford CT, 2019.
 
 ******************************************
 Gaussian 16:  ES64L-G16RevC.01  3-Jul-2019
                11-Jan-2023 
 ******************************************
 %oldchk=../GS_OLD/geometry.chk
 %chk=geometry.chk
 %nprocshared=4
 Will use up to    4 processors via shared memory.
 %mem=5GB
 Copying data from "../GS_OLD/geometry.chk" to current chk file "geometry.chk"
 IOpt=  2 FromEx=T IUOpen= 4 IOptOp= 5 NList=   0 IFRang= 0 IUIn= 4 IUOut= 2.
 -------------------------------------------------------
 # WB97XD/6-311G SCF=XQC FORCE nosym pop=full guess=read
 -------------------------------------------------------
 1/10=7,30=1,38=1/1,3;
 2/12=2,15=1,17=6,18=5,40=1/2;
 3/5=4,6=6,11=2,25=1,30=1,71=1,74=-58,116=-2/1,2,3;
 4/5=1/1;
 5/5=2,8=3,13=1,38=6/2,8;
 6/7=3,28=1/1;
 7/29=1,30=1/1,2,3,16;
 1/10=7,30=1/3;
 99//99;
 -----------
 MD Step 999
 -----------
 Symbolic Z-matrix:
 Charge =  0 Multiplicity = 1
 C                    -0.33572  -0.58085   0.00587 
 H                     0.22368  -1.53011  -0.01558 
 H                    -1.42431  -0.58466  -0.01677 
 C                     0.33285   0.57682   0.00415 
 H                    -0.15603   1.56545  -0.01887 
 H                     1.44118   0.64761  -0.01782 
 

 GradGradGradGradGradGradGradGradGradGradGradGradGradGradGradGradGradGrad
 Berny optimization.
 Initialization pass.
 Trust Radius=3.00D-01 FncErr=1.00D-07 GrdErr=1.00D-07 EigMax=2.50D+02 EigMin=1.00D-04
 Number of steps in this run=      2 maximum allowed number of steps=      2.
 GradGradGradGradGradGradGradGradGradGradGradGradGradGradGradGradGradGrad

                          Input orientation:                          
 ---------------------------------------------------------------------
 Center     Atomic      Atomic             Coordinates (Angstroms)
 Number     Number       Type             X           Y           Z
 ---------------------------------------------------------------------
      1          6           0       -0.335720   -0.580852    0.005868
      2          1           0        0.223679   -1.530114   -0.015577
      3          1           0       -1.424313   -0.584657   -0.016772
      4          6           0        0.332848    0.576824    0.004145
      5          1           0       -0.156029    1.565455   -0.018871
      6          1           0        1.441179    0.647606   -0.017824
 ---------------------------------------------------------------------
                    Distance matrix (angstroms):
                    1          2          3          4          5
     1  C    0.000000
     2  H    1.102037   0.000000
     3  H    1.088835   1.899939   0.000000
     4  C    1.336861   2.109856   2.106439   0.000000
     5  H    2.153957   3.118771   2.496303   1.103141   0.000000
     6  H    2.160333   2.494950   3.119217   1.110806   1.842150
                    6
     6  H    0.000000
 Symmetry turned off by external request.
 Stoichiometry    C2H4
 Framework group  C1[X(C2H4)]
 Deg. of freedom    12
 Full point group                 C1      NOp   1
 Rotational constants (GHZ):         143.1306337          29.7194479          24.6136441
 Standard basis: 6-311G (5D, 7F)
    38 basis functions,    72 primitive gaussians,    38 cartesian basis functions
     8 alpha electrons        8 beta electrons
       nuclear repulsion energy        33.0688793388 Hartrees.
 NAtoms=    6 NActive=    6 NUniq=    6 SFac= 1.00D+00 NAtFMM=   60 NAOKFM=F Big=F
 Integral buffers will be    131072 words long.
 Raffenetti 2 integral format.
 Two-electron integral symmetry is turned off.
 Nuclear repulsion after empirical dispersion term =       33.0680372745 Hartrees.
 One-electron integrals computed using PRISM.
 NBasis=    38 RedAO= T EigKep=  6.40D-03  NBF=    38
 NBsUse=    38 1.00D-06 EigRej= -1.00D+00 NBFU=    38
 Initial guess from the checkpoint file:  "geometry.chk"
 B after Tr=    -0.000205   -0.000420   -0.000628
         Rot=    1.000000   -0.000000    0.000001    0.000005 Ang=  -0.00 deg.
 Keep R1 ints in memory in canonical form, NReq=4036876.
 Requested convergence on RMS density matrix=1.00D-08 within  32 cycles.
 Requested convergence on MAX density matrix=1.00D-06.
 Requested convergence on             energy=1.00D-06.
 No special actions if energy rises.
 SCF Done:  E(RwB97XD) =  -78.5557250702     A.U. after    8 cycles
            NFock=  8  Conv=0.84D-08     -V/T= 2.0052
 QCSCF skips out because SCF is already converged.

 **********************************************************************

            Population analysis using the SCF Density.

 **********************************************************************

 Alpha  occ. eigenvalues --  -10.28990 -10.28860  -0.86397  -0.67185  -0.55918
 Alpha  occ. eigenvalues --   -0.50939  -0.43608  -0.35710
 Alpha virt. eigenvalues --    0.08019   0.14081   0.16440   0.16990   0.24079
 Alpha virt. eigenvalues --    0.37291   0.39320   0.39962   0.46373   0.48796
 Alpha virt. eigenvalues --    0.49360   0.59114   0.66529   0.69053   0.77296
 Alpha virt. eigenvalues --    0.77513   0.84412   0.95309   2.23162   2.29047
 Alpha virt. eigenvalues --    2.33237   2.40676   2.67129   2.81791   2.87721
 Alpha virt. eigenvalues --    2.95200   3.14153   3.31911  23.35150  23.70667
     Molecular Orbital Coefficients:
                           1         2         3         4         5
                           O         O         O         O         O
     Eigenvalues --   -10.28990 -10.28860  -0.86397  -0.67185  -0.55918
   1 1   C  1S          0.20636   0.52425  -0.08823   0.06696  -0.00043
   2        2S          0.17003   0.43139  -0.13946   0.10724  -0.00070
   3        2PX         0.00016  -0.00004   0.02626   0.03599   0.13761
   4        2PY         0.00027  -0.00006   0.04692   0.05849  -0.07337
   5        2PZ        -0.00000  -0.00000  -0.00093   0.00133   0.00020
   6        3S          0.00452   0.01390   0.37409  -0.29264   0.00190
   7        3PX        -0.00051   0.00054   0.03472   0.05784   0.21578
   8        3PY        -0.00086   0.00096   0.06163   0.09521  -0.11606
   9        3PZ        -0.00001  -0.00002  -0.00155   0.00238   0.00029
  10        4S          0.00040  -0.01504   0.19162  -0.22710   0.00131
  11        4PX         0.00116  -0.00182   0.00501   0.02325   0.11204
  12        4PY         0.00199  -0.00313   0.00874   0.03949  -0.06108
  13        4PZ         0.00001   0.00006  -0.00054   0.00120   0.00014
  14 2   H  1S         -0.00005  -0.00005   0.05192  -0.08646   0.10198
  15        2S         -0.00027   0.00016   0.05339  -0.10480   0.12951
  16        3S          0.00112   0.00148  -0.00181  -0.01500   0.04186
  17 3   H  1S         -0.00006  -0.00006   0.05338  -0.09045  -0.10519
  18        2S         -0.00028   0.00014   0.05436  -0.10859  -0.13244
  19        3S          0.00116   0.00150  -0.00180  -0.01596  -0.04273
  20 4   C  1S          0.52419  -0.20654  -0.08708  -0.06810  -0.00007
  21        2S          0.43150  -0.16980  -0.13750  -0.10923  -0.00010
  22        2PX        -0.00005  -0.00016  -0.02756   0.03849   0.11785
  23        2PY        -0.00008  -0.00028  -0.04677   0.06805  -0.07435
  24        2PZ        -0.00000   0.00000  -0.00070  -0.00145   0.00019
  25        3S          0.01314  -0.00613   0.36829   0.29846   0.00027
  26        3PX        -0.00006   0.00076  -0.03443   0.06224   0.18447
  27        3PY        -0.00009   0.00130  -0.05841   0.10956  -0.11539
  28        3PZ        -0.00002   0.00000  -0.00122  -0.00260   0.00029
  29        4S         -0.01043   0.01063   0.18881   0.23728  -0.00102
  30        4PX         0.00049  -0.00204  -0.00539   0.02709   0.10142
  31        4PY         0.00081  -0.00357  -0.00898   0.04655  -0.06273
  32        4PZ         0.00004  -0.00002  -0.00051  -0.00134   0.00015
  33 5   H  1S         -0.00007  -0.00003   0.04997   0.09407  -0.09017
  34        2S         -0.00008  -0.00030   0.05107   0.11208  -0.11360
  35        3S          0.00180  -0.00020  -0.00109   0.01691  -0.03649
  36 6   H  1S         -0.00006  -0.00003   0.04903   0.09246   0.08540
  37        2S         -0.00008  -0.00032   0.05055   0.11062   0.10801
  38        3S          0.00177  -0.00020  -0.00108   0.01642   0.03503
                           6         7         8         9        10
                           O         O         O         V         V
     Eigenvalues --    -0.50939  -0.43608  -0.35710   0.08019   0.14081
   1 1   C  1S         -0.00310   0.00022  -0.00072   0.00193  -0.03399
   2        2S         -0.00456   0.00039  -0.00117   0.00321  -0.05454
   3        2PX         0.09445  -0.11046  -0.00239   0.00107  -0.03142
   4        2PY         0.16867   0.06582  -0.00393   0.00170  -0.06555
   5        2PZ         0.00349  -0.00006   0.17953  -0.18913  -0.00190
   6        3S          0.01827  -0.00090   0.00341  -0.00968   0.11896
   7        3PX         0.13695  -0.17673  -0.00337   0.00161  -0.03677
   8        3PY         0.24633   0.10571  -0.00552   0.00252  -0.08088
   9        3PZ         0.00554  -0.00007   0.28854  -0.27796  -0.00300
  10        4S         -0.05671  -0.00364   0.00489  -0.01157   1.23533
  11        4PX         0.06875  -0.11048  -0.00278   0.00899  -0.19181
  12        4PY         0.12509   0.06684  -0.00457   0.01472  -0.38610
  13        4PZ         0.00317  -0.00002   0.26680  -0.69656  -0.01091
  14 2   H  1S         -0.08118  -0.11501   0.00008   0.00300  -0.01807
  15        2S         -0.11287  -0.17809   0.00136   0.00480  -0.04899
  16        3S         -0.04221  -0.08255   0.00080   0.01284  -0.84348
  17 3   H  1S         -0.07954   0.11237   0.00007   0.00302  -0.01407
  18        2S         -0.10992   0.17308   0.00138   0.00490  -0.03966
  19        3S         -0.04075   0.07998   0.00082   0.01265  -0.77642
  20 4   C  1S         -0.00884  -0.00048  -0.00054  -0.00181  -0.03568
  21        2S         -0.01387  -0.00079  -0.00088  -0.00299  -0.05729
  22        2PX        -0.09856   0.12475   0.00233   0.00113   0.04071
  23        2PY        -0.16138  -0.07383   0.00428   0.00215   0.06084
  24        2PZ         0.00378   0.00015   0.17921   0.18942  -0.00191
  25        3S          0.04447   0.00229   0.00261   0.00900   0.12627
  26        3PX        -0.14590   0.19959   0.00326   0.00175   0.05013
  27        3PY        -0.23725  -0.11748   0.00602   0.00331   0.07231
  28        3PZ         0.00597   0.00022   0.28694   0.27791  -0.00292
  29        4S         -0.02649   0.00275   0.00450   0.00972   1.22970
  30        4PX        -0.07626   0.12812   0.00247   0.00889   0.26554
  31        4PY        -0.12280  -0.07456   0.00469   0.01623   0.41257
  32        4PZ         0.00344   0.00012   0.26723   0.69756  -0.01149
  33 5   H  1S         -0.07367  -0.12486   0.00016  -0.00274  -0.01139
  34        2S         -0.10036  -0.19454   0.00146  -0.00454  -0.03669
  35        3S         -0.03745  -0.09156   0.00082  -0.01190  -0.81162
  36 6   H  1S         -0.07988   0.12443   0.00014  -0.00275  -0.01512
  37        2S         -0.10928   0.19465   0.00146  -0.00456  -0.04645
  38        3S         -0.04099   0.09156   0.00082  -0.01204  -0.87851
                          11        12        13        14        15
                           V         V         V         V         V
     Eigenvalues --     0.16440   0.16990   0.24079   0.37291   0.39320
   1 1   C  1S          0.00011  -0.04526   0.00004   0.00896   0.00112
   2        2S          0.00016  -0.07379   0.00007   0.01205   0.00179
   3        2PX         0.09756  -0.02197   0.09966  -0.03530  -0.02450
   4        2PY        -0.05474  -0.03556  -0.05722  -0.06470   0.00944
   5        2PZ         0.00001  -0.00466   0.00005  -0.00328  -0.00015
   6        3S         -0.00003   0.16738   0.00014   0.03461  -0.00176
   7        3PX         0.14006  -0.01446   0.10548  -0.04307  -0.10712
   8        3PY        -0.07889  -0.02234  -0.06156  -0.08377   0.04850
   9        3PZ         0.00001  -0.00649   0.00002  -0.00680  -0.00025
  10        4S         -0.02376   1.41633  -0.01676  -2.53936  -0.18960
  11        4PX         0.58330  -0.13010   1.16713  -1.54360  -0.53425
  12        4PY        -0.31855  -0.19546  -0.66534  -2.68947   0.12975
  13        4PZ         0.00018  -0.03036   0.00091  -0.02859  -0.00191
  14 2   H  1S         -0.03015  -0.02540   0.01321  -0.06025   0.07545
  15        2S         -0.08184  -0.01726  -0.02475  -0.68302   0.76657
  16        3S         -1.04939  -0.96665  -1.53222  -0.27949  -0.33720
  17 3   H  1S          0.02823  -0.02620  -0.01556  -0.05293  -0.07649
  18        2S          0.07968  -0.02374   0.01846  -0.62585  -0.76557
  19        3S          1.07576  -1.02616   1.55980  -0.35888   0.25859
  20 4   C  1S          0.00237   0.04274  -0.00005  -0.01972  -0.00024
  21        2S          0.00381   0.06958  -0.00010  -0.03244  -0.00023
  22        2PX         0.09985  -0.02605  -0.10072  -0.04011  -0.03123
  23        2PY        -0.06214  -0.03687   0.05778  -0.07121   0.01343
  24        2PZ         0.00027   0.00454  -0.00004   0.00229   0.00022
  25        3S         -0.00806  -0.15451   0.00022   0.04339  -0.00374
  26        3PX         0.14405  -0.02222  -0.11443  -0.09232  -0.10902
  27        3PY        -0.08771  -0.02612   0.06458  -0.16665   0.05795
  28        3PZ         0.00038   0.00624  -0.00001   0.00264   0.00041
  29        4S         -0.09256  -1.35276   0.00696   3.26742   0.17251
  30        4PX         0.52883  -0.13432  -1.12615  -1.13447  -0.56695
  31        4PY        -0.33575  -0.19825   0.65457  -1.99299   0.09962
  32        4PZ         0.00164   0.02952  -0.00082   0.02491   0.00184
  33 5   H  1S          0.03210   0.02398   0.00616   0.00803  -0.08110
  34        2S          0.06958   0.02081  -0.03339   0.03733  -0.79783
  35        3S          1.09889   0.92490  -1.53212   0.44499   0.47681
  36 6   H  1S         -0.03086   0.02601  -0.00498   0.00321   0.08740
  37        2S         -0.06854   0.02156   0.03419  -0.00703   0.88878
  38        3S         -0.97236   0.98117   1.51944   0.45869  -0.44762
                          16        17        18        19        20
                           V         V         V         V         V
     Eigenvalues --     0.39962   0.46373   0.48796   0.49360   0.59114
   1 1   C  1S         -0.01891   0.01122   0.04694  -0.00043  -0.00038
   2        2S         -0.03309   0.02687   0.07868  -0.00053  -0.00069
   3        2PX         0.02803  -0.06055  -0.01340   0.00097   0.00144
   4        2PY         0.05154  -0.10595  -0.01797   0.00130   0.00207
   5        2PZ         0.00027  -0.00035  -0.00409  -0.15194  -0.19255
   6        3S          0.07490  -0.33454  -0.10263  -0.00584  -0.00035
   7        3PX         0.10408  -0.23984   0.02840   0.00051   0.00486
   8        3PY         0.19687  -0.41680   0.05907  -0.00035   0.00697
   9        3PZ        -0.00247  -0.00301  -0.01844  -0.62851  -0.68469
  10        4S          2.78251   0.21131  -3.10366   0.07488   0.04786
  11        4PX         0.29722   0.26326  -0.82307   0.02370   0.01472
  12        4PY         0.55849   0.48340  -1.42905   0.04272   0.02705
  13        4PZ        -0.00092  -0.00018   0.06406   0.68689   1.24089
  14 2   H  1S         -0.02473  -0.03592   0.07487  -0.00208  -0.00116
  15        2S         -0.51497  -0.34548   0.88893  -0.02026  -0.00830
  16        3S          0.32857   0.09315  -0.65118   0.02386   0.01636
  17 3   H  1S         -0.03236  -0.03747   0.07323  -0.00203  -0.00112
  18        2S         -0.58537  -0.36323   0.86626  -0.01991  -0.00760
  19        3S          0.34219   0.08931  -0.61958   0.02322   0.01585
  20 4   C  1S          0.00005  -0.00144  -0.05093   0.00231   0.00048
  21        2S         -0.00351   0.00525  -0.08842   0.00415   0.00090
  22        2PX         0.00963   0.05564  -0.02619   0.00013   0.00141
  23        2PY         0.01899   0.09584  -0.04749   0.00011   0.00276
  24        2PZ        -0.00261  -0.00126  -0.00418  -0.15251   0.19242
  25        3S          0.07842  -0.29139   0.22329  -0.01534  -0.00166
  26        3PX        -0.04152   0.23656  -0.05058   0.00016   0.00495
  27        3PY        -0.06054   0.41064  -0.08961  -0.00042   0.00959
  28        3PZ        -0.00726  -0.00520  -0.01575  -0.63089   0.68308
  29        4S         -0.99569   0.68183   3.15603  -0.09154  -0.04287
  30        4PX         1.30048  -0.31688  -0.62121   0.01339   0.01510
  31        4PY         2.33709  -0.53040  -1.06734   0.02316   0.02498
  32        4PZ        -0.02411  -0.01028  -0.02167   0.69244  -1.23869
  33 5   H  1S         -0.04703  -0.06261  -0.06546   0.00194   0.00108
  34        2S         -0.84378  -0.63910  -0.82580   0.02837   0.00435
  35        3S         -0.21858   0.25201   0.55360  -0.00950  -0.01578
  36 6   H  1S         -0.03919  -0.06165  -0.06577   0.00196   0.00110
  37        2S         -0.75400  -0.62695  -0.82763   0.02825   0.00463
  38        3S         -0.24327   0.26423   0.57047  -0.01016  -0.01584
                          21        22        23        24        25
                           V         V         V         V         V
     Eigenvalues --     0.66529   0.69053   0.77296   0.77513   0.84412
   1 1   C  1S          0.00082  -0.00077   0.06571   0.06004   0.00106
   2        2S          0.00172  -0.00166   0.13904   0.12819   0.00243
   3        2PX        -0.13842   0.19371   0.00026   0.11699  -0.00871
   4        2PY         0.08095  -0.11653  -0.00266   0.18996   0.01430
   5        2PZ        -0.00011   0.00016   0.00118   0.00311   0.00009
   6        3S         -0.01462   0.01873  -1.00270  -1.15456  -0.02622
   7        3PX        -0.63473   0.67247  -0.07243   0.47418  -0.22894
   8        3PY         0.36719  -0.40463  -0.13870   0.76125   0.16950
   9        3PZ        -0.00054   0.00063   0.00430   0.01077   0.00028
  10        4S          0.02839  -0.06880   1.23872   2.26398   0.00104
  11        4PX         1.09656  -0.74288  -0.00746  -0.77592   4.52704
  12        4PY        -0.63283   0.46121  -0.01660  -1.00488  -2.58100
  13        4PZ         0.00064   0.00063  -0.00228  -0.03837   0.00399
  14 2   H  1S          0.02536  -0.05836   0.01724   0.02977  -0.02678
  15        2S          0.15406  -0.62467   0.08878   0.06944  -1.57018
  16        3S         -1.06472   1.07156  -0.33004  -1.03826  -1.22465
  17 3   H  1S         -0.02467   0.05759   0.01755   0.03054   0.03044
  18        2S         -0.17100   0.65651   0.10781   0.02885   1.61125
  19        3S          1.05599  -1.02901  -0.35264  -1.19479   1.22351
  20 4   C  1S          0.00106  -0.00055   0.08919   0.01182   0.00081
  21        2S          0.00216  -0.00108   0.18965   0.02439   0.00162
  22        2PX        -0.14541  -0.18987  -0.08319   0.07205   0.01046
  23        2PY         0.08373   0.10580  -0.14833   0.13206   0.00159
  24        2PZ        -0.00007  -0.00017   0.00329  -0.00151  -0.00011
  25        3S         -0.01529   0.00232  -1.54412  -0.03500  -0.00695
  26        3PX        -0.66386  -0.64836  -0.28440   0.34814   0.23563
  27        3PY         0.38482   0.35813  -0.51183   0.63782  -0.09886
  28        3PZ        -0.00038  -0.00056   0.01159  -0.00561  -0.00023
  29        4S          0.00753   0.03121   2.64752  -0.50581  -0.01626
  30        4PX         1.27403   0.78386   0.45590  -0.33633  -4.16836
  31        4PY        -0.73225  -0.42652   0.84312  -0.87386   2.39091
  32        4PZ         0.00078  -0.00037  -0.03113   0.02531  -0.00321
  33 5   H  1S         -0.02332  -0.05609   0.03429  -0.00458  -0.02374
  34        2S         -0.12073  -0.56859   0.09215   0.06341  -1.41480
  35        3S          1.09102   1.01571  -1.06911   0.54885  -1.09919
  36 6   H  1S          0.02412   0.05582   0.03416  -0.00391   0.02333
  37        2S          0.11768   0.54232   0.08450   0.00273   1.40081
  38        3S         -1.09488  -1.03482  -1.02415   0.45427   1.10944
                          26        27        28        29        30
                           V         V         V         V         V
     Eigenvalues --     0.95309   2.23162   2.29047   2.33237   2.40676
   1 1   C  1S          0.09584  -0.00971  -0.01424   0.00044  -0.00047
   2        2S          0.19918   0.00225  -0.01384   0.00090  -0.00060
   3        2PX        -0.09174  -0.07728  -0.13221   0.35063  -0.40585
   4        2PY        -0.15897  -0.14400  -0.23307  -0.19909   0.22915
   5        2PZ         0.00020  -0.00925  -0.01278   0.00020  -0.00059
   6        3S         -1.54304  -0.18746  -0.03934  -0.00098  -0.00434
   7        3PX        -0.23563   0.07345   0.20915  -0.42340   0.56769
   8        3PY        -0.40032   0.15121   0.38219   0.24294  -0.32186
   9        3PZ        -0.00155   0.00933   0.01593  -0.00016   0.00070
  10        4S          5.71519  -0.09345  -0.87974   0.00342  -0.01513
  11        4PX         1.20994   0.05379  -0.18814  -0.05867   0.98018
  12        4PY         1.99284   0.06761  -0.36243   0.02440  -0.53979
  13        4PZ        -0.01379   0.00190   0.00568  -0.00025   0.00137
  14 2   H  1S          0.01566  -0.70180  -0.80182  -0.71255   0.64374
  15        2S         -0.29125   0.99510   1.19786   1.10370  -1.44530
  16        3S         -0.09223  -0.30216  -0.48276  -0.47417   0.36457
  17 3   H  1S          0.01593  -0.69332  -0.79723   0.70805  -0.66355
  18        2S         -0.25875   0.98507   1.19723  -1.10129   1.48855
  19        3S         -0.07151  -0.27993  -0.46210   0.46444  -0.35492
  20 4   C  1S         -0.09392  -0.01067   0.01225   0.00036   0.00026
  21        2S         -0.19482  -0.00031   0.01254   0.00049   0.00048
  22        2PX        -0.09276   0.13681  -0.12263   0.29977   0.41862
  23        2PY        -0.16020   0.23657  -0.20622  -0.17391  -0.24212
  24        2PZ         0.00030  -0.01024   0.01202   0.00025   0.00034
  25        3S          1.50462  -0.16770   0.01566   0.00054  -0.00012
  26        3PX        -0.22915  -0.17389   0.21107  -0.37208  -0.58615
  27        3PY        -0.40128  -0.29717   0.34882   0.21371   0.33960
  28        3PZ         0.00269   0.01097  -0.01542  -0.00028  -0.00046
  29        4S         -5.69521  -0.18157   0.89081   0.01178  -0.00152
  30        4PX         1.10281  -0.01659  -0.19944   0.11785  -0.85836
  31        4PY         1.99338  -0.03281  -0.31675  -0.06679   0.50688
  32        4PZ         0.00764   0.00335  -0.00428   0.00001  -0.00110
  33 5   H  1S         -0.01795  -0.79451   0.66920   0.69559   0.69575
  34        2S          0.28838   1.15523  -1.02407  -1.00435  -1.47412
  35        3S          0.05503  -0.35722   0.39744   0.50406   0.43099
  36 6   H  1S         -0.01774  -0.78968   0.68753  -0.68496  -0.69322
  37        2S          0.31402   1.14711  -1.04544   0.98660   1.46341
  38        3S          0.06935  -0.35777   0.42219  -0.50127  -0.43804
                          31        32        33        34        35
                           V         V         V         V         V
     Eigenvalues --     2.67129   2.81791   2.87721   2.95200   3.14153
   1 1   C  1S          0.00035  -0.00179  -0.01355   0.00006  -0.00948
   2        2S          0.00029  -0.00518  -0.04464  -0.00016  -0.02949
   3        2PX         0.00377  -0.05162  -0.47419  -0.72667   0.44715
   4        2PY         0.00537  -0.09031  -0.85780   0.40960   0.77968
   5        2PZ        -0.92525   0.93426  -0.09823  -0.00113   0.00421
   6        3S         -0.00124   0.04299   0.39174   0.00368   0.24983
   7        3PX        -0.00296   0.08939   0.83942   0.87306  -0.42879
   8        3PY        -0.00412   0.15534   1.49038  -0.47850  -0.74518
   9        3PZ         0.94038  -1.14287   0.12304   0.00152  -0.00550
  10        4S          0.00941  -0.09997  -0.88531  -0.01059  -0.49029
  11        4PX        -0.00119  -0.07166  -0.71572  -0.66896   0.21276
  12        4PY        -0.00165  -0.12529  -1.27228   0.35568   0.36993
  13        4PZ        -0.33848   0.61987  -0.07764  -0.00120   0.00329
  14 2   H  1S          0.00846   0.01405   0.26293  -0.37656  -0.21233
  15        2S         -0.00969  -0.00885  -0.21960   0.39214   0.16200
  16        3S         -0.00187  -0.02878  -0.29742   0.26876   0.05499
  17 3   H  1S          0.00856   0.01368   0.25322   0.37696  -0.21312
  18        2S         -0.00995  -0.00777  -0.20191  -0.38835   0.16056
  19        3S         -0.00228  -0.02919  -0.29954  -0.28655   0.06364
  20 4   C  1S          0.00034   0.00173   0.01355   0.00045  -0.00724
  21        2S          0.00032   0.00542   0.04809   0.00108  -0.02266
  22        2PX        -0.00493  -0.04582  -0.40969  -0.80811  -0.50359
  23        2PY        -0.00943  -0.08132  -0.72397   0.44694  -0.89710
  24        2PZ        -0.92435  -0.93478   0.10070   0.00021   0.00956
  25        3S         -0.00174  -0.04678  -0.43428  -0.00821   0.19516
  26        3PX         0.00500   0.08361   0.77419   0.96447   0.54176
  27        3PY         0.00942   0.14743   1.36078  -0.52639   0.97404
  28        3PZ         0.93942   1.14326  -0.12707  -0.00027  -0.01202
  29        4S          0.01029   0.10119   0.90672   0.02472  -0.37002
  30        4PX        -0.00029  -0.07147  -0.71379  -0.69769  -0.32951
  31        4PY        -0.00114  -0.12474  -1.24301   0.37608  -0.60314
  32        4PZ        -0.33797  -0.61965   0.08112   0.00017   0.00937
  33 5   H  1S          0.00792  -0.01969  -0.29485   0.41724  -0.26802
  34        2S         -0.00975   0.01610   0.26887  -0.42594   0.21169
  35        3S         -0.00099   0.02692   0.28264  -0.24631   0.13020
  36 6   H  1S          0.00799  -0.01981  -0.29189  -0.42852  -0.25349
  37        2S         -0.01007   0.01671   0.27097   0.43648   0.19782
  38        3S         -0.00081   0.02598   0.27088   0.24877   0.12016
                          36        37        38
                           V         V         V
     Eigenvalues --     3.31911  23.35150  23.70667
   1 1   C  1S         -0.00041  -1.41787  -1.44851
   2        2S         -0.00056   1.51213   1.56648
   3        2PX         0.78764  -0.00641   0.01211
   4        2PY        -0.43771  -0.01038   0.02130
   5        2PZ         0.00093  -0.00038  -0.00018
   6        3S         -0.00051  -0.29694  -0.39911
   7        3PX        -1.12422   0.02370  -0.05594
   8        3PY         0.62052   0.03908  -0.09742
   9        3PZ        -0.00140   0.00106   0.00055
  10        4S         -0.00475   0.27634   0.76936
  11        4PX         1.97871  -0.02512   0.13418
  12        4PY        -1.09228  -0.04213   0.23051
  13        4PZ         0.00237  -0.00180  -0.00222
  14 2   H  1S          0.55968   0.01251   0.00658
  15        2S         -0.87489   0.00790  -0.01447
  16        3S         -0.45764  -0.08357  -0.03915
  17 3   H  1S         -0.57248   0.01441   0.00783
  18        2S          0.89283   0.00752  -0.01443
  19        3S          0.48499  -0.08604  -0.03916
  20 4   C  1S          0.00001  -1.44368   1.42264
  21        2S         -0.00030   1.53968  -1.53852
  22        2PX        -0.70815   0.00610   0.01257
  23        2PY         0.40600   0.01089   0.02145
  24        2PZ        -0.00070  -0.00038   0.00008
  25        3S          0.00540  -0.30172   0.39172
  26        3PX         1.00833  -0.02268  -0.05662
  27        3PY        -0.58758  -0.04016  -0.09743
  28        3PZ         0.00106   0.00111  -0.00019
  29        4S         -0.02232   0.27656  -0.76298
  30        4PX        -1.78045   0.02438   0.13096
  31        4PY         1.04905   0.04409   0.22773
  32        4PZ        -0.00188  -0.00177   0.00142
  33 5   H  1S          0.48577   0.01341  -0.00473
  34        2S         -0.75952   0.00818   0.01359
  35        3S         -0.43230  -0.08314   0.03723
  36 6   H  1S         -0.48196   0.01226  -0.00389
  37        2S          0.75469   0.00906   0.01356
  38        3S          0.42134  -0.08158   0.03711
     Density Matrix:
                           1         2         3         4         5
   1 1   C  1S          0.65940
   2        2S          0.56149   0.49197
   3        2PX        -0.00054  -0.00072   0.08410
   4        2PY        -0.00135  -0.00188   0.00382   0.08761
   5        2PZ         0.00006   0.00009  -0.00008  -0.00020   0.06449
   6        3S         -0.08889  -0.15376   0.00275   0.00661  -0.00012
   7        3PX         0.00087   0.00134   0.13030   0.00132  -0.00006
   8        3PY         0.00116   0.00178   0.00135   0.13101  -0.00018
   9        3PZ         0.00012   0.00020  -0.00014  -0.00031   0.10365
  10        4S         -0.07949  -0.11449  -0.01585  -0.02842   0.00040
  11        4PX         0.00023   0.00155   0.07018  -0.00458  -0.00041
  12        4PY         0.00060   0.00301  -0.00462   0.06544  -0.00071
  13        4PZ        -0.00008  -0.00019  -0.00058  -0.00096   0.09582
  14 2   H  1S         -0.02045  -0.03257   0.03464  -0.06273  -0.00081
  15        2S         -0.02289  -0.03662   0.04892  -0.08779  -0.00060
  16        3S          0.00051  -0.00080   0.02061  -0.03318  -0.00002
  17 3   H  1S         -0.02098  -0.03340  -0.07250  -0.00218  -0.00092
  18        2S         -0.02323  -0.03711  -0.10042  -0.00248  -0.00073
  19        3S          0.00056  -0.00074  -0.03837   0.00101  -0.00006
  20 4   C  1S          0.00609   0.00981  -0.01088  -0.01886  -0.00027
  21        2S          0.00978   0.01528  -0.01741  -0.03019  -0.00045
  22        2PX         0.01039   0.01662  -0.01243  -0.03222   0.00033
  23        2PY         0.01807   0.02888  -0.03221  -0.04971   0.00066
  24        2PZ        -0.00035  -0.00057  -0.00026  -0.00038   0.06437
  25        3S         -0.02631  -0.03994   0.04879   0.08472   0.00136
  26        3PX         0.01601   0.02481  -0.01823  -0.04599   0.00043
  27        3PY         0.02782   0.04311  -0.04583  -0.07128   0.00087
  28        3PZ        -0.00059  -0.00095  -0.00046  -0.00067   0.10307
  29        4S          0.00546   0.00409   0.02108   0.03701   0.00171
  30        4PX         0.00308   0.00637  -0.01314  -0.02110   0.00046
  31        4PY         0.00519   0.01083  -0.02113  -0.03747   0.00095
  32        4PZ        -0.00049  -0.00080  -0.00074  -0.00115   0.09597
  33 5   H  1S          0.00420   0.00689  -0.00175  -0.01236  -0.00032
  34        2S          0.00628   0.01042   0.00350  -0.02490   0.00001
  35        3S          0.00321   0.00469   0.00427  -0.01746   0.00008
  36 6   H  1S          0.00415   0.00681  -0.00985  -0.00768  -0.00033
  37        2S          0.00619   0.01032  -0.02331  -0.00942  -0.00002
  38        3S          0.00317   0.00464  -0.01721  -0.00510   0.00006
                           6         7         8         9        10
   6        3S          0.45229
   7        3PX        -0.00174   0.20223
   8        3PY        -0.00127  -0.00465   0.19644
   9        3PZ        -0.00038  -0.00011  -0.00027   0.16659
  10        4S          0.27384  -0.02669  -0.04872   0.00052   0.18354
  11        4PX        -0.00678   0.10928  -0.01042  -0.00066  -0.01531
  12        4PY        -0.01246  -0.01052   0.09857  -0.00113  -0.02937
  13        4PZ         0.00083  -0.00076  -0.00126   0.15401   0.00150
  14 2   H  1S          0.08708   0.05603  -0.09804  -0.00135   0.06948
  15        2S          0.09798   0.07950  -0.13672  -0.00103   0.08251
  16        3S          0.00624   0.03382  -0.05105  -0.00003   0.01158
  17 3   H  1S          0.08936  -0.11365  -0.00166  -0.00152   0.06947
  18        2S          0.09940  -0.15724  -0.00081  -0.00121   0.08102
  19        3S          0.00626  -0.05985   0.00348  -0.00009   0.01045
  20 4   C  1S         -0.02662  -0.01697  -0.02944  -0.00047   0.00519
  21        2S         -0.04027  -0.02637  -0.04579  -0.00076   0.00394
  22        2PX        -0.04652  -0.01771  -0.04563   0.00057  -0.01744
  23        2PY        -0.08084  -0.04560  -0.07071   0.00111  -0.03013
  24        2PZ         0.00168  -0.00036  -0.00049   0.10345   0.00171
  25        3S          0.10245   0.07155   0.12449   0.00228   0.00074
  26        3PX        -0.06714  -0.02612  -0.06493   0.00074  -0.02588
  27        3PY        -0.11664  -0.06468  -0.10134   0.00149  -0.04467
  28        3PZ         0.00278  -0.00064  -0.00089   0.16564   0.00284
  29        4S          0.00164   0.03188   0.05621   0.00285  -0.03272
  30        4PX        -0.02255  -0.01967  -0.02956   0.00077  -0.00630
  31        4PY        -0.03861  -0.02963  -0.05400   0.00157  -0.01012
  32        4PZ         0.00235  -0.00103  -0.00158   0.15425   0.00263
  33 5   H  1S         -0.02048  -0.00061  -0.01769  -0.00047  -0.01455
  34        2S         -0.03113   0.00875  -0.03658   0.00007  -0.01881
  35        3S         -0.01204   0.00823  -0.02626   0.00013  -0.00326
  36 6   H  1S         -0.02025  -0.01491  -0.00922  -0.00048  -0.01483
  37        2S         -0.03085  -0.03583  -0.01048   0.00004  -0.01959
  38        3S         -0.01194  -0.02666  -0.00599   0.00011  -0.00379
                          11        12        13        14        15
  11        4PX         0.06012
  12        4PY        -0.00929   0.05103
  13        4PZ        -0.00096  -0.00158   0.14239
  14 2   H  1S          0.03360  -0.05406  -0.00070   0.08077
  15        2S          0.04850  -0.07523  -0.00026   0.10937   0.15013
  16        3S          0.02109  -0.02794   0.00014   0.03678   0.05273
  17 3   H  1S         -0.06301   0.00176  -0.00078  -0.01320  -0.02465
  18        2S         -0.08755   0.00418  -0.00032  -0.02456  -0.04257
  19        3S         -0.03362   0.00441   0.00013  -0.01792  -0.02720
  20 4   C  1S         -0.00319  -0.00578  -0.00042   0.00423   0.00677
  21        2S         -0.00658  -0.01181  -0.00068   0.00699   0.01131
  22        2PX        -0.01321  -0.01984   0.00077   0.00183  -0.00266
  23        2PY        -0.01986  -0.03664   0.00145   0.01140   0.02423
  24        2PZ        -0.00054  -0.00082   0.09565  -0.00040  -0.00014
  25        3S          0.02327   0.04148   0.00199  -0.02106  -0.03402
  26        3PX        -0.02030  -0.02807   0.00105   0.00106  -0.00708
  27        3PY        -0.02805  -0.05340   0.00200   0.01700   0.03633
  28        3PZ        -0.00089  -0.00136   0.15315  -0.00059  -0.00015
  29        4S          0.00836   0.01576   0.00260  -0.01796  -0.02482
  30        4PX        -0.01487  -0.01230   0.00093  -0.00165  -0.00839
  31        4PY        -0.01240  -0.02952   0.00183   0.01531   0.02732
  32        4PZ        -0.00107  -0.00170   0.14262  -0.00034   0.00017
  33 5   H  1S          0.00213  -0.01581  -0.00023   0.01121   0.02337
  34        2S          0.00945  -0.02750   0.00033   0.02380   0.04449
  35        3S          0.00768  -0.01583   0.00024   0.01666   0.02795
  36 6   H  1S         -0.01455  -0.00562  -0.00024  -0.00913  -0.01831
  37        2S         -0.02819  -0.00490   0.00032  -0.01888  -0.03447
  38        3S         -0.01726  -0.00101   0.00022  -0.01021  -0.01784
                          16        17        18        19        20
  16        3S          0.02116
  17 3   H  1S         -0.01813   0.08209
  18        2S         -0.02733   0.10969   0.14866
  19        3S         -0.01285   0.03614   0.05124   0.02029
  20 4   C  1S          0.00374   0.00430   0.00677   0.00373   0.65948
  21        2S          0.00553   0.00710   0.01129   0.00548   0.56159
  22        2PX        -0.00346   0.00902   0.02229   0.01679   0.00118
  23        2PY         0.01772   0.00742   0.00976   0.00570   0.00184
  24        2PZ         0.00001  -0.00040  -0.00010   0.00004   0.00006
  25        3S         -0.01438  -0.02129  -0.03384  -0.01412  -0.08928
  26        3PX        -0.00693   0.01432   0.03505   0.02620  -0.00050
  27        3PY         0.02670   0.00956   0.01192   0.00713  -0.00106
  28        3PZ         0.00003  -0.00058  -0.00009   0.00008   0.00013
  29        4S         -0.00609  -0.01772  -0.02394  -0.00555  -0.08007
  30        4PX        -0.00702   0.01411   0.02779   0.01720  -0.00019
  31        4PY         0.01606   0.00660   0.00673   0.00199  -0.00020
  32        4PZ         0.00017  -0.00033   0.00022   0.00021  -0.00003
  33 5   H  1S          0.01628  -0.00905  -0.01814  -0.00945  -0.02014
  34        2S          0.02754  -0.01868  -0.03398  -0.01699  -0.02215
  35        3S          0.01472  -0.01012  -0.01759  -0.00901   0.00061
  36 6   H  1S         -0.00960   0.01122   0.02327   0.01599  -0.01990
  37        2S         -0.01737   0.02379   0.04427   0.02710  -0.02210
  38        3S         -0.00921   0.01664   0.02774   0.01448   0.00052
                          21        22        23        24        25
  21        2S          0.49210
  22        2PX         0.00169   0.08282
  23        2PY         0.00262   0.00370   0.08772
  24        2PZ         0.00009   0.00010   0.00013   0.06426
  25        3S         -0.15430  -0.00544  -0.00854  -0.00011   0.45383
  26        3PX        -0.00075   0.12874   0.00191   0.00006  -0.00016
  27        3PY        -0.00160   0.00194   0.13150   0.00005   0.00068
  28        3PZ         0.00021   0.00015   0.00021   0.10290  -0.00043
  29        4S         -0.11564   0.01355   0.02296   0.00046   0.27799
  30        4PX        -0.00143   0.07330  -0.00517   0.00031   0.00611
  31        4PY        -0.00226  -0.00508   0.06719   0.00059   0.00997
  32        4PZ        -0.00009   0.00056   0.00100   0.09581   0.00053
  33 5   H  1S         -0.03208  -0.03339   0.06375  -0.00091   0.08579
  34        2S         -0.03538  -0.04971   0.08850  -0.00073   0.09465
  35        3S         -0.00058  -0.02270   0.03344  -0.00008   0.00558
  36 6   H  1S         -0.03172   0.07134   0.00271  -0.00082   0.08482
  37        2S         -0.03533   0.10130   0.00081  -0.00060   0.09451
  38        3S         -0.00071   0.04051  -0.00316  -0.00002   0.00585
                          26        27        28        29        30
  26        3PX         0.20045
  27        3PY        -0.00254   0.19771
  28        3PZ         0.00008   0.00008   0.16476
  29        4S          0.02503   0.04218   0.00057   0.18581
  30        4PX         0.11457  -0.01074   0.00050   0.01533   0.06658
  31        4PY        -0.01064   0.10156   0.00094   0.02488  -0.01044
  32        4PZ         0.00071   0.00129   0.15341   0.00139   0.00079
  33 5   H  1S         -0.05334   0.09988  -0.00151   0.06692  -0.03449
  34        2S         -0.07984   0.13815  -0.00122   0.07696  -0.05205
  35        3S         -0.03690   0.05155  -0.00012   0.00913  -0.02422
  36 6   H  1S          0.11262   0.00349  -0.00137   0.06714   0.06587
  37        2S          0.15974  -0.00046  -0.00102   0.07824   0.09391
  38        3S          0.06356  -0.00642  -0.00004   0.00995   0.03773
                          31        32        33        34        35
  31        4PY         0.05372
  32        4PZ         0.00151   0.14286
  33 5   H  1S          0.05589  -0.00078   0.08099
  34        2S          0.07744  -0.00034   0.11005   0.15199
  35        3S          0.02904   0.00010   0.03804   0.05511   0.02282
  36 6   H  1S         -0.00192  -0.00071  -0.01241  -0.02605  -0.02002
  37        2S         -0.00633  -0.00024  -0.02612  -0.04838  -0.03171
  38        3S         -0.00642   0.00014  -0.02016  -0.03179  -0.01569
                          36        37        38
  36 6   H  1S          0.08022
  37        2S          0.10976   0.15258
  38        3S          0.03825   0.05570   0.02313
    Full Mulliken population analysis:
                           1         2         3         4         5
   1 1   C  1S          0.65940
   2        2S          0.49324   0.49197
   3        2PX         0.00000   0.00000   0.08410
   4        2PY         0.00000   0.00000   0.00000   0.08761
   5        2PZ         0.00000   0.00000   0.00000   0.00000   0.06449
   6        3S         -0.02926  -0.06439   0.00000   0.00000   0.00000
   7        3PX         0.00000   0.00000   0.08198   0.00000   0.00000
   8        3PY         0.00000   0.00000   0.00000   0.08242   0.00000
   9        3PZ         0.00000   0.00000   0.00000   0.00000   0.06521
  10        4S         -0.01222  -0.02143   0.00000   0.00000   0.00000
  11        4PX         0.00000   0.00000   0.01546   0.00000   0.00000
  12        4PY         0.00000   0.00000   0.00000   0.01441   0.00000
  13        4PZ         0.00000   0.00000   0.00000   0.00000   0.02110
  14 2   H  1S         -0.00022  -0.00032   0.00178   0.00546   0.00000
  15        2S         -0.00165  -0.00316   0.00430   0.01309   0.00000
  16        3S          0.00004  -0.00007   0.00070   0.00191   0.00000
  17 3   H  1S         -0.00025  -0.00036   0.00776   0.00000   0.00000
  18        2S         -0.00173  -0.00330   0.01766   0.00000   0.00000
  19        3S          0.00004  -0.00007   0.00256  -0.00000   0.00000
  20 4   C  1S          0.00000   0.00000  -0.00002  -0.00006   0.00000
  21        2S          0.00000  -0.00000  -0.00002  -0.00006   0.00000
  22        2PX        -0.00002  -0.00002   0.00011   0.00086   0.00000
  23        2PY        -0.00006  -0.00005   0.00086   0.00198   0.00000
  24        2PZ        -0.00000  -0.00000  -0.00000  -0.00000   0.00042
  25        3S         -0.00059  -0.00100   0.00255   0.00768  -0.00000
  26        3PX        -0.00054  -0.00100   0.00019   0.00558   0.00000
  27        3PY        -0.00164  -0.00300   0.00556   0.01071   0.00000
  28        3PZ        -0.00000  -0.00000  -0.00000  -0.00000   0.00614
  29        4S          0.00035   0.00031   0.00096   0.00291  -0.00000
  30        4PX        -0.00018  -0.00045  -0.00071   0.00146   0.00000
  31        4PY        -0.00052  -0.00133   0.00146   0.00096   0.00000
  32        4PZ        -0.00000  -0.00000  -0.00000  -0.00000   0.00904
  33 5   H  1S          0.00000   0.00000  -0.00000  -0.00000   0.00000
  34        2S          0.00001   0.00002   0.00000  -0.00031  -0.00000
  35        3S          0.00007   0.00013   0.00001  -0.00070  -0.00000
  36 6   H  1S          0.00000   0.00000  -0.00000  -0.00000   0.00000
  37        2S          0.00001   0.00002  -0.00024  -0.00007   0.00000
  38        3S          0.00007   0.00013  -0.00057  -0.00012  -0.00000
                           6         7         8         9        10
   6        3S          0.45229
   7        3PX         0.00000   0.20223
   8        3PY         0.00000   0.00000   0.19644
   9        3PZ         0.00000   0.00000   0.00000   0.16659
  10        4S          0.21214   0.00000   0.00000   0.00000   0.18354
  11        4PX         0.00000   0.07141   0.00000   0.00000   0.00000
  12        4PY         0.00000   0.00000   0.06441   0.00000   0.00000
  13        4PZ         0.00000   0.00000   0.00000   0.10064   0.00000
  14 2   H  1S          0.01577   0.01074   0.03188   0.00001   0.01828
  15        2S          0.04092   0.01965   0.05734   0.00001   0.04737
  16        3S          0.00287   0.00400   0.01025   0.00000   0.00872
  17 3   H  1S          0.01678   0.04394   0.00000   0.00001   0.01852
  18        2S          0.04236   0.07717   0.00000   0.00001   0.04700
  19        3S          0.00290   0.01390  -0.00000   0.00000   0.00792
  20 4   C  1S         -0.00060  -0.00058  -0.00173   0.00000   0.00033
  21        2S         -0.00101  -0.00106  -0.00319   0.00000   0.00030
  22        2PX         0.00244   0.00018   0.00553   0.00000   0.00079
  23        2PY         0.00733   0.00553   0.01063   0.00000   0.00237
  24        2PZ         0.00000  -0.00000  -0.00000   0.00617   0.00000
  25        3S          0.02190   0.01344   0.04049  -0.00000   0.00028
  26        3PX         0.01261  -0.00127   0.01855   0.00000   0.00399
  27        3PY         0.03793   0.01848   0.02846   0.00000   0.01193
  28        3PZ         0.00000  -0.00000  -0.00000   0.03541   0.00000
  29        4S          0.00062   0.00492   0.01501  -0.00000  -0.02056
  30        4PX         0.00634  -0.00404   0.00585   0.00000   0.00191
  31        4PY         0.01879   0.00586   0.00123   0.00000   0.00531
  32        4PZ         0.00000  -0.00000  -0.00000   0.04935   0.00000
  33 5   H  1S         -0.00005  -0.00000  -0.00019   0.00000  -0.00078
  34        2S         -0.00120   0.00006  -0.00321  -0.00000  -0.00315
  35        3S         -0.00196   0.00011  -0.00423  -0.00000  -0.00118
  36 6   H  1S         -0.00005  -0.00013  -0.00005   0.00000  -0.00078
  37        2S         -0.00117  -0.00255  -0.00052  -0.00000  -0.00325
  38        3S         -0.00193  -0.00352  -0.00055  -0.00000  -0.00136
                          11        12        13        14        15
  11        4PX         0.06012
  12        4PY         0.00000   0.05103
  13        4PZ         0.00000   0.00000   0.14239
  14 2   H  1S          0.00638   0.01742   0.00001   0.08077
  15        2S          0.01553   0.04086   0.00000   0.07725   0.15013
  16        3S          0.00530   0.01191  -0.00000   0.01374   0.04160
  17 3   H  1S          0.02360  -0.00000   0.00001  -0.00001  -0.00063
  18        2S          0.05510  -0.00001   0.00000  -0.00062  -0.00521
  19        3S          0.01654  -0.00001  -0.00000  -0.00197  -0.00784
  20 4   C  1S         -0.00019  -0.00058   0.00000   0.00000   0.00002
  21        2S         -0.00047  -0.00145   0.00000   0.00000   0.00003
  22        2PX        -0.00072   0.00137   0.00000  -0.00000   0.00000
  23        2PY         0.00138   0.00094   0.00000  -0.00000  -0.00036
  24        2PZ        -0.00000  -0.00000   0.00901   0.00000   0.00000
  25        3S          0.00654   0.02019  -0.00000  -0.00007  -0.00150
  26        3PX        -0.00418   0.00556   0.00000  -0.00000   0.00004
  27        3PY         0.00555   0.00121   0.00000  -0.00022  -0.00356
  28        3PZ        -0.00000  -0.00000   0.04900   0.00000   0.00000
  29        4S          0.00253   0.00827  -0.00000  -0.00105  -0.00445
  30        4PX        -0.00717   0.00311   0.00000   0.00001   0.00016
  31        4PY         0.00314  -0.00563   0.00000  -0.00243  -0.01029
  32        4PZ        -0.00000  -0.00000   0.08962   0.00000  -0.00000
  33 5   H  1S          0.00003  -0.00234   0.00000   0.00000   0.00000
  34        2S          0.00028  -0.00987  -0.00000   0.00000   0.00016
  35        3S          0.00030  -0.00731  -0.00000   0.00023   0.00146
  36 6   H  1S         -0.00176  -0.00047   0.00000  -0.00000  -0.00004
  37        2S         -0.00829  -0.00100  -0.00000  -0.00004  -0.00092
  38        3S         -0.00656  -0.00027  -0.00000  -0.00046  -0.00248
                          16        17        18        19        20
  16        3S          0.02116
  17 3   H  1S         -0.00199   0.08209
  18        2S         -0.00788   0.07748   0.14866
  19        3S         -0.00663   0.01350   0.04042   0.02029
  20 4   C  1S          0.00009   0.00000   0.00002   0.00009   0.65948
  21        2S          0.00016   0.00000   0.00003   0.00016   0.49332
  22        2PX         0.00001  -0.00000  -0.00028  -0.00059   0.00000
  23        2PY        -0.00074  -0.00000  -0.00008  -0.00013   0.00000
  24        2PZ        -0.00000   0.00000   0.00000  -0.00000   0.00000
  25        3S         -0.00248  -0.00007  -0.00150  -0.00245  -0.02939
  26        3PX         0.00006  -0.00016  -0.00290  -0.00367   0.00000
  27        3PY        -0.00447  -0.00007  -0.00065  -0.00066   0.00000
  28        3PZ        -0.00000   0.00000   0.00000  -0.00000   0.00000
  29        4S         -0.00229  -0.00104  -0.00432  -0.00209  -0.01231
  30        4PX         0.00017  -0.00188  -0.00878  -0.00679   0.00000
  31        4PY        -0.00758  -0.00058  -0.00140  -0.00052   0.00000
  32        4PZ        -0.00000   0.00000  -0.00000  -0.00000   0.00000
  33 5   H  1S          0.00023  -0.00000  -0.00004  -0.00043  -0.00022
  34        2S          0.00144  -0.00004  -0.00091  -0.00236  -0.00159
  35        3S          0.00247  -0.00046  -0.00244  -0.00287   0.00005
  36 6   H  1S         -0.00044   0.00000   0.00000   0.00022  -0.00021
  37        2S         -0.00241   0.00000   0.00015   0.00142  -0.00156
  38        3S         -0.00294   0.00023   0.00145   0.00243   0.00004
                          21        22        23        24        25
  21        2S          0.49210
  22        2PX         0.00000   0.08282
  23        2PY         0.00000   0.00000   0.08772
  24        2PZ         0.00000   0.00000   0.00000   0.06426
  25        3S         -0.06462   0.00000   0.00000   0.00000   0.45383
  26        3PX         0.00000   0.08099   0.00000   0.00000   0.00000
  27        3PY         0.00000   0.00000   0.08273   0.00000   0.00000
  28        3PZ         0.00000   0.00000   0.00000   0.06473   0.00000
  29        4S         -0.02164   0.00000   0.00000   0.00000   0.21536
  30        4PX         0.00000   0.01614   0.00000   0.00000   0.00000
  31        4PY         0.00000   0.00000   0.01480   0.00000   0.00000
  32        4PZ         0.00000   0.00000   0.00000   0.02110   0.00000
  33 5   H  1S         -0.00031   0.00149   0.00574   0.00000   0.01549
  34        2S         -0.00304   0.00381   0.01371   0.00000   0.03946
  35        3S         -0.00005   0.00067   0.00200   0.00000   0.00256
  36 6   H  1S         -0.00029   0.00692   0.00002   0.00000   0.01500
  37        2S         -0.00298   0.01731   0.00001   0.00000   0.03894
  38        3S         -0.00007   0.00270  -0.00001   0.00000   0.00267
                          26        27        28        29        30
  26        3PX         0.20045
  27        3PY         0.00000   0.19771
  28        3PZ         0.00000   0.00000   0.16476
  29        4S          0.00000   0.00000   0.00000   0.18581
  30        4PX         0.07487   0.00000   0.00000   0.00000   0.06658
  31        4PY         0.00000   0.06637   0.00000   0.00000   0.00000
  32        4PZ         0.00000   0.00000   0.10025   0.00000   0.00000
  33 5   H  1S          0.00891   0.03372   0.00001   0.01759   0.00572
  34        2S          0.01722   0.06025   0.00001   0.04415   0.01455
  35        3S          0.00381   0.01077   0.00000   0.00687   0.00532
  36 6   H  1S          0.04174   0.00008   0.00001   0.01751   0.02456
  37        2S          0.07718  -0.00001   0.00001   0.04460   0.05914
  38        3S          0.01481  -0.00010   0.00000   0.00746   0.01870
                          31        32        33        34        35
  31        4PY         0.05372
  32        4PZ         0.00000   0.14286
  33 5   H  1S          0.01874   0.00001   0.08099
  34        2S          0.04377   0.00000   0.07773   0.15199
  35        3S          0.01289  -0.00000   0.01421   0.04348   0.02282
  36 6   H  1S         -0.00005   0.00001  -0.00001  -0.00081  -0.00237
  37        2S         -0.00025   0.00000  -0.00081  -0.00672  -0.00971
  38        3S         -0.00020  -0.00000  -0.00239  -0.00973  -0.00842
                          36        37        38
  36 6   H  1S          0.08022
  37        2S          0.07753   0.15258
  38        3S          0.01429   0.04394   0.02313
     Gross orbital populations:
                           1
   1 1   C  1S          1.10436
   2        2S          0.88585
   3        2PX         0.22643
   4        2PY         0.23573
   5        2PZ         0.16642
   6        3S          0.79237
   7        3PX         0.56044
   8        3PY         0.55483
   9        3PZ         0.42341
  10        4S          0.50600
  11        4PX         0.25986
  12        4PY         0.21178
  13        4PZ         0.41177
  14 2   H  1S          0.27232
  15        2S          0.46782
  16        3S          0.08692
  17 3   H  1S          0.27640
  18        2S          0.46547
  19        3S          0.08333
  20 4   C  1S          1.10440
  21        2S          0.88584
  22        2PX         0.22253
  23        2PY         0.23630
  24        2PZ         0.16570
  25        3S          0.79271
  26        3PX         0.55282
  27        3PY         0.55709
  28        3PZ         0.42034
  29        4S          0.50547
  30        4PX         0.27460
  31        4PY         0.21625
  32        4PZ         0.41223
  33 5   H  1S          0.27304
  34        2S          0.46918
  35        3S          0.08855
  36 6   H  1S          0.27065
  37        2S          0.47036
  38        3S          0.09041
          Condensed to atoms (all electrons):
               1          2          3          4          5          6
     1  C    5.032436   0.387066   0.388063   0.602092  -0.035445  -0.034957
     2  H    0.387066   0.517260  -0.032776  -0.040737   0.005993  -0.009740
     3  H    0.388063  -0.032776   0.513864  -0.040313  -0.009544   0.005908
     4  C    0.602092  -0.040737  -0.040313   5.057486   0.384066   0.383692
     5  H   -0.035445   0.005993  -0.009544   0.384066   0.526657  -0.040957
     6  H   -0.034957  -0.009740   0.005908   0.383692  -0.040957   0.527478
 Mulliken charges:
               1
     1  C   -0.339255
     2  H    0.172935
     3  H    0.174797
     4  C   -0.346285
     5  H    0.169231
     6  H    0.168577
 Sum of Mulliken charges =   0.00000
 Mulliken charges with hydrogens summed into heavy atoms:
               1
     1  C    0.008477
     4  C   -0.008477
 Electronic spatial extent (au):  <R**2>=             83.7215
 Charge=              0.0000 electrons
 Dipole moment (field-independent basis, Debye):
    X=              0.0054    Y=              0.0261    Z=             -0.0738  Tot=              0.0785
 Quadrupole moment (field-independent basis, Debye-Ang):
   XX=            -12.2038   YY=            -12.2204   ZZ=            -15.6735
   XY=              0.0117   XZ=              0.0003   YZ=             -0.0030
 Traceless Quadrupole moment (field-independent basis, Debye-Ang):
   XX=              1.1621   YY=              1.1455   ZZ=             -2.3076
   XY=              0.0117   XZ=              0.0003   YZ=             -0.0030
 Octapole moment (field-independent basis, Debye-Ang**2):
  XXX=             -0.3679  YYY=             -0.0079  ZZZ=             -0.0769  XYY=              0.2204
  XXY=             -0.0300  XXZ=             -0.1076  XZZ=             -0.0891  YZZ=             -0.0730
  YYZ=             -0.1386  XYZ=             -0.0274
 Hexadecapole moment (field-independent basis, Debye-Ang**3):
 XXXX=            -34.2923 YYYY=            -55.2168 ZZZZ=            -17.8042 XXXY=             -7.2259
 XXXZ=              0.0163 YYYX=            -10.6923 YYYZ=              0.0215 ZZZX=              0.0181
 ZZZY=              0.0359 XXYY=            -16.2004 XXZZ=             -9.9300 YYZZ=            -13.6525
 XXYZ=              0.0089 YYXZ=              0.0009 ZZXY=             -3.1968
 N-N= 3.306803727446D+01 E-N=-2.478449066085D+02  KE= 7.814930137391D+01
 Orbital energies and kinetic energies (alpha):
                                 1                 2
   1         O               -10.289898         15.977048
   2         O               -10.288599         15.981335
   3         O                -0.863968          1.540056
   4         O                -0.671853          1.270190
   5         O                -0.559179          0.940982
   6         O                -0.509386          1.283709
   7         O                -0.436082          1.042457
   8         O                -0.357105          1.038873
   9         V                 0.080187          1.181654
  10         V                 0.140812          0.589994
  11         V                 0.164402          0.595874
  12         V                 0.169903          0.681092
  13         V                 0.240793          0.583783
  14         V                 0.372914          0.847322
  15         V                 0.393200          0.933982
  16         V                 0.399620          0.785066
  17         V                 0.463727          1.190491
  18         V                 0.487965          1.421805
  19         V                 0.493596          1.300966
  20         V                 0.591141          1.653257
  21         V                 0.665289          1.569896
  22         V                 0.690533          2.148653
  23         V                 0.772958          2.510998
  24         V                 0.775133          2.227475
  25         V                 0.844116          1.087332
  26         V                 0.953092          3.431411
  27         V                 2.231618          3.926137
  28         V                 2.290474          4.027867
  29         V                 2.332372          4.303224
  30         V                 2.406763          4.516017
  31         V                 2.671286          6.301378
  32         V                 2.817914          6.306813
  33         V                 2.877206          6.136037
  34         V                 2.951999          6.227325
  35         V                 3.141529          6.820860
  36         V                 3.319111          6.402484
  37         V                23.351503         60.073952
  38         V                23.706675         60.204560
 Total kinetic energy from orbitals= 7.814930137391D+01
 Calling FoFJK, ICntrl=      2127 FMM=F ISym2X=0 I1Cent= 0 IOpClX= 0 NMat=1 NMatS=1 NMatT=0.
 -------------------------------------------------------------------
 Center     Atomic                   Forces (Hartrees/Bohr)
 Number     Number              X              Y              Z
 -------------------------------------------------------------------
      1        6           0.012377123    0.005462437   -0.003087826
      2        1          -0.011293020    0.008117184    0.001545559
      3        1           0.004608326   -0.005009897    0.001419212
      4        6           0.009537138    0.010228987   -0.003170023
      5        1           0.001047243   -0.012876189    0.001608689
      6        1          -0.016276811   -0.005922523    0.001684389
 -------------------------------------------------------------------
 Cartesian Forces:  Max     0.016276811 RMS     0.007869395

 GradGradGradGradGradGradGradGradGradGradGradGradGradGradGradGradGradGrad
 Berny optimization.
 Search for a local minimum.
 Step number   1 out of a maximum of    2
 All quantities printed in internal units (Hartrees-Bohrs-Radians)
 Second derivative matrix not updated -- first step.
 The second derivative matrix:
                          X1        Y1        Z1        X2        Y2
           X1           0.75559
           Y1           0.09992   0.85531
           Z1           0.00431   0.00630   0.17059
           X2          -0.16350   0.09501   0.00150   0.14096
           Y2           0.10076  -0.27843  -0.00544  -0.11405   0.26724
           Z2           0.00242  -0.00688  -0.05449  -0.00219   0.00563
           X3          -0.34929  -0.00081  -0.00610  -0.00014  -0.00008
           Y3          -0.00643  -0.10984  -0.00146   0.03214   0.01891
           Z3          -0.00782  -0.00141  -0.05593   0.00113   0.00043
           X4          -0.26805  -0.17953  -0.00047   0.02269   0.01336
           Y4          -0.17983  -0.47536  -0.00074  -0.01311  -0.00772
           Z4           0.00107   0.00196  -0.09484  -0.00044  -0.00062
           X5           0.02359  -0.01362   0.00047  -0.00000   0.00000
           Y5           0.01165  -0.00673   0.00064   0.00000  -0.00000
           Z5          -0.00040   0.00026   0.01769   0.00019  -0.00010
           X6           0.00167  -0.00097   0.00029  -0.00000   0.00000
           Y6          -0.02607   0.01506   0.00070   0.00000  -0.00000
           Z6           0.00042  -0.00022   0.01698  -0.00019   0.00010
                          Z2        X3        Y3        Z3        X4
           Z2           0.02828
           X3          -0.00022   0.34933
           Y3           0.00123   0.00094   0.07554
           Z3           0.01049   0.00666   0.00097   0.02925
           X4           0.00037   0.00010  -0.02665  -0.00036   0.71492
           Y4          -0.00019  -0.00006   0.01539   0.00023   0.12293
           Z4           0.01566  -0.00034  -0.00074   0.01626  -0.00395
           X5          -0.00019  -0.00000   0.00000   0.00019  -0.14610
           Y5           0.00012   0.00000  -0.00000  -0.00013   0.09255
           Z5           0.00929   0.00020  -0.00013  -0.00947  -0.00235
           X6          -0.00019  -0.00000   0.00000   0.00019  -0.32357
           Y6           0.00010   0.00000  -0.00000  -0.00010  -0.02266
           Z6          -0.00923  -0.00020   0.00013   0.00940   0.00676
                          Y4        Z4        X5        Y5        Z5
           Y4           0.86412
           Z4          -0.00771   0.17751
           X5           0.08410  -0.00156   0.12463
           Y5          -0.29162   0.00565  -0.10317   0.28221
           Z5           0.00697  -0.05769   0.00210  -0.00603   0.02991
           X6          -0.01404   0.00522  -0.00211  -0.00104   0.00027
           Y6          -0.10481   0.00146   0.03269   0.01614  -0.00098
           Z6           0.00144  -0.05690  -0.00101  -0.00026   0.01027
                          X6        Y6        Z6
           X6           0.32401
           Y6           0.01604   0.07361
           Z6          -0.00579  -0.00118   0.02948
 ITU=  0
     Eigenvalues ---    0.03742   0.04371   0.09328   0.09963   0.13509
     Eigenvalues ---    0.17420   0.26527   0.28908   0.52672   0.69889
     Eigenvalues ---    0.97082   1.56721
 Angle between quadratic step and forces=  32.19 degrees.
 Linear search not attempted -- first point.
 B after Tr=     0.006791    0.007295   -0.007567
         Rot=    1.000000   -0.000043    0.000024   -0.000107 Ang=  -0.01 deg.
 Variable       Old X    -DE/DX   Delta X   Delta X   Delta X     New X
                                 (Linear)    (Quad)   (Total)
    X1       -0.63442   0.01238   0.00000   0.02034   0.02736  -0.60706
    Y1       -1.09765   0.00546   0.00000   0.02171   0.02887  -1.06878
    Z1        0.01109  -0.00309   0.00000  -0.01625  -0.02394  -0.01285
    X2        0.42269  -0.01129   0.00000  -0.04490  -0.03749   0.38520
    Y2       -2.89150   0.00812   0.00000   0.02671   0.03409  -2.85741
    Z2       -0.02944   0.00155   0.00000   0.01972   0.01193  -0.01751
    X3       -2.69156   0.00461   0.00000   0.03297   0.04000  -2.65156
    Y3       -1.10484  -0.00501   0.00000  -0.02105  -0.01432  -1.11916
    Z3       -0.03169   0.00142   0.00000   0.01953   0.01174  -0.01995
    X4        0.62899   0.00954   0.00000   0.00775   0.01431   0.64330
    Y4        1.09004   0.01023   0.00000   0.00851   0.01594   1.10598
    Z4        0.00783  -0.00317   0.00000  -0.01506  -0.02250  -0.01466
    X5       -0.29485   0.00105   0.00000  -0.01685  -0.01068  -0.30553
    Y5        2.95828  -0.01288   0.00000  -0.04316  -0.03593   2.92235
    Z5       -0.03566   0.00161   0.00000   0.01884   0.01151  -0.02415
    X6        2.72343  -0.01628   0.00000  -0.04003  -0.03349   2.68994
    Y6        1.22380  -0.00592   0.00000  -0.03652  -0.02865   1.19514
    Z6       -0.03368   0.00168   0.00000   0.01860   0.01126  -0.02242
         Item               Value     Threshold  Converged?
 Maximum Force            0.016277     0.000450     NO 
 RMS     Force            0.007869     0.000300     NO 
 Maximum Displacement     0.039997     0.001800     NO 
 RMS     Displacement     0.025144     0.001200     NO 
 Predicted change in Energy=-1.568069D-03
 GradGradGradGradGradGradGradGradGradGradGradGradGradGradGradGradGradGrad

 Unable to Open any file for archive entry.
 1\1\GINC-BHD0012\Force\RwB97XD\6-311G\C2H4\BWEIGHT\11-Jan-2023\0\\# WB
 97XD/6-311G SCF=XQC FORCE nosym pop=full guess=read\\MD Step 999\\0,1\
 C,-0.33571971,-0.58085165,0.00586791\H,0.22367878,-1.53011385,-0.01557
 714\H,-1.42431272,-0.58465658,-0.01677159\C,0.33284776,0.5768236,0.004
 14547\H,-0.15602865,1.56545454,-0.01887123\H,1.44117861,0.64760602,-0.
 01782363\\Version=ES64L-G16RevC.01\HF=-78.5557251\RMSD=8.404e-09\RMSF=
 7.869e-03\Dipole=0.0021263,0.0102812,-0.0290456\Quadrupole=0.8639857,0
 .8516504,-1.7156361,0.008733,0.0002424,-0.002194\PG=C01 [X(C2H4)]\\@
 The archive entry for this job was punched.


 ... THE UNIVERSE IS NOT ONLY QUEERER THAN WE SUPPOSE,
 BUT QUEERER THAN WE CAN SUPPOSE ... 

                                   -- J. B. S. HALDANE
 Job cpu time:       0 days  0 hours  0 minutes 28.0 seconds.
 Elapsed time:       0 days  0 hours  0 minutes 11.7 seconds.
 File lengths (MBytes):  RWF=    272 Int=      0 D2E=      0 Chk=     32 Scr=     32
 Normal termination of Gaussian 16 at Wed Jan 11 18:46:02 2023.
