6
MD Step 0
C  -0.33763715 -0.58748864 0.00000000
H  0.19552659 -1.51519357 0.00000000
H  -1.40763715 -0.58748864 0.00000000
C  0.33763715 0.58748865 0.00000000
H  -0.19552659 1.51519357 0.00000000
H  1.40763715 0.58748865 0.00000000
6
MD Step 1
C  -0.33800578 -0.58783518 -0.00039429
H  0.19788662 -1.51298657 0.00234887
H  -1.40541936 -0.58521223 0.00235056
C  0.33721677 0.58704645 -0.00039471
H  -0.19318575 1.51768632 0.00235028
H  1.41012043 0.58991096 0.00235196
6
MD Step 2
C  -0.33831964 -0.58808650 -0.00078999
H  0.20027835 -1.51107976 0.00470618
H  -1.40351322 -0.58307632 0.00470963
C  0.33674747 0.58651104 -0.00079080
H  -0.19085274 1.52045519 0.00470887
H  1.41282158 0.59247419 0.00471213
6
MD Step 3
C  -0.33857053 -0.58823711 -0.00118240
H  0.20267250 -1.50951162 0.00704375
H  -1.40199149 -0.58111595 0.00704930
C  0.33623907 0.58589113 -0.00118349
H  -0.18854832 1.52344195 0.00704725
H  1.41564910 0.59514032 0.00705171
6
MD Step 4
C  -0.33876025 -0.58829181 -0.00157600
H  0.20509131 -1.50825850 0.00938823
H  -1.40086236 -0.57931035 0.00939666
C  0.33569241 0.58518723 -0.00157712
H  -0.18623632 1.52663784 0.00939148
H  1.41856382 0.59792527 0.00939637
6
MD Step 5
C  -0.33888242 -0.58824753 -0.00196630
H  0.20750022 -1.50734333 0.01171263
H  -1.40017730 -0.57769144 0.01172531
C  0.33511757 0.58440972 -0.00196702
H  -0.18393250 1.52997583 0.01171383
H  1.42147162 0.60079036 0.01171784
6
MD Step 6
C  -0.33893960 -0.58811026 -0.00235678
H  0.20990913 -1.50673441 0.01403754
H  -1.39992838 -0.57624256 0.01405650
C  0.33451667 0.58356179 -0.00235646
H  -0.18160387 1.53343293 0.01403393
H  1.42432684 0.60374375 0.01403519
6
MD Step 7
C  -0.33892667 -0.58787833 -0.00274223
H  0.21227344 -1.50644532 0.01633173
H  -1.40014760 -0.57499785 0.01635982
C  0.33390055 0.58265598 -0.00274001
H  -0.17926850 1.53693176 0.01631952
H  1.42703397 0.60674112 0.01631550
6
MD Step 8
C  -0.33884528 -0.58755677 -0.00312316
H  0.21458018 -1.50644945 0.01859803
H  -1.40082019 -0.57395631 0.01863887
C  0.33327419 0.58169965 -0.00311793
H  -0.17691025 1.54042771 0.01857231
H  1.42953552 0.60977171 0.01855985
6
MD Step 9
C  -0.33869731 -0.58715068 -0.00349921
H  0.21680935 -1.50671984 0.02083418
H  -1.40192420 -0.57312091 0.02089210
C  0.33264322 0.58070143 -0.00348965
H  -0.17451839 1.54387083 0.02078887
H  1.43177392 0.61281937 0.02076427
6
MD Step 10
C  -0.33848338 -0.58666366 -0.00386772
H  0.21892594 -1.50723854 0.02302429
H  -1.40343972 -0.57250710 0.02310430
C  0.33201531 0.57967251 -0.00385230
H  -0.17209658 1.54719833 0.02295221
H  1.43368405 0.61585408 0.02291117
6
MD Step 11
C  -0.33820935 -0.58610431 -0.00423027
H  0.22091930 -1.50795858 0.02517770
H  -1.40531084 -0.57210391 0.02528524
C  0.33139357 0.57862001 -0.00420727
H  -0.16962451 1.55037453 0.02507054
H  1.43523307 0.61887109 0.02500847
6
MD Step 12
C  -0.33787171 -0.58547155 -0.00457808
H  0.22271724 -1.50889145 0.02724247
H  -1.40753374 -0.57196037 0.02738358
C  0.33079105 0.57756138 -0.00454576
H  -0.16714462 1.55330521 0.02709111
H  1.43633450 0.62180442 0.02700280
6
MD Step 13
C  -0.33747615 -0.58477317 -0.00491077
H  0.22429761 -1.50999674 0.02921644
H  -1.41004632 -0.57207437 0.02939730
C  0.33021198 0.57650556 -0.00486730
H  -0.16465164 1.55594981 0.02901099
H  1.43696048 0.62463833 0.02889102
6
MD Step 14
C  -0.33703411 -0.58402241 -0.00523295
H  0.22566886 -1.51120306 0.03112735
H  -1.41275002 -0.57241273 0.03135366
C  0.32965513 0.57545633 -0.00517644
H  -0.16211277 1.55830215 0.03085715
H  1.43712214 0.62738737 0.03070042
6
MD Step 15
C  -0.33655461 -0.58322986 -0.00554629
H  0.22682331 -1.51245653 0.03298544
H  -1.41555979 -0.57295842 0.03326228
C  0.32912174 0.57442007 -0.00547484
H  -0.15951513 1.56034348 0.03263927
H  1.43682197 0.63004914 0.03244106
6
MD Step 16
C  -0.33604332 -0.58240248 -0.00584866
H  0.22773277 -1.51372651 0.03477861
H  -1.41841113 -0.57371551 0.03511049
C  0.32861637 0.57340658 -0.00576050
H  -0.15687071 1.56203801 0.03434504
H  1.43604881 0.63259942 0.03410088
6
MD Step 17
C  -0.33550453 -0.58154567 -0.00613627
H  0.22836161 -1.51499377 0.03648504
H  -1.42124913 -0.57469646 0.03687596
C  0.32814476 0.57242679 -0.00602987
H  -0.15420384 1.56334607 0.03595271
H  1.43479067 0.63500499 0.03565832
6
MD Step 18
C  -0.33494969 -0.58067185 -0.00641248
H  0.22871884 -1.51619940 0.03812517
H  -1.42397811 -0.57587063 0.03857761
C  0.32770503 0.57148408 -0.00628640
H  -0.15149973 1.56427619 0.03748264
H  1.43308665 0.63727556 0.03713484
6
MD Step 19
C  -0.33438322 -0.57978622 -0.00667354
H  0.22877452 -1.51732937 0.03967751
H  -1.42654759 -0.57724796 0.04019316
C  0.32730188 0.57058820 -0.00652669
H  -0.14878807 1.56480138 0.03891384
H  1.43094258 0.63937978 0.03850986
6
MD Step 20
C  -0.33381503 -0.57889942 -0.00692145
H  0.22853560 -1.51833956 0.04115451
H  -1.42887775 -0.57880372 0.04173338
C  0.32693383 0.56974262 -0.00675294
H  -0.14606771 1.56493488 0.04025911
H  1.42840653 0.64132107 0.03979748
6
MD Step 21
C  -0.33325077 -0.57801769 -0.00715412
H  0.22798832 -1.51921395 0.04254459
H  -1.43091871 -0.58053622 0.04318551
C  0.32660292 0.56895410 -0.00696346
H  -0.14336410 1.56467239 0.04150766
H  1.42551051 0.64307979 0.04098775
6
MD Step 22
C  -0.33269577 -0.57714687 -0.00736951
H  0.22712263 -1.51994078 0.04383652
H  -1.43262711 -0.58244263 0.04453718
C  0.32631068 0.56822858 -0.00715666
H  -0.14070502 1.56401638 0.04264923
H  1.42229442 0.64463764 0.04207131
6
MD Step 23
C  -0.33215628 -0.57629366 -0.00756701
H  0.22594009 -1.52050493 0.04502730
H  -1.43395903 -0.58451135 0.04578397
C  0.32605678 0.56756986 -0.00733230
H  -0.13811264 1.56298382 0.04368187
H  1.41881338 0.64598559 0.04304744
6
MD Step 24
C  -0.33163458 -0.57546071 -0.00774239
H  0.22442496 -1.52091704 0.04609308
H  -1.43489949 -0.58675086 0.04690148
C  0.32584393 0.56698438 -0.00748686
H  -0.13563209 1.56157716 0.04458327
H  1.41510821 0.64709492 0.04389432
6
MD Step 25
C  -0.33114080 -0.57465850 -0.00790019
H  0.22261538 -1.52114246 0.04706077
H  -1.43539162 -0.58911897 0.04791424
C  0.32566590 0.56646932 -0.00762499
H  -0.13326044 1.55985519 0.04538130
H  1.41127582 0.64798867 0.04464213
6
MD Step 26
C  -0.33068006 -0.57389243 -0.00804044
H  0.22052671 -1.52117802 0.04793104
H  -1.43541401 -0.59159925 0.04882152
C  0.32552050 0.56602542 -0.00774712
H  -0.13102260 1.55785596 0.04607805
H  1.40739131 0.64866477 0.04529443
6
MD Step 27
C  -0.33025372 -0.57316411 -0.00816000
H  0.21815936 -1.52104409 0.04868621
H  -1.43497313 -0.59419330 0.04960526
C  0.32540835 0.56565568 -0.00785080
H  -0.12896301 1.55560411 0.04665768
H  1.40351444 0.64910394 0.04583597
6
MD Step 28
C  -0.32986683 -0.57247880 -0.00826033
H  0.21554303 -1.52074005 0.04933503
H  -1.43405889 -0.59687659 0.05027276
C  0.32532540 0.56535795 -0.00793775
H  -0.12710115 1.55315467 0.04713039
H  1.39973283 0.64931424 0.04627861
6
MD Step 29
C  -0.32951909 -0.57183640 -0.00833811
H  0.21268298 -1.52029773 0.04985872
H  -1.43269832 -0.59965198 0.05080523
C  0.32527211 0.56513397 -0.00800535
H  -0.12548430 1.55053877 0.04747932
H  1.39610671 0.64927730 0.04660581
6
MD Step 30
C  -0.32921127 -0.57123790 -0.00839193
H  0.20959813 -1.51974272 0.05024954
H  -1.43091694 -0.60251157 0.05119472
C  0.32524704 0.56498300 -0.00805272
H  -0.12414900 1.54780111 0.04769851
H  1.39270580 0.64898672 0.04681217
6
MD Step 31
C  -0.32894590 -0.57068608 -0.00842307
H  0.20632473 -1.51908995 0.05051487
H  -1.42873448 -0.60543283 0.05144780
C  0.32524623 0.56490124 -0.00808135
H  -0.12311648 1.54500308 0.04779684
H  1.38961160 0.64845203 0.04690764
6
MD Step 32
C  -0.32872030 -0.57017857 -0.00842812
H  0.20287473 -1.51838472 0.05063551
H  -1.42620598 -0.60841989 0.05154614
C  0.32527036 0.56488882 -0.00808853
H  -0.12243319 1.54218022 0.04775692
H  1.38687408 0.64765718 0.04687434
6
MD Step 33
C  -0.32853949 -0.56972083 -0.00841266
H  0.19931222 -1.51762514 0.05064304
H  -1.42334432 -0.61142700 0.05151990
C  0.32531182 0.56493708 -0.00807949
H  -0.12209377 1.53941801 0.04761144
H  1.38458692 0.64663749 0.04674653
6
MD Step 34
C  -0.32840186 -0.56931180 -0.00837604
H  0.19566747 -1.51684732 0.05053374
H  -1.42020560 -0.61444402 0.05136590
C  0.32536931 0.56504299 -0.00805386
H  -0.12212544 1.53676478 0.04735799
H  1.38279952 0.64539372 0.04652146
6
MD Step 35
C  -0.32830558 -0.56895035 -0.00831819
H  0.19197466 -1.51608644 0.05030691
H  -1.41685028 -0.61745844 0.05108415
C  0.32544149 0.56520296 -0.00801167
H  -0.12254941 1.53426854 0.04699698
H  1.38155356 0.64393026 0.04619901
6
MD Step 36
C  -0.32824880 -0.56863556 -0.00823977
H  0.18827227 -1.51537504 0.04996590
H  -1.41334123 -0.62045447 0.05067871
C  0.32552689 0.56541273 -0.00795353
H  -0.12337926 1.53197673 0.04653255
H  1.38088253 0.64225607 0.04578267
6
MD Step 37
C  -0.32822572 -0.56836276 -0.00813790
H  0.18457880 -1.51476602 0.04949408
H  -1.40976650 -0.62343694 0.05013493
C  0.32562795 0.56567152 -0.00787685
H  -0.12464413 1.52991111 0.04594869
H  1.38078689 0.64036073 0.04525461
6
MD Step 38
C  -0.32823707 -0.56813408 -0.00801721
H  0.18095413 -1.51426955 0.04891707
H  -1.40617569 -0.62636923 0.04947879
C  0.32574062 0.56597172 -0.00778565
H  -0.12632632 1.52812890 0.04527124
H  1.38129573 0.63827664 0.04464025
6
MD Step 39
C  -0.32828608 -0.56795438 -0.00788553
H  0.17747446 -1.51387682 0.04827802
H  -1.40260341 -0.62919789 0.04875334
C  0.32585847 0.56630310 -0.00768658
H  -0.12838518 1.52669710 0.04454346
H  1.38244158 0.63605438 0.04398294
6
MD Step 40
C  -0.32836586 -0.56781870 -0.00774044
H  0.17415677 -1.51363466 0.04756251
H  -1.39914361 -0.63192795 0.04794650
C  0.32598539 0.56666555 -0.00757720
H  -0.13083180 1.52561612 0.04375064
H  1.38418440 0.63368739 0.04326575
6
MD Step 41
C  -0.32846543 -0.56771823 -0.00757543
H  0.17099312 -1.51360955 0.04673354
H  -1.39591258 -0.63458804 0.04702460
C  0.32612958 0.56706332 -0.00745146
H  -0.13369410 1.52485444 0.04285498
H  1.38644769 0.63114707 0.04244772
6
MD Step 42
C  -0.32858471 -0.56765522 -0.00739574
H  0.16803805 -1.51379832 0.04581942
H  -1.39295813 -0.63714183 0.04601689
C  0.32628863 0.56749006 -0.00731355
H  -0.13692859 1.52443711 0.04188421
H  1.38920886 0.62847110 0.04155582
6
MD Step 43
C  -0.32871512 -0.56762365 -0.00719757
H  0.16529269 -1.51424332 0.04479835
H  -1.39037372 -0.63960402 0.04490425
C  0.32646882 0.56794840 -0.00715978
H  -0.14053630 1.52432985 0.04081533
H  1.39238433 0.62564776 0.04056466
6
MD Step 44
C  -0.32885649 -0.56762588 -0.00698583
H  0.16280289 -1.51493270 0.04369692
H  -1.38819723 -0.64194104 0.04371437
C  0.32666846 0.56843322 -0.00699406
H  -0.14446408 1.52453865 0.03967418
H  1.39593097 0.62271483 0.03949926
6
MD Step 45
C  -0.32900860 -0.56766426 -0.00676513
H  0.16060878 -1.51585038 0.04253988
H  -1.38645985 -0.64412149 0.04247307
C  0.32688619 0.56894007 -0.00682001
H  -0.14865528 1.52505991 0.03848492
H  1.39979700 0.61970928 0.03838310
6
MD Step 46
C  -0.32915842 -0.56772838 -0.00652614
H  0.15866865 -1.51705222 0.04127483
H  -1.38526104 -0.64619266 0.04113060
C  0.32713358 0.56947803 -0.00662907
H  -0.15312686 1.52580485 0.03719301
H  1.40384731 0.61659114 0.03715935
6
MD Step 47
C  -0.32930216 -0.56781682 -0.00626864
H  0.15698747 -1.51853613 0.03990023
H  -1.38463676 -0.64815057 0.03968660
C  0.32741341 0.57004772 -0.00642075
H  -0.15784045 1.52673050 0.03579578
H  1.40799614 0.61337266 0.03582455
6
MD Step 48
C  -0.32943820 -0.56793002 -0.00599401
H  0.15557458 -1.52028452 0.03842339
H  -1.38460060 -0.64998240 0.03814903
C  0.32772665 0.57064841 -0.00619604
H  -0.16274568 1.52779856 0.03429974
H  1.41216667 0.61007587 0.03438482
6
MD Step 49
C  -0.32956460 -0.56806776 -0.00570252
H  0.15442879 -1.52227967 0.03684554
H  -1.38515830 -0.65168161 0.03651955
C  0.32807484 0.57128043 -0.00595496
H  -0.16779609 1.52896147 0.03270537
H  1.41627762 0.60671751 0.03284044
6
MD Step 50
C  -0.32967845 -0.56822847 -0.00539255
H  0.15353453 -1.52450818 0.03515798
H  -1.38631156 -0.65325201 0.03478968
C  0.32846078 0.57194578 -0.00569607
H  -0.17295397 1.53015974 0.03100304
H  1.42024078 0.60330487 0.03118164
6
MD Step 51
C  -0.32978778 -0.56842087 -0.00507322
H  0.15293192 -1.52689131 0.03341116
H  -1.38798812 -0.65463718 0.03300913
C  0.32887673 0.57263615 -0.00542737
H  -0.17812065 1.53139351 0.02924434
H  1.42403301 0.59990555 0.02946075
6
MD Step 52
C  -0.32988749 -0.56864029 -0.00473912
H  0.15257660 -1.52942748 0.03157557
H  -1.39018471 -0.65586280 0.03114819
C  0.32932796 0.57335679 -0.00514416
H  -0.18327931 1.53258183 0.02739857
H  1.42755477 0.59650645 0.02764712
6
MD Step 53
C  -0.32998261 -0.56889156 -0.00439487
H  0.15247680 -1.53205539 0.02967705
H  -1.39283039 -0.65689851 0.02923181
C  0.32980987 0.57410318 -0.00485059
H  -0.18835758 1.53370160 0.02549232
H  1.43076953 0.59315050 0.02576802
6
MD Step 54
C  -0.33007315 -0.56917408 -0.00403924
H  0.15260549 -1.53474399 0.02770943
H  -1.39587724 -0.65774738 0.02725299
C  0.33032275 0.57487597 -0.00454577
H  -0.19331759 1.53469950 0.02351922
H  1.43361510 0.58984801 0.02381759
6
MD Step 55
C  -0.33016152 -0.56948916 -0.00367315
H  0.15294504 -1.53744885 0.02567825
H  -1.39925752 -0.65840134 0.02521629
C  0.33086437 0.57567344 -0.00423066
H  -0.19811185 1.53553737 0.02148513
H  1.43604904 0.58662079 0.02180234
6
MD Step 56
C  -0.33024642 -0.56983404 -0.00329333
H  0.15345269 -1.54014846 0.02356609
H  -1.40292085 -0.65887683 0.02310335
C  0.33143591 0.57649739 -0.00390257
H  -0.20271941 1.53615769 0.01937218
H  1.43801369 0.58346683 0.01970498
6
MD Step 57
C  -0.33033597 -0.57021472 -0.00290611
H  0.15413790 -1.54276759 0.02140872
H  -1.40675849 -0.65913697 0.02094883
C  0.33202902 0.57734003 -0.00356740
H  -0.20706844 1.53656184 0.01721752
H  1.43951459 0.58043729 0.01756340
6
MD Step 58
C  -0.33043310 -0.57063183 -0.00251246
H  0.15497908 -1.54526276 0.01921206
H  -1.41069016 -0.65917670 0.01875767
C  0.33263997 0.57819822 -0.00322618
H  -0.21112154 1.53672588 0.01502751
H  1.44053550 0.57755219 0.01538459
6
MD Step 59
C  -0.33053382 -0.57107885 -0.00210620
H  0.15591415 -1.54763304 0.01694247
H  -1.41467590 -0.65903292 0.01649549
C  0.33327125 0.57907518 -0.00287363
H  -0.21488615 1.53659101 0.01276749
H  1.44102852 0.57479055 0.01313437
6
MD Step 60
C  -0.33064697 -0.57156159 -0.00169467
H  0.15695687 -1.54980388 0.01464144
H  -1.41860060 -0.65866711 0.01420294
C  0.33391228 0.57996069 -0.00251654
H  -0.21829753 1.53618087 0.01048033
H  1.44103177 0.57220619 0.01085618
6
MD Step 61
C  -0.33077540 -0.57207969 -0.00127928
H  0.15808791 -1.55173805 0.01231728
H  -1.42238610 -0.65807623 0.01188777
C  0.33455766 0.58084978 -0.00215632
H  -0.22132964 1.53549138 0.00817465
H  1.44055839 0.56981822 0.00855901
6
MD Step 62
C  -0.33091845 -0.57262919 -0.00085815
H  0.15927030 -1.55342107 0.00996007
H  -1.42597755 -0.65727749 0.00953965
C  0.33520477 0.58174017 -0.00179143
H  -0.22398015 1.53450596 0.00584006
H  1.43961143 0.56762590 0.00623277
6
MD Step 63
C  -0.33107741 -0.57320790 -0.00043190
H  0.16048207 -1.55482903 0.00757363
H  -1.42931171 -0.65627562 0.00716212
C  0.33584836 0.58262676 -0.00142252
H  -0.22623775 1.53322832 0.00348027
H  1.43821660 0.56564098 0.00388134
6
MD Step 64
C  -0.33125204 -0.57381197 0.00000005
H  0.16169601 -1.55594956 0.00515518
H  -1.43233858 -0.65508361 0.00475231
C  0.33648403 0.58350516 -0.00104914
H  -0.22810314 1.53166171 0.00109202
H  1.43640119 0.56386710 0.00150149
6
MD Step 65
C  -0.33144866 -0.57444388 0.00043100
H  0.16292767 -1.55673408 0.00274263
H  -1.43497403 -0.65367434 0.00234811
C  0.33710030 0.58436362 -0.00067740
H  -0.22954068 1.52985700 -0.00128625
H  1.43424187 0.56234752 -0.00086835
6
MD Step 66
C  -0.33166109 -0.57509384 0.00086661
H  0.16412443 -1.55720994 0.00030434
H  -1.43721261 -0.65209301 -0.00008192
C  0.33769728 0.58520197 -0.00030209
H  -0.23059071 1.52780038 -0.00368767
H  1.43175149 0.56105371 -0.00326154
6
MD Step 67
C  -0.33189017 -0.57575887 0.00130483
H  0.16527949 -1.55736579 -0.00214795
H  -1.43901306 -0.65034187 -0.00252579
C  0.33826766 0.58601231 0.00007499
H  -0.23125449 1.52552795 -0.00610106
H  1.42899374 0.55999944 -0.00566721
6
MD Step 68
C  -0.33213715 -0.57643644 0.00174274
H  0.16639346 -1.55719042 -0.00459745
H  -1.44033742 -0.64841911 -0.00496633
C  0.33880326 0.58678560 0.00045124
H  -0.23153293 1.52308653 -0.00851019
H  1.42604323 0.55920206 -0.00806956
6
MD Step 69
C  -0.33239973 -0.57712057 0.00218050
H  0.16745147 -1.55669588 -0.00704508
H  -1.44117453 -0.64634196 -0.00740401
C  0.33929898 0.58751566 0.00082700
H  -0.23144961 1.52051006 -0.01091719
H  1.42296108 0.55865958 -0.01047126
6
MD Step 70
C  -0.33268115 -0.57781080 0.00261224
H  0.16847612 -1.55586418 -0.00945705
H  -1.44148699 -0.64409326 -0.00980448
C  0.33974399 0.58819023 0.00119693
H  -0.23099709 1.51787225 -0.01328884
H  1.41984695 0.55840356 -0.01283977
6
MD Step 71
C  -0.33297803 -0.57850030 0.00303828
H  0.16945657 -1.55471853 -0.01183531
H  -1.44128283 -0.64169290 -0.01216914
C  0.34013382 0.58880314 0.00156158
H  -0.23020800 1.51521442 -0.01562853
H  1.41676564 0.55842814 -0.01517914
6
MD Step 72
C  -0.33328003 -0.57917555 0.00346558
H  0.17034612 -1.55332541 -0.01421998
H  -1.44061772 -0.63920011 -0.01453780
C  0.34047079 0.58935473 0.00192789
H  -0.22915698 1.51254242 -0.01797870
H  1.41374326 0.55868770 -0.01753230
6
MD Step 73
C  -0.33359010 -0.57983634 0.00388727
H  0.17118075 -1.55167479 -0.01657140
H  -1.43947500 -0.63659358 -0.01687009
C  0.34074426 0.58983190 0.00228956
H  -0.22784061 1.50994517 -0.02030059
H  1.41088570 0.55921581 -0.01986132
6
MD Step 74
C  -0.33390108 -0.58047274 0.00430633
H  0.17194149 -1.54981798 -0.01890692
H  -1.43790399 -0.63391004 -0.01918307
C  0.34095375 0.59023146 0.00264981
H  -0.22631525 1.50745527 -0.02261359
H  1.40823789 0.55998756 -0.02218600
6
MD Step 75
C  -0.33422062 -0.58108976 0.00471052
H  0.17270074 -1.54772000 -0.02115512
H  -1.43587240 -0.63109648 -0.02140431
C  0.34108455 0.59053544 0.00299700
H  -0.22454881 1.50519514 -0.02484687
H  1.40592967 0.56106635 -0.02443667
6
MD Step 76
C  -0.33453586 -0.58167253 0.00510783
H  0.17341419 -1.54546821 -0.02336285
H  -1.43347546 -0.62821964 -0.02358092
C  0.34114266 0.59074649 0.00333927
H  -0.22262911 1.50316651 -0.02704971
H  1.40396359 0.56239571 -0.02666235
6
MD Step 77
C  -0.33484644 -0.58221890 0.00549352
H  0.17411447 -1.54307663 -0.02550208
H  -1.43074013 -0.62527044 -0.02568442
C  0.34112239 0.59085511 0.00367216
H  -0.22056796 1.50144420 -0.02919530
H  1.40240928 0.56399360 -0.02883665
6
MD Step 78
C  -0.33514591 -0.58272118 0.00586866
H  0.17480125 -1.54059551 -0.02757915
H  -1.42773457 -0.62227427 -0.02772129
C  0.34102475 0.59085833 0.00399696
H  -0.21841047 1.50006452 -0.03129147
H  1.40129134 0.56584271 -0.03096715
6
MD Step 79
C  -0.33541738 -0.58316178 0.00624442
H  0.17541466 -1.53813676 -0.02966082
H  -1.42459339 -0.61931719 -0.02976002
C  0.34086190 0.59076431 0.00432527
H  -0.21626056 1.49899777 -0.03340715
H  1.40056218 0.56786428 -0.03312082
6
MD Step 80
C  -0.33566631 -0.58354578 0.00661001
H  0.17602745 -1.53567930 -0.03168231
H  -1.42132201 -0.61635180 -0.03173506
C  0.34062474 0.59055980 0.00464614
H  -0.21408652 1.49834072 -0.03547774
H  1.40029634 0.57011114 -0.03523356
6
MD Step 81
C  -0.33588899 -0.58386962 0.00696368
H  0.17665844 -1.53325568 -0.03363287
H  -1.41798331 -0.61338466 -0.03363619
C  0.34031418 0.59024180 0.00495778
H  -0.21190747 1.49812814 -0.03749305
H  1.40050165 0.57258113 -0.03729436
6
MD Step 82
C  -0.33608131 -0.58412992 0.00730414
H  0.17732369 -1.53089948 -0.03550435
H  -1.41464461 -0.61042435 -0.03545603
C  0.33993249 0.58980895 0.00525874
H  -0.20974074 1.49838356 -0.03944514
H  1.40117091 0.57526872 -0.03929415
6
MD Step 83
C  -0.33623760 -0.58432217 0.00763182
H  0.17802832 -1.52865246 -0.03729896
H  -1.41138407 -0.60748922 -0.03719809
C  0.33948454 0.58926290 0.00554928
H  -0.20760925 1.49911057 -0.04133605
H  1.40227441 0.57815721 -0.04123329
6
MD Step 84
C  -0.33635525 -0.58444543 0.00794445
H  0.17879314 -1.52653662 -0.03900220
H  -1.40826177 -0.60458014 -0.03884880
C  0.33897313 0.58860382 0.00582664
H  -0.20551407 1.50031959 -0.04315048
H  1.40378802 0.58124569 -0.04309528
6
MD Step 85
C  -0.33642498 -0.58449250 0.00824650
H  0.17959569 -1.52461230 -0.04064131
H  -1.40537688 -0.60173934 -0.04043806
C  0.33840877 0.58784029 0.00609533
H  -0.20349302 1.50196878 -0.04491472
H  1.40563542 0.58449046 -0.04490354
6
MD Step 86
C  -0.33644422 -0.58446318 0.00853652
H  0.18044824 -1.52289867 -0.04220698
H  -1.40278661 -0.59897150 -0.04195803
C  0.33779632 0.58697607 0.00635334
H  -0.20154221 1.50404307 -0.04661769
H  1.40776888 0.58788344 -0.04664540
6
MD Step 87
C  -0.33641208 -0.58435923 0.00881217
H  0.18136707 -1.52140382 -0.04368367
H  -1.40053506 -0.59627435 -0.04339422
C  0.33714006 0.58601519 0.00659745
H  -0.19964686 1.50652399 -0.04824159
H  1.41014025 0.59142175 -0.04830202
6
MD Step 88
C  -0.33631667 -0.58417160 0.00908198
H  0.18229637 -1.52020050 -0.04512542
H  -1.39872783 -0.59371485 -0.04480512
C  0.33645622 0.58497467 0.00683689
H  -0.19785780 1.50931430 -0.04983821
H  1.41262646 0.59503167 -0.04992089
6
MD Step 89
C  -0.33616618 -0.58391131 0.00933664
H  0.18329112 -1.51924174 -0.04647271
H  -1.39734578 -0.59124525 -0.04613020
C  0.33574216 0.58385355 0.00706046
H  -0.19610860 1.51242301 -0.05134485
H  1.41521599 0.59875226 -0.05144062
6
MD Step 90
C  -0.33596091 -0.58358151 0.00957508
H  0.18435147 -1.51852734 -0.04771811
H  -1.39641114 -0.58886955 -0.04736321
C  0.33500409 0.58266069 0.00726628
H  -0.19438228 1.51580007 -0.05275094
H  1.41784350 0.60256934 -0.05284983
6
MD Step 91
C  -0.33569863 -0.58318272 0.00979933
H  0.18545398 -1.51807260 -0.04887507
H  -1.39595550 -0.58661212 -0.04851974
C  0.33425179 0.58140938 0.00745628
H  -0.19268066 1.51936907 -0.05406662
H  1.42042276 0.60644684 -0.05415693
6
MD Step 92
C  -0.33538815 -0.58272640 0.01000229
H  0.18663251 -1.51782747 -0.04989698
H  -1.39593817 -0.58443680 -0.04955169
C  0.33348490 0.58010360 0.00762141
H  -0.19094450 1.52310972 -0.05524196
H  1.42292934 0.61040787 -0.05531393
6
MD Step 93
C  -0.33502435 -0.58220980 0.01019041
H  0.18782956 -1.51782632 -0.05082643
H  -1.39639617 -0.58239615 -0.05050469
C  0.33271798 0.57876293 0.00776897
H  -0.18920301 1.52690996 -0.05631607
H  1.42525235 0.61438555 -0.05635729
6
MD Step 94
C  -0.33461218 -0.58164005 0.01036175
H  0.18903990 -1.51804439 -0.05165145
H  -1.39730002 -0.58048770 -0.05136657
C  0.33195623 0.57739817 0.00789635
H  -0.18743139 1.53071137 -0.05727377
H  1.42733995 0.61836702 -0.05727232
6
MD Step 95
C  -0.33416108 -0.58102849 0.01051125
H  0.19027764 -1.51843166 -0.05233875
H  -1.39858797 -0.57868733 -0.05210222
C  0.33120103 0.57601688 0.00799703
H  -0.18558476 1.53447728 -0.05807904
H  1.42916705 0.62236027 -0.05802515
6
MD Step 96
C  -0.33367310 -0.58037881 0.01064111
H  0.19150673 -1.51898366 -0.05290411
H  -1.40023771 -0.57701920 -0.05272791
C  0.33046176 0.57463485 0.00807360
H  -0.18366845 1.53812393 -0.05874478
H  1.43066592 0.62632418 -0.05862823
6
MD Step 97
C  -0.33315542 -0.57969954 0.01074962
H  0.19271642 -1.51966696 -0.05333694
H  -1.40219230 -0.57548071 -0.05323177
C  0.32974300 0.57326340 0.00812386
H  -0.18166377 1.54159692 -0.05925817
H  1.43180213 0.63024394 -0.05907005
6
MD Step 98
C  -0.33261315 -0.57899692 0.01083740
H  0.19387974 -1.52046181 -0.05364251
H  -1.40440371 -0.57408433 -0.05361827
C  0.32905163 0.57191624 0.00814859
H  -0.17957013 1.54483035 -0.05962243
H  1.43253331 0.63408928 -0.05935449
6
MD Step 99
C  -0.33204916 -0.57827466 0.01090746
H  0.19495310 -1.52136355 -0.05384291
H  -1.40683519 -0.57285826 -0.05390937
C  0.32839688 0.57060943 0.00815185
H  -0.17740616 1.54774707 -0.05985757
H  1.43280899 0.63781381 -0.05950144
6
MD Step 100
C  -0.33147435 -0.57754439 0.01095603
H  0.19593948 -1.52232051 -0.05391368
H  -1.40939972 -0.57178399 -0.05407788
C  0.32777968 0.56935073 0.00812907
H  -0.17514772 1.55032222 -0.05993862
H  1.43263376 0.64141824 -0.05948838
6
MD Step 101
C  -0.33089465 -0.57681257 0.01098389
H  0.19681153 -1.52331197 -0.05386191
H  -1.41203943 -0.57087313 -0.05412960
C  0.32720569 0.56815241 0.00808167
H  -0.17280467 1.55250675 -0.05987181
H  1.43199034 0.64487304 -0.05932245
6
MD Step 102
C  -0.33032023 -0.57608980 0.01098820
H  0.19756844 -1.52429252 -0.05366925
H  -1.41467079 -0.57011132 -0.05404356
C  0.32667569 0.56702171 0.00800638
H  -0.17036519 1.55428423 -0.05963919
H  1.43089587 0.64817520 -0.05898799
6
MD Step 103
C  -0.32975573 -0.57538095 0.01097095
H  0.19817802 -1.52525087 -0.05335092
H  -1.41724461 -0.56951609 -0.05383388
C  0.32619548 0.56597042 0.00790626
H  -0.16785332 1.55561319 -0.05925577
H  1.42934389 0.65128994 -0.05850072
6
MD Step 104
C  -0.32921020 -0.57469530 0.01093008
H  0.19863781 -1.52614971 -0.05289417
H  -1.41968651 -0.56907644 -0.05348560
C  0.32576548 0.56500467 0.00777923
H  -0.16526891 1.55648807 -0.05870996
H  1.42736492 0.65421188 -0.05785098
6
MD Step 105
C  -0.32869365 -0.57404309 0.01086252
H  0.19895568 -1.52694589 -0.05227820
H  -1.42191802 -0.56877257 -0.05297528
C  0.32538407 0.56412816 0.00762174
H  -0.16260712 1.55691976 -0.05798304
H  1.42500649 0.65694537 -0.05702240
6
MD Step 106
C  -0.32820192 -0.57341995 0.01077743
H  0.19905810 -1.52768263 -0.05156759
H  -1.42394976 -0.56866664 -0.05236839
C  0.32506320 0.56335726 0.00744610
H  -0.15994885 1.55684422 -0.05713857
H  1.42224155 0.65941246 -0.05607751
6
MD Step 107
C  -0.32774143 -0.57283231 0.01067417
H  0.19894138 -1.52833885 -0.05075902
H  -1.42573040 -0.56875331 -0.05166003
C  0.32480267 0.56269591 0.00725215
H  -0.15731164 1.55627318 -0.05617511
H  1.41911894 0.66160459 -0.05501633
6
MD Step 108
C  -0.32732568 -0.57229385 0.01054539
H  0.19865118 -1.52885019 -0.04980206
H  -1.42716827 -0.56898036 -0.05079678
C  0.32459364 0.56213905 0.00703105
H  -0.15467007 1.55527341 -0.05504669
H  1.41574224 0.66356191 -0.05379588
6
MD Step 109
C  -0.32695646 -0.57180616 0.01039370
H  0.19816850 -1.52922314 -0.04871518
H  -1.42824653 -0.56936135 -0.04979662
C  0.32443805 0.56169143 0.00678670
H  -0.15206777 1.55385295 -0.05377349
H  1.41215536 0.66525897 -0.05243690
6
MD Step 110
C  -0.32663944 -0.57137484 0.01021770
H  0.19750524 -1.52944015 -0.04748877
H  -1.42892829 -0.56988151 -0.04864876
C  0.32433245 0.56135184 0.00651783
H  -0.14952324 1.55205571 -0.05234917
H  1.40843643 0.66670031 -0.05093433
6
MD Step 111
C  -0.32637490 -0.57099991 0.01002017
H  0.19664802 -1.52951565 -0.04614225
H  -1.42921309 -0.57055311 -0.04737252
C  0.32427762 0.56112240 0.00622852
H  -0.14708474 1.54990528 -0.05079514
H  1.40464107 0.66786421 -0.04930990
6
MD Step 112
C  -0.32616987 -0.57068838 0.00979724
H  0.19563237 -1.52942225 -0.04464860
H  -1.42906298 -0.57134249 -0.04593979
C  0.32426596 0.56099637 0.00591433
H  -0.14475705 1.54747802 -0.04908885
H  1.40087472 0.66877696 -0.04754231
6
MD Step 113
C  -0.32602114 -0.57043668 0.00955363
H  0.19443887 -1.52919399 -0.04303989
H  -1.42850645 -0.57227223 -0.04438314
C  0.32429929 0.56097531 0.00558161
H  -0.14260293 1.54479932 -0.04726397
H  1.39718816 0.66940887 -0.04566492
6
MD Step 114
C  -0.32593210 -0.57024809 0.00928743
H  0.19309615 -1.52882366 -0.04130245
H  -1.42753536 -0.57331979 -0.04268865
C  0.32437137 0.56105216 0.00522832
H  -0.14064140 1.54194505 -0.04531067
H  1.39367824 0.66977736 -0.04366829
6
MD Step 115
C  -0.32590118 -0.57012084 0.00900052
H  0.19161018 -1.52833276 -0.03944852
H  -1.42617536 -0.57448690 -0.04086905
C  0.32448003 0.56122298 0.00485713
H  -0.13891641 1.53897049 -0.04324374
H  1.39041605 0.66987627 -0.04156687
6
MD Step 116
C  -0.32592785 -0.57005431 0.00869324
H  0.19000052 -1.52773508 -0.03747924
H  -1.42444931 -0.57576390 -0.03892591
C  0.32462106 0.56148113 0.00446860
H  -0.13746046 1.53594521 -0.04106731
H  1.38748105 0.66971208 -0.03936440
6
MD Step 117
C  -0.32600521 -0.57004141 0.00837109
H  0.18825456 -1.52708149 -0.03543082
H  -1.42242229 -0.57717445 -0.03689658
C  0.32479610 0.56182483 0.00406956
H  -0.13633853 1.53290655 -0.03881873
H  1.38491411 0.66925834 -0.03709709
6
MD Step 118
C  -0.32613492 -0.57008395 0.00803105
H  0.18641816 -1.52636905 -0.03328223
H  -1.42011010 -0.57868600 -0.03476056
C  0.32499728 0.56224242 0.00365655
H  -0.13555791 1.52994843 -0.03648032
H  1.38280598 0.66854650 -0.03474668
6
MD Step 119
C  -0.32632044 -0.57018580 0.00766776
H  0.18455430 -1.52558150 -0.03099683
H  -1.41752000 -0.58025045 -0.03248170
C  0.32521432 0.56271928 0.00322324
H  -0.13510780 1.52717871 -0.03401923
H  1.38125408 0.66762454 -0.03227972
6
MD Step 120
C  -0.32654866 -0.57033395 0.00729080
H  0.18263003 -1.52480119 -0.02863662
H  -1.41476313 -0.58191540 -0.03012367
C  0.32545386 0.56325671 0.00278076
H  -0.13506939 1.52460517 -0.03149686
H  1.38024815 0.66644394 -0.02975579
6
MD Step 121
C  -0.32681371 -0.57052302 0.00690240
H  0.18066097 -1.52406387 -0.02621531
H  -1.41190810 -0.58368114 -0.02770137
C  0.32571485 0.56384816 0.00233160
H  -0.13547229 1.52227804 -0.02892782
H  1.37981340 0.66500470 -0.02718817
6
MD Step 122
C  -0.32711206 -0.57075023 0.00650219
H  0.17868023 -1.52338850 -0.02372936
H  -1.40901023 -0.58553090 -0.02521232
C  0.32599380 0.56448445 0.00187517
H  -0.13632394 1.52025791 -0.02630977
H  1.37997920 0.66332468 -0.02457335
6
MD Step 123
C  -0.32744045 -0.57101321 0.00608922
H  0.17672456 -1.52278997 -0.02117156
H  -1.40612385 -0.58744415 -0.02265027
C  0.32628710 0.56515618 0.00141012
H  -0.13762212 1.51860072 -0.02363645
H  1.38076471 0.66142599 -0.02190405
6
MD Step 124
C  -0.32778670 -0.57130073 0.00567068
H  0.17477820 -1.52233395 -0.01858730
H  -1.40335665 -0.58945180 -0.02006188
C  0.32660047 0.56586314 0.00094433
H  -0.13940934 1.51730089 -0.02095218
H  1.38212298 0.65927927 -0.01922330
6
MD Step 125
C  -0.32815098 -0.57161420 0.00524191
H  0.17289964 -1.52200919 -0.01594603
H  -1.40074037 -0.59151022 -0.01741725
C  0.32692734 0.56659334 0.00047236
H  -0.14164664 1.51641710 -0.01822729
H  1.38406832 0.65693107 -0.01650088
6