 Entering Gaussian System, Link 0=g16
 Initial command:
 /software/gaussian/g16-c01/avx2/g16/l1.exe "/gpfs/fs2/scratch/bweight/software/many_molecule_many_mode_NAMD/src/NAMD/TEST_NVT/TRAJ/traj-10/G16/GS_NEW/Gau-5863.inp" -scrdir="/gpfs/fs2/scratch/bweight/software/many_molecule_many_mode_NAMD/src/NAMD/TEST_NVT/TRAJ/traj-10/G16/GS_NEW/"
 Entering Link 1 = /software/gaussian/g16-c01/avx2/g16/l1.exe PID=      5864.
  
 Copyright (c) 1988-2019, Gaussian, Inc.  All Rights Reserved.
  
 This is part of the Gaussian(R) 16 program.  It is based on
 the Gaussian(R) 09 system (copyright 2009, Gaussian, Inc.),
 the Gaussian(R) 03 system (copyright 2003, Gaussian, Inc.),
 the Gaussian(R) 98 system (copyright 1998, Gaussian, Inc.),
 the Gaussian(R) 94 system (copyright 1995, Gaussian, Inc.),
 the Gaussian 92(TM) system (copyright 1992, Gaussian, Inc.),
 the Gaussian 90(TM) system (copyright 1990, Gaussian, Inc.),
 the Gaussian 88(TM) system (copyright 1988, Gaussian, Inc.),
 the Gaussian 86(TM) system (copyright 1986, Carnegie Mellon
 University), and the Gaussian 82(TM) system (copyright 1983,
 Carnegie Mellon University). Gaussian is a federally registered
 trademark of Gaussian, Inc.
  
 This software contains proprietary and confidential information,
 including trade secrets, belonging to Gaussian, Inc.
  
 This software is provided under written license and may be
 used, copied, transmitted, or stored only in accord with that
 written license.
  
 The following legend is applicable only to US Government
 contracts under FAR:
  
                    RESTRICTED RIGHTS LEGEND
  
 Use, reproduction and disclosure by the US Government is
 subject to restrictions as set forth in subparagraphs (a)
 and (c) of the Commercial Computer Software - Restricted
 Rights clause in FAR 52.227-19.
  
 Gaussian, Inc.
 340 Quinnipiac St., Bldg. 40, Wallingford CT 06492
  
  
 ---------------------------------------------------------------
 Warning -- This program may not be used in any manner that
 competes with the business of Gaussian, Inc. or will provide
 assistance to any competitor of Gaussian, Inc.  The licensee
 of this program is prohibited from giving any competitor of
 Gaussian, Inc. access to this program.  By using this program,
 the user acknowledges that Gaussian, Inc. is engaged in the
 business of creating and licensing software in the field of
 computational chemistry and represents and warrants to the
 licensee that it is not a competitor of Gaussian, Inc. and that
 it will not use this program in any manner prohibited above.
 ---------------------------------------------------------------
  

 Cite this work as:
 Gaussian 16, Revision C.01,
 M. J. Frisch, G. W. Trucks, H. B. Schlegel, G. E. Scuseria, 
 M. A. Robb, J. R. Cheeseman, G. Scalmani, V. Barone, 
 G. A. Petersson, H. Nakatsuji, X. Li, M. Caricato, A. V. Marenich, 
 J. Bloino, B. G. Janesko, R. Gomperts, B. Mennucci, H. P. Hratchian, 
 J. V. Ortiz, A. F. Izmaylov, J. L. Sonnenberg, D. Williams-Young, 
 F. Ding, F. Lipparini, F. Egidi, J. Goings, B. Peng, A. Petrone, 
 T. Henderson, D. Ranasinghe, V. G. Zakrzewski, J. Gao, N. Rega, 
 G. Zheng, W. Liang, M. Hada, M. Ehara, K. Toyota, R. Fukuda, 
 J. Hasegawa, M. Ishida, T. Nakajima, Y. Honda, O. Kitao, H. Nakai, 
 T. Vreven, K. Throssell, J. A. Montgomery, Jr., J. E. Peralta, 
 F. Ogliaro, M. J. Bearpark, J. J. Heyd, E. N. Brothers, K. N. Kudin, 
 V. N. Staroverov, T. A. Keith, R. Kobayashi, J. Normand, 
 K. Raghavachari, A. P. Rendell, J. C. Burant, S. S. Iyengar, 
 J. Tomasi, M. Cossi, J. M. Millam, M. Klene, C. Adamo, R. Cammi, 
 J. W. Ochterski, R. L. Martin, K. Morokuma, O. Farkas, 
 J. B. Foresman, and D. J. Fox, Gaussian, Inc., Wallingford CT, 2019.
 
 ******************************************
 Gaussian 16:  ES64L-G16RevC.01  3-Jul-2019
                11-Jan-2023 
 ******************************************
 %oldchk=../GS_OLD/geometry.chk
 %chk=geometry.chk
 %nprocshared=4
 Will use up to    4 processors via shared memory.
 %mem=5GB
 Copying data from "../GS_OLD/geometry.chk" to current chk file "geometry.chk"
 IOpt=  2 FromEx=T IUOpen= 4 IOptOp= 5 NList=   0 IFRang= 0 IUIn= 4 IUOut= 2.
 -------------------------------------------------------
 # WB97XD/6-311G SCF=XQC FORCE nosym pop=full guess=read
 -------------------------------------------------------
 1/10=7,30=1,38=1/1,3;
 2/12=2,15=1,17=6,18=5,40=1/2;
 3/5=4,6=6,11=2,25=1,30=1,71=1,74=-58,116=-2/1,2,3;
 4/5=1/1;
 5/5=2,8=3,13=1,38=6/2,8;
 6/7=3,28=1/1;
 7/29=1,30=1/1,2,3,16;
 1/10=7,30=1/3;
 99//99;
 ------------
 MD Step 1000
 ------------
 Symbolic Z-matrix:
 Charge =  0 Multiplicity = 1
 C                    -0.33583  -0.58143   0.00838 
 H                     0.21375  -1.52926  -0.03118 
 H                    -1.41994  -0.59049  -0.03233 
 C                     0.33341   0.57802   0.00693 
 H                    -0.164     1.56569  -0.03547 
 H                     1.44819   0.64385  -0.03421 
 

 GradGradGradGradGradGradGradGradGradGradGradGradGradGradGradGradGradGrad
 Berny optimization.
 Initialization pass.
 Trust Radius=3.00D-01 FncErr=1.00D-07 GrdErr=1.00D-07 EigMax=2.50D+02 EigMin=1.00D-04
 Number of steps in this run=      2 maximum allowed number of steps=      2.
 GradGradGradGradGradGradGradGradGradGradGradGradGradGradGradGradGradGrad

                          Input orientation:                          
 ---------------------------------------------------------------------
 Center     Atomic      Atomic             Coordinates (Angstroms)
 Number     Number       Type             X           Y           Z
 ---------------------------------------------------------------------
      1          6           0       -0.335828   -0.581426    0.008382
      2          1           0        0.213751   -1.529259   -0.031176
      3          1           0       -1.419942   -0.590493   -0.032332
      4          6           0        0.333412    0.578022    0.006926
      5          1           0       -0.164004    1.565695   -0.035468
      6          1           0        1.448191    0.643845   -0.034209
 ---------------------------------------------------------------------
                    Distance matrix (angstroms):
                    1          2          3          4          5
     1  C    0.000000
     2  H    1.096352   0.000000
     3  H    1.084916   1.884207   0.000000
     4  C    1.338732   2.111019   2.107420   0.000000
     5  H    2.154431   3.117925   2.495303   1.106670   0.000000
     6  H    2.164678   2.499247   3.122465   1.117478   1.857144
                    6
     6  H    0.000000
 Symmetry turned off by external request.
 Stoichiometry    C2H4
 Framework group  C1[X(C2H4)]
 Deg. of freedom    12
 Full point group                 C1      NOp   1
 Rotational constants (GHZ):         143.0506831          29.6455044          24.5702706
 Standard basis: 6-311G (5D, 7F)
    38 basis functions,    72 primitive gaussians,    38 cartesian basis functions
     8 alpha electrons        8 beta electrons
       nuclear repulsion energy        33.0429788599 Hartrees.
 NAtoms=    6 NActive=    6 NUniq=    6 SFac= 1.00D+00 NAtFMM=   60 NAOKFM=F Big=F
 Integral buffers will be    131072 words long.
 Raffenetti 2 integral format.
 Two-electron integral symmetry is turned off.
 Nuclear repulsion after empirical dispersion term =       33.0421367457 Hartrees.
 One-electron integrals computed using PRISM.
 NBasis=    38 RedAO= T EigKep=  6.45D-03  NBF=    38
 NBsUse=    38 1.00D-06 EigRej= -1.00D+00 NBFU=    38
 Initial guess from the checkpoint file:  "geometry.chk"
 B after Tr=    -0.000370   -0.000442   -0.000431
         Rot=    1.000000   -0.000001    0.000003    0.000009 Ang=  -0.00 deg.
 Keep R1 ints in memory in canonical form, NReq=4036876.
 Requested convergence on RMS density matrix=1.00D-08 within  32 cycles.
 Requested convergence on MAX density matrix=1.00D-06.
 Requested convergence on             energy=1.00D-06.
 No special actions if energy rises.
 SCF Done:  E(RwB97XD) =  -78.5554653573     A.U. after    8 cycles
            NFock=  8  Conv=0.61D-08     -V/T= 2.0053
 QCSCF skips out because SCF is already converged.

 **********************************************************************

            Population analysis using the SCF Density.

 **********************************************************************

 Alpha  occ. eigenvalues --  -10.29123 -10.28798  -0.86360  -0.67192  -0.55894
 Alpha  occ. eigenvalues --   -0.50934  -0.43629  -0.35680
 Alpha virt. eigenvalues --    0.07943   0.14075   0.16440   0.16993   0.24070
 Alpha virt. eigenvalues --    0.37471   0.39257   0.39801   0.46370   0.48794
 Alpha virt. eigenvalues --    0.49380   0.59090   0.66512   0.69018   0.77189
 Alpha virt. eigenvalues --    0.77580   0.83933   0.95160   2.23197   2.28981
 Alpha virt. eigenvalues --    2.33248   2.40520   2.67103   2.81691   2.87955
 Alpha virt. eigenvalues --    2.95130   3.13944   3.31621  23.35169  23.70511
     Molecular Orbital Coefficients:
                           1         2         3         4         5
                           O         O         O         O         O
     Eigenvalues --   -10.29123 -10.28798  -0.86360  -0.67192  -0.55894
   1 1   C  1S          0.07635   0.55820  -0.08853   0.06658  -0.00034
   2        2S          0.06304   0.45939  -0.13993   0.10665  -0.00055
   3        2PX         0.00016  -0.00001   0.02584   0.03704   0.13805
   4        2PY         0.00028  -0.00000   0.04617   0.06121  -0.07362
   5        2PZ         0.00000  -0.00001  -0.00163   0.00250   0.00029
   6        3S          0.00111   0.01459   0.37534  -0.29106   0.00155
   7        3PX        -0.00063   0.00040   0.03411   0.05925   0.21617
   8        3PY        -0.00107   0.00071   0.06060   0.09892  -0.11614
   9        3PZ        -0.00002  -0.00004  -0.00274   0.00446   0.00042
  10        4S          0.00394  -0.01450   0.19207  -0.22662   0.00093
  11        4PX         0.00156  -0.00147   0.00469   0.02365   0.11203
  12        4PY         0.00268  -0.00253   0.00852   0.04083  -0.06105
  13        4PZ         0.00000   0.00010  -0.00097   0.00224   0.00021
  14 2   H  1S         -0.00004  -0.00006   0.05270  -0.08801   0.10219
  15        2S         -0.00031   0.00009   0.05392  -0.10581   0.12942
  16        3S          0.00075   0.00172  -0.00168  -0.01528   0.04196
  17 3   H  1S         -0.00005  -0.00007   0.05407  -0.09127  -0.10570
  18        2S         -0.00030   0.00008   0.05475  -0.10895  -0.13295
  19        3S          0.00077   0.00175  -0.00173  -0.01615  -0.04303
  20 4   C  1S          0.55821  -0.07654  -0.08667  -0.06859  -0.00029
  21        2S          0.45943  -0.06279  -0.13687  -0.10998  -0.00045
  22        2PX        -0.00001  -0.00016  -0.02786   0.03644   0.11757
  23        2PY        -0.00002  -0.00029  -0.04691   0.06575  -0.07378
  24        2PZ        -0.00000   0.00000  -0.00137  -0.00260   0.00029
  25        3S          0.01417  -0.00284   0.36681   0.30057   0.00124
  26        3PX        -0.00025   0.00071  -0.03505   0.05936   0.18438
  27        3PY        -0.00040   0.00124  -0.05893   0.10630  -0.11460
  28        3PZ        -0.00004  -0.00001  -0.00236  -0.00469   0.00043
  29        4S         -0.01261   0.00780   0.18902   0.23892   0.00016
  30        4PX         0.00097  -0.00186  -0.00546   0.02600   0.10156
  31        4PY         0.00165  -0.00325  -0.00918   0.04509  -0.06224
  32        4PZ         0.00009  -0.00002  -0.00097  -0.00242   0.00022
  33 5   H  1S         -0.00006  -0.00004   0.04961   0.09329  -0.08963
  34        2S         -0.00001  -0.00031   0.05084   0.11170  -0.11331
  35        3S          0.00179   0.00023  -0.00116   0.01679  -0.03642
  36 6   H  1S         -0.00004  -0.00004   0.04825   0.09081   0.08538
  37        2S         -0.00001  -0.00032   0.05002   0.10942   0.10855
  38        3S          0.00174   0.00022  -0.00123   0.01611   0.03521
                           6         7         8         9        10
                           O         O         O         V         V
     Eigenvalues --    -0.50934  -0.43629  -0.35680   0.07943   0.14075
   1 1   C  1S         -0.00407   0.00021  -0.00124   0.00343  -0.03250
   2        2S         -0.00615   0.00037  -0.00202   0.00570  -0.05210
   3        2PX         0.09359  -0.11109  -0.00435   0.00186  -0.03107
   4        2PY         0.16797   0.06557  -0.00740   0.00308  -0.06394
   5        2PZ         0.00655  -0.00002   0.17929  -0.18889  -0.00284
   6        3S          0.02268  -0.00087   0.00590  -0.01729   0.11293
   7        3PX         0.13597  -0.17700  -0.00616   0.00282  -0.03671
   8        3PY         0.24573   0.10502  -0.01045   0.00462  -0.07932
   9        3PZ         0.01038   0.00001   0.28834  -0.27783  -0.00458
  10        4S         -0.04984  -0.00311   0.00877  -0.01875   1.19889
  11        4PX         0.06861  -0.11032  -0.00500   0.01597  -0.19132
  12        4PY         0.12509   0.06606  -0.00851   0.02682  -0.38212
  13        4PZ         0.00589   0.00006   0.26718  -0.69363  -0.01675
  14 2   H  1S         -0.08077  -0.11488   0.00020   0.00534  -0.01618
  15        2S         -0.11161  -0.17749   0.00258   0.00838  -0.04671
  16        3S         -0.04179  -0.08210   0.00155   0.02201  -0.82045
  17 3   H  1S         -0.07820   0.11282   0.00013   0.00536  -0.01224
  18        2S         -0.10742   0.17350   0.00247   0.00850  -0.03684
  19        3S         -0.03989   0.08007   0.00150   0.02175  -0.75470
  20 4   C  1S         -0.00795  -0.00046  -0.00107  -0.00343  -0.03710
  21        2S         -0.01242  -0.00077  -0.00174  -0.00568  -0.05960
  22        2PX        -0.09816   0.12477   0.00422   0.00219   0.04176
  23        2PY        -0.16245  -0.07311   0.00772   0.00394   0.06201
  24        2PZ         0.00679   0.00024   0.17911   0.18942  -0.00417
  25        3S          0.04056   0.00214   0.00516   0.01700   0.13195
  26        3PX        -0.14535   0.20014   0.00589   0.00333   0.05132
  27        3PY        -0.23881  -0.11646   0.01083   0.00603   0.07337
  28        3PZ         0.01076   0.00035   0.28657   0.27754  -0.00630
  29        4S         -0.03223   0.00337   0.00848   0.02043   1.26180
  30        4PX        -0.07586   0.12834   0.00458   0.01667   0.26661
  31        4PY        -0.12314  -0.07391   0.00855   0.02961   0.41366
  32        4PZ         0.00624   0.00020   0.26728   0.69481  -0.02439
  33 5   H  1S         -0.07507  -0.12436   0.00028  -0.00520  -0.01315
  34        2S         -0.10285  -0.19425   0.00272  -0.00873  -0.03902
  35        3S         -0.03841  -0.09124   0.00151  -0.02286  -0.83205
  36 6   H  1S         -0.08017   0.12438   0.00019  -0.00521  -0.01703
  37        2S         -0.11034   0.19536   0.00258  -0.00880  -0.04832
  38        3S         -0.04141   0.09190   0.00141  -0.02339  -0.89905
                          11        12        13        14        15
                           V         V         V         V         V
     Eigenvalues --     0.16440   0.16993   0.24070   0.37471   0.39257
   1 1   C  1S          0.00187  -0.04589   0.00007   0.01076   0.00149
   2        2S          0.00302  -0.07477   0.00011   0.01509   0.00246
   3        2PX         0.09690  -0.01869   0.10050  -0.03712  -0.02403
   4        2PY        -0.05266  -0.03886  -0.05755  -0.06733   0.00865
   5        2PZ         0.00031  -0.00851   0.00003  -0.00594  -0.00022
   6        3S         -0.00660   0.16867   0.00024   0.03010  -0.00273
   7        3PX         0.13864  -0.00961   0.10674  -0.04895  -0.10771
   8        3PY        -0.07695  -0.02647  -0.06210  -0.09316   0.04417
   9        3PZ         0.00043  -0.01178  -0.00003  -0.01183  -0.00007
  10        4S         -0.07530   1.45710  -0.01970  -2.72330  -0.25157
  11        4PX         0.57869  -0.11006   1.16573  -1.58424  -0.54286
  12        4PY        -0.30607  -0.21789  -0.66721  -2.75996   0.15288
  13        4PZ         0.00206  -0.05567   0.00100  -0.05551  -0.00281
  14 2   H  1S         -0.02918  -0.02563   0.01328  -0.05503   0.07696
  15        2S         -0.08077  -0.01878  -0.02207  -0.63276   0.79315
  16        3S         -1.00568  -1.03597  -1.55110  -0.33662  -0.33322
  17 3   H  1S          0.02940  -0.02446  -0.01522  -0.04857  -0.07489
  18        2S          0.08075  -0.01942   0.01682  -0.58172  -0.74283
  19        3S          1.10551  -1.00536   1.57921  -0.40506   0.24732
  20 4   C  1S          0.00070   0.04199  -0.00013  -0.02007   0.00013
  21        2S          0.00110   0.06837  -0.00022  -0.03283   0.00046
  22        2PX         0.10232  -0.02139  -0.10013  -0.04198  -0.03173
  23        2PY        -0.06126  -0.03740   0.05740  -0.07458   0.01291
  24        2PZ         0.00011   0.00829  -0.00004   0.00454   0.00057
  25        3S         -0.00193  -0.15219   0.00037   0.04074  -0.00601
  26        3PX         0.14708  -0.01593  -0.11372  -0.09336  -0.10744
  27        3PY        -0.08735  -0.02746   0.06389  -0.16822   0.05912
  28        3PZ         0.00015   0.01144   0.00001   0.00592   0.00131
  29        4S         -0.04338  -1.31783   0.01689   3.36623   0.16515
  30        4PX         0.54295  -0.10557  -1.11850  -1.22768  -0.57582
  31        4PY        -0.33198  -0.19393   0.64803  -2.15715   0.04014
  32        4PZ         0.00075   0.05369  -0.00107   0.04493   0.00423
  33 5   H  1S          0.03106   0.02547   0.00619   0.01183  -0.07840
  34        2S          0.06865   0.02352  -0.03321   0.09004  -0.75834
  35        3S          1.07033   0.93906  -1.51385   0.46233   0.47915
  36 6   H  1S         -0.03213   0.02536  -0.00456   0.00739   0.08910
  37        2S         -0.07028   0.02025   0.03547   0.04985   0.91443
  38        3S         -1.01392   0.91401   1.49128   0.46978  -0.46045
                          16        17        18        19        20
                           V         V         V         V         V
     Eigenvalues --     0.39801   0.46370   0.48794   0.49380   0.59090
   1 1   C  1S         -0.01738   0.01342  -0.04632   0.00012  -0.00070
   2        2S         -0.03074   0.03050  -0.07732   0.00056  -0.00126
   3        2PX         0.02368  -0.06190   0.01131   0.00138   0.00268
   4        2PY         0.04562  -0.10714   0.01414   0.00199   0.00406
   5        2PZ         0.00013  -0.00071   0.00463  -0.15167  -0.19257
   6        3S          0.07482  -0.33760   0.08593  -0.01322  -0.00068
   7        3PX         0.09428  -0.24160  -0.03672   0.00095   0.00897
   8        3PY         0.18693  -0.41667  -0.07426   0.00028   0.01368
   9        3PZ        -0.00541  -0.00583   0.02160  -0.62783  -0.68520
  10        4S          2.48810   0.00927   3.14333   0.07838   0.08693
  11        4PX         0.13322   0.19710   0.80657   0.02677   0.02703
  12        4PY         0.30789   0.37615   1.39913   0.04860   0.04681
  13        4PZ        -0.00307   0.00303  -0.10345   0.68429   1.24059
  14 2   H  1S         -0.02527  -0.03254  -0.07731  -0.00249  -0.00213
  15        2S         -0.52735  -0.30368  -0.92853  -0.02180  -0.01561
  16        3S          0.26679   0.05052   0.64115   0.03074   0.02938
  17 3   H  1S         -0.03789  -0.03516  -0.07507  -0.00243  -0.00202
  18        2S         -0.64838  -0.33454  -0.90158  -0.02148  -0.01363
  19        3S          0.30067   0.05360   0.60802   0.02986   0.02877
  20 4   C  1S         -0.00229  -0.00394   0.05095   0.00329   0.00087
  21        2S         -0.00730   0.00100   0.08878   0.00600   0.00162
  22        2PX         0.00596   0.05423   0.02801  -0.00020   0.00251
  23        2PY         0.01484   0.09340   0.05168  -0.00048   0.00492
  24        2PZ        -0.00463  -0.00218   0.00484  -0.15288   0.19216
  25        3S          0.08110  -0.28043  -0.23859  -0.02479  -0.00303
  26        3PX        -0.05120   0.23368   0.05874  -0.00036   0.00882
  27        3PY        -0.06912   0.40729   0.10597  -0.00144   0.01707
  28        3PZ        -0.01338  -0.00880   0.01683  -0.63180   0.68177
  29        4S         -0.66800   0.85283  -3.04823  -0.10303  -0.07683
  30        4PX         1.14575  -0.38857   0.62583   0.01195   0.02742
  31        4PY         2.11579  -0.64314   1.06193   0.01982   0.04665
  32        4PZ        -0.03941  -0.02196   0.05292   0.69561  -1.23688
  33 5   H  1S         -0.05206  -0.06517   0.06245   0.00223   0.00199
  34        2S         -0.87946  -0.66207   0.78125   0.03506   0.00758
  35        3S         -0.13587   0.29134  -0.54825  -0.00602  -0.02885
  36 6   H  1S         -0.03883  -0.06371   0.06279   0.00228   0.00205
  37        2S         -0.73392  -0.64130   0.77916   0.03482   0.00847
  38        3S         -0.18265   0.30852  -0.57152  -0.00750  -0.02932
                          21        22        23        24        25
                           V         V         V         V         V
     Eigenvalues --     0.66512   0.69018   0.77189   0.77580   0.83933
   1 1   C  1S          0.00088  -0.00033   0.04984   0.07415   0.00075
   2        2S          0.00179  -0.00077   0.10508   0.15809   0.00175
   3        2PX        -0.12410   0.20315  -0.02924   0.11325  -0.00942
   4        2PY         0.07210  -0.12180  -0.04898   0.18505   0.01381
   5        2PZ        -0.00006   0.00023   0.00066   0.00624   0.00020
   6        3S         -0.01343   0.01272  -0.70046  -1.36192  -0.01985
   7        3PX        -0.58766   0.71759  -0.18889   0.43976  -0.22396
   8        3PY         0.33821  -0.43047  -0.31968   0.70909   0.16313
   9        3PZ        -0.00040   0.00089   0.00250   0.02186   0.00073
  10        4S          0.01647  -0.06781   0.66007   2.47200  -0.02283
  11        4PX         1.08321  -0.79734   0.19828  -0.75063   4.46860
  12        4PY        -0.62700   0.48391   0.22701  -1.01192  -2.56581
  13        4PZ         0.00055   0.00132   0.01374  -0.06943   0.00427
  14 2   H  1S          0.02080  -0.05992   0.00993   0.03262  -0.02601
  15        2S          0.09790  -0.64918   0.07015   0.09707  -1.54965
  16        3S         -1.00182   1.14198  -0.07629  -1.10769  -1.22396
  17 3   H  1S         -0.02000   0.05960   0.00973   0.03327   0.02910
  18        2S         -0.10741   0.68209   0.10166   0.06539   1.58672
  19        3S          0.99341  -1.10897  -0.04627  -1.24542   1.22140
  20 4   C  1S          0.00102  -0.00027   0.08309   0.03308   0.00040
  21        2S          0.00209  -0.00047   0.17691   0.06966   0.00076
  22        2PX        -0.15931  -0.17880  -0.09708   0.05037   0.01364
  23        2PY         0.09085   0.09885  -0.17679   0.09240  -0.00003
  24        2PZ        -0.00011  -0.00024   0.00641  -0.00116  -0.00022
  25        3S         -0.01597  -0.00335  -1.48243  -0.41027  -0.00155
  26        3PX        -0.70727  -0.59425  -0.35420   0.26976   0.25244
  27        3PY         0.40646   0.32604  -0.65147   0.49280  -0.10740
  28        3PZ        -0.00060  -0.00083   0.02265  -0.00440  -0.00070
  29        4S          0.01927   0.05138   2.67254   0.19540   0.01047
  30        4PX         1.28255   0.66169   0.50478  -0.23359  -4.18029
  31        4PY        -0.73390  -0.35835   1.03630  -0.64548   2.37835
  32        4PZ         0.00082  -0.00119  -0.06706   0.03039  -0.00372
  33 5   H  1S         -0.02786  -0.05418   0.03485   0.00351  -0.02284
  34        2S         -0.17796  -0.56591   0.06453   0.07735  -1.41433
  35        3S          1.14424   0.91914  -1.17202   0.26754  -1.09644
  36 6   H  1S          0.02846   0.05420   0.03425   0.00410   0.02223
  37        2S          0.16730   0.53273   0.07173   0.02166   1.39566
  38        3S         -1.14837  -0.94056  -1.08252   0.19619   1.10682
                          26        27        28        29        30
                           V         V         V         V         V
     Eigenvalues --     0.95160   2.23197   2.28981   2.33248   2.40520
   1 1   C  1S          0.09568  -0.01044  -0.01448   0.00033  -0.00045
   2        2S          0.19881   0.00100  -0.01475   0.00077  -0.00052
   3        2PX        -0.09110  -0.08233  -0.13170   0.33965  -0.40994
   4        2PY        -0.15793  -0.15345  -0.22954  -0.19340   0.23284
   5        2PZ         0.00013  -0.01728  -0.02280  -0.00001  -0.00086
   6        3S         -1.54098  -0.18418  -0.03292  -0.00155  -0.00421
   7        3PX        -0.23239   0.08028   0.20826  -0.40538   0.57149
   8        3PY        -0.39557   0.16221   0.37586   0.23288  -0.32684
   9        3PZ        -0.00341   0.01728   0.02855   0.00013   0.00097
  10        4S          5.71699  -0.12172  -0.89142   0.00047  -0.01936
  11        4PX         1.19918   0.05146  -0.18837  -0.03142   0.96028
  12        4PY         1.98530   0.06899  -0.35506   0.01045  -0.53328
  13        4PZ        -0.02257   0.00423   0.01026  -0.00029   0.00184
  14 2   H  1S          0.01543  -0.71866  -0.78334  -0.69756   0.66421
  15        2S         -0.29215   1.02433   1.17596   1.06758  -1.46803
  16        3S         -0.09593  -0.30593  -0.46852  -0.46572   0.37899
  17 3   H  1S          0.01576  -0.71183  -0.78034   0.68892  -0.68460
  18        2S         -0.26263   1.01531   1.17585  -1.05808   1.51046
  19        3S         -0.07786  -0.28616  -0.45215   0.45564  -0.37136
  20 4   C  1S         -0.09406  -0.00990   0.01209   0.00049   0.00032
  21        2S         -0.19512   0.00097   0.01177   0.00072   0.00055
  22        2PX        -0.09220   0.13040  -0.12529   0.31118   0.41277
  23        2PY        -0.15918   0.22773  -0.21052  -0.18005  -0.23698
  24        2PZ         0.00028  -0.01862   0.02267   0.00041   0.00040
  25        3S          1.50996  -0.17074   0.02141  -0.00004   0.00033
  26        3PX        -0.22522  -0.16735   0.21589  -0.39165  -0.57940
  27        3PY        -0.39510  -0.28608   0.35521   0.22369   0.33248
  28        3PZ         0.00428   0.02008  -0.02893  -0.00041  -0.00055
  29        4S         -5.69203  -0.15334   0.88285   0.01457   0.00808
  30        4PX         1.10474  -0.01176  -0.20283   0.09739  -0.84406
  31        4PY         1.98802  -0.03371  -0.32299  -0.05401   0.49573
  32        4PZ         0.01761   0.00547  -0.00826  -0.00019  -0.00164
  33 5   H  1S         -0.01801  -0.78086   0.68786   0.71301   0.67604
  34        2S          0.28888   1.13218  -1.04868  -1.04225  -1.44016
  35        3S          0.06114  -0.35264   0.40918   0.51448   0.42287
  36 6   H  1S         -0.01805  -0.77372   0.70746  -0.70245  -0.67425
  37        2S          0.31288   1.11830  -1.07191   1.02297   1.42838
  38        3S          0.07008  -0.35522   0.43541  -0.51307  -0.43176
                          31        32        33        34        35
                           V         V         V         V         V
     Eigenvalues --     2.67103   2.81691   2.87955   2.95130   3.13944
   1 1   C  1S          0.00063   0.00314  -0.01311   0.00006  -0.00960
   2        2S          0.00048   0.00913  -0.04377  -0.00010  -0.02924
   3        2PX         0.00658   0.09014  -0.46365  -0.73124   0.45596
   4        2PY         0.01031   0.15851  -0.83463   0.41316   0.79143
   5        2PZ        -0.92293  -0.92527  -0.17377  -0.00117   0.00927
   6        3S         -0.00184  -0.07563   0.38507   0.00266   0.24492
   7        3PX        -0.00475  -0.15676   0.82528   0.88109  -0.44514
   8        3PY        -0.00741  -0.27342   1.46079  -0.48633  -0.76905
   9        3PZ         0.93789   1.13018   0.21843   0.00163  -0.01182
  10        4S          0.01613   0.17478  -0.86273  -0.00864  -0.47580
  11        4PX        -0.00267   0.12616  -0.70819  -0.66383   0.23247
  12        4PY        -0.00372   0.22100  -1.25733   0.35767   0.39217
  13        4PZ        -0.33749  -0.61031  -0.13899  -0.00134   0.00730
  14 2   H  1S          0.01528  -0.02516   0.26482  -0.37672  -0.21627
  15        2S         -0.01750   0.01613  -0.22331   0.38553   0.16278
  16        3S         -0.00375   0.05081  -0.29644   0.27337   0.06298
  17 3   H  1S          0.01548  -0.02428   0.25494   0.37688  -0.21950
  18        2S         -0.01796   0.01409  -0.20518  -0.38178   0.16670
  19        3S         -0.00434   0.05147  -0.29893  -0.28831   0.07251
  20 4   C  1S          0.00065  -0.00313   0.01367   0.00054  -0.00737
  21        2S          0.00064  -0.00960   0.04758   0.00118  -0.02317
  22        2PX        -0.00929   0.08157  -0.41225  -0.80205  -0.49969
  23        2PY        -0.01702   0.14513  -0.72853   0.44594  -0.88398
  24        2PZ        -0.92625   0.92094   0.17740   0.00022   0.01596
  25        3S         -0.00365   0.08203  -0.42610  -0.00850   0.19995
  26        3PX         0.00980  -0.14768   0.77028   0.95314   0.53053
  27        3PY         0.01759  -0.26111   1.35642  -0.52473   0.94677
  28        3PZ         0.94232  -1.12578  -0.22326  -0.00021  -0.02014
  29        4S          0.02020  -0.17908   0.89580   0.02471  -0.38217
  30        4PX        -0.00117   0.12512  -0.70582  -0.69582  -0.31978
  31        4PY        -0.00264   0.21930  -1.23134   0.37961  -0.57159
  32        4PZ        -0.33983   0.60822   0.14270   0.00005   0.01568
  33 5   H  1S          0.01487   0.03310  -0.29101   0.41842  -0.25920
  34        2S         -0.01832  -0.02639   0.26341  -0.43162   0.20304
  35        3S         -0.00173  -0.04765   0.28050  -0.24318   0.11996
  36 6   H  1S          0.01506   0.03353  -0.29028  -0.42812  -0.24857
  37        2S         -0.01898  -0.02782   0.26901   0.44131   0.19580
  38        3S         -0.00114  -0.04513   0.26559   0.24173   0.11286
                          36        37        38
                           V         V         V
     Eigenvalues --     3.31621  23.35169  23.70511
   1 1   C  1S         -0.00034  -1.41250  -1.45373
   2        2S         -0.00043   1.50637   1.57199
   3        2PX         0.78356  -0.00666   0.01207
   4        2PY        -0.43968  -0.01094   0.02123
   5        2PZ         0.00118  -0.00070  -0.00030
   6        3S         -0.00095  -0.29545  -0.39962
   7        3PX        -1.12033   0.02440  -0.05543
   8        3PY         0.62356   0.04062  -0.09663
   9        3PZ        -0.00181   0.00199   0.00087
  10        4S         -0.00676   0.27197   0.76888
  11        4PX         1.95225  -0.02680   0.13278
  12        4PY        -1.08634  -0.04533   0.22897
  13        4PZ         0.00302  -0.00330  -0.00373
  14 2   H  1S          0.55758   0.01337   0.00719
  15        2S         -0.86301   0.00762  -0.01495
  16        3S         -0.46089  -0.08429  -0.03969
  17 3   H  1S         -0.56794   0.01503   0.00833
  18        2S          0.87795   0.00718  -0.01502
  19        3S          0.48488  -0.08633  -0.03992
  20 4   C  1S          0.00019  -1.44895   1.41724
  21        2S          0.00001   1.54540  -1.53268
  22        2PX        -0.71125   0.00588   0.01274
  23        2PY         0.41034   0.01074   0.02163
  24        2PZ        -0.00104  -0.00069   0.00019
  25        3S          0.00342  -0.30351   0.39012
  26        3PX         1.01056  -0.02170  -0.05662
  27        3PY        -0.59105  -0.03902  -0.09722
  28        3PZ         0.00159   0.00199  -0.00050
  29        4S         -0.00977   0.28150  -0.75887
  30        4PX        -1.76792   0.02238   0.13125
  31        4PY         1.03872   0.04140   0.22723
  32        4PZ        -0.00266  -0.00328   0.00298
  33 5   H  1S          0.48683   0.01291  -0.00447
  34        2S         -0.75656   0.00825   0.01347
  35        3S         -0.42535  -0.08304   0.03722
  36 6   H  1S         -0.47933   0.01132  -0.00321
  37        2S          0.74790   0.00940   0.01294
  38        3S          0.41211  -0.08096   0.03654
     Density Matrix:
                           1         2         3         4         5
   1 1   C  1S          0.65940
   2        2S          0.56152   0.49202
   3        2PX        -0.00052  -0.00069   0.08443
   4        2PY        -0.00126  -0.00174   0.00353   0.08773
   5        2PZ         0.00011   0.00018  -0.00015  -0.00034   0.06439
   6        3S         -0.08896  -0.15389   0.00265   0.00622  -0.00027
   7        3PX         0.00089   0.00136   0.13067   0.00113  -0.00011
   8        3PY         0.00123   0.00189   0.00115   0.13129  -0.00030
   9        3PZ         0.00023   0.00038  -0.00027  -0.00055   0.10356
  10        4S         -0.07939  -0.11435  -0.01532  -0.02742   0.00073
  11        4PX         0.00025   0.00155   0.07032  -0.00451  -0.00072
  12        4PY         0.00059   0.00295  -0.00458   0.06559  -0.00127
  13        4PZ        -0.00013  -0.00031  -0.00107  -0.00181   0.09590
  14 2   H  1S         -0.02059  -0.03279   0.03482  -0.06316  -0.00154
  15        2S         -0.02284  -0.03652   0.04920  -0.08784  -0.00117
  16        3S          0.00057  -0.00071   0.02077  -0.03303  -0.00004
  17 3   H  1S         -0.02106  -0.03351  -0.07285  -0.00210  -0.00168
  18        2S         -0.02313  -0.03694  -0.10062  -0.00208  -0.00133
  19        3S          0.00061  -0.00066  -0.03844   0.00128  -0.00009
  20 4   C  1S          0.00607   0.00978  -0.01084  -0.01876  -0.00055
  21        2S          0.00975   0.01524  -0.01734  -0.03002  -0.00089
  22        2PX         0.01036   0.01657  -0.01241  -0.03210   0.00056
  23        2PY         0.01806   0.02888  -0.03215  -0.04969   0.00108
  24        2PZ        -0.00060  -0.00098  -0.00053  -0.00082   0.06431
  25        3S         -0.02627  -0.03988   0.04864   0.08433   0.00269
  26        3PX         0.01600   0.02480  -0.01823  -0.04579   0.00072
  27        3PY         0.02785   0.04319  -0.04573  -0.07121   0.00142
  28        3PZ        -0.00102  -0.00164  -0.00091  -0.00143   0.10288
  29        4S          0.00537   0.00400   0.02065   0.03616   0.00320
  30        4PX         0.00310   0.00639  -0.01307  -0.02100   0.00085
  31        4PY         0.00524   0.01090  -0.02102  -0.03735   0.00168
  32        4PZ        -0.00087  -0.00141  -0.00137  -0.00225   0.09591
  33 5   H  1S          0.00420   0.00690  -0.00170  -0.01233  -0.00063
  34        2S          0.00634   0.01054   0.00350  -0.02501  -0.00004
  35        3S          0.00327   0.00478   0.00420  -0.01758   0.00011
  36 6   H  1S          0.00414   0.00680  -0.00984  -0.00762  -0.00064
  37        2S          0.00626   0.01041  -0.02342  -0.00945  -0.00008
  38        3S          0.00322   0.00474  -0.01733  -0.00520   0.00007
                           6         7         8         9        10
   6        3S          0.45273
   7        3PX        -0.00180   0.20252
   8        3PY        -0.00159  -0.00458   0.19695
   9        3PZ        -0.00078  -0.00021  -0.00047   0.16655
  10        4S          0.27354  -0.02593  -0.04713   0.00095   0.18209
  11        4PX        -0.00669   0.10933  -0.01013  -0.00119  -0.01489
  12        4PY        -0.01217  -0.01025   0.09881  -0.00204  -0.02828
  13        4PZ         0.00139  -0.00142  -0.00240   0.15422   0.00271
  14 2   H  1S          0.08765   0.05605  -0.09859  -0.00255   0.06910
  15        2S          0.09775   0.07954  -0.13665  -0.00196   0.08118
  16        3S          0.00608   0.03390  -0.05079  -0.00007   0.01102
  17 3   H  1S          0.08964  -0.11403  -0.00169  -0.00275   0.06904
  18        2S          0.09896  -0.15731  -0.00044  -0.00218   0.07983
  19        3S          0.00609  -0.05985   0.00378  -0.00013   0.01003
  20 4   C  1S         -0.02650  -0.01691  -0.02930  -0.00093   0.00519
  21        2S         -0.04011  -0.02627  -0.04555  -0.00151   0.00392
  22        2PX        -0.04639  -0.01766  -0.04560   0.00097  -0.01791
  23        2PY        -0.08087  -0.04570  -0.07090   0.00186  -0.03117
  24        2PZ         0.00291  -0.00072  -0.00110   0.10342   0.00311
  25        3S          0.10224   0.07136   0.12388   0.00449   0.00091
  26        3PX        -0.06715  -0.02609  -0.06485   0.00126  -0.02670
  27        3PY        -0.11693  -0.06482  -0.10155   0.00246  -0.04635
  28        3PZ         0.00483  -0.00126  -0.00194   0.16545   0.00517
  29        4S          0.00165   0.03123   0.05487   0.00532  -0.03266
  30        4PX        -0.02258  -0.01951  -0.02953   0.00142  -0.00679
  31        4PY        -0.03878  -0.02962  -0.05397   0.00278  -0.01109
  32        4PZ         0.00412  -0.00192  -0.00312   0.15425   0.00479
  33 5   H  1S         -0.02053  -0.00070  -0.01773  -0.00092  -0.01513
  34        2S         -0.03151   0.00848  -0.03683   0.00005  -0.01979
  35        3S         -0.01231   0.00800  -0.02643   0.00020  -0.00369
  36 6   H  1S         -0.02023  -0.01487  -0.00930  -0.00093  -0.01524
  37        2S         -0.03114  -0.03589  -0.01075  -0.00000  -0.02034
  38        3S         -0.01221  -0.02677  -0.00622   0.00014  -0.00412
                          11        12        13        14        15
  11        4PX         0.06008
  12        4PY        -0.00898   0.05113
  13        4PZ        -0.00174  -0.00292   0.14285
  14 2   H  1S          0.03349  -0.05416  -0.00131   0.08138
  15        2S          0.04832  -0.07494  -0.00048   0.10957   0.14964
  16        3S          0.02103  -0.02773   0.00028   0.03670   0.05239
  17 3   H  1S         -0.06312   0.00171  -0.00140  -0.01313  -0.02480
  18        2S         -0.08748   0.00428  -0.00057  -0.02473  -0.04305
  19        3S         -0.03358   0.00448   0.00025  -0.01809  -0.02742
  20 4   C  1S         -0.00313  -0.00569  -0.00082   0.00423   0.00667
  21        2S         -0.00649  -0.01165  -0.00132   0.00699   0.01114
  22        2PX        -0.01324  -0.02000   0.00138   0.00187  -0.00264
  23        2PY        -0.02010  -0.03685   0.00256   0.01145   0.02418
  24        2PZ        -0.00099  -0.00159   0.09578  -0.00071  -0.00020
  25        3S          0.02303   0.04108   0.00387  -0.02103  -0.03353
  26        3PX        -0.02038  -0.02829   0.00187   0.00104  -0.00719
  27        3PY        -0.02839  -0.05365   0.00351   0.01700   0.03619
  28        3PZ        -0.00162  -0.00261   0.15324  -0.00104  -0.00020
  29        4S          0.00779   0.01484   0.00486  -0.01766  -0.02409
  30        4PX        -0.01483  -0.01245   0.00174  -0.00163  -0.00841
  31        4PY        -0.01256  -0.02957   0.00330   0.01525   0.02712
  32        4PZ        -0.00194  -0.00320   0.14289  -0.00058   0.00038
  33 5   H  1S          0.00193  -0.01581  -0.00047   0.01119   0.02331
  34        2S          0.00909  -0.02762   0.00057   0.02379   0.04444
  35        3S          0.00747  -0.01588   0.00040   0.01665   0.02786
  36 6   H  1S         -0.01457  -0.00581  -0.00048  -0.00907  -0.01817
  37        2S         -0.02831  -0.00530   0.00054  -0.01887  -0.03437
  38        3S         -0.01733  -0.00123   0.00037  -0.01020  -0.01781
                          16        17        18        19        20
  16        3S          0.02098
  17 3   H  1S         -0.01825   0.08254
  18        2S         -0.02752   0.10986   0.14838
  19        3S         -0.01291   0.03616   0.05113   0.02025
  20 4   C  1S          0.00367   0.00430   0.00673   0.00369   0.65947
  21        2S          0.00541   0.00711   0.01121   0.00541   0.56155
  22        2PX        -0.00342   0.00899   0.02215   0.01662   0.00121
  23        2PY         0.01756   0.00744   0.00972   0.00566   0.00181
  24        2PZ         0.00006  -0.00070  -0.00015   0.00010   0.00010
  25        3S         -0.01403  -0.02133  -0.03362  -0.01395  -0.08922
  26        3PX        -0.00692   0.01429   0.03490   0.02600  -0.00044
  27        3PY         0.02645   0.00953   0.01180   0.00707  -0.00105
  28        3PZ         0.00012  -0.00102  -0.00012   0.00018   0.00022
  29        4S         -0.00575  -0.01740  -0.02326  -0.00524  -0.08032
  30        4PX        -0.00698   0.01402   0.02758   0.01705  -0.00023
  31        4PY         0.01588   0.00652   0.00657   0.00194  -0.00021
  32        4PZ         0.00037  -0.00057   0.00041   0.00040  -0.00007
  33 5   H  1S          0.01616  -0.00904  -0.01809  -0.00940  -0.02010
  34        2S          0.02741  -0.01868  -0.03394  -0.01693  -0.02222
  35        3S          0.01464  -0.01007  -0.01750  -0.00894   0.00057
  36 6   H  1S         -0.00949   0.01119   0.02317   0.01587  -0.01975
  37        2S         -0.01725   0.02382   0.04427   0.02704  -0.02214
  38        3S         -0.00916   0.01670   0.02778   0.01448   0.00046
                          21        22        23        24        25
  21        2S          0.49202
  22        2PX         0.00174   0.08230
  23        2PY         0.00259   0.00377   0.08752
  24        2PZ         0.00015   0.00019   0.00027   0.06427
  25        3S         -0.15418  -0.00562  -0.00848  -0.00016   0.45355
  26        3PX        -0.00067   0.12816   0.00194   0.00013  -0.00045
  27        3PY        -0.00160   0.00199   0.13120   0.00012   0.00061
  28        3PZ         0.00037   0.00028   0.00042   0.10283  -0.00072
  29        4S         -0.11609   0.01416   0.02377   0.00084   0.27938
  30        4PX        -0.00152   0.07304  -0.00510   0.00061   0.00636
  31        4PY        -0.00228  -0.00503   0.06692   0.00111   0.01006
  32        4PZ        -0.00021   0.00101   0.00181   0.09585   0.00110
  33 5   H  1S         -0.03201  -0.03333   0.06342  -0.00165   0.08563
  34        2S         -0.03551  -0.04959   0.08850  -0.00130   0.09502
  35        3S         -0.00064  -0.02249   0.03353  -0.00013   0.00571
  36 6   H  1S         -0.03150   0.07079   0.00268  -0.00152   0.08423
  37        2S         -0.03540   0.10115   0.00100  -0.00112   0.09466
  38        3S         -0.00078   0.04060  -0.00292  -0.00007   0.00597
                          26        27        28        29        30
  26        3PX         0.19993
  27        3PY        -0.00258   0.19724
  28        3PZ         0.00016   0.00017   0.16453
  29        4S          0.02601   0.04330   0.00104   0.18830
  30        4PX         0.11439  -0.01068   0.00095   0.01617   0.06654
  31        4PY        -0.01065   0.10114   0.00177   0.02555  -0.01039
  32        4PZ         0.00127   0.00231   0.15335   0.00261   0.00148
  33 5   H  1S         -0.05341   0.09936  -0.00273   0.06731  -0.03443
  34        2S         -0.07991   0.13815  -0.00218   0.07792  -0.05199
  35        3S         -0.03670   0.05168  -0.00021   0.00942  -0.02409
  36 6   H  1S          0.11198   0.00337  -0.00253   0.06767   0.06563
  37        2S          0.15981  -0.00026  -0.00193   0.07970   0.09410
  38        3S          0.06382  -0.00610  -0.00013   0.01052   0.03789
                          31        32        33        34        35
  31        4PY         0.05341
  32        4PZ         0.00278   0.14297
  33 5   H  1S          0.05554  -0.00142   0.08060
  34        2S          0.07734  -0.00059   0.10996   0.15244
  35        3S          0.02905   0.00020   0.03801   0.05524   0.02283
  36 6   H  1S         -0.00196  -0.00135  -0.01247  -0.02598  -0.01982
  37        2S         -0.00622  -0.00050  -0.02610  -0.04825  -0.03151
  38        3S         -0.00627   0.00021  -0.02007  -0.03168  -0.01560
                          36        37        38
  36 6   H  1S          0.07952
  37        2S          0.10953   0.15321
  38        3S          0.03832   0.05610   0.02333
    Full Mulliken population analysis:
                           1         2         3         4         5
   1 1   C  1S          0.65940
   2        2S          0.49326   0.49202
   3        2PX         0.00000   0.00000   0.08443
   4        2PY         0.00000   0.00000   0.00000   0.08773
   5        2PZ         0.00000   0.00000   0.00000   0.00000   0.06439
   6        3S         -0.02928  -0.06445   0.00000   0.00000   0.00000
   7        3PX         0.00000   0.00000   0.08220   0.00000   0.00000
   8        3PY         0.00000   0.00000   0.00000   0.08259   0.00000
   9        3PZ         0.00000   0.00000   0.00000   0.00000   0.06515
  10        4S         -0.01221  -0.02140   0.00000   0.00000   0.00000
  11        4PX         0.00000   0.00000   0.01549   0.00000   0.00000
  12        4PY         0.00000   0.00000   0.00000   0.01444   0.00000
  13        4PZ         0.00000   0.00000   0.00000   0.00000   0.02112
  14 2   H  1S         -0.00023  -0.00033   0.00181   0.00566   0.00001
  15        2S         -0.00167  -0.00319   0.00430   0.01324   0.00001
  16        3S          0.00004  -0.00007   0.00069   0.00191   0.00000
  17 3   H  1S         -0.00026  -0.00037   0.00793   0.00000   0.00001
  18        2S         -0.00173  -0.00332   0.01776   0.00000   0.00001
  19        3S          0.00005  -0.00006   0.00256  -0.00000   0.00000
  20 4   C  1S          0.00000   0.00000  -0.00002  -0.00006   0.00000
  21        2S          0.00000  -0.00000  -0.00002  -0.00005   0.00000
  22        2PX        -0.00002  -0.00002   0.00011   0.00085   0.00000
  23        2PY        -0.00006  -0.00005   0.00085   0.00196   0.00000
  24        2PZ        -0.00000  -0.00000  -0.00000  -0.00000   0.00041
  25        3S         -0.00059  -0.00099   0.00253   0.00761  -0.00000
  26        3PX        -0.00054  -0.00099   0.00019   0.00553   0.00000
  27        3PY        -0.00163  -0.00299   0.00552   0.01068   0.00000
  28        3PZ        -0.00000  -0.00000  -0.00000  -0.00000   0.00609
  29        4S          0.00034   0.00030   0.00094   0.00284  -0.00000
  30        4PX        -0.00018  -0.00045  -0.00071   0.00145   0.00000
  31        4PY        -0.00053  -0.00134   0.00146   0.00097   0.00000
  32        4PZ        -0.00000  -0.00000  -0.00000  -0.00000   0.00902
  33 5   H  1S          0.00000   0.00000  -0.00000  -0.00000   0.00000
  34        2S          0.00001   0.00002   0.00000  -0.00031   0.00000
  35        3S          0.00008   0.00013   0.00001  -0.00070  -0.00000
  36 6   H  1S          0.00000   0.00000  -0.00000  -0.00000   0.00000
  37        2S          0.00001   0.00002  -0.00023  -0.00007   0.00000
  38        3S          0.00007   0.00013  -0.00057  -0.00012  -0.00000
                           6         7         8         9        10
   6        3S          0.45273
   7        3PX         0.00000   0.20252
   8        3PY         0.00000   0.00000   0.19695
   9        3PZ         0.00000   0.00000   0.00000   0.16655
  10        4S          0.21191   0.00000   0.00000   0.00000   0.18209
  11        4PX         0.00000   0.07144   0.00000   0.00000   0.00000
  12        4PY         0.00000   0.00000   0.06457   0.00000   0.00000
  13        4PZ         0.00000   0.00000   0.00000   0.10078   0.00000
  14 2   H  1S          0.01612   0.01072   0.03252   0.00004   0.01829
  15        2S          0.04118   0.01948   0.05773   0.00003   0.04681
  16        3S          0.00280   0.00395   0.01022   0.00000   0.00832
  17 3   H  1S          0.01701   0.04438   0.00001   0.00004   0.01848
  18        2S          0.04242   0.07734   0.00000   0.00004   0.04645
  19        3S          0.00283   0.01388  -0.00001   0.00000   0.00762
  20 4   C  1S         -0.00059  -0.00057  -0.00171   0.00000   0.00033
  21        2S         -0.00100  -0.00105  -0.00315   0.00000   0.00030
  22        2PX         0.00242   0.00019   0.00551   0.00000   0.00081
  23        2PY         0.00730   0.00552   0.01063   0.00000   0.00245
  24        2PZ         0.00000  -0.00000  -0.00000   0.00612   0.00000
  25        3S          0.02176   0.01336   0.04017  -0.00000   0.00035
  26        3PX         0.01257  -0.00126   0.01849   0.00000   0.00411
  27        3PY         0.03792   0.01848   0.02855   0.00000   0.01237
  28        3PZ         0.00000  -0.00000  -0.00000   0.03522   0.00000
  29        4S          0.00062   0.00481   0.01465  -0.00000  -0.02050
  30        4PX         0.00634  -0.00400   0.00585   0.00000   0.00206
  31        4PY         0.01886   0.00587   0.00128   0.00000   0.00582
  32        4PZ         0.00000  -0.00000  -0.00000   0.04925   0.00000
  33 5   H  1S         -0.00005  -0.00000  -0.00019   0.00000  -0.00081
  34        2S         -0.00122   0.00006  -0.00323  -0.00000  -0.00332
  35        3S         -0.00200   0.00010  -0.00426  -0.00000  -0.00133
  36 6   H  1S         -0.00005  -0.00012  -0.00005   0.00000  -0.00080
  37        2S         -0.00116  -0.00253  -0.00052   0.00000  -0.00335
  38        3S         -0.00196  -0.00353  -0.00056  -0.00000  -0.00147
                          11        12        13        14        15
  11        4PX         0.06008
  12        4PY         0.00000   0.05113
  13        4PZ         0.00000   0.00000   0.14285
  14 2   H  1S          0.00629   0.01753   0.00002   0.08138
  15        2S          0.01526   0.04083   0.00001   0.07740   0.14964
  16        3S          0.00520   0.01184  -0.00000   0.01372   0.04134
  17 3   H  1S          0.02364  -0.00001   0.00002  -0.00001  -0.00067
  18        2S          0.05500  -0.00002   0.00001  -0.00066  -0.00546
  19        3S          0.01648  -0.00002  -0.00000  -0.00203  -0.00804
  20 4   C  1S         -0.00018  -0.00057   0.00000   0.00000   0.00002
  21        2S         -0.00046  -0.00143   0.00000   0.00000   0.00003
  22        2PX        -0.00071   0.00139   0.00000  -0.00000   0.00000
  23        2PY         0.00139   0.00096   0.00000  -0.00000  -0.00036
  24        2PZ        -0.00000  -0.00000   0.00900   0.00000   0.00000
  25        3S          0.00647   0.01998  -0.00000  -0.00007  -0.00147
  26        3PX        -0.00418   0.00560   0.00000  -0.00000   0.00004
  27        3PY         0.00562   0.00127   0.00000  -0.00022  -0.00354
  28        3PZ        -0.00000  -0.00000   0.04893   0.00000   0.00000
  29        4S          0.00236   0.00779  -0.00000  -0.00103  -0.00431
  30        4PX        -0.00714   0.00315   0.00000   0.00001   0.00018
  31        4PY         0.00318  -0.00559   0.00000  -0.00241  -0.01020
  32        4PZ        -0.00000  -0.00000   0.08967   0.00000  -0.00000
  33 5   H  1S          0.00002  -0.00234   0.00000   0.00000   0.00000
  34        2S          0.00026  -0.00990  -0.00000   0.00000   0.00016
  35        3S          0.00028  -0.00733  -0.00000   0.00023   0.00146
  36 6   H  1S         -0.00175  -0.00048   0.00000  -0.00000  -0.00004
  37        2S         -0.00830  -0.00107  -0.00000  -0.00004  -0.00091
  38        3S         -0.00658  -0.00032  -0.00000  -0.00046  -0.00246
                          16        17        18        19        20
  16        3S          0.02098
  17 3   H  1S         -0.00205   0.08254
  18        2S         -0.00806   0.07760   0.14838
  19        3S         -0.00673   0.01351   0.04034   0.02025
  20 4   C  1S          0.00009   0.00000   0.00002   0.00009   0.65947
  21        2S          0.00016   0.00000   0.00003   0.00016   0.49329
  22        2PX         0.00001  -0.00000  -0.00028  -0.00058   0.00000
  23        2PY        -0.00074  -0.00000  -0.00008  -0.00013   0.00000
  24        2PZ        -0.00000   0.00000   0.00000  -0.00000   0.00000
  25        3S         -0.00242  -0.00007  -0.00149  -0.00241  -0.02937
  26        3PX         0.00007  -0.00016  -0.00287  -0.00363   0.00000
  27        3PY        -0.00442  -0.00007  -0.00065  -0.00066   0.00000
  28        3PZ        -0.00000   0.00000   0.00000  -0.00000   0.00000
  29        4S         -0.00215  -0.00102  -0.00419  -0.00197  -0.01235
  30        4PX         0.00019  -0.00186  -0.00868  -0.00671   0.00000
  31        4PY        -0.00748  -0.00058  -0.00138  -0.00051   0.00000
  32        4PZ        -0.00000   0.00000  -0.00000  -0.00000   0.00000
  33 5   H  1S          0.00022  -0.00000  -0.00004  -0.00043  -0.00021
  34        2S          0.00144  -0.00004  -0.00091  -0.00235  -0.00158
  35        3S          0.00246  -0.00046  -0.00243  -0.00285   0.00004
  36 6   H  1S         -0.00043   0.00000   0.00000   0.00022  -0.00020
  37        2S         -0.00238   0.00000   0.00015   0.00141  -0.00154
  38        3S         -0.00291   0.00023   0.00144   0.00242   0.00004
                          21        22        23        24        25
  21        2S          0.49202
  22        2PX         0.00000   0.08230
  23        2PY         0.00000   0.00000   0.08752
  24        2PZ         0.00000   0.00000   0.00000   0.06427
  25        3S         -0.06457   0.00000   0.00000   0.00000   0.45355
  26        3PX         0.00000   0.08063   0.00000   0.00000   0.00000
  27        3PY         0.00000   0.00000   0.08254   0.00000   0.00000
  28        3PZ         0.00000   0.00000   0.00000   0.06469   0.00000
  29        4S         -0.02173   0.00000   0.00000   0.00000   0.21643
  30        4PX         0.00000   0.01609   0.00000   0.00000   0.00000
  31        4PY         0.00000   0.00000   0.01474   0.00000   0.00000
  32        4PZ         0.00000   0.00000   0.00000   0.02111   0.00000
  33 5   H  1S         -0.00030   0.00148   0.00560   0.00001   0.01531
  34        2S         -0.00303   0.00384   0.01360   0.00001   0.03940
  35        3S         -0.00006   0.00068   0.00200   0.00000   0.00262
  36 6   H  1S         -0.00027   0.00666   0.00001   0.00001   0.01462
  37        2S         -0.00294   0.01714   0.00001   0.00001   0.03860
  38        3S         -0.00007   0.00271  -0.00001   0.00000   0.00271
                          26        27        28        29        30
  26        3PX         0.19993
  27        3PY         0.00000   0.19724
  28        3PZ         0.00000   0.00000   0.16453
  29        4S          0.00000   0.00000   0.00000   0.18830
  30        4PX         0.07475   0.00000   0.00000   0.00000   0.06654
  31        4PY         0.00000   0.06609   0.00000   0.00000   0.00000
  32        4PZ         0.00000   0.00000   0.10021   0.00000   0.00000
  33 5   H  1S          0.00899   0.03319   0.00004   0.01763   0.00579
  34        2S          0.01744   0.05986   0.00004   0.04457   0.01474
  35        3S          0.00385   0.01076   0.00000   0.00708   0.00537
  36 6   H  1S          0.04097   0.00007   0.00003   0.01752   0.02445
  37        2S          0.07687  -0.00001   0.00003   0.04520   0.05929
  38        3S          0.01489  -0.00008   0.00000   0.00786   0.01883
                          31        32        33        34        35
  31        4PY         0.05341
  32        4PZ         0.00000   0.14297
  33 5   H  1S          0.01854   0.00002   0.08060
  34        2S          0.04355   0.00001   0.07767   0.15244
  35        3S          0.01286  -0.00000   0.01420   0.04358   0.02283
  36 6   H  1S         -0.00004   0.00002  -0.00001  -0.00077  -0.00230
  37        2S         -0.00023   0.00001  -0.00077  -0.00649  -0.00950
  38        3S         -0.00018  -0.00000  -0.00233  -0.00955  -0.00829
                          36        37        38
  36 6   H  1S          0.07952
  37        2S          0.07737   0.15321
  38        3S          0.01432   0.04426   0.02333
     Gross orbital populations:
                           1
   1 1   C  1S          1.10435
   2        2S          0.88586
   3        2PX         0.22724
   4        2PY         0.23615
   5        2PZ         0.16621
   6        3S          0.79302
   7        3PX         0.56123
   8        3PY         0.55603
   9        3PZ         0.42323
  10        4S          0.50338
  11        4PX         0.25916
  12        4PY         0.21140
  13        4PZ         0.41240
  14 2   H  1S          0.27421
  15        2S          0.46683
  16        3S          0.08579
  17 3   H  1S          0.27779
  18        2S          0.46475
  19        3S          0.08268
  20 4   C  1S          1.10442
  21        2S          0.88584
  22        2PX         0.22118
  23        2PY         0.23565
  24        2PZ         0.16565
  25        3S          0.79202
  26        3PX         0.55128
  27        3PY         0.55592
  28        3PZ         0.41982
  29        4S          0.50999
  30        4PX         0.27536
  31        4PY         0.21615
  32        4PZ         0.41227
  33 5   H  1S          0.27183
  34        2S          0.47001
  35        3S          0.08910
  36 6   H  1S          0.26848
  37        2S          0.47153
  38        3S          0.09177
          Condensed to atoms (all electrons):
               1          2          3          4          5          6
     1  C    5.034125   0.387348   0.388167   0.601435  -0.036016  -0.035392
     2  H    0.387348   0.516896  -0.033706  -0.040042   0.005972  -0.009634
     3  H    0.388167  -0.033706   0.514079  -0.039681  -0.009511   0.005877
     4  C    0.601435  -0.040042  -0.039681   5.057152   0.383712   0.382976
     5  H   -0.036016   0.005972  -0.009511   0.383712   0.526788  -0.040000
     6  H   -0.035392  -0.009634   0.005877   0.382976  -0.040000   0.527954
 Mulliken charges:
               1
     1  C   -0.339667
     2  H    0.173167
     3  H    0.174775
     4  C   -0.345552
     5  H    0.169057
     6  H    0.168220
 Sum of Mulliken charges =   0.00000
 Mulliken charges with hydrogens summed into heavy atoms:
               1
     1  C    0.008275
     4  C   -0.008275
 Electronic spatial extent (au):  <R**2>=             83.8168
 Charge=              0.0000 electrons
 Dipole moment (field-independent basis, Debye):
    X=             -0.0026    Y=              0.0151    Z=             -0.1356  Tot=              0.1365
 Quadrupole moment (field-independent basis, Debye-Ang):
   XX=            -12.2106   YY=            -12.2207   ZZ=            -15.6751
   XY=              0.0137   XZ=             -0.0007   YZ=             -0.0049
 Traceless Quadrupole moment (field-independent basis, Debye-Ang):
   XX=              1.1582   YY=              1.1481   ZZ=             -2.3063
   XY=              0.0137   XZ=             -0.0007   YZ=             -0.0049
 Octapole moment (field-independent basis, Debye-Ang**2):
  XXX=             -0.3321  YYY=             -0.0836  ZZZ=             -0.0685  XYY=              0.1377
  XXY=             -0.0435  XXZ=             -0.1785  XZZ=             -0.1020  YZZ=             -0.0935
  YYZ=             -0.2364  XYZ=             -0.0502
 Hexadecapole moment (field-independent basis, Debye-Ang**3):
 XXXX=            -34.3575 YYYY=            -55.2722 ZZZZ=            -17.8330 XXXY=             -7.2562
 XXXZ=              0.0154 YYYX=            -10.7347 YYYZ=              0.0194 ZZZX=              0.0240
 ZZZY=              0.0434 XXYY=            -16.2279 XXZZ=             -9.9453 YYZZ=            -13.6596
 XXYZ=              0.0078 YYXZ=             -0.0001 ZZXY=             -3.2119
 N-N= 3.304213674572D+01 E-N=-2.477876926911D+02  KE= 7.814376663212D+01
 Orbital energies and kinetic energies (alpha):
                                 1                 2
   1         O               -10.291227         15.979134
   2         O               -10.287976         15.979510
   3         O                -0.863599          1.538065
   4         O                -0.671919          1.270699
   5         O                -0.558937          0.941379
   6         O                -0.509338          1.282452
   7         O                -0.436289          1.041928
   8         O                -0.356804          1.038717
   9         V                 0.079426          1.182383
  10         V                 0.140746          0.590469
  11         V                 0.164395          0.596539
  12         V                 0.169930          0.680641
  13         V                 0.240702          0.584171
  14         V                 0.374710          0.856661
  15         V                 0.392570          0.931427
  16         V                 0.398006          0.778321
  17         V                 0.463698          1.195124
  18         V                 0.487937          1.420539
  19         V                 0.493804          1.302098
  20         V                 0.590900          1.652729
  21         V                 0.665123          1.573313
  22         V                 0.690182          2.144411
  23         V                 0.771892          2.415658
  24         V                 0.775795          2.326161
  25         V                 0.839326          1.081765
  26         V                 0.951601          3.420538
  27         V                 2.231968          3.923605
  28         V                 2.289807          4.029579
  29         V                 2.332478          4.302165
  30         V                 2.405201          4.513034
  31         V                 2.671025          6.300475
  32         V                 2.816907          6.303279
  33         V                 2.879551          6.139903
  34         V                 2.951300          6.225931
  35         V                 3.139436          6.821683
  36         V                 3.316209          6.402742
  37         V                23.351693         60.074543
  38         V                23.705110         60.203404
 Total kinetic energy from orbitals= 7.814376663212D+01
 Calling FoFJK, ICntrl=      2127 FMM=F ISym2X=0 I1Cent= 0 IOpClX= 0 NMat=1 NMatS=1 NMatT=0.
 -------------------------------------------------------------------
 Center     Atomic                   Forces (Hartrees/Bohr)
 Number     Number              X              Y              Z
 -------------------------------------------------------------------
      1        6           0.013400744    0.008794524   -0.005336591
      2        1          -0.008425900    0.005577867    0.002725131
      3        1           0.001824500   -0.003981252    0.002484721
      4        6           0.010329264    0.009100984   -0.006164491
      5        1           0.003085623   -0.014331966    0.003058605
      6        1          -0.020214230   -0.005160157    0.003232625
 -------------------------------------------------------------------
 Cartesian Forces:  Max     0.020214230 RMS     0.008556306

 GradGradGradGradGradGradGradGradGradGradGradGradGradGradGradGradGradGrad
 Berny optimization.
 Search for a local minimum.
 Step number   1 out of a maximum of    2
 All quantities printed in internal units (Hartrees-Bohrs-Radians)
 Second derivative matrix not updated -- first step.
 The second derivative matrix:
                          X1        Y1        Z1        X2        Y2
           X1           0.75903
           Y1           0.09798   0.85867
           Z1           0.00804   0.01244   0.17148
           X2          -0.16391   0.09619   0.00289   0.14140
           Y2           0.10243  -0.28458  -0.01025  -0.11550   0.27348
           Z2           0.00454  -0.01284  -0.05519  -0.00414   0.01063
           X3          -0.35347  -0.00194  -0.01116  -0.00035  -0.00019
           Y3          -0.00806  -0.11015  -0.00271   0.03250   0.01875
           Z3          -0.01424  -0.00262  -0.05640   0.00207   0.00076
           X4          -0.26661  -0.17782  -0.00118   0.02288   0.01324
           Y4          -0.17822  -0.47210  -0.00196  -0.01321  -0.00764
           Z4           0.00165   0.00299  -0.09372  -0.00082  -0.00113
           X5           0.02340  -0.01351   0.00087  -0.00001   0.00001
           Y5           0.01176  -0.00678   0.00118   0.00001  -0.00000
           Z5          -0.00069   0.00042   0.01721   0.00034  -0.00019
           X6           0.00155  -0.00090   0.00054  -0.00001   0.00001
           Y6          -0.02589   0.01495   0.00130   0.00001  -0.00000
           Z6           0.00070  -0.00038   0.01662  -0.00034   0.00018
                          Z2        X3        Y3        Z3        X4
           Z2           0.02884
           X3          -0.00041   0.35359
           Y3           0.00220   0.00226   0.07599
           Z3           0.01055   0.01217   0.00185   0.02970
           X4           0.00072   0.00025  -0.02671  -0.00070   0.70631
           Y4          -0.00039  -0.00014   0.01542   0.00043   0.11998
           Z4           0.01572  -0.00060  -0.00134   0.01623  -0.00687
           X5          -0.00036  -0.00001   0.00001   0.00036  -0.14630
           Y5           0.00022   0.00001  -0.00001  -0.00022   0.09210
           Z5           0.00921   0.00035  -0.00022  -0.00936  -0.00436
           X6          -0.00035  -0.00001   0.00001   0.00035  -0.31652
           Y6           0.00019   0.00001  -0.00000  -0.00019  -0.02078
           Z6          -0.00913  -0.00035   0.00021   0.00928   0.01240
                          Y4        Z4        X5        Y5        Z5
           Y4           0.85452
           Z4          -0.01341   0.17462
           X5           0.08417  -0.00287   0.12490
           Y5          -0.28662   0.01026  -0.10290   0.27726
           Z5           0.01274  -0.05685   0.00387  -0.01092   0.02965
           X6          -0.01258   0.00952  -0.00197  -0.00097   0.00048
           Y6          -0.10357   0.00263   0.03223   0.01615  -0.00183
           Z6           0.00259  -0.05599  -0.00187  -0.00051   0.01014
                          X6        Y6        Z6
           X6           0.31697
           Y6           0.01443   0.07248
           Z6          -0.01054  -0.00210   0.02909
 ITU=  0
     Eigenvalues ---    0.03705   0.04370   0.09048   0.10150   0.13481
     Eigenvalues ---    0.17395   0.26229   0.28906   0.52732   0.69669
     Eigenvalues ---    0.97216   1.55824
 Angle between quadratic step and forces=  36.03 degrees.
 Linear search not attempted -- first point.
 B after Tr=     0.006406    0.006828   -0.013960
         Rot=    1.000000   -0.000028    0.000014   -0.000098 Ang=  -0.01 deg.
 Variable       Old X    -DE/DX   Delta X   Delta X   Delta X     New X
                                 (Linear)    (Quad)   (Total)
    X1       -0.63462   0.01340   0.00000   0.02035   0.02697  -0.60765
    Y1       -1.09874   0.00879   0.00000   0.02249   0.02920  -1.06954
    Z1        0.01584  -0.00534   0.00000  -0.02920  -0.04324  -0.02740
    X2        0.40393  -0.00843   0.00000  -0.03008  -0.02311   0.38082
    Y2       -2.88988   0.00558   0.00000   0.02155   0.02845  -2.86143
    Z2       -0.05891   0.00273   0.00000   0.03602   0.02191  -0.03700
    X3       -2.68330   0.00182   0.00000   0.02355   0.03018  -2.65312
    Y3       -1.11587  -0.00398   0.00000  -0.01323  -0.00693  -1.12280
    Z3       -0.06110   0.00248   0.00000   0.03534   0.02124  -0.03986
    X4        0.63006   0.01033   0.00000   0.00615   0.01234   0.64240
    Y4        1.09230   0.00910   0.00000   0.00579   0.01274   1.10505
    Z4        0.01309  -0.00616   0.00000  -0.02857  -0.04245  -0.02937
    X5       -0.30992   0.00309   0.00000  -0.00426   0.00158  -0.30835
    Y5        2.95873  -0.01433   0.00000  -0.04531  -0.03854   2.92019
    Z5       -0.06702   0.00306   0.00000   0.03543   0.02163  -0.04540
    X6        2.73668  -0.02021   0.00000  -0.05413  -0.04795   2.68873
    Y6        1.21669  -0.00516   0.00000  -0.03229  -0.02493   1.19176
    Z6       -0.06465   0.00323   0.00000   0.03474   0.02092  -0.04373
         Item               Value     Threshold  Converged?
 Maximum Force            0.020214     0.000450     NO 
 RMS     Force            0.008556     0.000300     NO 
 Maximum Displacement     0.047952     0.001800     NO 
 RMS     Displacement     0.028003     0.001200     NO 
 Predicted change in Energy=-1.845830D-03
 GradGradGradGradGradGradGradGradGradGradGradGradGradGradGradGradGradGrad

 Unable to Open any file for archive entry.
 1\1\GINC-BHD0002\Force\RwB97XD\6-311G\C2H4\BWEIGHT\11-Jan-2023\0\\# WB
 97XD/6-311G SCF=XQC FORCE nosym pop=full guess=read\\MD Step 1000\\0,1
 \C,-0.33582817,-0.58142627,0.00838165\H,0.21375079,-1.52925898,-0.0311
 7565\H,-1.41994216,-0.59049334,-0.03233153\C,0.33341212,0.57802172,0.0
 0692582\H,-0.16400444,1.56569474,-0.03546765\H,1.4481913,0.64384535,-0
 .03420935\\Version=ES64L-G16RevC.01\HF=-78.5554654\RMSD=6.071e-09\RMSF
 =8.556e-03\Dipole=-0.0010147,0.0059458,-0.0533567\Quadrupole=0.8610727
 ,0.8535859,-1.7146586,0.0101638,-0.000555,-0.0036065\PG=C01 [X(C2H4)]\
 \@
 The archive entry for this job was punched.


 THE PROMISED LAND ALWAYS LIES ON THE OTHER SIDE OF A WILDERNESS.

                         -- HAVELOCK ELLIS
 Job cpu time:       0 days  0 hours  0 minutes 47.0 seconds.
 Elapsed time:       0 days  0 hours  0 minutes 17.1 seconds.
 File lengths (MBytes):  RWF=    272 Int=      0 D2E=      0 Chk=     32 Scr=     32
 Normal termination of Gaussian 16 at Wed Jan 11 18:34:17 2023.
