 Entering Gaussian System, Link 0=g16
 Initial command:
 /software/gaussian/g16-c01/avx2/g16/l1.exe "/gpfs/fs2/scratch/bweight/software/many_molecule_many_mode_NAMD/src/NAMD/TEST_NVT/TRAJ/traj-78/G16/GS_NEW/Gau-10088.inp" -scrdir="/gpfs/fs2/scratch/bweight/software/many_molecule_many_mode_NAMD/src/NAMD/TEST_NVT/TRAJ/traj-78/G16/GS_NEW/"
 Entering Link 1 = /software/gaussian/g16-c01/avx2/g16/l1.exe PID=     10089.
  
 Copyright (c) 1988-2019, Gaussian, Inc.  All Rights Reserved.
  
 This is part of the Gaussian(R) 16 program.  It is based on
 the Gaussian(R) 09 system (copyright 2009, Gaussian, Inc.),
 the Gaussian(R) 03 system (copyright 2003, Gaussian, Inc.),
 the Gaussian(R) 98 system (copyright 1998, Gaussian, Inc.),
 the Gaussian(R) 94 system (copyright 1995, Gaussian, Inc.),
 the Gaussian 92(TM) system (copyright 1992, Gaussian, Inc.),
 the Gaussian 90(TM) system (copyright 1990, Gaussian, Inc.),
 the Gaussian 88(TM) system (copyright 1988, Gaussian, Inc.),
 the Gaussian 86(TM) system (copyright 1986, Carnegie Mellon
 University), and the Gaussian 82(TM) system (copyright 1983,
 Carnegie Mellon University). Gaussian is a federally registered
 trademark of Gaussian, Inc.
  
 This software contains proprietary and confidential information,
 including trade secrets, belonging to Gaussian, Inc.
  
 This software is provided under written license and may be
 used, copied, transmitted, or stored only in accord with that
 written license.
  
 The following legend is applicable only to US Government
 contracts under FAR:
  
                    RESTRICTED RIGHTS LEGEND
  
 Use, reproduction and disclosure by the US Government is
 subject to restrictions as set forth in subparagraphs (a)
 and (c) of the Commercial Computer Software - Restricted
 Rights clause in FAR 52.227-19.
  
 Gaussian, Inc.
 340 Quinnipiac St., Bldg. 40, Wallingford CT 06492
  
  
 ---------------------------------------------------------------
 Warning -- This program may not be used in any manner that
 competes with the business of Gaussian, Inc. or will provide
 assistance to any competitor of Gaussian, Inc.  The licensee
 of this program is prohibited from giving any competitor of
 Gaussian, Inc. access to this program.  By using this program,
 the user acknowledges that Gaussian, Inc. is engaged in the
 business of creating and licensing software in the field of
 computational chemistry and represents and warrants to the
 licensee that it is not a competitor of Gaussian, Inc. and that
 it will not use this program in any manner prohibited above.
 ---------------------------------------------------------------
  

 Cite this work as:
 Gaussian 16, Revision C.01,
 M. J. Frisch, G. W. Trucks, H. B. Schlegel, G. E. Scuseria, 
 M. A. Robb, J. R. Cheeseman, G. Scalmani, V. Barone, 
 G. A. Petersson, H. Nakatsuji, X. Li, M. Caricato, A. V. Marenich, 
 J. Bloino, B. G. Janesko, R. Gomperts, B. Mennucci, H. P. Hratchian, 
 J. V. Ortiz, A. F. Izmaylov, J. L. Sonnenberg, D. Williams-Young, 
 F. Ding, F. Lipparini, F. Egidi, J. Goings, B. Peng, A. Petrone, 
 T. Henderson, D. Ranasinghe, V. G. Zakrzewski, J. Gao, N. Rega, 
 G. Zheng, W. Liang, M. Hada, M. Ehara, K. Toyota, R. Fukuda, 
 J. Hasegawa, M. Ishida, T. Nakajima, Y. Honda, O. Kitao, H. Nakai, 
 T. Vreven, K. Throssell, J. A. Montgomery, Jr., J. E. Peralta, 
 F. Ogliaro, M. J. Bearpark, J. J. Heyd, E. N. Brothers, K. N. Kudin, 
 V. N. Staroverov, T. A. Keith, R. Kobayashi, J. Normand, 
 K. Raghavachari, A. P. Rendell, J. C. Burant, S. S. Iyengar, 
 J. Tomasi, M. Cossi, J. M. Millam, M. Klene, C. Adamo, R. Cammi, 
 J. W. Ochterski, R. L. Martin, K. Morokuma, O. Farkas, 
 J. B. Foresman, and D. J. Fox, Gaussian, Inc., Wallingford CT, 2019.
 
 ******************************************
 Gaussian 16:  ES64L-G16RevC.01  3-Jul-2019
                11-Jan-2023 
 ******************************************
 %oldchk=../GS_OLD/geometry.chk
 %chk=geometry.chk
 %nprocshared=4
 Will use up to    4 processors via shared memory.
 %mem=5GB
 Copying data from "../GS_OLD/geometry.chk" to current chk file "geometry.chk"
 IOpt=  2 FromEx=T IUOpen= 4 IOptOp= 5 NList=   0 IFRang= 0 IUIn= 4 IUOut= 2.
 -------------------------------------------------------
 # WB97XD/6-311G SCF=XQC FORCE nosym pop=full guess=read
 -------------------------------------------------------
 1/10=7,30=1,38=1/1,3;
 2/12=2,15=1,17=6,18=5,40=1/2;
 3/5=4,6=6,11=2,25=1,30=1,71=1,74=-58,116=-2/1,2,3;
 4/5=1/1;
 5/5=2,8=3,13=1,38=6/2,8;
 6/7=3,28=1/1;
 7/29=1,30=1/1,2,3,16;
 1/10=7,30=1/3;
 99//99;
 -----------
 MD Step 999
 -----------
 Symbolic Z-matrix:
 Charge =  0 Multiplicity = 1
 C                    -0.33589  -0.58099   0.00388 
 H                     0.21453  -1.53539  -0.00968 
 H                    -1.4214   -0.58727  -0.00952 
 C                     0.33291   0.57704   0.00325 
 H                    -0.1639    1.56252  -0.01201 
 H                     1.44783   0.64865  -0.01226 
 

 GradGradGradGradGradGradGradGradGradGradGradGradGradGradGradGradGradGrad
 Berny optimization.
 Initialization pass.
 Trust Radius=3.00D-01 FncErr=1.00D-07 GrdErr=1.00D-07 EigMax=2.50D+02 EigMin=1.00D-04
 Number of steps in this run=      2 maximum allowed number of steps=      2.
 GradGradGradGradGradGradGradGradGradGradGradGradGradGradGradGradGradGrad

                          Input orientation:                          
 ---------------------------------------------------------------------
 Center     Atomic      Atomic             Coordinates (Angstroms)
 Number     Number       Type             X           Y           Z
 ---------------------------------------------------------------------
      1          6           0       -0.335893   -0.580986    0.003880
      2          1           0        0.214525   -1.535391   -0.009676
      3          1           0       -1.421399   -0.587268   -0.009521
      4          6           0        0.332908    0.577041    0.003251
      5          1           0       -0.163904    1.562525   -0.012010
      6          1           0        1.447833    0.648646   -0.012255
 ---------------------------------------------------------------------
                    Distance matrix (angstroms):
                    1          2          3          4          5
     1  C    0.000000
     2  H    1.101831   0.000000
     3  H    1.085607   1.890816   0.000000
     4  C    1.337281   2.115786   2.105557   0.000000
     5  H    2.150458   3.120945   2.490563   1.103736   0.000000
     6  H    2.166549   2.508201   3.124097   1.117330   1.852801
                    6
     6  H    0.000000
 Symmetry turned off by external request.
 Stoichiometry    C2H4
 Framework group  C1[X(C2H4)]
 Deg. of freedom    12
 Full point group                 C1      NOp   1
 Rotational constants (GHZ):         143.0776343          29.6766270          24.5803373
 Standard basis: 6-311G (5D, 7F)
    38 basis functions,    72 primitive gaussians,    38 cartesian basis functions
     8 alpha electrons        8 beta electrons
       nuclear repulsion energy        33.0486428095 Hartrees.
 NAtoms=    6 NActive=    6 NUniq=    6 SFac= 1.00D+00 NAtFMM=   60 NAOKFM=F Big=F
 Integral buffers will be    131072 words long.
 Raffenetti 2 integral format.
 Two-electron integral symmetry is turned off.
 Nuclear repulsion after empirical dispersion term =       33.0478011373 Hartrees.
 One-electron integrals computed using PRISM.
 NBasis=    38 RedAO= T EigKep=  6.42D-03  NBF=    38
 NBsUse=    38 1.00D-06 EigRej= -1.00D+00 NBFU=    38
 Initial guess from the checkpoint file:  "geometry.chk"
 B after Tr=    -0.000197   -0.000336   -0.000339
         Rot=    1.000000    0.000001    0.000000    0.000006 Ang=   0.00 deg.
 Keep R1 ints in memory in canonical form, NReq=4036876.
 Requested convergence on RMS density matrix=1.00D-08 within  32 cycles.
 Requested convergence on MAX density matrix=1.00D-06.
 Requested convergence on             energy=1.00D-06.
 No special actions if energy rises.
 SCF Done:  E(RwB97XD) =  -78.5557511923     A.U. after    8 cycles
            NFock=  8  Conv=0.45D-08     -V/T= 2.0053
 QCSCF skips out because SCF is already converged.

 **********************************************************************

            Population analysis using the SCF Density.

 **********************************************************************

 Alpha  occ. eigenvalues --  -10.29072 -10.28838  -0.86374  -0.67169  -0.55877
 Alpha  occ. eigenvalues --   -0.50954  -0.43596  -0.35706
 Alpha virt. eigenvalues --    0.08014   0.14075   0.16424   0.16965   0.24066
 Alpha virt. eigenvalues --    0.37440   0.39241   0.39853   0.46328   0.48722
 Alpha virt. eigenvalues --    0.49361   0.59101   0.66513   0.68988   0.77226
 Alpha virt. eigenvalues --    0.77544   0.84477   0.95277   2.23203   2.28963
 Alpha virt. eigenvalues --    2.33247   2.40713   2.67106   2.81812   2.87784
 Alpha virt. eigenvalues --    2.95184   3.14069   3.31814  23.35113  23.70607
     Molecular Orbital Coefficients:
                           1         2         3         4         5
                           O         O         O         O         O
     Eigenvalues --   -10.29072 -10.28838  -0.86374  -0.67169  -0.55877
   1 1   C  1S          0.10848   0.55286  -0.08841   0.06674  -0.00063
   2        2S          0.08948   0.45498  -0.13974   0.10690  -0.00103
   3        2PX         0.00016  -0.00002   0.02574   0.03718   0.13798
   4        2PY         0.00028  -0.00002   0.04684   0.06000  -0.07266
   5        2PZ         0.00000  -0.00000  -0.00056   0.00080   0.00007
   6        3S          0.00195   0.01449   0.37483  -0.29173   0.00287
   7        3PX        -0.00060   0.00043   0.03388   0.05949   0.21612
   8        3PY        -0.00103   0.00079   0.06141   0.09741  -0.11493
   9        3PZ        -0.00001  -0.00001  -0.00092   0.00144   0.00009
  10        4S          0.00311  -0.01471   0.19181  -0.22702   0.00244
  11        4PX         0.00147  -0.00155   0.00466   0.02342   0.11215
  12        4PY         0.00253  -0.00271   0.00871   0.04059  -0.06090
  13        4PZ         0.00000   0.00004  -0.00033   0.00074   0.00004
  14 2   H  1S         -0.00005  -0.00005   0.05180  -0.08702   0.10138
  15        2S         -0.00030   0.00010   0.05335  -0.10512   0.12871
  16        3S          0.00084   0.00165  -0.00175  -0.01505   0.04170
  17 3   H  1S         -0.00005  -0.00007   0.05397  -0.09134  -0.10547
  18        2S         -0.00030   0.00009   0.05467  -0.10934  -0.13272
  19        3S          0.00087   0.00171  -0.00173  -0.01630  -0.04293
  20 4   C  1S          0.55285  -0.10867  -0.08690  -0.06834  -0.00046
  21        2S          0.45504  -0.08923  -0.13722  -0.10959  -0.00074
  22        2PX        -0.00003  -0.00016  -0.02817   0.03675   0.11754
  23        2PY        -0.00003  -0.00028  -0.04677   0.06685  -0.07490
  24        2PZ        -0.00000   0.00000  -0.00049  -0.00099   0.00007
  25        3S          0.01400  -0.00366   0.36768   0.29946   0.00209
  26        3PX        -0.00021   0.00073  -0.03544   0.05987   0.18431
  27        3PY        -0.00032   0.00126  -0.05857   0.10792  -0.11620
  28        3PZ        -0.00002  -0.00000  -0.00086  -0.00178   0.00011
  29        4S         -0.01215   0.00854   0.18895   0.23805   0.00074
  30        4PX         0.00088  -0.00193  -0.00561   0.02658   0.10163
  31        4PY         0.00145  -0.00335  -0.00896   0.04557  -0.06262
  32        4PZ         0.00003  -0.00001  -0.00035  -0.00091   0.00005
  33 5   H  1S         -0.00006  -0.00004   0.05007   0.09384  -0.09045
  34        2S         -0.00002  -0.00031   0.05113   0.11218  -0.11423
  35        3S          0.00181   0.00012  -0.00113   0.01701  -0.03677
  36 6   H  1S         -0.00004  -0.00004   0.04816   0.09099   0.08526
  37        2S         -0.00003  -0.00032   0.05005   0.10948   0.10832
  38        3S          0.00175   0.00013  -0.00122   0.01609   0.03517
                           6         7         8         9        10
                           O         O         O         V         V
     Eigenvalues --    -0.50954  -0.43596  -0.35706   0.08014   0.14075
   1 1   C  1S         -0.00373   0.00025  -0.00040   0.00119  -0.03313
   2        2S         -0.00559   0.00042  -0.00065   0.00198  -0.05314
   3        2PX         0.09377  -0.11085  -0.00147   0.00054  -0.03071
   4        2PY         0.16831   0.06600  -0.00257   0.00102  -0.06513
   5        2PZ         0.00224   0.00002   0.17952  -0.18916  -0.00097
   6        3S          0.02112  -0.00091   0.00188  -0.00603   0.11549
   7        3PX         0.13592  -0.17682  -0.00207   0.00083  -0.03587
   8        3PY         0.24613   0.10626  -0.00362   0.00152  -0.08074
   9        3PZ         0.00355   0.00005   0.28859  -0.27809  -0.00158
  10        4S         -0.05265  -0.00409   0.00311  -0.00626   1.21319
  11        4PX         0.06838  -0.11075  -0.00161   0.00525  -0.18984
  12        4PY         0.12527   0.06687  -0.00286   0.00936  -0.38691
  13        4PZ         0.00200   0.00005   0.26697  -0.69664  -0.00546
  14 2   H  1S         -0.08130  -0.11515   0.00008   0.00182  -0.01735
  15        2S         -0.11270  -0.17848   0.00087   0.00286  -0.04858
  16        3S         -0.04216  -0.08282   0.00055   0.00786  -0.83591
  17 3   H  1S         -0.07834   0.11278   0.00007   0.00184  -0.01260
  18        2S         -0.10779   0.17346   0.00087   0.00287  -0.03720
  19        3S         -0.03995   0.08005   0.00055   0.00767  -0.75833
  20 4   C  1S         -0.00817  -0.00054  -0.00041  -0.00124  -0.03648
  21        2S         -0.01277  -0.00089  -0.00067  -0.00205  -0.05858
  22        2PX        -0.09858   0.12447   0.00156   0.00090   0.04209
  23        2PY        -0.16200  -0.07308   0.00274   0.00146   0.06130
  24        2PZ         0.00246   0.00003   0.17930   0.18958  -0.00151
  25        3S          0.04146   0.00242   0.00200   0.00612   0.12944
  26        3PX        -0.14606   0.19978   0.00220   0.00136   0.05200
  27        3PY        -0.23794  -0.11604   0.00385   0.00223   0.07256
  28        3PZ         0.00389   0.00004   0.28697   0.27789  -0.00227
  29        4S         -0.03095   0.00409   0.00295   0.00785   1.24789
  30        4PX        -0.07639   0.12820   0.00177   0.00638   0.26865
  31        4PY        -0.12275  -0.07394   0.00312   0.01065   0.41161
  32        4PZ         0.00227   0.00001   0.26719   0.69772  -0.00906
  33 5   H  1S         -0.07415  -0.12436   0.00007  -0.00189  -0.01211
  34        2S         -0.10135  -0.19386   0.00096  -0.00320  -0.03740
  35        3S         -0.03780  -0.09106   0.00051  -0.00820  -0.81685
  36 6   H  1S         -0.08059   0.12413   0.00006  -0.00191  -0.01676
  37        2S         -0.11074   0.19498   0.00095  -0.00329  -0.04858
  38        3S         -0.04152   0.09186   0.00049  -0.00856  -0.89539
                          11        12        13        14        15
                           V         V         V         V         V
     Eigenvalues --     0.16424   0.16965   0.24066   0.37440   0.39241
   1 1   C  1S          0.00152  -0.04569   0.00023   0.01011   0.00157
   2        2S          0.00245  -0.07447   0.00035   0.01400   0.00246
   3        2PX         0.09734  -0.01894   0.10028  -0.03651  -0.02409
   4        2PY        -0.05366  -0.03841  -0.05734  -0.06638   0.00963
   5        2PZ         0.00005  -0.00296  -0.00003  -0.00198  -0.00009
   6        3S         -0.00525   0.16861   0.00020   0.03159   0.00111
   7        3PX         0.13941  -0.01024   0.10623  -0.04637  -0.10604
   8        3PY        -0.07827  -0.02609  -0.06217  -0.09051   0.04871
   9        3PZ         0.00006  -0.00408  -0.00005  -0.00387  -0.00000
  10        4S         -0.06932   1.43608  -0.04143  -2.67785  -0.28873
  11        4PX         0.58026  -0.11110   1.16326  -1.57965  -0.56179
  12        4PY        -0.30912  -0.21542  -0.67234  -2.74142   0.09818
  13        4PZ         0.00036  -0.01933  -0.00003  -0.01872  -0.00128
  14 2   H  1S         -0.02989  -0.02592   0.01287  -0.05747   0.07683
  15        2S         -0.08168  -0.01940  -0.02432  -0.65939   0.78582
  16        3S         -1.01173  -1.01493  -1.53151  -0.30547  -0.35190
  17 3   H  1S          0.02903  -0.02532  -0.01546  -0.04922  -0.07525
  18        2S          0.08016  -0.02123   0.01702  -0.59082  -0.74811
  19        3S          1.10157  -1.00245   1.57900  -0.39908   0.24543
  20 4   C  1S          0.00140   0.04246  -0.00026  -0.01985  -0.00020
  21        2S          0.00224   0.06913  -0.00043  -0.03250  -0.00017
  22        2PX         0.10143  -0.02379  -0.10040  -0.04050  -0.03292
  23        2PY        -0.06134  -0.03706   0.05761  -0.07338   0.01034
  24        2PZ         0.00004   0.00304   0.00003   0.00163   0.00027
  25        3S         -0.00445  -0.15407   0.00040   0.04048  -0.00217
  26        3PX         0.14615  -0.01909  -0.11411  -0.09091  -0.11177
  27        3PY        -0.08715  -0.02682   0.06368  -0.16792   0.05184
  28        3PZ         0.00005   0.00421   0.00006   0.00225   0.00063
  29        4S         -0.06816  -1.33102   0.03499   3.34818   0.21559
  30        4PX         0.53674  -0.12218  -1.12649  -1.19125  -0.59281
  31        4PY        -0.33367  -0.19548   0.64631  -2.11526   0.01711
  32        4PZ         0.00033   0.01954   0.00005   0.01542   0.00200
  33 5   H  1S          0.03131   0.02516   0.00659   0.01179  -0.07773
  34        2S          0.06910   0.02274  -0.03248   0.08311  -0.75379
  35        3S          1.08419   0.93239  -1.52981   0.45404   0.48015
  36 6   H  1S         -0.03205   0.02584  -0.00468   0.00489   0.08974
  37        2S         -0.07065   0.02153   0.03559   0.02201   0.91782
  38        3S         -0.99280   0.94264   1.49258   0.46828  -0.45372
                          16        17        18        19        20
                           V         V         V         V         V
     Eigenvalues --     0.39853   0.46328   0.48722   0.49361   0.59101
   1 1   C  1S         -0.01788   0.01239  -0.04669   0.00032  -0.00026
   2        2S         -0.03151   0.02881  -0.07810   0.00065  -0.00047
   3        2PX         0.02496  -0.06208   0.01372   0.00033   0.00091
   4        2PY         0.04732  -0.10618   0.01547   0.00052   0.00138
   5        2PZ         0.00007  -0.00016   0.00073  -0.15186  -0.19262
   6        3S          0.07513  -0.33642   0.09473  -0.00500  -0.00008
   7        3PX         0.09665  -0.24408  -0.02942   0.00020   0.00302
   8        3PY         0.19025  -0.41498  -0.06703   0.00026   0.00470
   9        3PZ        -0.00196  -0.00179   0.00403  -0.62845  -0.68504
  10        4S          2.58021   0.09417   3.13164   0.00623   0.03054
  11        4PX         0.18071   0.21517   0.80469   0.00384   0.01045
  12        4PY         0.38680   0.42702   1.41903   0.00726   0.01637
  13        4PZ         0.00055   0.00102  -0.03188   0.68743   1.24121
  14 2   H  1S         -0.02457  -0.03327  -0.07710  -0.00041  -0.00075
  15        2S         -0.51786  -0.30934  -0.91125  -0.00201  -0.00570
  16        3S          0.28479   0.06917   0.65919   0.00640   0.01034
  17 3   H  1S         -0.03667  -0.03767  -0.07373  -0.00041  -0.00067
  18        2S         -0.63402  -0.36378  -0.88285  -0.00217  -0.00431
  19        3S          0.31537   0.07272   0.60524   0.00627   0.00993
  20 4   C  1S         -0.00156  -0.00267   0.05102   0.00086   0.00028
  21        2S         -0.00612   0.00319   0.08872   0.00159   0.00053
  22        2PX         0.00673   0.05437   0.02571  -0.00036   0.00092
  23        2PY         0.01632   0.09505   0.05037  -0.00056   0.00175
  24        2PZ        -0.00177  -0.00084   0.00083  -0.15278   0.19235
  25        3S          0.08018  -0.28630  -0.23135  -0.00741  -0.00084
  26        3PX        -0.04918   0.23227   0.05114  -0.00090   0.00331
  27        3PY        -0.06592   0.41060   0.09868  -0.00136   0.00604
  28        3PZ        -0.00504  -0.00333   0.00239  -0.63151   0.68255
  29        4S         -0.76918   0.77481  -3.09772  -0.01620  -0.02711
  30        4PX         1.18378  -0.37355   0.64023  -0.00037   0.00880
  31        4PY         2.19321  -0.59371   1.07086  -0.00150   0.01685
  32        4PZ        -0.01555  -0.00790   0.02294   0.69237  -1.23807
  33 5   H  1S         -0.05126  -0.06478   0.06330   0.00042   0.00069
  34        2S         -0.87675  -0.66059   0.79711   0.00800   0.00225
  35        3S         -0.16238   0.27391  -0.54484   0.00189  -0.01023
  36 6   H  1S         -0.03810  -0.06152   0.06510   0.00046   0.00074
  37        2S         -0.73294  -0.61465   0.80217   0.00802   0.00314
  38        3S         -0.20228   0.28898  -0.58606   0.00134  -0.01042
                          21        22        23        24        25
                           V         V         V         V         V
     Eigenvalues --     0.66513   0.68988   0.77226   0.77544   0.84477
   1 1   C  1S          0.00111  -0.00035   0.05816   0.06772   0.00077
   2        2S          0.00225  -0.00088   0.12287   0.14444   0.00174
   3        2PX        -0.13015   0.19856  -0.01451   0.11702  -0.00906
   4        2PY         0.07642  -0.12048  -0.02599   0.18828   0.01354
   5        2PZ         0.00002   0.00005   0.00048   0.00202   0.00010
   6        3S         -0.01665   0.01717  -0.85682  -1.26931  -0.01723
   7        3PX        -0.60758   0.69589  -0.13094   0.46402  -0.22724
   8        3PY         0.35266  -0.42182  -0.23174   0.73938   0.16541
   9        3PZ         0.00004   0.00022   0.00180   0.00706   0.00049
  10        4S          0.02529  -0.11273   0.94892   2.39670  -0.11072
  11        4PX         1.08875  -0.78400   0.09175  -0.76785   4.47604
  12        4PY        -0.63740   0.46298   0.10534  -1.01441  -2.61535
  13        4PZ        -0.00016   0.00075   0.00197  -0.02379  -0.00016
  14 2   H  1S          0.02264  -0.05923   0.01396   0.03118  -0.02714
  15        2S          0.12029  -0.62633   0.08095   0.07820  -1.55414
  16        3S         -1.03073   1.10699  -0.20337  -1.07389  -1.21861
  17 3   H  1S         -0.02186   0.05897   0.01368   0.03237   0.03016
  18        2S         -0.13385   0.67719   0.10568   0.05294   1.60126
  19        3S          1.01919  -1.07758  -0.20160  -1.23558   1.22543
  20 4   C  1S          0.00129  -0.00064   0.08678   0.02255   0.00068
  21        2S          0.00261  -0.00117   0.18462   0.04725   0.00142
  22        2PX        -0.15356  -0.18435  -0.08972   0.06103   0.01207
  23        2PY         0.08721   0.10120  -0.16432   0.11295   0.00053
  24        2PZ         0.00004  -0.00005   0.00230  -0.00071  -0.00012
  25        3S         -0.01872  -0.00141  -1.52459  -0.22307  -0.00925
  26        3PX        -0.68938  -0.61999  -0.31818   0.30979   0.24666
  27        3PY         0.39502   0.33758  -0.58858   0.56863  -0.10488
  28        3PZ         0.00012  -0.00020   0.00810  -0.00269  -0.00050
  29        4S          0.01990   0.08533   2.68497  -0.16312   0.09266
  30        4PX         1.28095   0.70876   0.47657  -0.28615  -4.21749
  31        4PY        -0.72620  -0.40091   0.94783  -0.75546   2.35251
  32        4PZ        -0.00030  -0.00067  -0.02307   0.01383   0.00051
  33 5   H  1S         -0.02583  -0.05536   0.03502  -0.00081  -0.02374
  34        2S         -0.15431  -0.57654   0.08095   0.06903  -1.42432
  35        3S          1.11990   0.96493  -1.13608   0.41034  -1.10340
  36 6   H  1S          0.02652   0.05492   0.03449   0.00036   0.02366
  37        2S          0.14399   0.52855   0.07388   0.01616   1.40132
  38        3S         -1.12555  -0.97666  -1.05204   0.32271   1.10775
                          26        27        28        29        30
                           V         V         V         V         V
     Eigenvalues --     0.95277   2.23203   2.28963   2.33247   2.40713
   1 1   C  1S          0.09569  -0.01008  -0.01427   0.00049  -0.00058
   2        2S          0.19884   0.00164  -0.01427   0.00114  -0.00060
   3        2PX        -0.09154  -0.08135  -0.13353   0.34321  -0.40785
   4        2PY        -0.15890  -0.15130  -0.23198  -0.19608   0.23544
   5        2PZ         0.00004  -0.00566  -0.00778  -0.00015  -0.00018
   6        3S         -1.54003  -0.18592  -0.03503  -0.00294  -0.00569
   7        3PX        -0.23576   0.07790   0.20968  -0.41186   0.56817
   8        3PY        -0.39927   0.16139   0.38169   0.23821  -0.33213
   9        3PZ        -0.00113   0.00562   0.00978   0.00023   0.00018
  10        4S          5.71151  -0.10905  -0.88424   0.00505  -0.04242
  11        4PX         1.20912   0.05680  -0.19065  -0.03827   0.97187
  12        4PY         1.98632   0.06506  -0.35732   0.01416  -0.54692
  13        4PZ        -0.00791   0.00114   0.00353  -0.00015   0.00036
  14 2   H  1S          0.01574  -0.71078  -0.79061  -0.70550   0.65377
  15        2S         -0.29507   1.00997   1.18535   1.08212  -1.45712
  16        3S         -0.08956  -0.30747  -0.47536  -0.47219   0.37263
  17 3   H  1S          0.01590  -0.70712  -0.78458   0.69426  -0.67835
  18        2S         -0.25815   1.00823   1.17922  -1.07137   1.50965
  19        3S         -0.07367  -0.28312  -0.45525   0.45885  -0.36355
  20 4   C  1S         -0.09403  -0.01016   0.01210   0.00055   0.00041
  21        2S         -0.19507   0.00060   0.01207   0.00091   0.00058
  22        2PX        -0.09285   0.13169  -0.12437   0.30802   0.41778
  23        2PY        -0.15991   0.23051  -0.21098  -0.17737  -0.23611
  24        2PZ         0.00011  -0.00703   0.00815  -0.00003  -0.00001
  25        3S          1.50765  -0.17053   0.01876  -0.00105   0.00122
  26        3PX        -0.22758  -0.16935   0.21602  -0.38601  -0.58662
  27        3PY        -0.40024  -0.28877   0.35539   0.21858   0.32957
  28        3PZ         0.00158   0.00761  -0.01040   0.00008   0.00002
  29        4S         -5.68984  -0.16290   0.88352   0.01488   0.02785
  30        4PX         1.10216  -0.01069  -0.20004   0.10498  -0.86478
  31        4PY         1.99476  -0.03558  -0.32329  -0.05769   0.49953
  32        4PZ         0.00611   0.00222  -0.00290  -0.00013  -0.00029
  33 5   H  1S         -0.01800  -0.78825   0.67909   0.70447   0.68481
  34        2S          0.28530   1.14444  -1.03534  -1.02612  -1.46117
  35        3S          0.05861  -0.35371   0.40442   0.50881   0.42271
  36 6   H  1S         -0.01799  -0.77748   0.70213  -0.69715  -0.67940
  37        2S          0.31486   1.12464  -1.06559   1.01043   1.44223
  38        3S          0.06533  -0.35689   0.43240  -0.50960  -0.43136
                          31        32        33        34        35
                           V         V         V         V         V
     Eigenvalues --     2.67106   2.81812   2.87784   2.95184   3.14069
   1 1   C  1S          0.00020   0.00114  -0.01351   0.00021  -0.00944
   2        2S          0.00012   0.00334  -0.04484   0.00022  -0.02914
   3        2PX         0.00166   0.03272  -0.47516  -0.73172   0.45137
   4        2PY         0.00311   0.05752  -0.84815   0.41006   0.79047
   5        2PZ        -0.92415  -0.93848  -0.06268  -0.00021   0.00275
   6        3S         -0.00026  -0.02785   0.39447   0.00040   0.24602
   7        3PX        -0.00078  -0.05720   0.84471   0.87978  -0.43837
   8        3PY        -0.00174  -0.09953   1.48242  -0.48116  -0.76539
   9        3PZ         0.93903   1.14777   0.07877   0.00037  -0.00347
  10        4S          0.00484   0.06410  -0.88627  -0.00544  -0.48000
  11        4PX        -0.00143   0.04628  -0.72042  -0.66569   0.22532
  12        4PY        -0.00179   0.08070  -1.27428   0.35650   0.38860
  13        4PZ        -0.33767  -0.62274  -0.04991  -0.00034   0.00206
  14 2   H  1S          0.00534  -0.00989   0.26834  -0.37739  -0.21679
  15        2S         -0.00611   0.00675  -0.22862   0.38983   0.16428
  16        3S         -0.00124   0.01816  -0.29421   0.26839   0.06253
  17 3   H  1S          0.00538  -0.00933   0.25446   0.37807  -0.21646
  18        2S         -0.00621   0.00560  -0.20161  -0.38521   0.16391
  19        3S         -0.00160   0.01899  -0.30436  -0.28766   0.06886
  20 4   C  1S          0.00025  -0.00114   0.01382   0.00068  -0.00729
  21        2S          0.00027  -0.00350   0.04838   0.00149  -0.02302
  22        2PX        -0.00395   0.03005  -0.41394  -0.80172  -0.50218
  23        2PY        -0.00647   0.05323  -0.73917   0.44845  -0.88643
  24        2PZ        -0.92549   0.93680   0.06556   0.00046   0.00620
  25        3S         -0.00165   0.03005  -0.43472  -0.01099   0.19906
  26        3PX         0.00436  -0.05424   0.77631   0.95406   0.53491
  27        3PY         0.00703  -0.09577   1.37887  -0.52777   0.95309
  28        3PZ         0.94095  -1.14617  -0.08246  -0.00052  -0.00787
  29        4S          0.00791  -0.06562   0.91358   0.03014  -0.37938
  30        4PX        -0.00084   0.04588  -0.71453  -0.69503  -0.32438
  31        4PY        -0.00142   0.08052  -1.25044   0.37810  -0.57929
  32        4PZ        -0.33870   0.62194   0.05257   0.00033   0.00613
  33 5   H  1S          0.00524   0.01197  -0.29147   0.41834  -0.26046
  34        2S         -0.00649  -0.00944   0.26156  -0.42929   0.20376
  35        3S         -0.00063  -0.01772   0.28743  -0.24614   0.12162
  36 6   H  1S          0.00534   0.01242  -0.29484  -0.42672  -0.25113
  37        2S         -0.00678  -0.01038   0.27526   0.43835   0.19781
  38        3S         -0.00037  -0.01632   0.26570   0.24279   0.11614
                          36        37        38
                           V         V         V
     Eigenvalues --     3.31814  23.35113  23.70607
   1 1   C  1S         -0.00063  -1.41538  -1.45093
   2        2S         -0.00091   1.50944   1.56904
   3        2PX         0.78253  -0.00663   0.01196
   4        2PY        -0.43975  -0.01059   0.02134
   5        2PZ         0.00017  -0.00023  -0.00010
   6        3S          0.00157  -0.29607  -0.39943
   7        3PX        -1.11795   0.02439  -0.05551
   8        3PY         0.62376   0.03979  -0.09737
   9        3PZ        -0.00029   0.00066   0.00030
  10        4S         -0.02964   0.27356   0.76949
  11        4PX         1.96712  -0.02658   0.13246
  12        4PY        -1.10504  -0.04376   0.23056
  13        4PZ         0.00042  -0.00108  -0.00129
  14 2   H  1S          0.55674   0.01258   0.00635
  15        2S         -0.87096   0.00815  -0.01413
  16        3S         -0.45850  -0.08361  -0.03867
  17 3   H  1S         -0.57117   0.01494   0.00829
  18        2S          0.89101   0.00719  -0.01507
  19        3S          0.48636  -0.08639  -0.03998
  20 4   C  1S          0.00037  -1.44611   1.42016
  21        2S          0.00026   1.54231  -1.53586
  22        2PX        -0.71181   0.00583   0.01280
  23        2PY         0.40668   0.01080   0.02147
  24        2PZ        -0.00009  -0.00026   0.00007
  25        3S          0.00213  -0.30251   0.39116
  26        3PX         1.01245  -0.02181  -0.05705
  27        3PY        -0.58681  -0.03962  -0.09737
  28        3PZ         0.00017   0.00074  -0.00018
  29        4S          0.00684   0.27912  -0.76130
  30        4PX        -1.79451   0.02270   0.13256
  31        4PY         1.04039   0.04282   0.22723
  32        4PZ        -0.00024  -0.00122   0.00106
  33 5   H  1S          0.49032   0.01332  -0.00486
  34        2S         -0.76798   0.00800   0.01384
  35        3S         -0.43041  -0.08333   0.03772
  36 6   H  1S         -0.48147   0.01130  -0.00307
  37        2S          0.75779   0.00968   0.01264
  38        3S          0.41684  -0.08096   0.03604
     Density Matrix:
                           1         2         3         4         5
   1 1   C  1S          0.65940
   2        2S          0.56151   0.49200
   3        2PX        -0.00050  -0.00066   0.08433
   4        2PY        -0.00136  -0.00190   0.00376   0.08753
   5        2PZ         0.00004   0.00007  -0.00006  -0.00013   0.06447
   6        3S         -0.08893  -0.15384   0.00255   0.00667  -0.00011
   7        3PX         0.00093   0.00143   0.13051   0.00133  -0.00006
   8        3PY         0.00116   0.00178   0.00130   0.13104  -0.00012
   9        3PZ         0.00008   0.00014  -0.00011  -0.00021   0.10364
  10        4S         -0.07942  -0.11439  -0.01531  -0.02790   0.00031
  11        4PX         0.00020   0.00147   0.07031  -0.00464  -0.00023
  12        4PY         0.00061   0.00302  -0.00466   0.06555  -0.00042
  13        4PZ        -0.00003  -0.00009  -0.00037  -0.00064   0.09587
  14 2   H  1S         -0.02042  -0.03254   0.03446  -0.06289  -0.00052
  15        2S         -0.02282  -0.03650   0.04888  -0.08782  -0.00041
  16        3S          0.00053  -0.00076   0.02075  -0.03316  -0.00001
  17 3   H  1S         -0.02105  -0.03350  -0.07281  -0.00206  -0.00054
  18        2S         -0.02317  -0.03700  -0.10062  -0.00211  -0.00042
  19        3S          0.00060  -0.00069  -0.03839   0.00124  -0.00001
  20 4   C  1S          0.00609   0.00982  -0.01091  -0.01878  -0.00020
  21        2S          0.00979   0.01529  -0.01746  -0.03005  -0.00032
  22        2PX         0.01035   0.01654  -0.01237  -0.03208   0.00023
  23        2PY         0.01814   0.02900  -0.03230  -0.04967   0.00040
  24        2PZ        -0.00021  -0.00033  -0.00015  -0.00027   0.06439
  25        3S         -0.02636  -0.04002   0.04901   0.08435   0.00097
  26        3PX         0.01598   0.02475  -0.01820  -0.04573   0.00031
  27        3PY         0.02795   0.04333  -0.04597  -0.07109   0.00053
  28        3PZ        -0.00035  -0.00056  -0.00027  -0.00047   0.10305
  29        4S          0.00540   0.00403   0.02091   0.03626   0.00109
  30        4PX         0.00310   0.00641  -0.01302  -0.02090   0.00036
  31        4PY         0.00523   0.01089  -0.02099  -0.03737   0.00064
  32        4PZ        -0.00029  -0.00047  -0.00044  -0.00076   0.09594
  33 5   H  1S          0.00422   0.00693  -0.00174  -0.01228  -0.00023
  34        2S          0.00638   0.01061   0.00342  -0.02486  -0.00001
  35        3S          0.00328   0.00481   0.00416  -0.01747   0.00003
  36 6   H  1S          0.00413   0.00678  -0.00986  -0.00770  -0.00023
  37        2S          0.00619   0.01030  -0.02339  -0.00946  -0.00001
  38        3S          0.00319   0.00468  -0.01731  -0.00515   0.00003
                           6         7         8         9        10
   6        3S          0.45254
   7        3PX        -0.00201   0.20228
   8        3PY        -0.00125  -0.00458   0.19671
   9        3PZ        -0.00030  -0.00010  -0.00018   0.16660
  10        4S          0.27364  -0.02586  -0.04807   0.00041   0.18272
  11        4PX        -0.00648   0.10934  -0.01051  -0.00037  -0.01455
  12        4PY        -0.01241  -0.01049   0.09886  -0.00066  -0.02904
  13        4PZ         0.00041  -0.00050  -0.00084   0.15411   0.00099
  14 2   H  1S          0.08697   0.05560  -0.09839  -0.00087   0.06939
  15        2S          0.09763   0.07922  -0.13693  -0.00069   0.08215
  16        3S          0.00613   0.03394  -0.05109  -0.00002   0.01144
  17 3   H  1S          0.08963  -0.11398  -0.00152  -0.00089   0.06899
  18        2S          0.09915  -0.15732  -0.00028  -0.00069   0.07990
  19        3S          0.00619  -0.05978   0.00383  -0.00001   0.01004
  20 4   C  1S         -0.02661  -0.01701  -0.02932  -0.00034   0.00519
  21        2S         -0.04028  -0.02644  -0.04558  -0.00055   0.00392
  22        2PX        -0.04627  -0.01755  -0.04541   0.00040  -0.01754
  23        2PY        -0.08120  -0.04579  -0.07080   0.00069  -0.03098
  24        2PZ         0.00099  -0.00021  -0.00035   0.10351   0.00112
  25        3S          0.10263   0.07183   0.12390   0.00163   0.00092
  26        3PX        -0.06694  -0.02598  -0.06451   0.00053  -0.02614
  27        3PY        -0.11733  -0.06501  -0.10128   0.00092  -0.04605
  28        3PZ         0.00164  -0.00037  -0.00063   0.16566   0.00185
  29        4S          0.00166   0.03160   0.05507   0.00182  -0.03268
  30        4PX        -0.02264  -0.01940  -0.02925   0.00060  -0.00666
  31        4PY        -0.03879  -0.02949  -0.05400   0.00106  -0.01078
  32        4PZ         0.00137  -0.00060  -0.00105   0.15423   0.00170
  33 5   H  1S         -0.02064  -0.00071  -0.01771  -0.00033  -0.01501
  34        2S         -0.03172   0.00844  -0.03670   0.00003  -0.01961
  35        3S         -0.01240   0.00798  -0.02634   0.00006  -0.00360
  36 6   H  1S         -0.02012  -0.01486  -0.00925  -0.00034  -0.01495
  37        2S         -0.03077  -0.03583  -0.01050   0.00002  -0.01990
  38        3S         -0.01201  -0.02674  -0.00602   0.00005  -0.00397
                          11        12        13        14        15
  11        4PX         0.06019
  12        4PY        -0.00933   0.05124
  13        4PZ        -0.00056  -0.00097   0.14256
  14 2   H  1S          0.03353  -0.05428  -0.00045   0.08081
  15        2S          0.04856  -0.07539  -0.00018   0.10935   0.15004
  16        3S          0.02121  -0.02798   0.00010   0.03682   0.05278
  17 3   H  1S         -0.06312   0.00183  -0.00044  -0.01313  -0.02479
  18        2S         -0.08755   0.00443  -0.00016  -0.02464  -0.04297
  19        3S         -0.03361   0.00456   0.00012  -0.01799  -0.02738
  20 4   C  1S         -0.00314  -0.00573  -0.00030   0.00421   0.00666
  21        2S         -0.00651  -0.01172  -0.00049   0.00695   0.01111
  22        2PX        -0.01323  -0.01989   0.00054   0.00188  -0.00268
  23        2PY        -0.02008  -0.03664   0.00093   0.01150   0.02428
  24        2PZ        -0.00028  -0.00050   0.09575  -0.00024  -0.00008
  25        3S          0.02309   0.04125   0.00143  -0.02090  -0.03340
  26        3PX        -0.02042  -0.02810   0.00074   0.00102  -0.00731
  27        3PY        -0.02841  -0.05327   0.00128   0.01700   0.03621
  28        3PZ        -0.00047  -0.00083   0.15324  -0.00035  -0.00008
  29        4S          0.00786   0.01519   0.00168  -0.01761  -0.02417
  30        4PX        -0.01485  -0.01231   0.00071  -0.00171  -0.00857
  31        4PY        -0.01240  -0.02946   0.00124   0.01543   0.02741
  32        4PZ        -0.00059  -0.00104   0.14267  -0.00019   0.00012
  33 5   H  1S          0.00198  -0.01570  -0.00017   0.01122   0.02344
  34        2S          0.00918  -0.02741   0.00021   0.02374   0.04451
  35        3S          0.00754  -0.01580   0.00014   0.01659   0.02786
  36 6   H  1S         -0.01468  -0.00575  -0.00017  -0.00904  -0.01819
  37        2S         -0.02844  -0.00511   0.00022  -0.01880  -0.03443
  38        3S         -0.01739  -0.00111   0.00013  -0.01020  -0.01789
                          16        17        18        19        20
  16        3S          0.02122
  17 3   H  1S         -0.01831   0.08247
  18        2S         -0.02761   0.10988   0.14854
  19        3S         -0.01297   0.03616   0.05116   0.02024
  20 4   C  1S          0.00367   0.00432   0.00679   0.00372   0.65947
  21        2S          0.00541   0.00713   0.01131   0.00547   0.56156
  22        2PX        -0.00351   0.00897   0.02212   0.01661   0.00125
  23        2PY         0.01767   0.00744   0.00972   0.00566   0.00181
  24        2PZ         0.00002  -0.00024  -0.00006   0.00003   0.00003
  25        3S         -0.01401  -0.02141  -0.03394  -0.01412  -0.08924
  26        3PX        -0.00708   0.01430   0.03491   0.02601  -0.00041
  27        3PY         0.02656   0.00958   0.01188   0.00710  -0.00108
  28        3PZ         0.00005  -0.00035  -0.00006   0.00006   0.00008
  29        4S         -0.00582  -0.01748  -0.02349  -0.00534  -0.08017
  30        4PX        -0.00710   0.01399   0.02754   0.01705  -0.00025
  31        4PY         0.01603   0.00647   0.00649   0.00189  -0.00021
  32        4PZ         0.00013  -0.00020   0.00013   0.00014  -0.00004
  33 5   H  1S          0.01631  -0.00909  -0.01820  -0.00945  -0.02016
  34        2S          0.02757  -0.01873  -0.03403  -0.01697  -0.02221
  35        3S          0.01470  -0.01009  -0.01752  -0.00895   0.00060
  36 6   H  1S         -0.00956   0.01121   0.02317   0.01586  -0.01974
  37        2S         -0.01739   0.02388   0.04430   0.02702  -0.02213
  38        3S         -0.00926   0.01673   0.02783   0.01449   0.00046
                          21        22        23        24        25
  21        2S          0.49205
  22        2PX         0.00180   0.08235
  23        2PY         0.00258   0.00370   0.08771
  24        2PZ         0.00005   0.00006   0.00008   0.06431
  25        3S         -0.15421  -0.00578  -0.00845  -0.00004   0.45361
  26        3PX        -0.00061   0.12826   0.00184   0.00003  -0.00058
  27        3PY        -0.00165   0.00195   0.13139   0.00003   0.00078
  28        3PZ         0.00013   0.00008   0.00013   0.10293  -0.00023
  29        4S         -0.11584   0.01415   0.02348   0.00025   0.27858
  30        4PX        -0.00157   0.07314  -0.00512   0.00024   0.00655
  31        4PY        -0.00226  -0.00506   0.06690   0.00042   0.00998
  32        4PZ        -0.00009   0.00036   0.00063   0.09583   0.00046
  33 5   H  1S         -0.03211  -0.03353   0.06361  -0.00060   0.08589
  34        2S         -0.03548  -0.04977   0.08850  -0.00046   0.09497
  35        3S         -0.00061  -0.02254   0.03344  -0.00005   0.00568
  36 6   H  1S         -0.03148   0.07081   0.00286  -0.00058   0.08418
  37        2S         -0.03538   0.10107   0.00111  -0.00044   0.09459
  38        3S         -0.00078   0.04058  -0.00297  -0.00005   0.00594
                          26        27        28        29        30
  26        3PX         0.20012
  27        3PY        -0.00260   0.19736
  28        3PZ         0.00003   0.00004   0.16474
  29        4S          0.02609   0.04290   0.00028   0.18714
  30        4PX         0.11459  -0.01062   0.00037   0.01642   0.06669
  31        4PY        -0.01067   0.10103   0.00067   0.02514  -0.01038
  32        4PZ         0.00045   0.00081   0.15337   0.00087   0.00057
  33 5   H  1S         -0.05368   0.09956  -0.00098   0.06704  -0.03452
  34        2S         -0.08015   0.13800  -0.00076   0.07725  -0.05205
  35        3S         -0.03678   0.05147  -0.00007   0.00917  -0.02413
  36 6   H  1S          0.11205   0.00373  -0.00097   0.06765   0.06577
  37        2S          0.15975   0.00005  -0.00075   0.07964   0.09419
  38        3S          0.06381  -0.00611  -0.00008   0.01054   0.03792
                          31        32        33        34        35
  31        4PY         0.05327
  32        4PZ         0.00103   0.14279
  33 5   H  1S          0.05558  -0.00051   0.08092
  34        2S          0.07717  -0.00020   0.11009   0.15221
  35        3S          0.02893   0.00007   0.03798   0.05507   0.02273
  36 6   H  1S         -0.00182  -0.00052  -0.01245  -0.02593  -0.01980
  37        2S         -0.00612  -0.00021  -0.02611  -0.04822  -0.03149
  38        3S         -0.00630   0.00005  -0.02015  -0.03175  -0.01562
                          36        37        38
  36 6   H  1S          0.07954
  37        2S          0.10947   0.15301
  38        3S          0.03831   0.05604   0.02333
    Full Mulliken population analysis:
                           1         2         3         4         5
   1 1   C  1S          0.65940
   2        2S          0.49325   0.49200
   3        2PX         0.00000   0.00000   0.08433
   4        2PY         0.00000   0.00000   0.00000   0.08753
   5        2PZ         0.00000   0.00000   0.00000   0.00000   0.06447
   6        3S         -0.02928  -0.06443   0.00000   0.00000   0.00000
   7        3PX         0.00000   0.00000   0.08210   0.00000   0.00000
   8        3PY         0.00000   0.00000   0.00000   0.08244   0.00000
   9        3PZ         0.00000   0.00000   0.00000   0.00000   0.06520
  10        4S         -0.01221  -0.02141   0.00000   0.00000   0.00000
  11        4PX         0.00000   0.00000   0.01548   0.00000   0.00000
  12        4PY         0.00000   0.00000   0.00000   0.01444   0.00000
  13        4PZ         0.00000   0.00000   0.00000   0.00000   0.02111
  14 2   H  1S         -0.00022  -0.00032   0.00174   0.00551   0.00000
  15        2S         -0.00165  -0.00315   0.00423   0.01317   0.00000
  16        3S          0.00004  -0.00007   0.00069   0.00192   0.00000
  17 3   H  1S         -0.00025  -0.00037   0.00790   0.00000   0.00000
  18        2S         -0.00173  -0.00332   0.01776   0.00000   0.00000
  19        3S          0.00005  -0.00007   0.00256  -0.00000   0.00000
  20 4   C  1S          0.00000   0.00000  -0.00002  -0.00006   0.00000
  21        2S          0.00000  -0.00000  -0.00002  -0.00005   0.00000
  22        2PX        -0.00002  -0.00002   0.00011   0.00086   0.00000
  23        2PY        -0.00006  -0.00005   0.00086   0.00197   0.00000
  24        2PZ        -0.00000  -0.00000  -0.00000  -0.00000   0.00042
  25        3S         -0.00059  -0.00100   0.00256   0.00764  -0.00000
  26        3PX        -0.00054  -0.00099   0.00019   0.00554   0.00000
  27        3PY        -0.00164  -0.00301   0.00557   0.01068   0.00000
  28        3PZ        -0.00000  -0.00000  -0.00000  -0.00000   0.00613
  29        4S          0.00034   0.00031   0.00095   0.00285  -0.00000
  30        4PX        -0.00018  -0.00046  -0.00071   0.00145   0.00000
  31        4PY        -0.00053  -0.00134   0.00145   0.00096   0.00000
  32        4PZ        -0.00000  -0.00000  -0.00000  -0.00000   0.00904
  33 5   H  1S          0.00000   0.00000  -0.00000  -0.00000   0.00000
  34        2S          0.00001   0.00002   0.00000  -0.00032   0.00000
  35        3S          0.00008   0.00013   0.00001  -0.00070  -0.00000
  36 6   H  1S          0.00000   0.00000  -0.00000  -0.00000   0.00000
  37        2S          0.00001   0.00002  -0.00023  -0.00006   0.00000
  38        3S          0.00007   0.00013  -0.00057  -0.00012  -0.00000
                           6         7         8         9        10
   6        3S          0.45254
   7        3PX         0.00000   0.20228
   8        3PY         0.00000   0.00000   0.19671
   9        3PZ         0.00000   0.00000   0.00000   0.16660
  10        4S          0.21199   0.00000   0.00000   0.00000   0.18272
  11        4PX         0.00000   0.07145   0.00000   0.00000   0.00000
  12        4PY         0.00000   0.00000   0.06460   0.00000   0.00000
  13        4PZ         0.00000   0.00000   0.00000   0.10071   0.00000
  14 2   H  1S          0.01576   0.01049   0.03219   0.00000   0.01826
  15        2S          0.04079   0.01927   0.05776   0.00000   0.04717
  16        3S          0.00281   0.00395   0.01031   0.00000   0.00861
  17 3   H  1S          0.01697   0.04433   0.00000   0.00000   0.01846
  18        2S          0.04246   0.07737   0.00000   0.00000   0.04647
  19        3S          0.00287   0.01387  -0.00001   0.00000   0.00762
  20 4   C  1S         -0.00060  -0.00058  -0.00172   0.00000   0.00033
  21        2S         -0.00101  -0.00106  -0.00317   0.00000   0.00030
  22        2PX         0.00242   0.00018   0.00550   0.00000   0.00080
  23        2PY         0.00735   0.00555   0.01064   0.00000   0.00244
  24        2PZ         0.00000  -0.00000  -0.00000   0.00616   0.00000
  25        3S          0.02192   0.01348   0.04026  -0.00000   0.00035
  26        3PX         0.01256  -0.00126   0.01842   0.00000   0.00403
  27        3PY         0.03813   0.01857   0.02845   0.00000   0.01230
  28        3PZ         0.00000  -0.00000  -0.00000   0.03538   0.00000
  29        4S          0.00063   0.00487   0.01470  -0.00000  -0.02053
  30        4PX         0.00636  -0.00399   0.00579   0.00000   0.00202
  31        4PY         0.01888   0.00584   0.00124   0.00000   0.00565
  32        4PZ         0.00000  -0.00000  -0.00000   0.04932   0.00000
  33 5   H  1S         -0.00006  -0.00000  -0.00019   0.00000  -0.00081
  34        2S         -0.00124   0.00006  -0.00325  -0.00000  -0.00331
  35        3S         -0.00203   0.00010  -0.00425  -0.00000  -0.00130
  36 6   H  1S         -0.00005  -0.00012  -0.00005   0.00000  -0.00078
  37        2S         -0.00114  -0.00251  -0.00051  -0.00000  -0.00327
  38        3S         -0.00192  -0.00352  -0.00055  -0.00000  -0.00141
                          11        12        13        14        15
  11        4PX         0.06019
  12        4PY         0.00000   0.05124
  13        4PZ         0.00000   0.00000   0.14256
  14 2   H  1S          0.00627   0.01759   0.00000   0.08081
  15        2S          0.01530   0.04118   0.00000   0.07724   0.15004
  16        3S          0.00524   0.01199  -0.00000   0.01376   0.04164
  17 3   H  1S          0.02366  -0.00000   0.00000  -0.00001  -0.00065
  18        2S          0.05509  -0.00002   0.00000  -0.00065  -0.00537
  19        3S          0.01651  -0.00001  -0.00000  -0.00200  -0.00797
  20 4   C  1S         -0.00018  -0.00058   0.00000   0.00000   0.00002
  21        2S         -0.00046  -0.00144   0.00000   0.00000   0.00003
  22        2PX        -0.00072   0.00138   0.00000  -0.00000   0.00000
  23        2PY         0.00139   0.00095   0.00000  -0.00000  -0.00035
  24        2PZ        -0.00000  -0.00000   0.00902   0.00000   0.00000
  25        3S          0.00649   0.02007  -0.00000  -0.00007  -0.00144
  26        3PX        -0.00420   0.00556   0.00000  -0.00000   0.00004
  27        3PY         0.00562   0.00122   0.00000  -0.00022  -0.00350
  28        3PZ        -0.00000  -0.00000   0.04901   0.00000   0.00000
  29        4S          0.00238   0.00797  -0.00000  -0.00102  -0.00430
  30        4PX        -0.00716   0.00311   0.00000   0.00002   0.00018
  31        4PY         0.00314  -0.00561   0.00000  -0.00243  -0.01026
  32        4PZ        -0.00000  -0.00000   0.08963   0.00000  -0.00000
  33 5   H  1S          0.00002  -0.00234   0.00000   0.00000   0.00000
  34        2S          0.00027  -0.00987  -0.00000   0.00000   0.00015
  35        3S          0.00028  -0.00731  -0.00000   0.00023   0.00145
  36 6   H  1S         -0.00176  -0.00048   0.00000  -0.00000  -0.00004
  37        2S         -0.00832  -0.00103  -0.00000  -0.00004  -0.00089
  38        3S         -0.00659  -0.00029  -0.00000  -0.00045  -0.00244
                          16        17        18        19        20
  16        3S          0.02122
  17 3   H  1S         -0.00204   0.08247
  18        2S         -0.00804   0.07762   0.14854
  19        3S         -0.00673   0.01351   0.04036   0.02024
  20 4   C  1S          0.00009   0.00000   0.00002   0.00009   0.65947
  21        2S          0.00016   0.00000   0.00003   0.00016   0.49330
  22        2PX         0.00001  -0.00000  -0.00028  -0.00058   0.00000
  23        2PY        -0.00074  -0.00000  -0.00008  -0.00013   0.00000
  24        2PZ        -0.00000   0.00000   0.00000  -0.00000   0.00000
  25        3S         -0.00240  -0.00007  -0.00151  -0.00245  -0.02937
  26        3PX         0.00007  -0.00016  -0.00289  -0.00364   0.00000
  27        3PY        -0.00442  -0.00007  -0.00065  -0.00066   0.00000
  28        3PZ        -0.00000   0.00000   0.00000  -0.00000   0.00000
  29        4S         -0.00217  -0.00103  -0.00424  -0.00201  -0.01233
  30        4PX         0.00019  -0.00186  -0.00870  -0.00672   0.00000
  31        4PY        -0.00754  -0.00057  -0.00136  -0.00049   0.00000
  32        4PZ        -0.00000   0.00000  -0.00000  -0.00000   0.00000
  33 5   H  1S          0.00023  -0.00000  -0.00004  -0.00043  -0.00022
  34        2S          0.00144  -0.00004  -0.00092  -0.00237  -0.00159
  35        3S          0.00246  -0.00046  -0.00245  -0.00287   0.00005
  36 6   H  1S         -0.00042   0.00000   0.00000   0.00022  -0.00020
  37        2S         -0.00237   0.00000   0.00015   0.00140  -0.00154
  38        3S         -0.00292   0.00023   0.00144   0.00242   0.00004
                          21        22        23        24        25
  21        2S          0.49205
  22        2PX         0.00000   0.08235
  23        2PY         0.00000   0.00000   0.08771
  24        2PZ         0.00000   0.00000   0.00000   0.06431
  25        3S         -0.06458   0.00000   0.00000   0.00000   0.45361
  26        3PX         0.00000   0.08069   0.00000   0.00000   0.00000
  27        3PY         0.00000   0.00000   0.08266   0.00000   0.00000
  28        3PZ         0.00000   0.00000   0.00000   0.06476   0.00000
  29        4S         -0.02168   0.00000   0.00000   0.00000   0.21581
  30        4PX         0.00000   0.01611   0.00000   0.00000   0.00000
  31        4PY         0.00000   0.00000   0.01473   0.00000   0.00000
  32        4PZ         0.00000   0.00000   0.00000   0.02110   0.00000
  33 5   H  1S         -0.00031   0.00151   0.00569   0.00000   0.01548
  34        2S         -0.00305   0.00387   0.01365   0.00000   0.03956
  35        3S         -0.00006   0.00068   0.00199   0.00000   0.00260
  36 6   H  1S         -0.00027   0.00667   0.00002   0.00000   0.01462
  37        2S         -0.00294   0.01713   0.00001   0.00000   0.03858
  38        3S         -0.00007   0.00271  -0.00001   0.00000   0.00270
                          26        27        28        29        30
  26        3PX         0.20012
  27        3PY         0.00000   0.19736
  28        3PZ         0.00000   0.00000   0.16474
  29        4S          0.00000   0.00000   0.00000   0.18714
  30        4PX         0.07488   0.00000   0.00000   0.00000   0.06669
  31        4PY         0.00000   0.06602   0.00000   0.00000   0.00000
  32        4PZ         0.00000   0.00000   0.10022   0.00000   0.00000
  33 5   H  1S          0.00909   0.03345   0.00001   0.01761   0.00581
  34        2S          0.01755   0.05994   0.00001   0.04429   0.01478
  35        3S          0.00386   0.01071   0.00000   0.00690   0.00538
  36 6   H  1S          0.04102   0.00009   0.00000   0.01752   0.02450
  37        2S          0.07686   0.00000   0.00001   0.04517   0.05936
  38        3S          0.01489  -0.00009   0.00000   0.00788   0.01885
                          31        32        33        34        35
  31        4PY         0.05327
  32        4PZ         0.00000   0.14279
  33 5   H  1S          0.01856   0.00000   0.08092
  34        2S          0.04346   0.00000   0.07776   0.15221
  35        3S          0.01279  -0.00000   0.01419   0.04345   0.02273
  36 6   H  1S         -0.00004   0.00000  -0.00001  -0.00078  -0.00231
  37        2S         -0.00025   0.00000  -0.00078  -0.00654  -0.00954
  38        3S         -0.00020  -0.00000  -0.00235  -0.00961  -0.00832
                          36        37        38
  36 6   H  1S          0.07954
  37        2S          0.07733   0.15301
  38        3S          0.01431   0.04421   0.02333
     Gross orbital populations:
                           1
   1 1   C  1S          1.10436
   2        2S          0.88586
   3        2PX         0.22697
   4        2PY         0.23565
   5        2PZ         0.16637
   6        3S          0.79270
   7        3PX         0.56072
   8        3PY         0.55533
   9        3PZ         0.42339
  10        4S          0.50446
  11        4PX         0.25940
  12        4PY         0.21234
  13        4PZ         0.41204
  14 2   H  1S          0.27245
  15        2S          0.46767
  16        3S          0.08697
  17 3   H  1S          0.27757
  18        2S          0.46505
  19        3S          0.08273
  20 4   C  1S          1.10441
  21        2S          0.88584
  22        2PX         0.22136
  23        2PY         0.23619
  24        2PZ         0.16578
  25        3S          0.79225
  26        3PX         0.55170
  27        3PY         0.55649
  28        3PZ         0.42026
  29        4S          0.50803
  30        4PX         0.27571
  31        4PY         0.21538
  32        4PZ         0.41212
  33 5   H  1S          0.27281
  34        2S          0.46958
  35        3S          0.08849
  36 6   H  1S          0.26853
  37        2S          0.47129
  38        3S          0.09176
          Condensed to atoms (all electrons):
               1          2          3          4          5          6
     1  C    5.033490   0.386860   0.388178   0.602091  -0.035979  -0.035063
     2  H    0.386860   0.517354  -0.033446  -0.040063   0.005964  -0.009577
     3  H    0.388178  -0.033446   0.514225  -0.039876  -0.009594   0.005865
     4  C    0.602091  -0.040063  -0.039876   5.056265   0.384070   0.383024
     5  H   -0.035979   0.005964  -0.009594   0.384070   0.526666  -0.040247
     6  H   -0.035063  -0.009577   0.005865   0.383024  -0.040247   0.527583
 Mulliken charges:
               1
     1  C   -0.339577
     2  H    0.172907
     3  H    0.174646
     4  C   -0.345511
     5  H    0.169119
     6  H    0.168415
 Sum of Mulliken charges =   0.00000
 Mulliken charges with hydrogens summed into heavy atoms:
               1
     1  C    0.007977
     4  C   -0.007977
 Electronic spatial extent (au):  <R**2>=             83.8063
 Charge=              0.0000 electrons
 Dipole moment (field-independent basis, Debye):
    X=             -0.0048    Y=              0.0215    Z=             -0.0477  Tot=              0.0526
 Quadrupole moment (field-independent basis, Debye-Ang):
   XX=            -12.2066   YY=            -12.2131   ZZ=            -15.6797
   XY=              0.0181   XZ=             -0.0027   YZ=             -0.0037
 Traceless Quadrupole moment (field-independent basis, Debye-Ang):
   XX=              1.1599   YY=              1.1534   ZZ=             -2.3133
   XY=              0.0181   XZ=             -0.0027   YZ=             -0.0037
 Octapole moment (field-independent basis, Debye-Ang**2):
  XXX=             -0.3307  YYY=             -0.0617  ZZZ=             -0.0646  XYY=              0.1665
  XXY=             -0.0125  XXZ=             -0.0736  XZZ=             -0.0988  YZZ=             -0.0739
  YYZ=             -0.0939  XYZ=             -0.0179
 Hexadecapole moment (field-independent basis, Debye-Ang**3):
 XXXX=            -34.3435 YYYY=            -55.2456 ZZZZ=            -17.8094 XXXY=             -7.2287
 XXXZ=              0.0053 YYYX=            -10.7215 YYYZ=              0.0099 ZZZX=              0.0145
 ZZZY=              0.0212 XXYY=            -16.2200 XXZZ=             -9.9484 YYZZ=            -13.6670
 XXYZ=              0.0021 YYXZ=              0.0013 ZZXY=             -3.2080
 N-N= 3.304780113726D+01 E-N=-2.477996698864D+02  KE= 7.814327493431D+01
 Orbital energies and kinetic energies (alpha):
                                 1                 2
   1         O               -10.290719         15.978505
   2         O               -10.288383         15.980078
   3         O                -0.863735          1.539924
   4         O                -0.671693          1.269758
   5         O                -0.558771          0.940982
   6         O                -0.509541          1.282405
   7         O                -0.435963          1.041179
   8         O                -0.357056          1.038806
   9         V                 0.080138          1.181754
  10         V                 0.140748          0.590784
  11         V                 0.164240          0.597096
  12         V                 0.169648          0.682236
  13         V                 0.240661          0.584264
  14         V                 0.374404          0.852091
  15         V                 0.392410          0.932017
  16         V                 0.398529          0.780002
  17         V                 0.463278          1.192406
  18         V                 0.487216          1.421941
  19         V                 0.493610          1.300983
  20         V                 0.591012          1.652907
  21         V                 0.665131          1.570171
  22         V                 0.689882          2.147168
  23         V                 0.772260          2.465096
  24         V                 0.775438          2.273898
  25         V                 0.844773          1.088164
  26         V                 0.952769          3.428847
  27         V                 2.232030          3.923328
  28         V                 2.289628          4.029333
  29         V                 2.332470          4.302254
  30         V                 2.407134          4.516886
  31         V                 2.671055          6.301181
  32         V                 2.818116          6.307818
  33         V                 2.877841          6.134199
  34         V                 2.951836          6.226711
  35         V                 3.140689          6.821771
  36         V                 3.318138          6.401439
  37         V                23.351125         60.074000
  38         V                23.706069         60.204257
 Total kinetic energy from orbitals= 7.814327493431D+01
 Calling FoFJK, ICntrl=      2127 FMM=F ISym2X=0 I1Cent= 0 IOpClX= 0 NMat=1 NMatS=1 NMatT=0.
 -------------------------------------------------------------------
 Center     Atomic                   Forces (Hartrees/Bohr)
 Number     Number              X              Y              Z
 -------------------------------------------------------------------
      1        6           0.013927915    0.004783467   -0.001806120
      2        1          -0.010158358    0.008669554    0.000962095
      3        1           0.002363387   -0.004293572    0.000849628
      4        6           0.011879628    0.009467579   -0.002289049
      5        1           0.002165433   -0.012861434    0.001091314
      6        1          -0.020178005   -0.005765594    0.001192131
 -------------------------------------------------------------------
 Cartesian Forces:  Max     0.020178005 RMS     0.008410522

 GradGradGradGradGradGradGradGradGradGradGradGradGradGradGradGradGradGrad
 Berny optimization.
 Search for a local minimum.
 Step number   1 out of a maximum of    2
 All quantities printed in internal units (Hartrees-Bohrs-Radians)
 Second derivative matrix not updated -- first step.
 The second derivative matrix:
                          X1        Y1        Z1        X2        Y2
           X1           0.75741
           Y1           0.10116   0.85734
           Z1           0.00258   0.00411   0.17152
           X2          -0.16155   0.09368   0.00096   0.13893
           Y2           0.09990  -0.28072  -0.00342  -0.11294   0.26962
           Z2           0.00150  -0.00428  -0.05492  -0.00138   0.00355
           X3          -0.35315  -0.00140  -0.00366  -0.00020  -0.00011
           Y3          -0.00731  -0.11016  -0.00090   0.03244   0.01870
           Z3          -0.00469  -0.00088  -0.05611   0.00070   0.00025
           X4          -0.26786  -0.17892  -0.00040   0.02281   0.01315
           Y4          -0.17966  -0.47460  -0.00070  -0.01317  -0.00760
           Z4           0.00060   0.00104  -0.09486  -0.00028  -0.00039
           X5           0.02347  -0.01356   0.00032  -0.00000   0.00000
           Y5           0.01183  -0.00683   0.00043   0.00000  -0.00000
           Z5          -0.00023   0.00014   0.01741   0.00012  -0.00006
           X6           0.00167  -0.00096   0.00020  -0.00000   0.00000
           Y6          -0.02591   0.01497   0.00049   0.00000  -0.00000
           Z6           0.00023  -0.00013   0.01696  -0.00012   0.00006
                          Z2        X3        Y3        Z3        X4
           Z2           0.02838
           X3          -0.00013   0.35319
           Y3           0.00073   0.00160   0.07603
           Z3           0.01053   0.00400   0.00061   0.02936
           X4           0.00028   0.00016  -0.02673  -0.00027   0.70919
           Y4          -0.00015  -0.00009   0.01543   0.00017   0.12132
           Z4           0.01594  -0.00020  -0.00044   0.01629  -0.00266
           X5          -0.00013  -0.00000   0.00000   0.00013  -0.14744
           Y5           0.00008   0.00000  -0.00000  -0.00008   0.09338
           Z5           0.00928   0.00012  -0.00007  -0.00945  -0.00159
           X6          -0.00013  -0.00000   0.00000   0.00014  -0.31687
           Y6           0.00007   0.00000  -0.00000  -0.00007  -0.02222
           Z6          -0.00921  -0.00012   0.00007   0.00938   0.00465
                          Y4        Z4        X5        Y5        Z5
           Y4           0.86043
           Z4          -0.00495   0.17604
           X5           0.08536  -0.00103   0.12606
           Y5          -0.28962   0.00375  -0.10417   0.28015
           Z5           0.00467  -0.05703   0.00140  -0.00399   0.02957
           X6          -0.01375   0.00358  -0.00209  -0.00105   0.00019
           Y6          -0.10404   0.00099   0.03236   0.01631  -0.00068
           Z6           0.00097  -0.05639  -0.00068  -0.00018   0.01021
                          X6        Y6        Z6
           X6           0.31729
           Y6           0.01576   0.07277
           Z6          -0.00397  -0.00079   0.02905
 ITU=  0
     Eigenvalues ---    0.03732   0.04368   0.09413   0.09856   0.13494
     Eigenvalues ---    0.17380   0.26523   0.28791   0.52575   0.69613
     Eigenvalues ---    0.96989   1.56485
 Angle between quadratic step and forces=  31.82 degrees.
 Linear search not attempted -- first point.
 B after Tr=     0.006481    0.006623   -0.004877
         Rot=    1.000000    0.000006   -0.000005   -0.000114 Ang=   0.01 deg.
 Variable       Old X    -DE/DX   Delta X   Delta X   Delta X     New X
                                 (Linear)    (Quad)   (Total)
    X1       -0.63475   0.01393   0.00000   0.02016   0.02688  -0.60786
    Y1       -1.09790   0.00478   0.00000   0.02080   0.02728  -1.07062
    Z1        0.00733  -0.00181   0.00000  -0.00994  -0.01480  -0.00747
    X2        0.40539  -0.01016   0.00000  -0.03218  -0.02504   0.38035
    Y2       -2.90147   0.00867   0.00000   0.03373   0.04044  -2.86103
    Z2       -0.01828   0.00096   0.00000   0.01237   0.00752  -0.01076
    X3       -2.68605   0.00236   0.00000   0.02676   0.03350  -2.65255
    Y3       -1.10978  -0.00429   0.00000  -0.01893  -0.01291  -1.12269
    Z3       -0.01799   0.00085   0.00000   0.01219   0.00735  -0.01064
    X4        0.62910   0.01188   0.00000   0.00665   0.01288   0.64199
    Y4        1.09045   0.00947   0.00000   0.00663   0.01340   1.10385
    Z4        0.00614  -0.00229   0.00000  -0.01025  -0.01515  -0.00900
    X5       -0.30973   0.00217   0.00000  -0.00567   0.00015  -0.30959
    Y5        2.95274  -0.01286   0.00000  -0.04122  -0.03466   2.91808
    Z5       -0.02270   0.00109   0.00000   0.01251   0.00760  -0.01510
    X6        2.73601  -0.02018   0.00000  -0.05458  -0.04837   2.68763
    Y6        1.22576  -0.00577   0.00000  -0.04078  -0.03355   1.19222
    Z6       -0.02316   0.00119   0.00000   0.01239   0.00747  -0.01569
         Item               Value     Threshold  Converged?
 Maximum Force            0.020178     0.000450     NO 
 RMS     Force            0.008411     0.000300     NO 
 Maximum Displacement     0.048374     0.001800     NO 
 RMS     Displacement     0.024386     0.001200     NO 
 Predicted change in Energy=-1.616166D-03
 GradGradGradGradGradGradGradGradGradGradGradGradGradGradGradGradGradGrad

 Unable to Open any file for archive entry.
 1\1\GINC-BHD0016\Force\RwB97XD\6-311G\C2H4\BWEIGHT\11-Jan-2023\0\\# WB
 97XD/6-311G SCF=XQC FORCE nosym pop=full guess=read\\MD Step 999\\0,1\
 C,-0.33589287,-0.58098611,0.00387952\H,0.21452532,-1.5353909,-0.009675
 63\H,-1.42139866,-0.5872679,-0.00952141\C,0.33290786,0.57704072,0.0032
 5117\H,-0.16390434,1.56252471,-0.01201011\H,1.44783334,0.648646,-0.012
 25534\\Version=ES64L-G16RevC.01\HF=-78.5557512\RMSD=4.470e-09\RMSF=8.4
 11e-03\Dipole=-0.0018863,0.0084665,-0.018774\Quadrupole=0.86234,0.8575
 072,-1.7198472,0.0134535,-0.0019998,-0.0027795\PG=C01 [X(C2H4)]\\@
 The archive entry for this job was punched.


 PERICLES, SOPHOCLES,
 PELOPONESIAN WAR,
 FRENCH VERBS, LATIN VERBS
 H2SO4.
 Job cpu time:       0 days  0 hours  1 minutes  7.3 seconds.
 Elapsed time:       0 days  0 hours  0 minutes 22.8 seconds.
 File lengths (MBytes):  RWF=    272 Int=      0 D2E=      0 Chk=     32 Scr=     32
 Normal termination of Gaussian 16 at Wed Jan 11 18:36:48 2023.
