 Entering Gaussian System, Link 0=g16
 Initial command:
 /software/gaussian/g16-c01/avx2/g16/l1.exe "/gpfs/fs2/scratch/bweight/software/many_molecule_many_mode_NAMD/src/NAMD/TEST_NVT/TRAJ/traj-80/G16/GS_NEW/Gau-31590.inp" -scrdir="/gpfs/fs2/scratch/bweight/software/many_molecule_many_mode_NAMD/src/NAMD/TEST_NVT/TRAJ/traj-80/G16/GS_NEW/"
 Entering Link 1 = /software/gaussian/g16-c01/avx2/g16/l1.exe PID=     31591.
  
 Copyright (c) 1988-2019, Gaussian, Inc.  All Rights Reserved.
  
 This is part of the Gaussian(R) 16 program.  It is based on
 the Gaussian(R) 09 system (copyright 2009, Gaussian, Inc.),
 the Gaussian(R) 03 system (copyright 2003, Gaussian, Inc.),
 the Gaussian(R) 98 system (copyright 1998, Gaussian, Inc.),
 the Gaussian(R) 94 system (copyright 1995, Gaussian, Inc.),
 the Gaussian 92(TM) system (copyright 1992, Gaussian, Inc.),
 the Gaussian 90(TM) system (copyright 1990, Gaussian, Inc.),
 the Gaussian 88(TM) system (copyright 1988, Gaussian, Inc.),
 the Gaussian 86(TM) system (copyright 1986, Carnegie Mellon
 University), and the Gaussian 82(TM) system (copyright 1983,
 Carnegie Mellon University). Gaussian is a federally registered
 trademark of Gaussian, Inc.
  
 This software contains proprietary and confidential information,
 including trade secrets, belonging to Gaussian, Inc.
  
 This software is provided under written license and may be
 used, copied, transmitted, or stored only in accord with that
 written license.
  
 The following legend is applicable only to US Government
 contracts under FAR:
  
                    RESTRICTED RIGHTS LEGEND
  
 Use, reproduction and disclosure by the US Government is
 subject to restrictions as set forth in subparagraphs (a)
 and (c) of the Commercial Computer Software - Restricted
 Rights clause in FAR 52.227-19.
  
 Gaussian, Inc.
 340 Quinnipiac St., Bldg. 40, Wallingford CT 06492
  
  
 ---------------------------------------------------------------
 Warning -- This program may not be used in any manner that
 competes with the business of Gaussian, Inc. or will provide
 assistance to any competitor of Gaussian, Inc.  The licensee
 of this program is prohibited from giving any competitor of
 Gaussian, Inc. access to this program.  By using this program,
 the user acknowledges that Gaussian, Inc. is engaged in the
 business of creating and licensing software in the field of
 computational chemistry and represents and warrants to the
 licensee that it is not a competitor of Gaussian, Inc. and that
 it will not use this program in any manner prohibited above.
 ---------------------------------------------------------------
  

 Cite this work as:
 Gaussian 16, Revision C.01,
 M. J. Frisch, G. W. Trucks, H. B. Schlegel, G. E. Scuseria, 
 M. A. Robb, J. R. Cheeseman, G. Scalmani, V. Barone, 
 G. A. Petersson, H. Nakatsuji, X. Li, M. Caricato, A. V. Marenich, 
 J. Bloino, B. G. Janesko, R. Gomperts, B. Mennucci, H. P. Hratchian, 
 J. V. Ortiz, A. F. Izmaylov, J. L. Sonnenberg, D. Williams-Young, 
 F. Ding, F. Lipparini, F. Egidi, J. Goings, B. Peng, A. Petrone, 
 T. Henderson, D. Ranasinghe, V. G. Zakrzewski, J. Gao, N. Rega, 
 G. Zheng, W. Liang, M. Hada, M. Ehara, K. Toyota, R. Fukuda, 
 J. Hasegawa, M. Ishida, T. Nakajima, Y. Honda, O. Kitao, H. Nakai, 
 T. Vreven, K. Throssell, J. A. Montgomery, Jr., J. E. Peralta, 
 F. Ogliaro, M. J. Bearpark, J. J. Heyd, E. N. Brothers, K. N. Kudin, 
 V. N. Staroverov, T. A. Keith, R. Kobayashi, J. Normand, 
 K. Raghavachari, A. P. Rendell, J. C. Burant, S. S. Iyengar, 
 J. Tomasi, M. Cossi, J. M. Millam, M. Klene, C. Adamo, R. Cammi, 
 J. W. Ochterski, R. L. Martin, K. Morokuma, O. Farkas, 
 J. B. Foresman, and D. J. Fox, Gaussian, Inc., Wallingford CT, 2019.
 
 ******************************************
 Gaussian 16:  ES64L-G16RevC.01  3-Jul-2019
                11-Jan-2023 
 ******************************************
 %oldchk=../GS_OLD/geometry.chk
 %chk=geometry.chk
 %nprocshared=4
 Will use up to    4 processors via shared memory.
 %mem=5GB
 Copying data from "../GS_OLD/geometry.chk" to current chk file "geometry.chk"
 IOpt=  2 FromEx=T IUOpen= 4 IOptOp= 5 NList=   0 IFRang= 0 IUIn= 4 IUOut= 2.
 -------------------------------------------------------
 # WB97XD/6-311G SCF=XQC FORCE nosym pop=full guess=read
 -------------------------------------------------------
 1/10=7,30=1,38=1/1,3;
 2/12=2,15=1,17=6,18=5,40=1/2;
 3/5=4,6=6,11=2,25=1,30=1,71=1,74=-58,116=-2/1,2,3;
 4/5=1/1;
 5/5=2,8=3,13=1,38=6/2,8;
 6/7=3,28=1/1;
 7/29=1,30=1/1,2,3,16;
 1/10=7,30=1/3;
 99//99;
 -----------
 MD Step 999
 -----------
 Symbolic Z-matrix:
 Charge =  0 Multiplicity = 1
 C                    -0.33585  -0.58132   0.00704 
 H                     0.21453  -1.53374  -0.0261 
 H                    -1.42322  -0.5881   -0.02664 
 C                     0.33337   0.57743   0.00586 
 H                    -0.16345   1.56381  -0.02921 
 H                     1.44484   0.64762  -0.02862 
 

 GradGradGradGradGradGradGradGradGradGradGradGradGradGradGradGradGradGrad
 Berny optimization.
 Initialization pass.
 Trust Radius=3.00D-01 FncErr=1.00D-07 GrdErr=1.00D-07 EigMax=2.50D+02 EigMin=1.00D-04
 Number of steps in this run=      2 maximum allowed number of steps=      2.
 GradGradGradGradGradGradGradGradGradGradGradGradGradGradGradGradGradGrad

                          Input orientation:                          
 ---------------------------------------------------------------------
 Center     Atomic      Atomic             Coordinates (Angstroms)
 Number     Number       Type             X           Y           Z
 ---------------------------------------------------------------------
      1          6           0       -0.335851   -0.581324    0.007041
      2          1           0        0.214526   -1.533736   -0.026104
      3          1           0       -1.423219   -0.588102   -0.026640
      4          6           0        0.333372    0.577426    0.005860
      5          1           0       -0.163447    1.563812   -0.029214
      6          1           0        1.444840    0.647623   -0.028619
 ---------------------------------------------------------------------
                    Distance matrix (angstroms):
                    1          2          3          4          5
     1  C    0.000000
     2  H    1.100501   0.000000
     3  H    1.087910   1.891146   0.000000
     4  C    1.338119   2.114746   2.108346   0.000000
     5  H    2.152358   3.120525   2.493545   1.104996   0.000000
     6  H    2.163895   2.504397   3.122945   1.114217   1.850943
                    6
     6  H    0.000000
 Symmetry turned off by external request.
 Stoichiometry    C2H4
 Framework group  C1[X(C2H4)]
 Deg. of freedom    12
 Full point group                 C1      NOp   1
 Rotational constants (GHZ):         143.0591503          29.6514239          24.5703513
 Standard basis: 6-311G (5D, 7F)
    38 basis functions,    72 primitive gaussians,    38 cartesian basis functions
     8 alpha electrons        8 beta electrons
       nuclear repulsion energy        33.0413010489 Hartrees.
 NAtoms=    6 NActive=    6 NUniq=    6 SFac= 1.00D+00 NAtFMM=   60 NAOKFM=F Big=F
 Integral buffers will be    131072 words long.
 Raffenetti 2 integral format.
 Two-electron integral symmetry is turned off.
 Nuclear repulsion after empirical dispersion term =       33.0404592880 Hartrees.
 One-electron integrals computed using PRISM.
 NBasis=    38 RedAO= T EigKep=  6.44D-03  NBF=    38
 NBsUse=    38 1.00D-06 EigRej= -1.00D+00 NBFU=    38
 Initial guess from the checkpoint file:  "geometry.chk"
 B after Tr=    -0.000397   -0.000582   -0.000523
         Rot=    1.000000    0.000001    0.000001    0.000005 Ang=   0.00 deg.
 Keep R1 ints in memory in canonical form, NReq=4036876.
 Requested convergence on RMS density matrix=1.00D-08 within  32 cycles.
 Requested convergence on MAX density matrix=1.00D-06.
 Requested convergence on             energy=1.00D-06.
 No special actions if energy rises.
 SCF Done:  E(RwB97XD) =  -78.5556220750     A.U. after    8 cycles
            NFock=  8  Conv=0.58D-08     -V/T= 2.0053
 QCSCF skips out because SCF is already converged.

 **********************************************************************

            Population analysis using the SCF Density.

 **********************************************************************

 Alpha  occ. eigenvalues --  -10.29069 -10.28860  -0.86361  -0.67184  -0.55867
 Alpha  occ. eigenvalues --   -0.50950  -0.43607  -0.35691
 Alpha virt. eigenvalues --    0.07969   0.14076   0.16428   0.16973   0.24071
 Alpha virt. eigenvalues --    0.37433   0.39235   0.39860   0.46362   0.48744
 Alpha virt. eigenvalues --    0.49372   0.59093   0.66513   0.68968   0.77236
 Alpha virt. eigenvalues --    0.77517   0.84106   0.95210   2.23208   2.28959
 Alpha virt. eigenvalues --    2.33226   2.40560   2.67103   2.81730   2.87929
 Alpha virt. eigenvalues --    2.95148   3.14017   3.31640  23.35131  23.70538
     Molecular Orbital Coefficients:
                           1         2         3         4         5
                           O         O         O         O         O
     Eigenvalues --   -10.29069 -10.28860  -0.86361  -0.67184  -0.55867
   1 1   C  1S          0.12115   0.55022  -0.08833   0.06682  -0.00049
   2        2S          0.09990   0.45280  -0.13961   0.10702  -0.00080
   3        2PX         0.00016  -0.00002   0.02597   0.03665   0.13707
   4        2PY         0.00028  -0.00002   0.04663   0.05998  -0.07379
   5        2PZ         0.00000  -0.00001  -0.00134   0.00204   0.00019
   6        3S          0.00228   0.01443   0.37453  -0.29208   0.00224
   7        3PX        -0.00059   0.00045   0.03421   0.05879   0.21486
   8        3PY        -0.00101   0.00081   0.06117   0.09734  -0.11649
   9        3PZ        -0.00002  -0.00003  -0.00225   0.00366   0.00028
  10        4S          0.00276  -0.01476   0.19192  -0.22739   0.00192
  11        4PX         0.00143  -0.00159   0.00477   0.02341   0.11164
  12        4PY         0.00247  -0.00276   0.00867   0.04038  -0.06148
  13        4PZ         0.00001   0.00008  -0.00080   0.00185   0.00013
  14 2   H  1S         -0.00005  -0.00005   0.05204  -0.08736   0.10178
  15        2S         -0.00029   0.00011   0.05346  -0.10544   0.12923
  16        3S          0.00088   0.00163  -0.00175  -0.01516   0.04188
  17 3   H  1S         -0.00005  -0.00007   0.05364  -0.09086  -0.10473
  18        2S         -0.00030   0.00010   0.05446  -0.10886  -0.13202
  19        3S          0.00090   0.00168  -0.00174  -0.01612  -0.04276
  20 4   C  1S          0.55020  -0.12134  -0.08692  -0.06829  -0.00027
  21        2S          0.45287  -0.09966  -0.13726  -0.10951  -0.00043
  22        2PX        -0.00003  -0.00016  -0.02779   0.03734   0.11846
  23        2PY        -0.00004  -0.00028  -0.04674   0.06674  -0.07382
  24        2PZ        -0.00000   0.00000  -0.00115  -0.00220   0.00020
  25        3S          0.01391  -0.00398   0.36783   0.29923   0.00121
  26        3PX        -0.00018   0.00073  -0.03497   0.06063   0.18562
  27        3PY        -0.00029   0.00127  -0.05861   0.10774  -0.11471
  28        3PZ        -0.00004  -0.00000  -0.00198  -0.00395   0.00030
  29        4S         -0.01195   0.00881   0.18913   0.23793   0.00011
  30        4PX         0.00082  -0.00194  -0.00548   0.02656   0.10210
  31        4PY         0.00137  -0.00338  -0.00896   0.04559  -0.06210
  32        4PZ         0.00007  -0.00002  -0.00080  -0.00203   0.00015
  33 5   H  1S         -0.00006  -0.00004   0.04995   0.09343  -0.09018
  34        2S         -0.00003  -0.00031   0.05108   0.11168  -0.11401
  35        3S          0.00181   0.00008  -0.00114   0.01685  -0.03675
  36 6   H  1S         -0.00005  -0.00004   0.04863   0.09160   0.08603
  37        2S         -0.00004  -0.00032   0.05034   0.10997   0.10919
  38        3S          0.00176   0.00008  -0.00120   0.01624   0.03546
                           6         7         8         9        10
                           O         O         O         V         V
     Eigenvalues --    -0.50950  -0.43607  -0.35691   0.07969   0.14076
   1 1   C  1S         -0.00372   0.00016  -0.00103   0.00289  -0.03334
   2        2S         -0.00558   0.00028  -0.00167   0.00479  -0.05348
   3        2PX         0.09456  -0.11104  -0.00360   0.00153  -0.03188
   4        2PY         0.16783   0.06610  -0.00617   0.00264  -0.06457
   5        2PZ         0.00545   0.00002   0.17940  -0.18904  -0.00261
   6        3S          0.02113  -0.00055   0.00488  -0.01451   0.11635
   7        3PX         0.13738  -0.17725  -0.00509   0.00231  -0.03764
   8        3PY         0.24538   0.10617  -0.00870   0.00394  -0.07976
   9        3PZ         0.00864   0.00007   0.28836  -0.27785  -0.00416
  10        4S         -0.05265  -0.00323   0.00737  -0.01630   1.21789
  11        4PX         0.06925  -0.11092  -0.00411   0.01319  -0.19590
  12        4PY         0.12478   0.06674  -0.00708   0.02271  -0.38429
  13        4PZ         0.00490   0.00008   0.26703  -0.69483  -0.01506
  14 2   H  1S         -0.08065  -0.11519   0.00017   0.00446  -0.01692
  15        2S         -0.11176  -0.17845   0.00212   0.00711  -0.04721
  16        3S         -0.04179  -0.08274   0.00128   0.01896  -0.82988
  17 3   H  1S         -0.07906   0.11295   0.00011   0.00448  -0.01331
  18        2S         -0.10890   0.17402   0.00205   0.00712  -0.03881
  19        3S         -0.04041   0.08033   0.00125   0.01853  -0.77153
  20 4   C  1S         -0.00825  -0.00045  -0.00089  -0.00284  -0.03630
  21        2S         -0.01291  -0.00073  -0.00146  -0.00471  -0.05830
  22        2PX        -0.09799   0.12432   0.00354   0.00183   0.04060
  23        2PY        -0.16218  -0.07323   0.00640   0.00323   0.06184
  24        2PZ         0.00565   0.00018   0.17917   0.18942  -0.00323
  25        3S          0.04186   0.00206   0.00431   0.01410   0.12873
  26        3PX        -0.14503   0.19926   0.00495   0.00279   0.04980
  27        3PY        -0.23842  -0.11647   0.00899   0.00495   0.07350
  28        3PZ         0.00895   0.00026   0.28678   0.27769  -0.00491
  29        4S         -0.03013   0.00294   0.00698   0.01667   1.24495
  30        4PX        -0.07567   0.12765   0.00385   0.01401   0.26201
  31        4PY        -0.12311  -0.07417   0.00710   0.02442   0.41381
  32        4PZ         0.00519   0.00015   0.26728   0.69586  -0.01922
  33 5   H  1S         -0.07448  -0.12445   0.00023  -0.00432  -0.01250
  34        2S         -0.10181  -0.19415   0.00227  -0.00721  -0.03835
  35        3S         -0.03801  -0.09121   0.00126  -0.01878  -0.82426
  36 6   H  1S         -0.08011   0.12388   0.00016  -0.00433  -0.01591
  37        2S         -0.10991   0.19433   0.00218  -0.00732  -0.04689
  38        3S         -0.04119   0.09142   0.00119  -0.01924  -0.88350
                          11        12        13        14        15
                           V         V         V         V         V
     Eigenvalues --     0.16428   0.16973   0.24071   0.37433   0.39235
   1 1   C  1S          0.00090  -0.04553   0.00015   0.01028   0.00099
   2        2S          0.00146  -0.07421   0.00023   0.01429   0.00151
   3        2PX         0.09723  -0.01997   0.10023  -0.03684  -0.02369
   4        2PY        -0.05443  -0.03747  -0.05736  -0.06674   0.01050
   5        2PZ         0.00008  -0.00710   0.00000  -0.00495  -0.00020
   6        3S         -0.00310   0.16786   0.00019   0.03079   0.00152
   7        3PX         0.13946  -0.01175   0.10651  -0.04716  -0.10415
   8        3PY        -0.07897  -0.02483  -0.06199  -0.09096   0.05203
   9        3PZ         0.00011  -0.00983  -0.00004  -0.00991  -0.00022
  10        4S         -0.04431   1.43291  -0.02952  -2.68186  -0.19927
  11        4PX         0.57821  -0.11582   1.16078  -1.57595  -0.54466
  12        4PY        -0.31473  -0.20888  -0.66875  -2.74263   0.12784
  13        4PZ         0.00066  -0.04630   0.00056  -0.04610  -0.00278
  14 2   H  1S         -0.02998  -0.02559   0.01293  -0.05684   0.07602
  15        2S         -0.08146  -0.01896  -0.02325  -0.65302   0.77106
  16        3S         -1.02927  -1.00296  -1.53474  -0.31484  -0.34011
  17 3   H  1S          0.02901  -0.02543  -0.01499  -0.04945  -0.07652
  18        2S          0.08005  -0.02135   0.01727  -0.59158  -0.76736
  19        3S          1.08600  -1.00804   1.57017  -0.39200   0.26299
  20 4   C  1S          0.00129   0.04252  -0.00017  -0.01996  -0.00024
  21        2S          0.00206   0.06922  -0.00029  -0.03268  -0.00030
  22        2PX         0.10137  -0.02378  -0.10050  -0.04083  -0.03174
  23        2PY        -0.06103  -0.03704   0.05765  -0.07355   0.01197
  24        2PZ         0.00018   0.00698  -0.00000   0.00370   0.00040
  25        3S         -0.00414  -0.15406   0.00033   0.04072  -0.00115
  26        3PX         0.14598  -0.01901  -0.11405  -0.09143  -0.11068
  27        3PY        -0.08680  -0.02670   0.06412  -0.16775   0.05317
  28        3PZ         0.00025   0.00965   0.00003   0.00471   0.00086
  29        4S         -0.05871  -1.33792   0.02204   3.34567   0.17165
  30        4PX         0.53871  -0.12252  -1.12426  -1.19863  -0.55592
  31        4PY        -0.33013  -0.19503   0.64657  -2.11701   0.09216
  32        4PZ         0.00120   0.04523  -0.00057   0.03666   0.00297
  33 5   H  1S          0.03158   0.02487   0.00631   0.01137  -0.07987
  34        2S          0.06967   0.02195  -0.03229   0.08007  -0.78538
  35        3S          1.07832   0.93153  -1.52564   0.45427   0.47508
  36 6   H  1S         -0.03172   0.02571  -0.00500   0.00517   0.08777
  37        2S         -0.07038   0.02156   0.03397   0.02593   0.88936
  38        3S         -0.99930   0.95059   1.50167   0.47175  -0.45198
                          16        17        18        19        20
                           V         V         V         V         V
     Eigenvalues --     0.39860   0.46362   0.48744   0.49372   0.59093
   1 1   C  1S         -0.01803   0.01199  -0.04684   0.00015  -0.00059
   2        2S         -0.03178   0.02813  -0.07843   0.00054  -0.00106
   3        2PX         0.02572  -0.06163   0.01322   0.00115   0.00223
   4        2PY         0.04714  -0.10616   0.01665   0.00171   0.00336
   5        2PZ         0.00019  -0.00060   0.00364  -0.15188  -0.19254
   6        3S          0.07604  -0.33548   0.09841  -0.01077  -0.00039
   7        3PX         0.10051  -0.24291  -0.02939   0.00088   0.00745
   8        3PY         0.18902  -0.41640  -0.06321   0.00066   0.01141
   9        3PZ        -0.00434  -0.00486   0.01730  -0.62839  -0.68477
  10        4S          2.57872   0.12366   3.11169   0.05966   0.07169
  11        4PX         0.19600   0.22988   0.80179   0.02100   0.02323
  12        4PY         0.37668   0.43819   1.40393   0.03828   0.03867
  13        4PZ        -0.00129   0.00127  -0.08449   0.68609   1.24047
  14 2   H  1S         -0.02730  -0.03453  -0.07638  -0.00193  -0.00178
  15        2S         -0.54585  -0.32480  -0.90665  -0.01622  -0.01293
  16        3S          0.29582   0.07646   0.64962   0.02471   0.02454
  17 3   H  1S         -0.03451  -0.03761  -0.07387  -0.00189  -0.00166
  18        2S         -0.61178  -0.36262  -0.88303  -0.01618  -0.01068
  19        3S          0.30968   0.07895   0.61003   0.02395   0.02388
  20 4   C  1S         -0.00150  -0.00231   0.05093   0.00267   0.00070
  21        2S         -0.00603   0.00380   0.08849   0.00487   0.00131
  22        2PX         0.00766   0.05472   0.02627  -0.00030   0.00209
  23        2PY         0.01583   0.09539   0.04924  -0.00052   0.00407
  24        2PZ        -0.00394  -0.00183   0.00392  -0.15270   0.19230
  25        3S          0.08018  -0.28766  -0.22818  -0.02005  -0.00229
  26        3PX        -0.04579   0.23405   0.05121  -0.00075   0.00741
  27        3PY        -0.06836   0.41115   0.09473  -0.00156   0.01407
  28        3PZ        -0.01133  -0.00745   0.01358  -0.63131   0.68245
  29        4S         -0.76488   0.74965  -3.09252  -0.08260  -0.06408
  30        4PX         1.20517  -0.35665   0.63088   0.00904   0.02203
  31        4PY         2.18337  -0.58289   1.06521   0.01446   0.03929
  32        4PZ        -0.03376  -0.01729   0.04571   0.69384  -1.23773
  33 5   H  1S         -0.04858  -0.06377   0.06410   0.00181   0.00163
  34        2S         -0.84928  -0.64946   0.80685   0.02892   0.00600
  35        3S         -0.17307   0.26896  -0.55032  -0.00416  -0.02396
  36 6   H  1S         -0.04067  -0.06163   0.06510   0.00189   0.00172
  37        2S         -0.76053  -0.61927   0.80743   0.02888   0.00734
  38        3S         -0.19557   0.28086  -0.57744  -0.00542  -0.02435
                          21        22        23        24        25
                           V         V         V         V         V
     Eigenvalues --     0.66513   0.68968   0.77236   0.77517   0.84106
   1 1   C  1S          0.00079  -0.00042   0.05685   0.06871   0.00088
   2        2S          0.00161  -0.00099   0.12008   0.14657   0.00197
   3        2PX        -0.13192   0.19802  -0.01683   0.11560  -0.01077
   4        2PY         0.07719  -0.11879  -0.03010   0.18875   0.01307
   5        2PZ        -0.00003   0.00017   0.00105   0.00508   0.00018
   6        3S         -0.01246   0.01506  -0.83251  -1.28401  -0.01894
   7        3PX        -0.61335   0.69161  -0.14003   0.45589  -0.23377
   8        3PY         0.35555  -0.41455  -0.24739   0.73749   0.16229
   9        3PZ        -0.00024   0.00068   0.00385   0.01777   0.00078
  10        4S          0.02171  -0.08422   0.91216   2.40383  -0.06810
  11        4PX         1.09362  -0.75734   0.09745  -0.74621   4.46701
  12        4PY        -0.63653   0.45005   0.13801  -1.02906  -2.58870
  13        4PZ         0.00012   0.00110   0.00542  -0.05854   0.00219
  14 2   H  1S          0.02310  -0.05915   0.01319   0.03160  -0.02632
  15        2S          0.12748  -0.63735   0.08251   0.07816  -1.54858
  16        3S         -1.03649   1.09366  -0.17769  -1.09161  -1.21737
  17 3   H  1S         -0.02251   0.05881   0.01305   0.03249   0.02909
  18        2S         -0.13976   0.67455   0.09878   0.05504   1.58686
  19        3S          1.02745  -1.06639  -0.17914  -1.22397   1.22043
  20 4   C  1S          0.00100  -0.00058   0.08627   0.02446   0.00070
  21        2S          0.00201  -0.00109   0.18356   0.05127   0.00146
  22        2PX        -0.15192  -0.18492  -0.09234   0.05998   0.01224
  23        2PY         0.08685   0.10292  -0.16595   0.10964  -0.00128
  24        2PZ        -0.00003  -0.00019   0.00524  -0.00148  -0.00018
  25        3S         -0.01413   0.00089  -1.51908  -0.25587  -0.00939
  26        3PX        -0.68427  -0.62259  -0.32978   0.30586   0.24480
  27        3PY         0.39361   0.34424  -0.59649   0.55588  -0.11149
  28        3PZ        -0.00023  -0.00070   0.01847  -0.00551  -0.00065
  29        4S          0.01203   0.05544   2.67872  -0.09855   0.05223
  30        4PX         1.27467   0.70210   0.50494  -0.29555  -4.19366
  31        4PY        -0.72674  -0.39684   0.95559  -0.73142   2.36076
  32        4PZ         0.00040  -0.00073  -0.05295   0.03087  -0.00160
  33 5   H  1S         -0.02556  -0.05560   0.03482   0.00004  -0.02294
  34        2S         -0.14866  -0.57802   0.08023   0.06712  -1.41280
  35        3S          1.11519   0.97292  -1.13104   0.38001  -1.10317
  36 6   H  1S          0.02610   0.05522   0.03449   0.00089   0.02309
  37        2S          0.14286   0.54410   0.07534   0.02038   1.39951
  38        3S         -1.11877  -0.98156  -1.07486   0.30929   1.10940
                          26        27        28        29        30
                           V         V         V         V         V
     Eigenvalues --     0.95210   2.23208   2.28959   2.33226   2.40560
   1 1   C  1S          0.09568  -0.01001  -0.01425   0.00035  -0.00046
   2        2S          0.19882   0.00173  -0.01416   0.00085  -0.00047
   3        2PX        -0.09137  -0.08178  -0.13393   0.34416  -0.40597
   4        2PY        -0.15842  -0.15096  -0.23126  -0.19697   0.23308
   5        2PZ         0.00009  -0.01416  -0.01915  -0.00014  -0.00059
   6        3S         -1.54087  -0.18573  -0.03559  -0.00221  -0.00463
   7        3PX        -0.23344   0.07984   0.21183  -0.41405   0.56659
   8        3PY        -0.39728   0.16070   0.37971   0.23946  -0.32837
   9        3PZ        -0.00283   0.01422   0.02402   0.00027   0.00065
  10        4S          5.71275  -0.10763  -0.88396   0.00090  -0.03062
  11        4PX         1.19557   0.05383  -0.19240  -0.03926   0.95681
  12        4PY         1.99038   0.06625  -0.35615   0.01471  -0.53808
  13        4PZ        -0.01863   0.00311   0.00833  -0.00028   0.00122
  14 2   H  1S          0.01579  -0.71075  -0.78851  -0.70883   0.65368
  15        2S         -0.29112   1.01034   1.18250   1.08870  -1.45198
  16        3S         -0.08990  -0.30581  -0.47237  -0.47444   0.37448
  17 3   H  1S          0.01593  -0.70537  -0.78807   0.69660  -0.67390
  18        2S         -0.26415   1.00539   1.18465  -1.07496   1.49470
  19        3S         -0.07718  -0.28482  -0.45906   0.46180  -0.36731
  20 4   C  1S         -0.09403  -0.01025   0.01217   0.00042   0.00028
  21        2S         -0.19505   0.00046   0.01218   0.00063   0.00044
  22        2PX        -0.09250   0.13166  -0.12452   0.30642   0.41697
  23        2PY        -0.15949   0.23038  -0.21006  -0.17695  -0.23706
  24        2PZ         0.00023  -0.01577   0.01865   0.00022   0.00021
  25        3S          1.50834  -0.17013   0.01853  -0.00027   0.00028
  26        3PX        -0.22716  -0.16771   0.21420  -0.38273  -0.58504
  27        3PY        -0.39734  -0.28878   0.35458   0.21865   0.33170
  28        3PZ         0.00359   0.01694  -0.02381  -0.00022  -0.00030
  29        4S         -5.69183  -0.16596   0.88510   0.01412   0.01594
  30        4PX         1.11136  -0.01462  -0.19791   0.10501  -0.85290
  31        4PY         1.98574  -0.03439  -0.32345  -0.05988   0.49236
  32        4PZ         0.01468   0.00491  -0.00695  -0.00015  -0.00098
  33 5   H  1S         -0.01791  -0.78775   0.67902   0.70357   0.68668
  34        2S          0.29026   1.14335  -1.03567  -1.02331  -1.45731
  35        3S          0.06211  -0.35461   0.40528   0.50834   0.42874
  36 6   H  1S         -0.01793  -0.77930   0.70069  -0.69240  -0.68430
  37        2S          0.31133   1.12867  -1.06439   1.00342   1.44662
  38        3S          0.06679  -0.35487   0.42966  -0.50553  -0.43480
                          31        32        33        34        35
                           V         V         V         V         V
     Eigenvalues --     2.67103   2.81730   2.87929   2.95148   3.14017
   1 1   C  1S          0.00052   0.00265  -0.01335   0.00008  -0.00949
   2        2S          0.00039   0.00768  -0.04430  -0.00007  -0.02918
   3        2PX         0.00531   0.07582  -0.46888  -0.73300   0.45030
   4        2PY         0.00872   0.13304  -0.84103   0.40912   0.79032
   5        2PZ        -0.92412  -0.92902  -0.14559  -0.00102   0.00744
   6        3S         -0.00145  -0.06375   0.38939   0.00252   0.24587
   7        3PX        -0.00379  -0.13181   0.83305   0.88128  -0.43617
   8        3PY        -0.00638  -0.22937   1.46933  -0.47951  -0.76506
   9        3PZ         0.93927   1.13550   0.18301   0.00145  -0.00942
  10        4S          0.01337   0.14731  -0.87409  -0.00992  -0.47996
  11        4PX        -0.00224   0.10619  -0.71314  -0.66678   0.22212
  12        4PY        -0.00290   0.18525  -1.26282   0.35470   0.38883
  13        4PZ        -0.33807  -0.61435  -0.11641  -0.00119   0.00572
  14 2   H  1S          0.01283  -0.02154   0.26719  -0.37707  -0.21743
  15        2S         -0.01475   0.01406  -0.22640   0.38931   0.16540
  16        3S         -0.00292   0.04208  -0.29431   0.26833   0.06283
  17 3   H  1S          0.01293  -0.02055   0.25512   0.37947  -0.21540
  18        2S         -0.01503   0.01207  -0.20484  -0.38709   0.16278
  19        3S         -0.00351   0.04312  -0.29893  -0.28578   0.06769
  20 4   C  1S          0.00055  -0.00261   0.01362   0.00055  -0.00739
  21        2S          0.00054  -0.00804   0.04773   0.00130  -0.02311
  22        2PX        -0.00794   0.06806  -0.40865  -0.80190  -0.50184
  23        2PY        -0.01405   0.12153  -0.73134   0.44702  -0.88681
  24        2PZ        -0.92522   0.92719   0.14891   0.00060   0.01358
  25        3S         -0.00307   0.06884  -0.42865  -0.01004   0.19900
  26        3PX         0.00832  -0.12356   0.76842   0.95564   0.53516
  27        3PY         0.01448  -0.21898   1.36381  -0.52487   0.95340
  28        3PZ         0.94084  -1.13360  -0.18741  -0.00070  -0.01722
  29        4S          0.01681  -0.15002   0.89969   0.02770  -0.37919
  30        4PX        -0.00095   0.10478  -0.70685  -0.69590  -0.32354
  31        4PY        -0.00201   0.18427  -1.23918   0.37526  -0.58027
  32        4PZ        -0.33891   0.61326   0.11974   0.00044   0.01345
  33 5   H  1S          0.01232   0.02783  -0.29209   0.41744  -0.26078
  34        2S         -0.01519  -0.02224   0.26419  -0.42818   0.20472
  35        3S         -0.00153  -0.04022   0.28346  -0.24477   0.12165
  36 6   H  1S          0.01249   0.02840  -0.29167  -0.42636  -0.25142
  37        2S         -0.01575  -0.02363   0.27080   0.43694   0.19739
  38        3S         -0.00107  -0.03781   0.26644   0.24557   0.11661
                          36        37        38
                           V         V         V
     Eigenvalues --     3.31640  23.35131  23.70538
   1 1   C  1S         -0.00049  -1.41623  -1.45009
   2        2S         -0.00073   1.51037   1.56811
   3        2PX         0.78282  -0.00656   0.01208
   4        2PY        -0.43939  -0.01067   0.02134
   5        2PZ         0.00075  -0.00058  -0.00024
   6        3S          0.00142  -0.29638  -0.39900
   7        3PX        -1.11683   0.02408  -0.05559
   8        3PY         0.62411   0.03981  -0.09709
   9        3PZ        -0.00117   0.00164   0.00071
  10        4S         -0.02186   0.27426   0.76831
  11        4PX         1.94996  -0.02604   0.13257
  12        4PY        -1.09584  -0.04366   0.22998
  13        4PZ         0.00189  -0.00272  -0.00307
  14 2   H  1S          0.55540   0.01281   0.00656
  15        2S         -0.86375   0.00793  -0.01432
  16        3S         -0.45702  -0.08388  -0.03895
  17 3   H  1S         -0.56739   0.01463   0.00798
  18        2S          0.88034   0.00735  -0.01490
  19        3S          0.48000  -0.08602  -0.03976
  20 4   C  1S          0.00020  -1.44529   1.42098
  21        2S          0.00005   1.54144  -1.53671
  22        2PX        -0.71365   0.00600   0.01272
  23        2PY         0.40649   0.01085   0.02153
  24        2PZ        -0.00057  -0.00058   0.00016
  25        3S          0.00258  -0.30237   0.39111
  26        3PX         1.01511  -0.02219  -0.05673
  27        3PY        -0.58558  -0.03966  -0.09720
  28        3PZ         0.00087   0.00167  -0.00043
  29        4S         -0.00161   0.27875  -0.76065
  30        4PX        -1.78301   0.02329   0.13194
  31        4PY         1.03186   0.04299   0.22693
  32        4PZ        -0.00144  -0.00275   0.00250
  33 5   H  1S          0.48786   0.01314  -0.00472
  34        2S         -0.75990   0.00810   0.01378
  35        3S         -0.42675  -0.08309   0.03762
  36 6   H  1S         -0.48283   0.01176  -0.00348
  37        2S          0.75440   0.00936   0.01297
  38        3S          0.41815  -0.08141   0.03649
     Density Matrix:
                           1         2         3         4         5
   1 1   C  1S          0.65940
   2        2S          0.56150   0.49198
   3        2PX        -0.00054  -0.00072   0.08418
   4        2PY        -0.00133  -0.00185   0.00370   0.08758
   5        2PZ         0.00009   0.00014  -0.00013  -0.00029   0.06444
   6        3S         -0.08893  -0.15383   0.00274   0.00652  -0.00021
   7        3PX         0.00088   0.00136   0.13037   0.00128  -0.00010
   8        3PY         0.00118   0.00182   0.00127   0.13108  -0.00025
   9        3PZ         0.00019   0.00031  -0.00023  -0.00046   0.10358
  10        4S         -0.07949  -0.11451  -0.01546  -0.02785   0.00063
  11        4PX         0.00023   0.00153   0.07033  -0.00459  -0.00060
  12        4PY         0.00059   0.00298  -0.00461   0.06552  -0.00106
  13        4PZ        -0.00010  -0.00025  -0.00089  -0.00151   0.09588
  14 2   H  1S         -0.02047  -0.03261   0.03453  -0.06295  -0.00128
  15        2S         -0.02284  -0.03652   0.04895  -0.08787  -0.00099
  16        3S          0.00054  -0.00075   0.02074  -0.03314  -0.00004
  17 3   H  1S         -0.02098  -0.03338  -0.07262  -0.00205  -0.00137
  18        2S         -0.02314  -0.03696  -0.10060  -0.00207  -0.00109
  19        3S          0.00058  -0.00071  -0.03848   0.00126  -0.00007
  20 4   C  1S          0.00608   0.00980  -0.01087  -0.01876  -0.00045
  21        2S          0.00977   0.01527  -0.01739  -0.03003  -0.00074
  22        2PX         0.01036   0.01656  -0.01240  -0.03209   0.00048
  23        2PY         0.01810   0.02894  -0.03223  -0.04966   0.00090
  24        2PZ        -0.00050  -0.00081  -0.00043  -0.00069   0.06434
  25        3S         -0.02632  -0.03996   0.04880   0.08430   0.00224
  26        3PX         0.01600   0.02479  -0.01820  -0.04578   0.00062
  27        3PY         0.02791   0.04327  -0.04589  -0.07115   0.00118
  28        3PZ        -0.00085  -0.00136  -0.00074  -0.00120   0.10299
  29        4S          0.00539   0.00402   0.02089   0.03634   0.00264
  30        4PX         0.00308   0.00636  -0.01303  -0.02096   0.00073
  31        4PY         0.00523   0.01088  -0.02101  -0.03742   0.00139
  32        4PZ        -0.00073  -0.00117  -0.00113  -0.00187   0.09595
  33 5   H  1S          0.00421   0.00691  -0.00173  -0.01228  -0.00052
  34        2S          0.00635   0.01056   0.00343  -0.02488  -0.00003
  35        3S          0.00327   0.00479   0.00416  -0.01749   0.00009
  36 6   H  1S          0.00415   0.00681  -0.00984  -0.00769  -0.00053
  37        2S          0.00621   0.01034  -0.02335  -0.00946  -0.00005
  38        3S          0.00320   0.00469  -0.01725  -0.00515   0.00006
                           6         7         8         9        10
   6        3S          0.45254
   7        3PX        -0.00179   0.20222
   8        3PY        -0.00137  -0.00455   0.19670
   9        3PZ        -0.00064  -0.00019  -0.00039   0.16649
  10        4S          0.27404  -0.02619  -0.04792   0.00082   0.18321
  11        4PX        -0.00663   0.10944  -0.01037  -0.00098  -0.01497
  12        4PY        -0.01230  -0.01038   0.09877  -0.00170  -0.02885
  13        4PZ         0.00114  -0.00118  -0.00199   0.15411   0.00227
  14 2   H  1S          0.08718   0.05570  -0.09840  -0.00213   0.06934
  15        2S          0.09771   0.07932  -0.13687  -0.00167   0.08192
  16        3S          0.00612   0.03393  -0.05102  -0.00008   0.01129
  17 3   H  1S          0.08932  -0.11378  -0.00155  -0.00225   0.06911
  18        2S          0.09902  -0.15744  -0.00030  -0.00179   0.08027
  19        3S          0.00619  -0.05998   0.00382  -0.00010   0.01021
  20 4   C  1S         -0.02657  -0.01695  -0.02930  -0.00078   0.00517
  21        2S         -0.04022  -0.02635  -0.04555  -0.00126   0.00390
  22        2PX        -0.04635  -0.01764  -0.04548   0.00083  -0.01762
  23        2PY        -0.08105  -0.04574  -0.07078   0.00154  -0.03092
  24        2PZ         0.00241  -0.00058  -0.00092   0.10342   0.00260
  25        3S          0.10249   0.07158   0.12385   0.00374   0.00095
  26        3PX        -0.06706  -0.02604  -0.06467   0.00108  -0.02625
  27        3PY        -0.11717  -0.06495  -0.10137   0.00204  -0.04598
  28        3PZ         0.00400  -0.00102  -0.00163   0.16553   0.00432
  29        4S          0.00168   0.03159   0.05519   0.00440  -0.03267
  30        4PX        -0.02252  -0.01947  -0.02939   0.00121  -0.00653
  31        4PY        -0.03876  -0.02955  -0.05405   0.00230  -0.01075
  32        4PZ         0.00342  -0.00158  -0.00260   0.15423   0.00401
  33 5   H  1S         -0.02058  -0.00070  -0.01767  -0.00076  -0.01501
  34        2S         -0.03157   0.00847  -0.03668   0.00005  -0.01961
  35        3S         -0.01234   0.00799  -0.02635   0.00016  -0.00362
  36 6   H  1S         -0.02022  -0.01486  -0.00927  -0.00077  -0.01502
  37        2S         -0.03089  -0.03582  -0.01059   0.00002  -0.01991
  38        3S         -0.01205  -0.02668  -0.00607   0.00013  -0.00394
                          11        12        13        14        15
  11        4PX         0.06031
  12        4PY        -0.00920   0.05115
  13        4PZ        -0.00143  -0.00243   0.14267
  14 2   H  1S          0.03351  -0.05417  -0.00110   0.08094
  15        2S          0.04852  -0.07522  -0.00043   0.10943   0.15003
  16        3S          0.02118  -0.02790   0.00022   0.03680   0.05271
  17 3   H  1S         -0.06314   0.00181  -0.00115  -0.01313  -0.02481
  18        2S         -0.08776   0.00440  -0.00047  -0.02471  -0.04310
  19        3S         -0.03375   0.00454   0.00021  -0.01806  -0.02747
  20 4   C  1S         -0.00316  -0.00571  -0.00068   0.00422   0.00669
  21        2S         -0.00653  -0.01169  -0.00110   0.00698   0.01116
  22        2PX        -0.01325  -0.01994   0.00117   0.00186  -0.00268
  23        2PY        -0.02007  -0.03668   0.00212   0.01148   0.02426
  24        2PZ        -0.00080  -0.00132   0.09574  -0.00059  -0.00017
  25        3S          0.02315   0.04115   0.00323  -0.02098  -0.03354
  26        3PX        -0.02039  -0.02820   0.00159   0.00104  -0.00723
  27        3PY        -0.02839  -0.05340   0.00291   0.01702   0.03627
  28        3PZ        -0.00131  -0.00218   0.15324  -0.00086  -0.00018
  29        4S          0.00803   0.01515   0.00401  -0.01767  -0.02420
  30        4PX        -0.01483  -0.01239   0.00147  -0.00163  -0.00843
  31        4PY        -0.01246  -0.02954   0.00274   0.01541   0.02739
  32        4PZ        -0.00158  -0.00266   0.14279  -0.00048   0.00030
  33 5   H  1S          0.00201  -0.01570  -0.00039   0.01121   0.02340
  34        2S          0.00921  -0.02743   0.00048   0.02375   0.04450
  35        3S          0.00754  -0.01581   0.00034   0.01660   0.02788
  36 6   H  1S         -0.01462  -0.00580  -0.00039  -0.00905  -0.01819
  37        2S         -0.02834  -0.00519   0.00047  -0.01879  -0.03436
  38        3S         -0.01732  -0.00115   0.00032  -0.01016  -0.01781
                          16        17        18        19        20
  16        3S          0.02117
  17 3   H  1S         -0.01829   0.08222
  18        2S         -0.02764   0.10981   0.14878
  19        3S         -0.01299   0.03624   0.05137   0.02037
  20 4   C  1S          0.00369   0.00430   0.00676   0.00371   0.65947
  21        2S          0.00543   0.00710   0.01127   0.00545   0.56156
  22        2PX        -0.00349   0.00900   0.02219   0.01666   0.00118
  23        2PY         0.01765   0.00742   0.00973   0.00568   0.00181
  24        2PZ         0.00004  -0.00058  -0.00014   0.00008   0.00008
  25        3S         -0.01407  -0.02133  -0.03380  -0.01406  -0.08924
  26        3PX        -0.00701   0.01430   0.03494   0.02604  -0.00047
  27        3PY         0.02656   0.00955   0.01188   0.00712  -0.00107
  28        3PZ         0.00009  -0.00085  -0.00012   0.00014   0.00019
  29        4S         -0.00581  -0.01754  -0.02361  -0.00541  -0.08018
  30        4PX        -0.00703   0.01400   0.02758   0.01706  -0.00022
  31        4PY         0.01602   0.00648   0.00652   0.00191  -0.00023
  32        4PZ         0.00030  -0.00048   0.00033   0.00033  -0.00006
  33 5   H  1S          0.01626  -0.00907  -0.01818  -0.00945  -0.02012
  34        2S          0.02753  -0.01870  -0.03404  -0.01699  -0.02218
  35        3S          0.01469  -0.01008  -0.01755  -0.00897   0.00059
  36 6   H  1S         -0.00955   0.01120   0.02320   0.01590  -0.01984
  37        2S         -0.01733   0.02383   0.04429   0.02705  -0.02216
  38        3S         -0.00920   0.01666   0.02776   0.01447   0.00049
                          21        22        23        24        25
  21        2S          0.49205
  22        2PX         0.00170   0.08254
  23        2PY         0.00257   0.00372   0.08759
  24        2PZ         0.00013   0.00015   0.00022   0.06428
  25        3S         -0.15422  -0.00548  -0.00845  -0.00014   0.45365
  26        3PX        -0.00071   0.12845   0.00188   0.00009  -0.00029
  27        3PY        -0.00162   0.00196   0.13130   0.00010   0.00070
  28        3PZ         0.00031   0.00023   0.00035   0.10289  -0.00060
  29        4S         -0.11586   0.01396   0.02349   0.00068   0.27868
  30        4PX        -0.00151   0.07307  -0.00511   0.00051   0.00637
  31        4PY        -0.00230  -0.00507   0.06698   0.00092   0.01006
  32        4PZ        -0.00017   0.00084   0.00150   0.09585   0.00093
  33 5   H  1S         -0.03204  -0.03351   0.06350  -0.00136   0.08570
  34        2S         -0.03544  -0.04981   0.08845  -0.00106   0.09484
  35        3S         -0.00061  -0.02260   0.03348  -0.00010   0.00566
  36 6   H  1S         -0.03164   0.07102   0.00282  -0.00128   0.08461
  37        2S         -0.03542   0.10116   0.00107  -0.00095   0.09473
  38        3S         -0.00075   0.04049  -0.00297  -0.00006   0.00590
                          26        27        28        29        30
  26        3PX         0.20023
  27        3PY        -0.00259   0.19739
  28        3PZ         0.00012   0.00014   0.16469
  29        4S          0.02566   0.04291   0.00083   0.18713
  30        4PX         0.11436  -0.01064   0.00079   0.01590   0.06640
  31        4PY        -0.01068   0.10122   0.00147   0.02528  -0.01039
  32        4PZ         0.00106   0.00192   0.15342   0.00214   0.00124
  33 5   H  1S         -0.05363   0.09948  -0.00225   0.06709  -0.03450
  34        2S         -0.08017   0.13805  -0.00177   0.07746  -0.05205
  35        3S         -0.03683   0.05159  -0.00016   0.00931  -0.02412
  36 6   H  1S          0.11225   0.00364  -0.00214   0.06756   0.06565
  37        2S          0.15969  -0.00007  -0.00162   0.07919   0.09385
  38        3S          0.06361  -0.00613  -0.00011   0.01027   0.03770
                          31        32        33        34        35
  31        4PY         0.05347
  32        4PZ         0.00231   0.14294
  33 5   H  1S          0.05563  -0.00117   0.08078
  34        2S          0.07733  -0.00047   0.11003   0.15229
  35        3S          0.02903   0.00017   0.03803   0.05519   0.02281
  36 6   H  1S         -0.00186  -0.00113  -0.01245  -0.02598  -0.01986
  37        2S         -0.00617  -0.00042  -0.02611  -0.04826  -0.03152
  38        3S         -0.00630   0.00018  -0.02010  -0.03169  -0.01559
                          36        37        38
  36 6   H  1S          0.07984
  37        2S          0.10959   0.15280
  38        3S          0.03821   0.05578   0.02316
    Full Mulliken population analysis:
                           1         2         3         4         5
   1 1   C  1S          0.65940
   2        2S          0.49325   0.49198
   3        2PX         0.00000   0.00000   0.08418
   4        2PY         0.00000   0.00000   0.00000   0.08758
   5        2PZ         0.00000   0.00000   0.00000   0.00000   0.06444
   6        3S         -0.02927  -0.06442   0.00000   0.00000   0.00000
   7        3PX         0.00000   0.00000   0.08202   0.00000   0.00000
   8        3PY         0.00000   0.00000   0.00000   0.08246   0.00000
   9        3PZ         0.00000   0.00000   0.00000   0.00000   0.06516
  10        4S         -0.01222  -0.02143   0.00000   0.00000   0.00000
  11        4PX         0.00000   0.00000   0.01549   0.00000   0.00000
  12        4PY         0.00000   0.00000   0.00000   0.01443   0.00000
  13        4PZ         0.00000   0.00000   0.00000   0.00000   0.02111
  14 2   H  1S         -0.00023  -0.00032   0.00176   0.00554   0.00000
  15        2S         -0.00165  -0.00316   0.00425   0.01319   0.00001
  16        3S          0.00004  -0.00007   0.00069   0.00192   0.00000
  17 3   H  1S         -0.00025  -0.00036   0.00780   0.00000   0.00000
  18        2S         -0.00172  -0.00330   0.01770   0.00000   0.00001
  19        3S          0.00005  -0.00007   0.00256  -0.00000   0.00000
  20 4   C  1S          0.00000   0.00000  -0.00002  -0.00006   0.00000
  21        2S          0.00000  -0.00000  -0.00002  -0.00005   0.00000
  22        2PX        -0.00002  -0.00002   0.00011   0.00085   0.00000
  23        2PY        -0.00006  -0.00005   0.00086   0.00196   0.00000
  24        2PZ        -0.00000  -0.00000  -0.00000  -0.00000   0.00042
  25        3S         -0.00059  -0.00100   0.00255   0.00762  -0.00000
  26        3PX        -0.00054  -0.00099   0.00019   0.00554   0.00000
  27        3PY        -0.00163  -0.00300   0.00555   0.01068   0.00000
  28        3PZ        -0.00000  -0.00000  -0.00000  -0.00000   0.00611
  29        4S          0.00034   0.00030   0.00095   0.00286  -0.00000
  30        4PX        -0.00018  -0.00045  -0.00070   0.00145   0.00000
  31        4PY        -0.00053  -0.00134   0.00146   0.00097   0.00000
  32        4PZ        -0.00000  -0.00000  -0.00000  -0.00000   0.00903
  33 5   H  1S          0.00000   0.00000  -0.00000  -0.00000   0.00000
  34        2S          0.00001   0.00002   0.00000  -0.00032   0.00000
  35        3S          0.00008   0.00013   0.00001  -0.00070  -0.00000
  36 6   H  1S          0.00000   0.00000  -0.00000  -0.00000   0.00000
  37        2S          0.00001   0.00002  -0.00023  -0.00007   0.00000
  38        3S          0.00007   0.00013  -0.00056  -0.00012  -0.00000
                           6         7         8         9        10
   6        3S          0.45254
   7        3PX         0.00000   0.20222
   8        3PY         0.00000   0.00000   0.19670
   9        3PZ         0.00000   0.00000   0.00000   0.16649
  10        4S          0.21229   0.00000   0.00000   0.00000   0.18321
  11        4PX         0.00000   0.07152   0.00000   0.00000   0.00000
  12        4PY         0.00000   0.00000   0.06454   0.00000   0.00000
  13        4PZ         0.00000   0.00000   0.00000   0.10070   0.00000
  14 2   H  1S          0.01586   0.01055   0.03224   0.00002   0.01827
  15        2S          0.04090   0.01934   0.05773   0.00002   0.04709
  16        3S          0.00281   0.00395   0.01029   0.00000   0.00851
  17 3   H  1S          0.01681   0.04405   0.00000   0.00003   0.01845
  18        2S          0.04225   0.07729   0.00000   0.00003   0.04660
  19        3S          0.00287   0.01392  -0.00001   0.00000   0.00774
  20 4   C  1S         -0.00060  -0.00057  -0.00172   0.00000   0.00033
  21        2S         -0.00100  -0.00105  -0.00316   0.00000   0.00030
  22        2PX         0.00242   0.00019   0.00550   0.00000   0.00080
  23        2PY         0.00732   0.00553   0.01062   0.00000   0.00243
  24        2PZ         0.00000  -0.00000  -0.00000   0.00614   0.00000
  25        3S          0.02185   0.01342   0.04020  -0.00000   0.00036
  26        3PX         0.01257  -0.00126   0.01846   0.00000   0.00405
  27        3PY         0.03803   0.01854   0.02848   0.00000   0.01227
  28        3PZ         0.00000  -0.00000  -0.00000   0.03529   0.00000
  29        4S          0.00064   0.00487   0.01473  -0.00000  -0.02051
  30        4PX         0.00633  -0.00399   0.00582   0.00000   0.00198
  31        4PY         0.01886   0.00585   0.00126   0.00000   0.00564
  32        4PZ         0.00000  -0.00000  -0.00000   0.04928   0.00000
  33 5   H  1S         -0.00006  -0.00000  -0.00019   0.00000  -0.00081
  34        2S         -0.00123   0.00006  -0.00323  -0.00000  -0.00330
  35        3S         -0.00201   0.00010  -0.00425  -0.00000  -0.00131
  36 6   H  1S         -0.00005  -0.00012  -0.00005   0.00000  -0.00079
  37        2S         -0.00116  -0.00253  -0.00052  -0.00000  -0.00329
  38        3S         -0.00194  -0.00352  -0.00055  -0.00000  -0.00141
                          11        12        13        14        15
  11        4PX         0.06031
  12        4PY         0.00000   0.05115
  13        4PZ         0.00000   0.00000   0.14267
  14 2   H  1S          0.00627   0.01754   0.00001   0.08094
  15        2S          0.01530   0.04104   0.00001   0.07730   0.15003
  16        3S          0.00524   0.01194  -0.00000   0.01375   0.04159
  17 3   H  1S          0.02365  -0.00000   0.00001  -0.00001  -0.00065
  18        2S          0.05522  -0.00002   0.00001  -0.00065  -0.00538
  19        3S          0.01659  -0.00001  -0.00000  -0.00201  -0.00799
  20 4   C  1S         -0.00018  -0.00058   0.00000   0.00000   0.00002
  21        2S         -0.00046  -0.00144   0.00000   0.00000   0.00003
  22        2PX        -0.00072   0.00138   0.00000  -0.00000   0.00000
  23        2PY         0.00139   0.00095   0.00000  -0.00000  -0.00035
  24        2PZ        -0.00000  -0.00000   0.00901   0.00000   0.00000
  25        3S          0.00650   0.02002  -0.00000  -0.00007  -0.00146
  26        3PX        -0.00418   0.00558   0.00000  -0.00000   0.00004
  27        3PY         0.00562   0.00125   0.00000  -0.00022  -0.00351
  28        3PZ        -0.00000  -0.00000   0.04896   0.00000   0.00000
  29        4S          0.00243   0.00795  -0.00000  -0.00102  -0.00431
  30        4PX        -0.00715   0.00314   0.00000   0.00001   0.00018
  31        4PY         0.00315  -0.00560   0.00000  -0.00243  -0.01027
  32        4PZ        -0.00000  -0.00000   0.08965   0.00000  -0.00000
  33 5   H  1S          0.00002  -0.00233   0.00000   0.00000   0.00000
  34        2S          0.00027  -0.00986  -0.00000   0.00000   0.00015
  35        3S          0.00028  -0.00730  -0.00000   0.00023   0.00145
  36 6   H  1S         -0.00176  -0.00048   0.00000  -0.00000  -0.00004
  37        2S         -0.00831  -0.00105  -0.00000  -0.00004  -0.00089
  38        3S         -0.00657  -0.00030  -0.00000  -0.00045  -0.00244
                          16        17        18        19        20
  16        3S          0.02117
  17 3   H  1S         -0.00204   0.08222
  18        2S         -0.00804   0.07757   0.14878
  19        3S         -0.00674   0.01354   0.04053   0.02037
  20 4   C  1S          0.00009   0.00000   0.00002   0.00009   0.65947
  21        2S          0.00016   0.00000   0.00003   0.00016   0.49330
  22        2PX         0.00001  -0.00000  -0.00028  -0.00058   0.00000
  23        2PY        -0.00074  -0.00000  -0.00008  -0.00013   0.00000
  24        2PZ        -0.00000   0.00000   0.00000  -0.00000   0.00000
  25        3S         -0.00241  -0.00007  -0.00149  -0.00243  -0.02938
  26        3PX         0.00007  -0.00016  -0.00287  -0.00364   0.00000
  27        3PY        -0.00442  -0.00007  -0.00065  -0.00066   0.00000
  28        3PZ        -0.00000   0.00000   0.00000  -0.00000   0.00000
  29        4S         -0.00217  -0.00103  -0.00425  -0.00203  -0.01233
  30        4PX         0.00019  -0.00186  -0.00868  -0.00672   0.00000
  31        4PY        -0.00754  -0.00057  -0.00136  -0.00050   0.00000
  32        4PZ        -0.00000   0.00000  -0.00000  -0.00000   0.00000
  33 5   H  1S          0.00022  -0.00000  -0.00004  -0.00043  -0.00022
  34        2S          0.00144  -0.00004  -0.00091  -0.00237  -0.00159
  35        3S          0.00246  -0.00046  -0.00244  -0.00287   0.00005
  36 6   H  1S         -0.00043   0.00000   0.00000   0.00022  -0.00020
  37        2S         -0.00238   0.00000   0.00015   0.00141  -0.00155
  38        3S         -0.00291   0.00023   0.00144   0.00242   0.00004
                          21        22        23        24        25
  21        2S          0.49205
  22        2PX         0.00000   0.08254
  23        2PY         0.00000   0.00000   0.08759
  24        2PZ         0.00000   0.00000   0.00000   0.06428
  25        3S         -0.06459   0.00000   0.00000   0.00000   0.45365
  26        3PX         0.00000   0.08081   0.00000   0.00000   0.00000
  27        3PY         0.00000   0.00000   0.08260   0.00000   0.00000
  28        3PZ         0.00000   0.00000   0.00000   0.06473   0.00000
  29        4S         -0.02168   0.00000   0.00000   0.00000   0.21589
  30        4PX         0.00000   0.01609   0.00000   0.00000   0.00000
  31        4PY         0.00000   0.00000   0.01475   0.00000   0.00000
  32        4PZ         0.00000   0.00000   0.00000   0.02111   0.00000
  33 5   H  1S         -0.00030   0.00150   0.00565   0.00000   0.01540
  34        2S         -0.00304   0.00386   0.01362   0.00001   0.03943
  35        3S         -0.00006   0.00068   0.00200   0.00000   0.00259
  36 6   H  1S         -0.00028   0.00678   0.00002   0.00000   0.01482
  37        2S         -0.00297   0.01721   0.00001   0.00001   0.03882
  38        3S         -0.00007   0.00270  -0.00001   0.00000   0.00269
                          26        27        28        29        30
  26        3PX         0.20023
  27        3PY         0.00000   0.19739
  28        3PZ         0.00000   0.00000   0.16469
  29        4S          0.00000   0.00000   0.00000   0.18713
  30        4PX         0.07473   0.00000   0.00000   0.00000   0.06640
  31        4PY         0.00000   0.06614   0.00000   0.00000   0.00000
  32        4PZ         0.00000   0.00000   0.10025   0.00000   0.00000
  33 5   H  1S          0.00905   0.03334   0.00003   0.01760   0.00580
  34        2S          0.01752   0.05989   0.00003   0.04437   0.01476
  35        3S          0.00386   0.01074   0.00000   0.00700   0.00537
  36 6   H  1S          0.04132   0.00008   0.00002   0.01755   0.02447
  37        2S          0.07697  -0.00000   0.00002   0.04502   0.05911
  38        3S          0.01483  -0.00009   0.00000   0.00769   0.01871
                          31        32        33        34        35
  31        4PY         0.05347
  32        4PZ         0.00000   0.14294
  33 5   H  1S          0.01857   0.00001   0.08078
  34        2S          0.04355   0.00001   0.07772   0.15229
  35        3S          0.01284  -0.00000   0.01421   0.04354   0.02281
  36 6   H  1S         -0.00004   0.00001  -0.00001  -0.00078  -0.00232
  37        2S         -0.00025   0.00001  -0.00079  -0.00658  -0.00956
  38        3S         -0.00020  -0.00000  -0.00235  -0.00962  -0.00832
                          36        37        38
  36 6   H  1S          0.07984
  37        2S          0.07741   0.15280
  38        3S          0.01428   0.04401   0.02316
     Gross orbital populations:
                           1
   1 1   C  1S          1.10436
   2        2S          0.88586
   3        2PX         0.22658
   4        2PY         0.23573
   5        2PZ         0.16629
   6        3S          0.79261
   7        3PX         0.56035
   8        3PY         0.55536
   9        3PZ         0.42317
  10        4S          0.50525
  11        4PX         0.25993
  12        4PY         0.21194
  13        4PZ         0.41213
  14 2   H  1S          0.27287
  15        2S          0.46756
  16        3S          0.08665
  17 3   H  1S          0.27681
  18        2S          0.46546
  19        3S          0.08327
  20 4   C  1S          1.10441
  21        2S          0.88584
  22        2PX         0.22182
  23        2PY         0.23588
  24        2PZ         0.16569
  25        3S          0.79231
  26        3PX         0.55217
  27        3PY         0.55635
  28        3PZ         0.42014
  29        4S          0.50799
  30        4PX         0.27480
  31        4PY         0.21591
  32        4PZ         0.41229
  33 5   H  1S          0.27241
  34        2S          0.46970
  35        3S          0.08883
  36 6   H  1S          0.26947
  37        2S          0.47084
  38        3S          0.09097
          Condensed to atoms (all electrons):
               1          2          3          4          5          6
     1  C    5.034136   0.386906   0.387904   0.601659  -0.035895  -0.035145
     2  H    0.386906   0.517422  -0.033503  -0.040131   0.005966  -0.009587
     3  H    0.387904  -0.033503   0.514648  -0.039818  -0.009567   0.005870
     4  C    0.601659  -0.040131  -0.039818   5.056695   0.383935   0.383267
     5  H   -0.035895   0.005966  -0.009567   0.383935   0.526824  -0.040326
     6  H   -0.035145  -0.009587   0.005870   0.383267  -0.040326   0.527204
 Mulliken charges:
               1
     1  C   -0.339565
     2  H    0.172927
     3  H    0.174465
     4  C   -0.345608
     5  H    0.169064
     6  H    0.168717
 Sum of Mulliken charges =   0.00000
 Mulliken charges with hydrogens summed into heavy atoms:
               1
     1  C    0.007827
     4  C   -0.007827
 Electronic spatial extent (au):  <R**2>=             83.8267
 Charge=              0.0000 electrons
 Dipole moment (field-independent basis, Debye):
    X=             -0.0004    Y=              0.0204    Z=             -0.1129  Tot=              0.1147
 Quadrupole moment (field-independent basis, Debye-Ang):
   XX=            -12.2094   YY=            -12.2177   ZZ=            -15.6776
   XY=              0.0181   XZ=             -0.0013   YZ=             -0.0038
 Traceless Quadrupole moment (field-independent basis, Debye-Ang):
   XX=              1.1588   YY=              1.1506   ZZ=             -2.3094
   XY=              0.0181   XZ=             -0.0013   YZ=             -0.0038
 Octapole moment (field-independent basis, Debye-Ang**2):
  XXX=             -0.3186  YYY=             -0.0574  ZZZ=             -0.0604  XYY=              0.1734
  XXY=             -0.0182  XXZ=             -0.1496  XZZ=             -0.0882  YZZ=             -0.0757
  YYZ=             -0.1979  XYZ=             -0.0419
 Hexadecapole moment (field-independent basis, Debye-Ang**3):
 XXXX=            -34.3453 YYYY=            -55.2884 ZZZZ=            -17.8255 XXXY=             -7.2407
 XXXZ=              0.0132 YYYX=            -10.7252 YYYZ=              0.0168 ZZZX=              0.0203
 ZZZY=              0.0342 XXYY=            -16.2259 XXZZ=             -9.9444 YYZZ=            -13.6694
 XXYZ=              0.0053 YYXZ=             -0.0011 ZZXY=             -3.2091
 N-N= 3.304045928797D+01 E-N=-2.477834719269D+02  KE= 7.814195104229D+01
 Orbital energies and kinetic energies (alpha):
                                 1                 2
   1         O               -10.290693         15.978350
   2         O               -10.288604         15.980318
   3         O                -0.863605          1.538855
   4         O                -0.671841          1.269969
   5         O                -0.558669          0.940649
   6         O                -0.509501          1.282396
   7         O                -0.436071          1.041633
   8         O                -0.356913          1.038806
   9         V                 0.079689          1.182127
  10         V                 0.140762          0.590221
  11         V                 0.164279          0.597106
  12         V                 0.169727          0.681770
  13         V                 0.240708          0.584483
  14         V                 0.374325          0.853759
  15         V                 0.392351          0.931964
  16         V                 0.398599          0.780014
  17         V                 0.463616          1.192289
  18         V                 0.487437          1.422526
  19         V                 0.493718          1.301639
  20         V                 0.590931          1.652896
  21         V                 0.665131          1.570601
  22         V                 0.689676          2.146847
  23         V                 0.772361          2.458272
  24         V                 0.775170          2.282461
  25         V                 0.841057          1.083478
  26         V                 0.952101          3.424002
  27         V                 2.232078          3.924206
  28         V                 2.289593          4.029513
  29         V                 2.332260          4.301995
  30         V                 2.405598          4.512440
  31         V                 2.671029          6.300734
  32         V                 2.817297          6.304767
  33         V                 2.879294          6.137827
  34         V                 2.951481          6.226266
  35         V                 3.140173          6.821670
  36         V                 3.316399          6.402620
  37         V                23.351306         60.074266
  38         V                23.705377         60.203733
 Total kinetic energy from orbitals= 7.814195104229D+01
 Calling FoFJK, ICntrl=      2127 FMM=F ISym2X=0 I1Cent= 0 IOpClX= 0 NMat=1 NMatS=1 NMatT=0.
 -------------------------------------------------------------------
 Center     Atomic                   Forces (Hartrees/Bohr)
 Number     Number              X              Y              Z
 -------------------------------------------------------------------
      1        6           0.012465647    0.006251174   -0.004535184
      2        1          -0.009756157    0.007859339    0.002327013
      3        1           0.003841417   -0.004200226    0.002112494
      4        6           0.009416290    0.009200942   -0.005092440
      5        1           0.002397349   -0.013512431    0.002525634
      6        1          -0.018364546   -0.005598797    0.002662482
 -------------------------------------------------------------------
 Cartesian Forces:  Max     0.018364546 RMS     0.008110096

 GradGradGradGradGradGradGradGradGradGradGradGradGradGradGradGradGradGrad
 Berny optimization.
 Search for a local minimum.
 Step number   1 out of a maximum of    2
 All quantities printed in internal units (Hartrees-Bohrs-Radians)
 Second derivative matrix not updated -- first step.
 The second derivative matrix:
                          X1        Y1        Z1        X2        Y2
           X1           0.75432
           Y1           0.09985   0.85590
           Z1           0.00656   0.01023   0.17102
           X2          -0.16208   0.09440   0.00236   0.13954
           Y2           0.10053  -0.28135  -0.00843  -0.11357   0.27033
           Z2           0.00371  -0.01057  -0.05495  -0.00339   0.00875
           X3          -0.35015  -0.00144  -0.00911  -0.00025  -0.00014
           Y3          -0.00737  -0.10962  -0.00222   0.03234   0.01863
           Z3          -0.01165  -0.00215  -0.05600   0.00171   0.00062
           X4          -0.26719  -0.17832  -0.00098   0.02282   0.01317
           Y4          -0.17883  -0.47312  -0.00166  -0.01318  -0.00760
           Z4           0.00137   0.00246  -0.09421  -0.00068  -0.00095
           X5           0.02344  -0.01354   0.00072  -0.00001   0.00000
           Y5           0.01179  -0.00681   0.00098   0.00001  -0.00000
           Z5          -0.00057   0.00035   0.01727   0.00029  -0.00016
           X6           0.00166  -0.00096   0.00045  -0.00001   0.00000
           Y6          -0.02597   0.01500   0.00109   0.00000  -0.00000
           Z6           0.00058  -0.00032   0.01688  -0.00028   0.00016
                          Z2        X3        Y3        Z3        X4
           Z2           0.02858
           X3          -0.00034   0.35023
           Y3           0.00182   0.00167   0.07561
           Z3           0.01050   0.00994   0.00151   0.02941
           X4           0.00061   0.00018  -0.02665  -0.00060   0.71087
           Y4          -0.00033  -0.00011   0.01539   0.00036   0.12105
           Z4           0.01584  -0.00049  -0.00110   0.01613  -0.00589
           X5          -0.00029  -0.00001   0.00001   0.00030  -0.14682
           Y5           0.00018   0.00001  -0.00000  -0.00018   0.09282
           Z5           0.00923   0.00029  -0.00018  -0.00937  -0.00364
           X6          -0.00030  -0.00001   0.00001   0.00030  -0.31986
           Y6           0.00016   0.00001  -0.00000  -0.00016  -0.02207
           Z6          -0.00919  -0.00029   0.00018   0.00933   0.01050
                          Y4        Z4        X5        Y5        Z5
           Y4           0.85797
           Z4          -0.01120   0.17576
           X5           0.08472  -0.00239   0.12549
           Y5          -0.28831   0.00855  -0.10358   0.27886
           Z5           0.01063  -0.05699   0.00322  -0.00911   0.02967
           X6          -0.01365   0.00808  -0.00209  -0.00104   0.00041
           Y6          -0.10433   0.00223   0.03238   0.01626  -0.00153
           Z6           0.00220  -0.05653  -0.00156  -0.00042   0.01020
                          X6        Y6        Z6
           X6           0.32031
           Y6           0.01564   0.07308
           Z6          -0.00895  -0.00179   0.02932
 ITU=  0
     Eigenvalues ---    0.03717   0.04368   0.09147   0.10072   0.13490
     Eigenvalues ---    0.17376   0.26352   0.28834   0.52636   0.69650
     Eigenvalues ---    0.96894   1.56086
 Angle between quadratic step and forces=  34.20 degrees.
 Linear search not attempted -- first point.
 B after Tr=     0.005965    0.006770   -0.011588
         Rot=    1.000000   -0.000028    0.000014   -0.000111 Ang=  -0.01 deg.
 Variable       Old X    -DE/DX   Delta X   Delta X   Delta X     New X
                                 (Linear)    (Quad)   (Total)
    X1       -0.63467   0.01247   0.00000   0.01943   0.02563  -0.60903
    Y1       -1.09854   0.00625   0.00000   0.02181   0.02844  -1.07010
    Z1        0.01331  -0.00454   0.00000  -0.02430  -0.03597  -0.02266
    X2        0.40540  -0.00976   0.00000  -0.03333  -0.02673   0.37867
    Y2       -2.89834   0.00786   0.00000   0.02981   0.03666  -2.86168
    Z2       -0.04933   0.00233   0.00000   0.03000   0.01826  -0.03107
    X3       -2.68949   0.00384   0.00000   0.02908   0.03530  -2.65420
    Y3       -1.11135  -0.00420   0.00000  -0.01754  -0.01136  -1.12272
    Z3       -0.05034   0.00211   0.00000   0.02933   0.01760  -0.03274
    X4        0.62998   0.00942   0.00000   0.00525   0.01097   0.64095
    Y4        1.09118   0.00920   0.00000   0.00624   0.01315   1.10433
    Z4        0.01107  -0.00509   0.00000  -0.02366  -0.03517  -0.02409
    X5       -0.30887   0.00240   0.00000  -0.00739  -0.00208  -0.31095
    Y5        2.95518  -0.01351   0.00000  -0.04294  -0.03624   2.91894
    Z5       -0.05521   0.00253   0.00000   0.02940   0.01797  -0.03724
    X6        2.73035  -0.01836   0.00000  -0.04880  -0.04309   2.68726
    Y6        1.22383  -0.00560   0.00000  -0.03801  -0.03065   1.19318
    Z6       -0.05408   0.00266   0.00000   0.02876   0.01731  -0.03677
         Item               Value     Threshold  Converged?
 Maximum Force            0.018365     0.000450     NO 
 RMS     Force            0.008110     0.000300     NO 
 Maximum Displacement     0.043095     0.001800     NO 
 RMS     Displacement     0.026980     0.001200     NO 
 Predicted change in Energy=-1.707443D-03
 GradGradGradGradGradGradGradGradGradGradGradGradGradGradGradGradGradGrad

 Unable to Open any file for archive entry.
 1\1\GINC-BHD0015\Force\RwB97XD\6-311G\C2H4\BWEIGHT\11-Jan-2023\0\\# WB
 97XD/6-311G SCF=XQC FORCE nosym pop=full guess=read\\MD Step 999\\0,1\
 C,-0.33585145,-0.58132364,0.00704115\H,0.21452608,-1.53373576,-0.02610
 399\H,-1.42321928,-0.58810161,-0.02663958\C,0.33337175,0.57742623,0.00
 586039\H,-0.16344724,1.56381206,-0.02921399\H,1.44484021,0.6476227,-0.
 02861945\\Version=ES64L-G16RevC.01\HF=-78.5556221\RMSD=5.839e-09\RMSF=
 8.110e-03\Dipole=-0.0001454,0.0080151,-0.0444043\Quadrupole=0.8615576,
 0.8554135,-1.7169711,0.0134722,-0.0009294,-0.0028369\PG=C01 [X(C2H4)]\
 \@
 The archive entry for this job was punched.


 IF YOU BELIEVE CERTAIN WORDS, YOU BELIEVE THEIR HIDDEN ARGUMENTS.
 WHEN YOU BELIEVE SOMETHING IS RIGHT OR WRONG, TRUE OR FALSE, 
 YOU BELIEVE THE ASSUMPTIONS IN THE WORDS WHICH EXPRESS THE ARGUMENTS.
 SUCH ASSUMPTIONS ARE OFTEN FULL OF HOLES, BUT REMAIN MOST PRECIOUS 
 TO THE CONVINCED.

                 -- THE OPEN-ENDED PROOF FROM THE PANOPLIA PROPHETICA
                    CHILDREN OF DUNE BY FRANK HERBERT
 Job cpu time:       0 days  0 hours  0 minutes 11.5 seconds.
 Elapsed time:       0 days  0 hours  0 minutes  3.4 seconds.
 File lengths (MBytes):  RWF=    272 Int=      0 D2E=      0 Chk=     32 Scr=     32
 Normal termination of Gaussian 16 at Wed Jan 11 19:42:25 2023.
