 Entering Gaussian System, Link 0=g16
 Initial command:
 /software/gaussian/g16-c01/avx2/g16/l1.exe "/gpfs/fs2/scratch/bweight/software/many_molecule_many_mode_NAMD/src/NAMD/TEST_NVT/TRAJ/traj-20/G16/GS_NEW/Gau-18696.inp" -scrdir="/gpfs/fs2/scratch/bweight/software/many_molecule_many_mode_NAMD/src/NAMD/TEST_NVT/TRAJ/traj-20/G16/GS_NEW/"
 Entering Link 1 = /software/gaussian/g16-c01/avx2/g16/l1.exe PID=     18697.
  
 Copyright (c) 1988-2019, Gaussian, Inc.  All Rights Reserved.
  
 This is part of the Gaussian(R) 16 program.  It is based on
 the Gaussian(R) 09 system (copyright 2009, Gaussian, Inc.),
 the Gaussian(R) 03 system (copyright 2003, Gaussian, Inc.),
 the Gaussian(R) 98 system (copyright 1998, Gaussian, Inc.),
 the Gaussian(R) 94 system (copyright 1995, Gaussian, Inc.),
 the Gaussian 92(TM) system (copyright 1992, Gaussian, Inc.),
 the Gaussian 90(TM) system (copyright 1990, Gaussian, Inc.),
 the Gaussian 88(TM) system (copyright 1988, Gaussian, Inc.),
 the Gaussian 86(TM) system (copyright 1986, Carnegie Mellon
 University), and the Gaussian 82(TM) system (copyright 1983,
 Carnegie Mellon University). Gaussian is a federally registered
 trademark of Gaussian, Inc.
  
 This software contains proprietary and confidential information,
 including trade secrets, belonging to Gaussian, Inc.
  
 This software is provided under written license and may be
 used, copied, transmitted, or stored only in accord with that
 written license.
  
 The following legend is applicable only to US Government
 contracts under FAR:
  
                    RESTRICTED RIGHTS LEGEND
  
 Use, reproduction and disclosure by the US Government is
 subject to restrictions as set forth in subparagraphs (a)
 and (c) of the Commercial Computer Software - Restricted
 Rights clause in FAR 52.227-19.
  
 Gaussian, Inc.
 340 Quinnipiac St., Bldg. 40, Wallingford CT 06492
  
  
 ---------------------------------------------------------------
 Warning -- This program may not be used in any manner that
 competes with the business of Gaussian, Inc. or will provide
 assistance to any competitor of Gaussian, Inc.  The licensee
 of this program is prohibited from giving any competitor of
 Gaussian, Inc. access to this program.  By using this program,
 the user acknowledges that Gaussian, Inc. is engaged in the
 business of creating and licensing software in the field of
 computational chemistry and represents and warrants to the
 licensee that it is not a competitor of Gaussian, Inc. and that
 it will not use this program in any manner prohibited above.
 ---------------------------------------------------------------
  

 Cite this work as:
 Gaussian 16, Revision C.01,
 M. J. Frisch, G. W. Trucks, H. B. Schlegel, G. E. Scuseria, 
 M. A. Robb, J. R. Cheeseman, G. Scalmani, V. Barone, 
 G. A. Petersson, H. Nakatsuji, X. Li, M. Caricato, A. V. Marenich, 
 J. Bloino, B. G. Janesko, R. Gomperts, B. Mennucci, H. P. Hratchian, 
 J. V. Ortiz, A. F. Izmaylov, J. L. Sonnenberg, D. Williams-Young, 
 F. Ding, F. Lipparini, F. Egidi, J. Goings, B. Peng, A. Petrone, 
 T. Henderson, D. Ranasinghe, V. G. Zakrzewski, J. Gao, N. Rega, 
 G. Zheng, W. Liang, M. Hada, M. Ehara, K. Toyota, R. Fukuda, 
 J. Hasegawa, M. Ishida, T. Nakajima, Y. Honda, O. Kitao, H. Nakai, 
 T. Vreven, K. Throssell, J. A. Montgomery, Jr., J. E. Peralta, 
 F. Ogliaro, M. J. Bearpark, J. J. Heyd, E. N. Brothers, K. N. Kudin, 
 V. N. Staroverov, T. A. Keith, R. Kobayashi, J. Normand, 
 K. Raghavachari, A. P. Rendell, J. C. Burant, S. S. Iyengar, 
 J. Tomasi, M. Cossi, J. M. Millam, M. Klene, C. Adamo, R. Cammi, 
 J. W. Ochterski, R. L. Martin, K. Morokuma, O. Farkas, 
 J. B. Foresman, and D. J. Fox, Gaussian, Inc., Wallingford CT, 2019.
 
 ******************************************
 Gaussian 16:  ES64L-G16RevC.01  3-Jul-2019
                11-Jan-2023 
 ******************************************
 %oldchk=../GS_OLD/geometry.chk
 %chk=geometry.chk
 %nprocshared=4
 Will use up to    4 processors via shared memory.
 %mem=5GB
 Copying data from "../GS_OLD/geometry.chk" to current chk file "geometry.chk"
 IOpt=  2 FromEx=T IUOpen= 4 IOptOp= 5 NList=   0 IFRang= 0 IUIn= 4 IUOut= 2.
 -------------------------------------------------------
 # WB97XD/6-311G SCF=XQC FORCE nosym pop=full guess=read
 -------------------------------------------------------
 1/10=7,30=1,38=1/1,3;
 2/12=2,15=1,17=6,18=5,40=1/2;
 3/5=4,6=6,11=2,25=1,30=1,71=1,74=-58,116=-2/1,2,3;
 4/5=1/1;
 5/5=2,8=3,13=1,38=6/2,8;
 6/7=3,28=1/1;
 7/29=1,30=1/1,2,3,16;
 1/10=7,30=1/3;
 99//99;
 -----------
 MD Step 999
 -----------
 Symbolic Z-matrix:
 Charge =  0 Multiplicity = 1
 C                    -0.33531  -0.58066   0.0054 
 H                     0.20949  -1.53325  -0.0179 
 H                    -1.42221  -0.59142  -0.01849 
 C                     0.33323   0.57694   0.00415 
 H                    -0.16903   1.56417  -0.0197 
 H                     1.44529   0.64353  -0.01909 
 

 GradGradGradGradGradGradGradGradGradGradGradGradGradGradGradGradGradGrad
 Berny optimization.
 Initialization pass.
 Trust Radius=3.00D-01 FncErr=1.00D-07 GrdErr=1.00D-07 EigMax=2.50D+02 EigMin=1.00D-04
 Number of steps in this run=      2 maximum allowed number of steps=      2.
 GradGradGradGradGradGradGradGradGradGradGradGradGradGradGradGradGradGrad

                          Input orientation:                          
 ---------------------------------------------------------------------
 Center     Atomic      Atomic             Coordinates (Angstroms)
 Number     Number       Type             X           Y           Z
 ---------------------------------------------------------------------
      1          6           0       -0.335313   -0.580659    0.005405
      2          1           0        0.209485   -1.533254   -0.017905
      3          1           0       -1.422208   -0.591418   -0.018492
      4          6           0        0.333228    0.576937    0.004151
      5          1           0       -0.169030    1.564167   -0.019702
      6          1           0        1.445292    0.643527   -0.019090
 ---------------------------------------------------------------------
                    Distance matrix (angstroms):
                    1          2          3          4          5
     1  C    0.000000
     2  H    1.097628   0.000000
     3  H    1.087211   1.884006   0.000000
     4  C    1.336778   2.113931   2.108820   0.000000
     5  H    2.151408   3.120463   2.493392   1.107905   0.000000
     6  H    2.160968   2.503117   3.122122   1.114298   1.858389
                    6
     6  H    0.000000
 Symmetry turned off by external request.
 Stoichiometry    C2H4
 Framework group  C1[X(C2H4)]
 Deg. of freedom    12
 Full point group                 C1      NOp   1
 Rotational constants (GHZ):         143.1312790          29.6994217          24.6004265
 Standard basis: 6-311G (5D, 7F)
    38 basis functions,    72 primitive gaussians,    38 cartesian basis functions
     8 alpha electrons        8 beta electrons
       nuclear repulsion energy        33.0602210575 Hartrees.
 NAtoms=    6 NActive=    6 NUniq=    6 SFac= 1.00D+00 NAtFMM=   60 NAOKFM=F Big=F
 Integral buffers will be    131072 words long.
 Raffenetti 2 integral format.
 Two-electron integral symmetry is turned off.
 Nuclear repulsion after empirical dispersion term =       33.0593797037 Hartrees.
 One-electron integrals computed using PRISM.
 NBasis=    38 RedAO= T EigKep=  6.41D-03  NBF=    38
 NBsUse=    38 1.00D-06 EigRej= -1.00D+00 NBFU=    38
 Initial guess from the checkpoint file:  "geometry.chk"
 B after Tr=    -0.000216   -0.000392   -0.000493
         Rot=    1.000000   -0.000001    0.000001    0.000004 Ang=  -0.00 deg.
 Keep R1 ints in memory in canonical form, NReq=4036876.
 Requested convergence on RMS density matrix=1.00D-08 within  32 cycles.
 Requested convergence on MAX density matrix=1.00D-06.
 Requested convergence on             energy=1.00D-06.
 No special actions if energy rises.
 SCF Done:  E(RwB97XD) =  -78.5558980556     A.U. after    8 cycles
            NFock=  8  Conv=0.56D-08     -V/T= 2.0052
 QCSCF skips out because SCF is already converged.

 **********************************************************************

            Population analysis using the SCF Density.

 **********************************************************************

 Alpha  occ. eigenvalues --  -10.29081 -10.28797  -0.86388  -0.67168  -0.55882
 Alpha  occ. eigenvalues --   -0.50969  -0.43604  -0.35713
 Alpha virt. eigenvalues --    0.08016   0.14084   0.16425   0.16982   0.24076
 Alpha virt. eigenvalues --    0.37558   0.39255   0.39756   0.46334   0.48756
 Alpha virt. eigenvalues --    0.49358   0.59111   0.66509   0.69017   0.77219
 Alpha virt. eigenvalues --    0.77586   0.84356   0.95321   2.23201   2.28952
 Alpha virt. eigenvalues --    2.33260   2.40670   2.67126   2.81781   2.87799
 Alpha virt. eigenvalues --    2.95186   3.14082   3.31804  23.35123  23.70662
     Molecular Orbital Coefficients:
                           1         2         3         4         5
                           O         O         O         O         O
     Eigenvalues --   -10.29081 -10.28797  -0.86388  -0.67168  -0.55882
   1 1   C  1S          0.08906   0.55631  -0.08848   0.06667  -0.00045
   2        2S          0.07350   0.45783  -0.13983   0.10680  -0.00074
   3        2PX         0.00016  -0.00001   0.02609   0.03715   0.13638
   4        2PY         0.00028  -0.00001   0.04654   0.06134  -0.07471
   5        2PZ         0.00000  -0.00001  -0.00097   0.00148   0.00013
   6        3S          0.00144   0.01456   0.37500  -0.29145   0.00206
   7        3PX        -0.00062   0.00042   0.03422   0.05952   0.21368
   8        3PY        -0.00106   0.00075   0.06082   0.09925  -0.11768
   9        3PZ        -0.00001  -0.00002  -0.00162   0.00263   0.00019
  10        4S          0.00365  -0.01461   0.19163  -0.22721   0.00192
  11        4PX         0.00153  -0.00150   0.00477   0.02384   0.11118
  12        4PY         0.00264  -0.00261   0.00858   0.04107  -0.06200
  13        4PZ         0.00000   0.00006  -0.00057   0.00132   0.00009
  14 2   H  1S         -0.00005  -0.00006   0.05231  -0.08821   0.10198
  15        2S         -0.00030   0.00009   0.05358  -0.10613   0.12918
  16        3S          0.00079   0.00169  -0.00169  -0.01538   0.04183
  17 3   H  1S         -0.00005  -0.00007   0.05363  -0.09120  -0.10403
  18        2S         -0.00030   0.00008   0.05441  -0.10904  -0.13095
  19        3S          0.00080   0.00173  -0.00168  -0.01619  -0.04242
  20 4   C  1S          0.55631  -0.08925  -0.08685  -0.06842  -0.00016
  21        2S          0.45788  -0.07325  -0.13715  -0.10972  -0.00025
  22        2PX        -0.00002  -0.00016  -0.02785   0.03702   0.11926
  23        2PY        -0.00003  -0.00028  -0.04717   0.06544  -0.07302
  24        2PZ        -0.00000   0.00000  -0.00076  -0.00145   0.00013
  25        3S          0.01412  -0.00317   0.36752   0.29978   0.00072
  26        3PX        -0.00023   0.00072  -0.03508   0.06014   0.18690
  27        3PY        -0.00037   0.00125  -0.05921   0.10593  -0.11368
  28        3PZ        -0.00002  -0.00000  -0.00130  -0.00263   0.00019
  29        4S         -0.01246   0.00811   0.18893   0.23810  -0.00021
  30        4PX         0.00094  -0.00190  -0.00553   0.02621   0.10262
  31        4PY         0.00158  -0.00330  -0.00910   0.04489  -0.06165
  32        4PZ         0.00005  -0.00001  -0.00054  -0.00136   0.00010
  33 5   H  1S         -0.00006  -0.00004   0.04955   0.09251  -0.09007
  34        2S         -0.00001  -0.00031   0.05082   0.11100  -0.11404
  35        3S          0.00179   0.00019  -0.00119   0.01668  -0.03672
  36 6   H  1S         -0.00005  -0.00004   0.04857   0.09141   0.08670
  37        2S         -0.00002  -0.00032   0.05030   0.10997   0.11001
  38        3S          0.00176   0.00019  -0.00125   0.01625   0.03564
                           6         7         8         9        10
                           O         O         O         V         V
     Eigenvalues --    -0.50969  -0.43604  -0.35713   0.08016   0.14084
   1 1   C  1S         -0.00419   0.00009  -0.00075   0.00202  -0.03281
   2        2S         -0.00634   0.00015  -0.00122   0.00335  -0.05261
   3        2PX         0.09514  -0.11148  -0.00250   0.00111  -0.03255
   4        2PY         0.16720   0.06637  -0.00424   0.00187  -0.06357
   5        2PZ         0.00376   0.00000   0.17946  -0.18904  -0.00178
   6        3S          0.02318  -0.00021   0.00357  -0.01012   0.11417
   7        3PX         0.13838  -0.17788  -0.00354   0.00168  -0.03882
   8        3PY         0.24434   0.10642  -0.00598   0.00279  -0.07849
   9        3PZ         0.00597   0.00002   0.28853  -0.27801  -0.00282
  10        4S         -0.04990  -0.00261   0.00504  -0.01168   1.20533
  11        4PX         0.06998  -0.11127  -0.00291   0.00927  -0.20106
  12        4PY         0.12433   0.06675  -0.00495   0.01580  -0.38206
  13        4PZ         0.00341   0.00004   0.26693  -0.69650  -0.01058
  14 2   H  1S         -0.07981  -0.11551   0.00010   0.00315  -0.01569
  15        2S         -0.11023  -0.17869   0.00150   0.00506  -0.04499
  16        3S         -0.04118  -0.08292   0.00087   0.01317  -0.81518
  17 3   H  1S         -0.07922   0.11344   0.00006   0.00316  -0.01291
  18        2S         -0.10884   0.17471   0.00146   0.00507  -0.03889
  19        3S         -0.04039   0.08074   0.00085   0.01291  -0.77185
  20 4   C  1S         -0.00774  -0.00037  -0.00058  -0.00195  -0.03680
  21        2S         -0.01207  -0.00060  -0.00095  -0.00323  -0.05911
  22        2PX        -0.09776   0.12377   0.00245   0.00122   0.03988
  23        2PY        -0.16301  -0.07301   0.00445   0.00221   0.06300
  24        2PZ         0.00393   0.00013   0.17930   0.18951  -0.00225
  25        3S          0.03950   0.00172   0.00278   0.00969   0.13068
  26        3PX        -0.14438   0.19861   0.00342   0.00186   0.04855
  27        3PY        -0.23944  -0.11643   0.00625   0.00338   0.07499
  28        3PZ         0.00621   0.00019   0.28697   0.27777  -0.00344
  29        4S         -0.03364   0.00210   0.00489   0.01103   1.25810
  30        4PX        -0.07504   0.12706   0.00261   0.00962   0.25748
  31        4PY        -0.12340  -0.07422   0.00486   0.01695   0.41678
  32        4PZ         0.00357   0.00012   0.26703   0.69761  -0.01310
  33 5   H  1S         -0.07527  -0.12430   0.00018  -0.00293  -0.01368
  34        2S         -0.10321  -0.19415   0.00154  -0.00485  -0.04017
  35        3S         -0.03853  -0.09126   0.00088  -0.01305  -0.83901
  36 6   H  1S         -0.08026   0.12343   0.00014  -0.00294  -0.01619
  37        2S         -0.11031   0.19362   0.00149  -0.00493  -0.04673
  38        3S         -0.04126   0.09108   0.00084  -0.01330  -0.88385
                          11        12        13        14        15
                           V         V         V         V         V
     Eigenvalues --     0.16425   0.16982   0.24076   0.37558   0.39255
   1 1   C  1S          0.00037  -0.04574   0.00013   0.01096   0.00084
   2        2S          0.00060  -0.07453   0.00019   0.01545   0.00125
   3        2PX         0.09647  -0.02119   0.10042  -0.03734  -0.02363
   4        2PY        -0.05486  -0.03773  -0.05749  -0.06738   0.01082
   5        2PZ         0.00002  -0.00499   0.00002  -0.00354  -0.00014
   6        3S         -0.00122   0.16833   0.00018   0.02936   0.00176
   7        3PX         0.13863  -0.01338   0.10693  -0.04971  -0.10417
   8        3PY        -0.07931  -0.02493  -0.06203  -0.09523   0.05322
   9        3PZ         0.00003  -0.00693  -0.00000  -0.00714  -0.00019
  10        4S         -0.02354   1.44577  -0.02569  -2.79083  -0.18020
  11        4PX         0.57142  -0.12320   1.16437  -1.59585  -0.54505
  12        4PY        -0.31703  -0.21281  -0.67120  -2.78162   0.14224
  13        4PZ         0.00024  -0.03249   0.00053  -0.03155  -0.00181
  14 2   H  1S         -0.03019  -0.02515   0.01306  -0.05436   0.07622
  15        2S         -0.08128  -0.01828  -0.02316  -0.62990   0.77244
  16        3S         -1.04007  -1.00650  -1.54612  -0.34300  -0.33667
  17 3   H  1S          0.02897  -0.02535  -0.01476  -0.04728  -0.07705
  18        2S          0.07972  -0.02088   0.01803  -0.57003  -0.77449
  19        3S          1.06924  -1.02398   1.57635  -0.41044   0.26909
  20 4   C  1S          0.00124   0.04228  -0.00014  -0.01978  -0.00025
  21        2S          0.00199   0.06884  -0.00023  -0.03226  -0.00033
  22        2PX         0.10194  -0.02373  -0.10014  -0.04140  -0.03159
  23        2PY        -0.06103  -0.03643   0.05745  -0.07463   0.01254
  24        2PZ         0.00015   0.00476  -0.00002   0.00262   0.00023
  25        3S         -0.00408  -0.15361   0.00028   0.03762  -0.00077
  26        3PX         0.14680  -0.01892  -0.11316  -0.09127  -0.11098
  27        3PY        -0.08689  -0.02596   0.06392  -0.16785   0.05400
  28        3PZ         0.00021   0.00655  -0.00000   0.00330   0.00048
  29        4S         -0.05270  -1.32286   0.01697   3.40711   0.15562
  30        4PX         0.54422  -0.12247  -1.12673  -1.24941  -0.54036
  31        4PY        -0.32919  -0.19007   0.64708  -2.20348   0.10518
  32        4PZ         0.00092   0.03093  -0.00050   0.02757   0.00189
  33 5   H  1S          0.03178   0.02504   0.00642   0.01412  -0.08011
  34        2S          0.07030   0.02170  -0.03331   0.11302  -0.78963
  35        3S          1.07741   0.91721  -1.51614   0.45580   0.47442
  36 6   H  1S         -0.03147   0.02603  -0.00554   0.00780   0.08711
  37        2S         -0.07045   0.02229   0.03415   0.05840   0.88034
  38        3S         -1.00613   0.94708   1.49858   0.47762  -0.44977
                          16        17        18        19        20
                           V         V         V         V         V
     Eigenvalues --     0.39756   0.46334   0.48756   0.49358   0.59111
   1 1   C  1S         -0.01708   0.01253  -0.04677  -0.00011  -0.00039
   2        2S         -0.03031   0.02902  -0.07827   0.00002  -0.00071
   3        2PX         0.02385  -0.06183   0.01244   0.00091   0.00153
   4        2PY         0.04346  -0.10658   0.01634   0.00133   0.00230
   5        2PZ        -0.00003  -0.00050   0.00322  -0.15170  -0.19268
   6        3S          0.07593  -0.33673   0.09476  -0.00720  -0.00041
   7        3PX         0.09775  -0.24271  -0.03090   0.00064   0.00511
   8        3PY         0.18177  -0.41669  -0.06384   0.00038   0.00779
   9        3PZ        -0.00325  -0.00354   0.01474  -0.62802  -0.68536
  10        4S          2.42183   0.05914   3.16925   0.06019   0.05016
  11        4PX         0.11979   0.21020   0.80301   0.01963   0.01616
  12        4PY         0.23568   0.39836   1.40471   0.03548   0.02742
  13        4PZ        -0.00328   0.00034  -0.06280   0.68613   1.24152
  14 2   H  1S         -0.02919  -0.03445  -0.07677  -0.00168  -0.00124
  15        2S         -0.56955  -0.32278  -0.91683  -0.01550  -0.00883
  16        3S          0.26975   0.06607   0.64482   0.02079   0.01711
  17 3   H  1S         -0.03507  -0.03706  -0.07471  -0.00165  -0.00117
  18        2S         -0.62221  -0.35503  -0.89774  -0.01544  -0.00751
  19        3S          0.27888   0.06871   0.61194   0.02023   0.01674
  20 4   C  1S         -0.00288  -0.00277   0.05096   0.00208   0.00051
  21        2S         -0.00827   0.00304   0.08858   0.00377   0.00095
  22        2PX         0.00617   0.05434   0.02696  -0.00002   0.00146
  23        2PY         0.01289   0.09496   0.04949  -0.00008   0.00283
  24        2PZ        -0.00252  -0.00120   0.00335  -0.15278   0.19232
  25        3S          0.08220  -0.28647  -0.23045  -0.01475  -0.00177
  26        3PX        -0.04800   0.23344   0.05248  -0.00014   0.00515
  27        3PY        -0.07437   0.40993   0.09549  -0.00055   0.00980
  28        3PZ        -0.00737  -0.00504   0.01201  -0.63147   0.68241
  29        4S         -0.58937   0.80260  -3.09106  -0.07453  -0.04511
  30        4PX         1.14139  -0.38001   0.64752   0.01112   0.01541
  31        4PY         2.05692  -0.63151   1.09872   0.01856   0.02705
  32        4PZ        -0.02203  -0.01087   0.02744   0.69344  -1.23808
  33 5   H  1S         -0.04938  -0.06371   0.06349   0.00153   0.00113
  34        2S         -0.84817  -0.64501   0.79150   0.02323   0.00451
  35        3S         -0.13405   0.28234  -0.56004  -0.00655  -0.01660
  36 6   H  1S         -0.04269  -0.06194   0.06427   0.00158   0.00118
  37        2S         -0.77377  -0.61971   0.79066   0.02312   0.00528
  38        3S         -0.15827   0.29055  -0.58003  -0.00728  -0.01681
                          21        22        23        24        25
                           V         V         V         V         V
     Eigenvalues --     0.66509   0.69017   0.77219   0.77586   0.84356
   1 1   C  1S          0.00056  -0.00049   0.05756   0.06845   0.00088
   2        2S          0.00115  -0.00111   0.12158   0.14600   0.00195
   3        2PX        -0.12668   0.20183  -0.01532   0.11473  -0.01005
   4        2PY         0.07399  -0.12010  -0.02820   0.18939   0.01097
   5        2PZ        -0.00004   0.00013   0.00080   0.00355   0.00010
   6        3S         -0.00898   0.01441  -0.84486  -1.28022  -0.01768
   7        3PX        -0.59623   0.71067  -0.13454   0.45394  -0.22973
   8        3PY         0.34556  -0.42215  -0.24107   0.74410   0.15263
   9        3PZ        -0.00023   0.00051   0.00291   0.01237   0.00041
  10        4S          0.01630  -0.07285   0.91803   2.41774  -0.06311
  11        4PX         1.09448  -0.80439   0.07282  -0.72262   4.46788
  12        4PY        -0.63594   0.47377   0.13183  -1.04264  -2.58634
  13        4PZ         0.00026   0.00046   0.00320  -0.04114   0.00204
  14 2   H  1S          0.02122  -0.05960   0.01359   0.03135  -0.02702
  15        2S          0.10467  -0.63866   0.09047   0.07642  -1.55129
  16        3S         -1.01374   1.12497  -0.18414  -1.10617  -1.21727
  17 3   H  1S         -0.02079   0.05921   0.01354   0.03210   0.02937
  18        2S         -0.11447   0.66894   0.09732   0.06011   1.58437
  19        3S          1.00695  -1.10190  -0.19527  -1.21376   1.22114
  20 4   C  1S          0.00077  -0.00065   0.08646   0.02327   0.00076
  21        2S          0.00154  -0.00125   0.18394   0.04880   0.00162
  22        2PX        -0.15649  -0.18068  -0.09255   0.06097   0.01135
  23        2PY         0.08969   0.10154  -0.16396   0.11037  -0.00261
  24        2PZ        -0.00005  -0.00015   0.00355  -0.00107  -0.00010
  25        3S         -0.01059   0.00373  -1.52159  -0.23622  -0.01174
  26        3PX        -0.69851  -0.60379  -0.33114   0.31038   0.24426
  27        3PY         0.40198   0.33728  -0.58836   0.55889  -0.11930
  28        3PZ        -0.00025  -0.00050   0.01256  -0.00395  -0.00030
  29        4S          0.00830   0.03961   2.68926  -0.13910   0.04762
  30        4PX         1.27438   0.67966   0.51570  -0.31324  -4.22667
  31        4PY        -0.72798  -0.39015   0.92843  -0.71859   2.38309
  32        4PZ         0.00047  -0.00017  -0.03576   0.02160  -0.00155
  33 5   H  1S         -0.02720  -0.05490   0.03487  -0.00043  -0.02336
  34        2S         -0.16645  -0.56520   0.07795   0.06288  -1.42409
  35        3S          1.13490   0.94782  -1.11164   0.38138  -1.10846
  36 6   H  1S          0.02758   0.05443   0.03473   0.00029   0.02388
  37        2S          0.16291   0.53950   0.07118   0.02510   1.41746
  38        3S         -1.13717  -0.94962  -1.08087   0.32540   1.11302
                          26        27        28        29        30
                           V         V         V         V         V
     Eigenvalues --     0.95321   2.23201   2.28952   2.33260   2.40670
   1 1   C  1S          0.09559  -0.01038  -0.01428   0.00026  -0.00039
   2        2S          0.19862   0.00112  -0.01452   0.00069  -0.00039
   3        2PX        -0.09179  -0.08570  -0.13365   0.33788  -0.41046
   4        2PY        -0.15909  -0.15679  -0.23004  -0.19367   0.23584
   5        2PZ         0.00013  -0.01024  -0.01334  -0.00005  -0.00042
   6        3S         -1.53762  -0.18422  -0.03209  -0.00207  -0.00410
   7        3PX        -0.23513   0.08563   0.21255  -0.40442   0.57203
   8        3PY        -0.40156   0.16818   0.37739   0.23396  -0.33155
   9        3PZ        -0.00187   0.01035   0.01666   0.00012   0.00049
  10        4S          5.71603  -0.12056  -0.89052  -0.00113  -0.02800
  11        4PX         1.18886   0.05195  -0.19409  -0.02494   0.96486
  12        4PY         1.99793   0.06573  -0.35272   0.00735  -0.54531
  13        4PZ        -0.01369   0.00261   0.00598  -0.00016   0.00087
  14 2   H  1S          0.01573  -0.72040  -0.77748  -0.70065   0.66439
  15        2S         -0.28825   1.02639   1.16855   1.06940  -1.47218
  16        3S         -0.08533  -0.30859  -0.46413  -0.46971   0.37735
  17 3   H  1S          0.01583  -0.71458  -0.77951   0.68815  -0.68204
  18        2S         -0.26771   1.02055   1.17323  -1.05433   1.50911
  19        3S         -0.07576  -0.28938  -0.45536   0.45802  -0.37151
  20 4   C  1S         -0.09415  -0.00997   0.01215   0.00032   0.00018
  21        2S         -0.19535   0.00096   0.01195   0.00045   0.00030
  22        2PX        -0.09283   0.12821  -0.12601   0.31255   0.41506
  23        2PY        -0.16017   0.22507  -0.21323  -0.18023  -0.23581
  24        2PZ         0.00024  -0.01039   0.01287   0.00019   0.00016
  25        3S          1.50993  -0.17186   0.02091   0.00001  -0.00018
  26        3PX        -0.22987  -0.16210   0.21542  -0.39161  -0.58252
  27        3PY        -0.40070  -0.28203   0.35992   0.22425   0.33039
  28        3PZ         0.00262   0.01114  -0.01649  -0.00022  -0.00025
  29        4S         -5.69425  -0.15233   0.88368   0.01271   0.01234
  30        4PX         1.12338  -0.01684  -0.19744   0.09125  -0.86830
  31        4PY         1.98966  -0.03339  -0.32900  -0.05324   0.49779
  32        4PZ         0.00904   0.00295  -0.00460  -0.00006  -0.00065
  33 5   H  1S         -0.01797  -0.77958   0.69055   0.71245   0.67513
  34        2S          0.29115   1.12849  -1.05023  -1.04269  -1.44503
  35        3S          0.06054  -0.35305   0.41404   0.51316   0.41974
  36 6   H  1S         -0.01799  -0.77144   0.71019  -0.70082  -0.67480
  37        2S          0.30689   1.11517  -1.07726   1.02290   1.44002
  38        3S          0.06287  -0.35064   0.43410  -0.50904  -0.42362
                          31        32        33        34        35
                           V         V         V         V         V
     Eigenvalues --     2.67126   2.81781   2.87799   2.95186   3.14082
   1 1   C  1S          0.00038   0.00186  -0.01333   0.00003  -0.00933
   2        2S          0.00033   0.00545  -0.04473  -0.00016  -0.02879
   3        2PX         0.00408   0.05358  -0.46818  -0.73727   0.45392
   4        2PY         0.00651   0.09370  -0.83774   0.41077   0.79931
   5        2PZ        -0.92345  -0.93546  -0.10376  -0.00084   0.00553
   6        3S         -0.00148  -0.04540   0.39512   0.00302   0.24325
   7        3PX        -0.00332  -0.09334   0.83550   0.88726  -0.44374
   8        3PY        -0.00535  -0.16214   1.47224  -0.48254  -0.78241
   9        3PZ         0.93809   1.14387   0.13017   0.00115  -0.00717
  10        4S          0.01027   0.10455  -0.88187  -0.01144  -0.47237
  11        4PX        -0.00113   0.07547  -0.71875  -0.66762   0.22900
  12        4PY        -0.00140   0.13140  -1.26958   0.35544   0.40638
  13        4PZ        -0.33730  -0.61997  -0.08245  -0.00091   0.00462
  14 2   H  1S          0.00889  -0.01543   0.26857  -0.37776  -0.22183
  15        2S         -0.01027   0.01012  -0.22757   0.38778   0.16896
  16        3S         -0.00201   0.03001  -0.29724   0.27045   0.06895
  17 3   H  1S          0.00896  -0.01484   0.25787   0.38106  -0.21769
  18        2S         -0.01048   0.00895  -0.20910  -0.38675   0.16382
  19        3S         -0.00236   0.03057  -0.30019  -0.28643   0.07181
  20 4   C  1S          0.00036  -0.00184   0.01378   0.00047  -0.00734
  21        2S          0.00031  -0.00569   0.04811   0.00116  -0.02335
  22        2PX        -0.00510   0.04840  -0.41581  -0.79795  -0.49843
  23        2PY        -0.00926   0.08658  -0.74530   0.44582  -0.87964
  24        2PZ        -0.92613   0.93249   0.10495   0.00033   0.00895
  25        3S         -0.00165   0.04889  -0.43203  -0.00931   0.20254
  26        3PX         0.00508  -0.08787   0.77876   0.94999   0.52816
  27        3PY         0.00909  -0.15581   1.38215  -0.52206   0.93857
  28        3PZ         0.94170  -1.14094  -0.13230  -0.00041  -0.01119
  29        4S          0.01059  -0.10655   0.91095   0.02574  -0.38714
  30        4PX        -0.00023   0.07444  -0.71176  -0.69601  -0.31504
  31        4PY        -0.00082   0.13101  -1.24936   0.37494  -0.56465
  32        4PZ        -0.33919   0.61865   0.08443   0.00027   0.00859
  33 5   H  1S          0.00850   0.02009  -0.29205   0.41706  -0.25643
  34        2S         -0.01041  -0.01619   0.26358  -0.43026   0.20123
  35        3S         -0.00106  -0.02844   0.28392  -0.24315   0.11609
  36 6   H  1S          0.00862   0.02042  -0.29076  -0.42488  -0.24825
  37        2S         -0.01078  -0.01696   0.26778   0.43743   0.19411
  38        3S         -0.00083  -0.02700   0.26933   0.24599   0.11275
                          36        37        38
                           V         V         V
     Eigenvalues --     3.31804  23.35123  23.70662
   1 1   C  1S         -0.00044  -1.41481  -1.45149
   2        2S         -0.00070   1.50882   1.56965
   3        2PX         0.77913  -0.00654   0.01205
   4        2PY        -0.43812  -0.01073   0.02120
   5        2PZ         0.00056  -0.00041  -0.00018
   6        3S          0.00199  -0.29578  -0.39963
   7        3PX        -1.11260   0.02423  -0.05575
   8        3PY         0.62442   0.04037  -0.09722
   9        3PZ        -0.00085   0.00116   0.00054
  10        4S         -0.02246   0.27237   0.77065
  11        4PX         1.95422  -0.02654   0.13269
  12        4PY        -1.10390  -0.04493   0.23031
  13        4PZ         0.00141  -0.00194  -0.00225
  14 2   H  1S          0.55540   0.01323   0.00683
  15        2S         -0.86627   0.00777  -0.01449
  16        3S         -0.46210  -0.08417  -0.03904
  17 3   H  1S         -0.56580   0.01474   0.00800
  18        2S          0.88070   0.00737  -0.01503
  19        3S          0.48134  -0.08591  -0.03976
  20 4   C  1S          0.00013  -1.44667   1.41960
  21        2S         -0.00002   1.54291  -1.53530
  22        2PX        -0.71702   0.00591   0.01267
  23        2PY         0.40666   0.01055   0.02154
  24        2PZ        -0.00040  -0.00039   0.00010
  25        3S          0.00226  -0.30279   0.39130
  26        3PX         1.02026  -0.02202  -0.05690
  27        3PY        -0.58479  -0.03897  -0.09767
  28        3PZ         0.00061   0.00113  -0.00024
  29        4S         -0.00200   0.28043  -0.76191
  30        4PX        -1.80220   0.02278   0.13256
  31        4PY         1.03635   0.04165   0.22798
  32        4PZ        -0.00104  -0.00183   0.00160
  33 5   H  1S          0.49040   0.01267  -0.00443
  34        2S         -0.76789   0.00828   0.01356
  35        3S         -0.42569  -0.08270   0.03733
  36 6   H  1S         -0.48784   0.01170  -0.00349
  37        2S          0.76549   0.00936   0.01286
  38        3S          0.42125  -0.08153   0.03634
     Density Matrix:
                           1         2         3         4         5
   1 1   C  1S          0.65941
   2        2S          0.56152   0.49203
   3        2PX        -0.00058  -0.00079   0.08429
   4        2PY        -0.00134  -0.00186   0.00364   0.08778
   5        2PZ         0.00006   0.00010  -0.00009  -0.00019   0.06444
   6        3S         -0.08896  -0.15389   0.00292   0.00654  -0.00013
   7        3PX         0.00086   0.00132   0.13050   0.00125  -0.00006
   8        3PY         0.00120   0.00184   0.00124   0.13131  -0.00016
   9        3PZ         0.00013   0.00021  -0.00015  -0.00031   0.10361
  10        4S         -0.07940  -0.11434  -0.01529  -0.02740   0.00039
  11        4PX         0.00024   0.00153   0.07048  -0.00459  -0.00043
  12        4PY         0.00056   0.00292  -0.00461   0.06558  -0.00075
  13        4PZ        -0.00008  -0.00020  -0.00060  -0.00103   0.09583
  14 2   H  1S         -0.02054  -0.03271   0.03456  -0.06322  -0.00090
  15        2S         -0.02281  -0.03646   0.04901  -0.08793  -0.00068
  16        3S          0.00056  -0.00072   0.02083  -0.03308  -0.00003
  17 3   H  1S         -0.02096  -0.03336  -0.07272  -0.00208  -0.00097
  18        2S         -0.02307  -0.03685  -0.10065  -0.00196  -0.00076
  19        3S          0.00059  -0.00069  -0.03855   0.00140  -0.00005
  20 4   C  1S          0.00610   0.00983  -0.01086  -0.01877  -0.00030
  21        2S          0.00980   0.01531  -0.01738  -0.03004  -0.00049
  22        2PX         0.01041   0.01664  -0.01238  -0.03216   0.00034
  23        2PY         0.01816   0.02905  -0.03228  -0.04969   0.00064
  24        2PZ        -0.00036  -0.00058  -0.00029  -0.00046   0.06438
  25        3S         -0.02640  -0.04008   0.04877   0.08430   0.00147
  26        3PX         0.01606   0.02490  -0.01816  -0.04576   0.00043
  27        3PY         0.02801   0.04343  -0.04586  -0.07111   0.00084
  28        3PZ        -0.00061  -0.00098  -0.00051  -0.00081   0.10304
  29        4S          0.00540   0.00404   0.02059   0.03581   0.00184
  30        4PX         0.00308   0.00638  -0.01297  -0.02088   0.00049
  31        4PY         0.00528   0.01097  -0.02091  -0.03729   0.00095
  32        4PZ        -0.00052  -0.00084  -0.00079  -0.00129   0.09586
  33 5   H  1S          0.00420   0.00691  -0.00172  -0.01225  -0.00035
  34        2S          0.00639   0.01062   0.00344  -0.02491  -0.00002
  35        3S          0.00330   0.00484   0.00417  -0.01758   0.00007
  36 6   H  1S          0.00416   0.00683  -0.00982  -0.00768  -0.00036
  37        2S          0.00626   0.01042  -0.02337  -0.00946  -0.00004
  38        3S          0.00324   0.00475  -0.01730  -0.00516   0.00005
                           6         7         8         9        10
   6        3S          0.45267
   7        3PX        -0.00168   0.20235
   8        3PY        -0.00146  -0.00451   0.19693
   9        3PZ        -0.00041  -0.00011  -0.00025   0.16659
  10        4S          0.27347  -0.02605  -0.04727   0.00049   0.18219
  11        4PX        -0.00663   0.10965  -0.01031  -0.00070  -0.01495
  12        4PY        -0.01213  -0.01033   0.09880  -0.00120  -0.02833
  13        4PZ         0.00087  -0.00080  -0.00135   0.15408   0.00153
  14 2   H  1S          0.08742   0.05567  -0.09874  -0.00150   0.06910
  15        2S          0.09756   0.07929  -0.13687  -0.00114   0.08121
  16        3S          0.00606   0.03403  -0.05089  -0.00005   0.01101
  17 3   H  1S          0.08923  -0.11393  -0.00166  -0.00160   0.06891
  18        2S          0.09872  -0.15751  -0.00022  -0.00125   0.07986
  19        3S          0.00616  -0.06008   0.00400  -0.00008   0.01012
  20 4   C  1S         -0.02662  -0.01692  -0.02927  -0.00051   0.00524
  21        2S         -0.04029  -0.02630  -0.04550  -0.00083   0.00397
  22        2PX        -0.04655  -0.01764  -0.04557   0.00058  -0.01790
  23        2PY        -0.08132  -0.04582  -0.07082   0.00109  -0.03139
  24        2PZ         0.00174  -0.00040  -0.00061   0.10351   0.00178
  25        3S          0.10270   0.07142   0.12364   0.00246   0.00091
  26        3PX        -0.06733  -0.02601  -0.06464   0.00076  -0.02667
  27        3PY        -0.11760  -0.06491  -0.10128   0.00145  -0.04674
  28        3PZ         0.00289  -0.00070  -0.00108   0.16566   0.00297
  29        4S          0.00158   0.03111   0.05428   0.00306  -0.03272
  30        4PX        -0.02257  -0.01940  -0.02928   0.00081  -0.00672
  31        4PY        -0.03899  -0.02941  -0.05386   0.00157  -0.01126
  32        4PZ         0.00246  -0.00110  -0.00178   0.15413   0.00275
  33 5   H  1S         -0.02057  -0.00070  -0.01765  -0.00051  -0.01523
  34        2S         -0.03175   0.00845  -0.03672   0.00002  -0.02006
  35        3S         -0.01249   0.00801  -0.02646   0.00012  -0.00384
  36 6   H  1S         -0.02028  -0.01487  -0.00931  -0.00052  -0.01522
  37        2S         -0.03112  -0.03588  -0.01066   0.00001  -0.02025
  38        3S         -0.01219  -0.02675  -0.00611   0.00010  -0.00407
                          11        12        13        14        15
  11        4PX         0.06048
  12        4PY        -0.00916   0.05111
  13        4PZ        -0.00101  -0.00170   0.14253
  14 2   H  1S          0.03350  -0.05426  -0.00077   0.08126
  15        2S          0.04850  -0.07510  -0.00028   0.10955   0.14981
  16        3S          0.02124  -0.02780   0.00015   0.03680   0.05261
  17 3   H  1S         -0.06330   0.00177  -0.00082  -0.01308  -0.02485
  18        2S         -0.08792   0.00446  -0.00032  -0.02477  -0.04330
  19        3S         -0.03385   0.00462   0.00014  -0.01818  -0.02765
  20 4   C  1S         -0.00316  -0.00566  -0.00045   0.00423   0.00666
  21        2S         -0.00653  -0.01161  -0.00073   0.00699   0.01111
  22        2PX        -0.01322  -0.02004   0.00080   0.00189  -0.00271
  23        2PY        -0.02016  -0.03670   0.00147   0.01152   0.02423
  24        2PZ        -0.00057  -0.00093   0.09575  -0.00042  -0.00011
  25        3S          0.02314   0.04096   0.00213  -0.02100  -0.03339
  26        3PX        -0.02034  -0.02826   0.00109   0.00100  -0.00738
  27        3PY        -0.02843  -0.05337   0.00202   0.01705   0.03621
  28        3PZ        -0.00094  -0.00153   0.15324  -0.00061  -0.00011
  29        4S          0.00784   0.01458   0.00280  -0.01740  -0.02366
  30        4PX        -0.01477  -0.01237   0.00098  -0.00165  -0.00851
  31        4PY        -0.01242  -0.02944   0.00186   0.01540   0.02731
  32        4PZ        -0.00113  -0.00187   0.14257  -0.00034   0.00023
  33 5   H  1S          0.00198  -0.01569  -0.00026   0.01122   0.02342
  34        2S          0.00918  -0.02746   0.00032   0.02380   0.04457
  35        3S          0.00754  -0.01586   0.00024   0.01668   0.02796
  36 6   H  1S         -0.01460  -0.00589  -0.00026  -0.00907  -0.01822
  37        2S         -0.02835  -0.00534   0.00031  -0.01882  -0.03441
  38        3S         -0.01736  -0.00121   0.00023  -0.01018  -0.01783
                          16        17        18        19        20
  16        3S          0.02113
  17 3   H  1S         -0.01837   0.08232
  18        2S         -0.02779   0.10986   0.14874
  19        3S         -0.01310   0.03632   0.05147   0.02044
  20 4   C  1S          0.00366   0.00430   0.00671   0.00367   0.65947
  21        2S          0.00538   0.00709   0.01119   0.00539   0.56155
  22        2PX        -0.00354   0.00902   0.02220   0.01666   0.00116
  23        2PY         0.01758   0.00746   0.00971   0.00562   0.00185
  24        2PZ         0.00002  -0.00041  -0.00009   0.00005   0.00006
  25        3S         -0.01392  -0.02128  -0.03357  -0.01390  -0.08920
  26        3PX        -0.00714   0.01432   0.03496   0.02606  -0.00050
  27        3PY         0.02647   0.00950   0.01169   0.00697  -0.00103
  28        3PZ         0.00006  -0.00060  -0.00007   0.00009   0.00013
  29        4S         -0.00554  -0.01731  -0.02323  -0.00525  -0.08020
  30        4PX        -0.00710   0.01400   0.02755   0.01704  -0.00021
  31        4PY         0.01596   0.00638   0.00631   0.00179  -0.00023
  32        4PZ         0.00020  -0.00034   0.00025   0.00022  -0.00003
  33 5   H  1S          0.01626  -0.00909  -0.01824  -0.00951  -0.02004
  34        2S          0.02757  -0.01876  -0.03418  -0.01710  -0.02220
  35        3S          0.01473  -0.01013  -0.01765  -0.00904   0.00056
  36 6   H  1S         -0.00958   0.01122   0.02324   0.01594  -0.01987
  37        2S         -0.01738   0.02386   0.04435   0.02712  -0.02223
  38        3S         -0.00922   0.01669   0.02779   0.01450   0.00047
                          21        22        23        24        25
  21        2S          0.49203
  22        2PX         0.00167   0.08250
  23        2PY         0.00265   0.00388   0.08753
  24        2PZ         0.00009   0.00011   0.00016   0.06434
  25        3S         -0.15416  -0.00539  -0.00865  -0.00012   0.45343
  26        3PX        -0.00075   0.12840   0.00199   0.00007  -0.00017
  27        3PY        -0.00156   0.00205   0.13117   0.00008   0.00053
  28        3PZ         0.00022   0.00016   0.00025   0.10297  -0.00045
  29        4S         -0.11587   0.01418   0.02407   0.00051   0.27860
  30        4PX        -0.00149   0.07286  -0.00510   0.00034   0.00636
  31        4PY        -0.00233  -0.00509   0.06685   0.00062   0.01022
  32        4PZ        -0.00010   0.00059   0.00105   0.09579   0.00056
  33 5   H  1S         -0.03193  -0.03344   0.06328  -0.00093   0.08538
  34        2S         -0.03548  -0.04968   0.08840  -0.00074   0.09493
  35        3S         -0.00066  -0.02251   0.03355  -0.00007   0.00577
  36 6   H  1S         -0.03167   0.07099   0.00287  -0.00087   0.08472
  37        2S         -0.03553   0.10108   0.00128  -0.00065   0.09502
  38        3S         -0.00078   0.04039  -0.00280  -0.00003   0.00599
                          26        27        28        29        30
  26        3PX         0.20017
  27        3PY        -0.00266   0.19716
  28        3PZ         0.00009   0.00012   0.16479
  29        4S          0.02591   0.04383   0.00065   0.18753
  30        4PX         0.11405  -0.01075   0.00053   0.01590   0.06607
  31        4PY        -0.01082   0.10103   0.00099   0.02591  -0.01050
  32        4PZ         0.00075   0.00135   0.15331   0.00152   0.00084
  33 5   H  1S         -0.05365   0.09920  -0.00153   0.06736  -0.03447
  34        2S         -0.08015   0.13808  -0.00124   0.07825  -0.05199
  35        3S         -0.03676   0.05174  -0.00011   0.00968  -0.02405
  36 6   H  1S          0.11220   0.00360  -0.00144   0.06777   0.06546
  37        2S          0.15959   0.00009  -0.00111   0.07957   0.09355
  38        3S          0.06347  -0.00596  -0.00006   0.01038   0.03753
                          31        32        33        34        35
  31        4PY         0.05334
  32        4PZ         0.00157   0.14264
  33 5   H  1S          0.05554  -0.00080   0.08048
  34        2S          0.07741  -0.00034   0.10992   0.15251
  35        3S          0.02912   0.00012   0.03807   0.05535   0.02289
  36 6   H  1S         -0.00188  -0.00076  -0.01249  -0.02590  -0.01978
  37        2S         -0.00610  -0.00028  -0.02601  -0.04797  -0.03137
  38        3S         -0.00624   0.00014  -0.01997  -0.03150  -0.01551
                          36        37        38
  36 6   H  1S          0.07982
  37        2S          0.10957   0.15277
  38        3S          0.03814   0.05567   0.02308
    Full Mulliken population analysis:
                           1         2         3         4         5
   1 1   C  1S          0.65941
   2        2S          0.49327   0.49203
   3        2PX         0.00000   0.00000   0.08429
   4        2PY         0.00000   0.00000   0.00000   0.08778
   5        2PZ         0.00000   0.00000   0.00000   0.00000   0.06444
   6        3S         -0.02928  -0.06445   0.00000   0.00000   0.00000
   7        3PX         0.00000   0.00000   0.08210   0.00000   0.00000
   8        3PY         0.00000   0.00000   0.00000   0.08261   0.00000
   9        3PZ         0.00000   0.00000   0.00000   0.00000   0.06518
  10        4S         -0.01221  -0.02140   0.00000   0.00000   0.00000
  11        4PX         0.00000   0.00000   0.01552   0.00000   0.00000
  12        4PY         0.00000   0.00000   0.00000   0.01444   0.00000
  13        4PZ         0.00000   0.00000   0.00000   0.00000   0.02111
  14 2   H  1S         -0.00023  -0.00033   0.00177   0.00565   0.00000
  15        2S         -0.00166  -0.00318   0.00423   0.01328   0.00000
  16        3S          0.00004  -0.00007   0.00069   0.00192   0.00000
  17 3   H  1S         -0.00025  -0.00036   0.00784   0.00000   0.00000
  18        2S         -0.00172  -0.00329   0.01773   0.00000   0.00000
  19        3S          0.00005  -0.00007   0.00257  -0.00000   0.00000
  20 4   C  1S          0.00000   0.00000  -0.00002  -0.00006   0.00000
  21        2S          0.00000  -0.00000  -0.00002  -0.00006   0.00000
  22        2PX        -0.00002  -0.00002   0.00011   0.00086   0.00000
  23        2PY        -0.00006  -0.00005   0.00086   0.00198   0.00000
  24        2PZ        -0.00000  -0.00000  -0.00000  -0.00000   0.00042
  25        3S         -0.00060  -0.00101   0.00255   0.00764  -0.00000
  26        3PX        -0.00055  -0.00100   0.00019   0.00555   0.00000
  27        3PY        -0.00165  -0.00302   0.00556   0.01069   0.00000
  28        3PZ        -0.00000  -0.00000  -0.00000  -0.00000   0.00614
  29        4S          0.00034   0.00031   0.00094   0.00282  -0.00000
  30        4PX        -0.00018  -0.00045  -0.00070   0.00145   0.00000
  31        4PY        -0.00053  -0.00135   0.00145   0.00096   0.00000
  32        4PZ        -0.00000  -0.00000  -0.00000  -0.00000   0.00903
  33 5   H  1S          0.00000   0.00000  -0.00000  -0.00000   0.00000
  34        2S          0.00001   0.00002   0.00000  -0.00032   0.00000
  35        3S          0.00008   0.00013   0.00001  -0.00071  -0.00000
  36 6   H  1S          0.00000   0.00000  -0.00000  -0.00000   0.00000
  37        2S          0.00001   0.00002  -0.00024  -0.00007   0.00000
  38        3S          0.00007   0.00013  -0.00057  -0.00012  -0.00000
                           6         7         8         9        10
   6        3S          0.45267
   7        3PX         0.00000   0.20235
   8        3PY         0.00000   0.00000   0.19693
   9        3PZ         0.00000   0.00000   0.00000   0.16659
  10        4S          0.21186   0.00000   0.00000   0.00000   0.18219
  11        4PX         0.00000   0.07165   0.00000   0.00000   0.00000
  12        4PY         0.00000   0.00000   0.06456   0.00000   0.00000
  13        4PZ         0.00000   0.00000   0.00000   0.10069   0.00000
  14 2   H  1S          0.01603   0.01052   0.03261   0.00001   0.01826
  15        2S          0.04102   0.01922   0.05800   0.00001   0.04678
  16        3S          0.00279   0.00393   0.01028   0.00000   0.00831
  17 3   H  1S          0.01683   0.04418   0.00001   0.00001   0.01841
  18        2S          0.04217   0.07737   0.00000   0.00001   0.04639
  19        3S          0.00285   0.01395  -0.00001   0.00000   0.00768
  20 4   C  1S         -0.00060  -0.00057  -0.00172   0.00000   0.00033
  21        2S         -0.00101  -0.00106  -0.00317   0.00000   0.00030
  22        2PX         0.00244   0.00018   0.00553   0.00000   0.00081
  23        2PY         0.00737   0.00556   0.01065   0.00000   0.00247
  24        2PZ         0.00000  -0.00000  -0.00000   0.00617   0.00000
  25        3S          0.02196   0.01342   0.04021  -0.00000   0.00034
  26        3PX         0.01265  -0.00127   0.01847   0.00000   0.00411
  27        3PY         0.03825   0.01855   0.02845   0.00000   0.01248
  28        3PZ         0.00000  -0.00000  -0.00000   0.03542   0.00000
  29        4S          0.00060   0.00480   0.01450  -0.00000  -0.02056
  30        4PX         0.00634  -0.00399   0.00580   0.00000   0.00204
  31        4PY         0.01898   0.00582   0.00122   0.00000   0.00591
  32        4PZ         0.00000  -0.00000  -0.00000   0.04932   0.00000
  33 5   H  1S         -0.00006  -0.00000  -0.00019   0.00000  -0.00082
  34        2S         -0.00124   0.00006  -0.00324  -0.00000  -0.00338
  35        3S         -0.00204   0.00010  -0.00427  -0.00000  -0.00139
  36 6   H  1S         -0.00005  -0.00013  -0.00005   0.00000  -0.00080
  37        2S         -0.00118  -0.00256  -0.00052  -0.00000  -0.00336
  38        3S         -0.00197  -0.00354  -0.00056  -0.00000  -0.00146
                          11        12        13        14        15
  11        4PX         0.06048
  12        4PY         0.00000   0.05111
  13        4PZ         0.00000   0.00000   0.14253
  14 2   H  1S          0.00623   0.01763   0.00001   0.08126
  15        2S          0.01517   0.04108   0.00000   0.07739   0.14981
  16        3S          0.00521   0.01192  -0.00000   0.01375   0.04150
  17 3   H  1S          0.02372  -0.00001   0.00001  -0.00001  -0.00067
  18        2S          0.05532  -0.00003   0.00000  -0.00067  -0.00549
  19        3S          0.01664  -0.00002  -0.00000  -0.00204  -0.00811
  20 4   C  1S         -0.00018  -0.00057   0.00000   0.00000   0.00002
  21        2S         -0.00046  -0.00143   0.00000   0.00000   0.00003
  22        2PX        -0.00072   0.00139   0.00000  -0.00000   0.00000
  23        2PY         0.00140   0.00094   0.00000  -0.00000  -0.00035
  24        2PZ        -0.00000  -0.00000   0.00902   0.00000   0.00000
  25        3S          0.00650   0.01993  -0.00000  -0.00007  -0.00145
  26        3PX        -0.00418   0.00559   0.00000  -0.00000   0.00004
  27        3PY         0.00563   0.00121   0.00000  -0.00022  -0.00352
  28        3PZ        -0.00000  -0.00000   0.04903   0.00000   0.00000
  29        4S          0.00238   0.00765  -0.00000  -0.00101  -0.00422
  30        4PX        -0.00713   0.00313   0.00000   0.00002   0.00019
  31        4PY         0.00314  -0.00561   0.00000  -0.00243  -0.01024
  32        4PZ        -0.00000  -0.00000   0.08960   0.00000  -0.00000
  33 5   H  1S          0.00002  -0.00233   0.00000   0.00000   0.00000
  34        2S          0.00026  -0.00988  -0.00000   0.00000   0.00015
  35        3S          0.00027  -0.00733  -0.00000   0.00023   0.00146
  36 6   H  1S         -0.00177  -0.00049   0.00000  -0.00000  -0.00004
  37        2S         -0.00835  -0.00108  -0.00000  -0.00004  -0.00090
  38        3S         -0.00660  -0.00032  -0.00000  -0.00046  -0.00245
                          16        17        18        19        20
  16        3S          0.02113
  17 3   H  1S         -0.00206   0.08232
  18        2S         -0.00815   0.07760   0.14874
  19        3S         -0.00683   0.01357   0.04060   0.02044
  20 4   C  1S          0.00009   0.00000   0.00002   0.00009   0.65947
  21        2S          0.00016   0.00000   0.00003   0.00016   0.49329
  22        2PX         0.00001  -0.00000  -0.00028  -0.00058   0.00000
  23        2PY        -0.00073  -0.00000  -0.00008  -0.00013   0.00000
  24        2PZ        -0.00000   0.00000   0.00000  -0.00000   0.00000
  25        3S         -0.00239  -0.00007  -0.00148  -0.00240  -0.02936
  26        3PX         0.00007  -0.00016  -0.00287  -0.00364   0.00000
  27        3PY        -0.00441  -0.00007  -0.00064  -0.00065   0.00000
  28        3PZ        -0.00000   0.00000   0.00000  -0.00000   0.00000
  29        4S         -0.00207  -0.00101  -0.00417  -0.00197  -0.01233
  30        4PX         0.00020  -0.00185  -0.00866  -0.00670   0.00000
  31        4PY        -0.00751  -0.00056  -0.00132  -0.00047   0.00000
  32        4PZ        -0.00000   0.00000  -0.00000  -0.00000   0.00000
  33 5   H  1S          0.00022  -0.00000  -0.00004  -0.00043  -0.00021
  34        2S          0.00144  -0.00004  -0.00092  -0.00238  -0.00158
  35        3S          0.00247  -0.00046  -0.00246  -0.00289   0.00004
  36 6   H  1S         -0.00043   0.00000   0.00000   0.00022  -0.00020
  37        2S         -0.00239   0.00000   0.00015   0.00141  -0.00156
  38        3S         -0.00292   0.00023   0.00145   0.00243   0.00004
                          21        22        23        24        25
  21        2S          0.49203
  22        2PX         0.00000   0.08250
  23        2PY         0.00000   0.00000   0.08753
  24        2PZ         0.00000   0.00000   0.00000   0.06434
  25        3S         -0.06456   0.00000   0.00000   0.00000   0.45343
  26        3PX         0.00000   0.08078   0.00000   0.00000   0.00000
  27        3PY         0.00000   0.00000   0.08252   0.00000   0.00000
  28        3PZ         0.00000   0.00000   0.00000   0.06478   0.00000
  29        4S         -0.02169   0.00000   0.00000   0.00000   0.21583
  30        4PX         0.00000   0.01605   0.00000   0.00000   0.00000
  31        4PY         0.00000   0.00000   0.01472   0.00000   0.00000
  32        4PZ         0.00000   0.00000   0.00000   0.02110   0.00000
  33 5   H  1S         -0.00030   0.00149   0.00555   0.00000   0.01522
  34        2S         -0.00302   0.00387   0.01354   0.00000   0.03929
  35        3S         -0.00006   0.00068   0.00200   0.00000   0.00264
  36 6   H  1S         -0.00028   0.00678   0.00002   0.00000   0.01483
  37        2S         -0.00298   0.01720   0.00001   0.00000   0.03894
  38        3S         -0.00007   0.00270  -0.00001   0.00000   0.00273
                          26        27        28        29        30
  26        3PX         0.20017
  27        3PY         0.00000   0.19716
  28        3PZ         0.00000   0.00000   0.16479
  29        4S          0.00000   0.00000   0.00000   0.18753
  30        4PX         0.07453   0.00000   0.00000   0.00000   0.06607
  31        4PY         0.00000   0.06602   0.00000   0.00000   0.00000
  32        4PZ         0.00000   0.00000   0.10018   0.00000   0.00000
  33 5   H  1S          0.00908   0.03301   0.00001   0.01762   0.00584
  34        2S          0.01763   0.05969   0.00001   0.04471   0.01487
  35        3S          0.00389   0.01076   0.00000   0.00727   0.00541
  36 6   H  1S          0.04132   0.00008   0.00001   0.01761   0.02441
  37        2S          0.07695   0.00000   0.00001   0.04524   0.05895
  38        3S          0.01480  -0.00008   0.00000   0.00777   0.01864
                          31        32        33        34        35
  31        4PY         0.05334
  32        4PZ         0.00000   0.14264
  33 5   H  1S          0.01850   0.00001   0.08048
  34        2S          0.04353   0.00000   0.07764   0.15251
  35        3S          0.01287  -0.00000   0.01423   0.04367   0.02289
  36 6   H  1S         -0.00004   0.00001  -0.00001  -0.00076  -0.00229
  37        2S         -0.00023   0.00000  -0.00076  -0.00643  -0.00944
  38        3S         -0.00019  -0.00000  -0.00232  -0.00948  -0.00823
                          36        37        38
  36 6   H  1S          0.07982
  37        2S          0.07740   0.15277
  38        3S          0.01425   0.04392   0.02308
     Gross orbital populations:
                           1
   1 1   C  1S          1.10435
   2        2S          0.88586
   3        2PX         0.22687
   4        2PY         0.23630
   5        2PZ         0.16634
   6        3S          0.79292
   7        3PX         0.56063
   8        3PY         0.55608
   9        3PZ         0.42342
  10        4S          0.50331
  11        4PX         0.26015
  12        4PY         0.21149
  13        4PZ         0.41199
  14 2   H  1S          0.27386
  15        2S          0.46712
  16        3S          0.08616
  17 3   H  1S          0.27713
  18        2S          0.46534
  19        3S          0.08332
  20 4   C  1S          1.10441
  21        2S          0.88584
  22        2PX         0.22177
  23        2PY         0.23569
  24        2PZ         0.16583
  25        3S          0.79208
  26        3PX         0.55216
  27        3PY         0.55580
  28        3PZ         0.42040
  29        4S          0.50885
  30        4PX         0.27424
  31        4PY         0.21598
  32        4PZ         0.41188
  33 5   H  1S          0.27146
  34        2S          0.47024
  35        3S          0.08952
  36 6   H  1S          0.26940
  37        2S          0.47093
  38        3S          0.09088
          Condensed to atoms (all electrons):
               1          2          3          4          5          6
     1  C    5.034121   0.387132   0.387964   0.602247  -0.036227  -0.035528
     2  H    0.387132   0.517486  -0.034018  -0.039818   0.005980  -0.009624
     3  H    0.387964  -0.034018   0.515056  -0.039475  -0.009629   0.005889
     4  C    0.602247  -0.039818  -0.039475   5.054700   0.383879   0.383402
     5  H   -0.036227   0.005980  -0.009629   0.383879   0.526951  -0.039732
     6  H   -0.035528  -0.009624   0.005889   0.383402  -0.039732   0.526800
 Mulliken charges:
               1
     1  C   -0.339709
     2  H    0.172861
     3  H    0.174213
     4  C   -0.344935
     5  H    0.168777
     6  H    0.168794
 Sum of Mulliken charges =  -0.00000
 Mulliken charges with hydrogens summed into heavy atoms:
               1
     1  C    0.007365
     4  C   -0.007365
 Electronic spatial extent (au):  <R**2>=             83.7628
 Charge=             -0.0000 electrons
 Dipole moment (field-independent basis, Debye):
    X=             -0.0016    Y=              0.0136    Z=             -0.0780  Tot=              0.0792
 Quadrupole moment (field-independent basis, Debye-Ang):
   XX=            -12.2063   YY=            -12.2159   ZZ=            -15.6746
   XY=              0.0175   XZ=              0.0005   YZ=             -0.0012
 Traceless Quadrupole moment (field-independent basis, Debye-Ang):
   XX=              1.1593   YY=              1.1497   ZZ=             -2.3090
   XY=              0.0175   XZ=              0.0005   YZ=             -0.0012
 Octapole moment (field-independent basis, Debye-Ang**2):
  XXX=             -0.2775  YYY=             -0.0864  ZZZ=             -0.0566  XYY=              0.1341
  XXY=             -0.0247  XXZ=             -0.1073  XZZ=             -0.0830  YZZ=             -0.0828
  YYZ=             -0.1405  XYZ=             -0.0288
 Hexadecapole moment (field-independent basis, Debye-Ang**3):
 XXXX=            -34.3095 YYYY=            -55.2293 ZZZZ=            -17.8060 XXXY=             -7.2199
 XXXZ=              0.0118 YYYX=            -10.7079 YYYZ=              0.0167 ZZZX=              0.0141
 ZZZY=              0.0260 XXYY=            -16.2128 XXZZ=             -9.9371 YYZZ=            -13.6589
 XXYZ=              0.0058 YYXZ=              0.0006 ZZXY=             -3.2020
 N-N= 3.305937970373D+01 E-N=-2.478256552048D+02  KE= 7.814655437278D+01
 Orbital energies and kinetic energies (alpha):
                                 1                 2
   1         O               -10.290806         15.978761
   2         O               -10.287969         15.979700
   3         O                -0.863880          1.540405
   4         O                -0.671683          1.269974
   5         O                -0.558818          0.940815
   6         O                -0.509689          1.283041
   7         O                -0.436044          1.041573
   8         O                -0.357128          1.039008
   9         V                 0.080164          1.181662
  10         V                 0.140838          0.590147
  11         V                 0.164247          0.597321
  12         V                 0.169816          0.681106
  13         V                 0.240758          0.583911
  14         V                 0.375584          0.855174
  15         V                 0.392548          0.932812
  16         V                 0.397563          0.775075
  17         V                 0.463339          1.192549
  18         V                 0.487558          1.422699
  19         V                 0.493578          1.300864
  20         V                 0.591107          1.653389
  21         V                 0.665086          1.570966
  22         V                 0.690171          2.146876
  23         V                 0.772190          2.459841
  24         V                 0.775856          2.279053
  25         V                 0.843561          1.085906
  26         V                 0.953211          3.431563
  27         V                 2.232015          3.922516
  28         V                 2.289518          4.030730
  29         V                 2.332603          4.301428
  30         V                 2.406700          4.517045
  31         V                 2.671256          6.301334
  32         V                 2.817809          6.306543
  33         V                 2.877995          6.134736
  34         V                 2.951857          6.226917
  35         V                 3.140822          6.822044
  36         V                 3.318036          6.401737
  37         V                23.351227         60.073878
  38         V                23.706621         60.204597
 Total kinetic energy from orbitals= 7.814655437278D+01
 Calling FoFJK, ICntrl=      2127 FMM=F ISym2X=0 I1Cent= 0 IOpClX= 0 NMat=1 NMatS=1 NMatT=0.
 -------------------------------------------------------------------
 Center     Atomic                   Forces (Hartrees/Bohr)
 Number     Number              X              Y              Z
 -------------------------------------------------------------------
      1        6           0.010755923    0.005643910   -0.003240035
      2        1          -0.008304859    0.006617903    0.001621762
      3        1           0.003350514   -0.003614176    0.001497276
      4        6           0.008913718    0.011087872   -0.003406507
      5        1           0.003904825   -0.014848546    0.001733472
      6        1          -0.018620121   -0.004886963    0.001794031
 -------------------------------------------------------------------
 Cartesian Forces:  Max     0.018620121 RMS     0.007910999

 GradGradGradGradGradGradGradGradGradGradGradGradGradGradGradGradGradGrad
 Berny optimization.
 Search for a local minimum.
 Step number   1 out of a maximum of    2
 All quantities printed in internal units (Hartrees-Bohrs-Radians)
 Second derivative matrix not updated -- first step.
 The second derivative matrix:
                          X1        Y1        Z1        X2        Y2
           X1           0.75664
           Y1           0.10137   0.86212
           Z1           0.00458   0.00713   0.17249
           X2          -0.16225   0.09490   0.00167   0.13965
           Y2           0.10128  -0.28500  -0.00599  -0.11421   0.27399
           Z2           0.00265  -0.00753  -0.05548  -0.00240   0.00623
           X3          -0.35110  -0.00236  -0.00647  -0.00035  -0.00019
           Y3          -0.00858  -0.10979  -0.00157   0.03256   0.01859
           Z3          -0.00830  -0.00152  -0.05633   0.00121   0.00043
           X4          -0.26820  -0.17953  -0.00058   0.02296   0.01312
           Y4          -0.17995  -0.47550  -0.00096  -0.01326  -0.00758
           Z4           0.00105   0.00189  -0.09484  -0.00048  -0.00067
           X5           0.02335  -0.01349   0.00049  -0.00000   0.00000
           Y5           0.01187  -0.00685   0.00066   0.00000  -0.00000
           Z5          -0.00043   0.00027   0.01722   0.00021  -0.00011
           X6           0.00157  -0.00090   0.00031  -0.00000   0.00000
           Y6          -0.02600   0.01502   0.00074   0.00000  -0.00000
           Z6           0.00045  -0.00024   0.01694  -0.00021   0.00011
                          Z2        X3        Y3        Z3        X4
           Z2           0.02880
           X3          -0.00024   0.35119
           Y3           0.00128   0.00270   0.07578
           Z3           0.01054   0.00707   0.00108   0.02950
           X4           0.00039   0.00027  -0.02669  -0.00038   0.71188
           Y4          -0.00021  -0.00016   0.01542   0.00024   0.12199
           Z4           0.01612  -0.00035  -0.00079   0.01630  -0.00406
           X5          -0.00020  -0.00000   0.00000   0.00020  -0.14683
           Y5           0.00012   0.00000  -0.00000  -0.00013   0.09223
           Z5           0.00929   0.00021  -0.00013  -0.00941  -0.00243
           X6          -0.00020  -0.00000   0.00000   0.00020  -0.32008
           Y6           0.00011   0.00000  -0.00000  -0.00011  -0.02112
           Z6          -0.00928  -0.00021   0.00013   0.00940   0.00706
                          Y4        Z4        X5        Y5        Z5
           Y4           0.85723
           Z4          -0.00770   0.17555
           X5           0.08434  -0.00160   0.12544
           Y5          -0.28515   0.00575  -0.10312   0.27562
           Z5           0.00713  -0.05667   0.00217  -0.00612   0.02938
           X6          -0.01297   0.00545  -0.00195  -0.00099   0.00028
           Y6          -0.10442   0.00151   0.03227   0.01639  -0.00104
           Z6           0.00150  -0.05647  -0.00106  -0.00029   0.01019
                          X6        Y6        Z6
           X6           0.32048
           Y6           0.01485   0.07302
           Z6          -0.00604  -0.00121   0.02921
 ITU=  0
     Eigenvalues ---    0.03741   0.04371   0.09306   0.09974   0.13503
     Eigenvalues ---    0.17392   0.26517   0.28838   0.52670   0.69658
     Eigenvalues ---    0.97059   1.56716
 Angle between quadratic step and forces=  32.07 degrees.
 Linear search not attempted -- first point.
 B after Tr=     0.005207    0.006404   -0.007987
         Rot=    1.000000   -0.000035    0.000019   -0.000108 Ang=  -0.01 deg.
 Variable       Old X    -DE/DX   Delta X   Delta X   Delta X     New X
                                 (Linear)    (Quad)   (Total)
    X1       -0.63365   0.01076   0.00000   0.01715   0.02259  -0.61106
    Y1       -1.09729   0.00564   0.00000   0.01993   0.02620  -1.07108
    Z1        0.01021  -0.00324   0.00000  -0.01701  -0.02510  -0.01488
    X2        0.39587  -0.00830   0.00000  -0.02745  -0.02162   0.37425
    Y2       -2.89743   0.00662   0.00000   0.02710   0.03359  -2.86384
    Z2       -0.03383   0.00162   0.00000   0.02083   0.01266  -0.02118
    X3       -2.68758   0.00335   0.00000   0.02619   0.03164  -2.65594
    Y3       -1.11762  -0.00361   0.00000  -0.01362  -0.00779  -1.12541
    Z3       -0.03494   0.00150   0.00000   0.02038   0.01222  -0.02273
    X4        0.62971   0.00891   0.00000   0.00439   0.00936   0.63907
    Y4        1.09025   0.01109   0.00000   0.00659   0.01313   1.10339
    Z4        0.00784  -0.00341   0.00000  -0.01604  -0.02393  -0.01608
    X5       -0.31942   0.00390   0.00000  -0.00002   0.00456  -0.31486
    Y5        2.95585  -0.01485   0.00000  -0.04619  -0.03986   2.91599
    Z5       -0.03723   0.00173   0.00000   0.02010   0.01231  -0.02493
    X6        2.73121  -0.01862   0.00000  -0.05149  -0.04653   2.68467
    Y6        1.21609  -0.00489   0.00000  -0.03226  -0.02528   1.19081
    Z6       -0.03607   0.00179   0.00000   0.01965   0.01185  -0.02423
         Item               Value     Threshold  Converged?
 Maximum Force            0.018620     0.000450     NO 
 RMS     Force            0.007911     0.000300     NO 
 Maximum Displacement     0.046533     0.001800     NO 
 RMS     Displacement     0.023958     0.001200     NO 
 Predicted change in Energy=-1.499874D-03
 GradGradGradGradGradGradGradGradGradGradGradGradGradGradGradGradGradGrad

 Unable to Open any file for archive entry.
 1\1\GINC-BHD0004\Force\RwB97XD\6-311G\C2H4\BWEIGHT\11-Jan-2023\0\\# WB
 97XD/6-311G SCF=XQC FORCE nosym pop=full guess=read\\MD Step 999\\0,1\
 C,-0.33531309,-0.5806586,0.00540481\H,0.20948548,-1.53325377,-0.017904
 51\H,-1.42220774,-0.59141796,-0.01849192\C,0.33322762,0.57693716,0.004
 15132\H,-0.16902977,1.56416678,-0.01970242\H,1.44529163,0.64352747,-0.
 01908962\\Version=ES64L-G16RevC.01\HF=-78.5558981\RMSD=5.644e-09\RMSF=
 7.911e-03\Dipole=-0.0006208,0.0053585,-0.0307038\Quadrupole=0.8619339,
 0.8547628,-1.7166967,0.0130273,0.0003459,-0.0008831\PG=C01 [X(C2H4)]\\
 @
 The archive entry for this job was punched.


 10 WHATSOEVER THY HAND FINDETH TO DO, DO IT WITH THY  
 MIGHT. FOR THERE IS NO WORK, NOR DEVICE, NOR KNOWLEDGE, NOR  
 WISDOM, IN THE GRAVE, WHITHER THOU GOEST.                    
 11 I RETURNED AND SAW UNDER THE SUN, THAT THE RACE IS NOT TO 
 THE SWIFT, NOR THE BATTLE TO THE STRONG, NEITHER YET BREAD TO
 THE WISE, NOR YET RICHES TO MEN OF UNDERSTANDING, NOR YET    
 FAVOR TO MEN OF SKILL. BUT TIME AND CHANCE HAPPEN TO THEM ALL.
 12 FOR MAN ALSO KNOWETH NOT HIS TIME. AS THE FISHES   
 THAT ARE TAKEN IN AN EVIL NET, AND AS THE BIRDS THAT ARE     
 CAUGHT IN THE SNARE. SO ARE THE SONS OF MEN SNARED IN AN EVIL
 TIME, WHEN IT FALLETH SUDDENLY UPON THEM.
                                         ECCLESIASTES 9
 Job cpu time:       0 days  0 hours  0 minutes 59.2 seconds.
 Elapsed time:       0 days  0 hours  0 minutes 21.6 seconds.
 File lengths (MBytes):  RWF=    272 Int=      0 D2E=      0 Chk=     32 Scr=     32
 Normal termination of Gaussian 16 at Wed Jan 11 18:31:21 2023.
