 Entering Gaussian System, Link 0=g16
 Initial command:
 /software/gaussian/g16-c01/avx2/g16/l1.exe "/gpfs/fs2/scratch/bweight/software/many_molecule_many_mode_NAMD/src/NAMD/TEST_NVT/TRAJ/traj-94/G16/GS_NEW/Gau-45143.inp" -scrdir="/gpfs/fs2/scratch/bweight/software/many_molecule_many_mode_NAMD/src/NAMD/TEST_NVT/TRAJ/traj-94/G16/GS_NEW/"
 Entering Link 1 = /software/gaussian/g16-c01/avx2/g16/l1.exe PID=     45144.
  
 Copyright (c) 1988-2019, Gaussian, Inc.  All Rights Reserved.
  
 This is part of the Gaussian(R) 16 program.  It is based on
 the Gaussian(R) 09 system (copyright 2009, Gaussian, Inc.),
 the Gaussian(R) 03 system (copyright 2003, Gaussian, Inc.),
 the Gaussian(R) 98 system (copyright 1998, Gaussian, Inc.),
 the Gaussian(R) 94 system (copyright 1995, Gaussian, Inc.),
 the Gaussian 92(TM) system (copyright 1992, Gaussian, Inc.),
 the Gaussian 90(TM) system (copyright 1990, Gaussian, Inc.),
 the Gaussian 88(TM) system (copyright 1988, Gaussian, Inc.),
 the Gaussian 86(TM) system (copyright 1986, Carnegie Mellon
 University), and the Gaussian 82(TM) system (copyright 1983,
 Carnegie Mellon University). Gaussian is a federally registered
 trademark of Gaussian, Inc.
  
 This software contains proprietary and confidential information,
 including trade secrets, belonging to Gaussian, Inc.
  
 This software is provided under written license and may be
 used, copied, transmitted, or stored only in accord with that
 written license.
  
 The following legend is applicable only to US Government
 contracts under FAR:
  
                    RESTRICTED RIGHTS LEGEND
  
 Use, reproduction and disclosure by the US Government is
 subject to restrictions as set forth in subparagraphs (a)
 and (c) of the Commercial Computer Software - Restricted
 Rights clause in FAR 52.227-19.
  
 Gaussian, Inc.
 340 Quinnipiac St., Bldg. 40, Wallingford CT 06492
  
  
 ---------------------------------------------------------------
 Warning -- This program may not be used in any manner that
 competes with the business of Gaussian, Inc. or will provide
 assistance to any competitor of Gaussian, Inc.  The licensee
 of this program is prohibited from giving any competitor of
 Gaussian, Inc. access to this program.  By using this program,
 the user acknowledges that Gaussian, Inc. is engaged in the
 business of creating and licensing software in the field of
 computational chemistry and represents and warrants to the
 licensee that it is not a competitor of Gaussian, Inc. and that
 it will not use this program in any manner prohibited above.
 ---------------------------------------------------------------
  

 Cite this work as:
 Gaussian 16, Revision C.01,
 M. J. Frisch, G. W. Trucks, H. B. Schlegel, G. E. Scuseria, 
 M. A. Robb, J. R. Cheeseman, G. Scalmani, V. Barone, 
 G. A. Petersson, H. Nakatsuji, X. Li, M. Caricato, A. V. Marenich, 
 J. Bloino, B. G. Janesko, R. Gomperts, B. Mennucci, H. P. Hratchian, 
 J. V. Ortiz, A. F. Izmaylov, J. L. Sonnenberg, D. Williams-Young, 
 F. Ding, F. Lipparini, F. Egidi, J. Goings, B. Peng, A. Petrone, 
 T. Henderson, D. Ranasinghe, V. G. Zakrzewski, J. Gao, N. Rega, 
 G. Zheng, W. Liang, M. Hada, M. Ehara, K. Toyota, R. Fukuda, 
 J. Hasegawa, M. Ishida, T. Nakajima, Y. Honda, O. Kitao, H. Nakai, 
 T. Vreven, K. Throssell, J. A. Montgomery, Jr., J. E. Peralta, 
 F. Ogliaro, M. J. Bearpark, J. J. Heyd, E. N. Brothers, K. N. Kudin, 
 V. N. Staroverov, T. A. Keith, R. Kobayashi, J. Normand, 
 K. Raghavachari, A. P. Rendell, J. C. Burant, S. S. Iyengar, 
 J. Tomasi, M. Cossi, J. M. Millam, M. Klene, C. Adamo, R. Cammi, 
 J. W. Ochterski, R. L. Martin, K. Morokuma, O. Farkas, 
 J. B. Foresman, and D. J. Fox, Gaussian, Inc., Wallingford CT, 2019.
 
 ******************************************
 Gaussian 16:  ES64L-G16RevC.01  3-Jul-2019
                11-Jan-2023 
 ******************************************
 %oldchk=../GS_OLD/geometry.chk
 %chk=geometry.chk
 %nprocshared=4
 Will use up to    4 processors via shared memory.
 %mem=5GB
 Copying data from "../GS_OLD/geometry.chk" to current chk file "geometry.chk"
 IOpt=  2 FromEx=T IUOpen= 4 IOptOp= 5 NList=   0 IFRang= 0 IUIn= 4 IUOut= 2.
 -------------------------------------------------------
 # WB97XD/6-311G SCF=XQC FORCE nosym pop=full guess=read
 -------------------------------------------------------
 1/10=7,30=1,38=1/1,3;
 2/12=2,15=1,17=6,18=5,40=1/2;
 3/5=4,6=6,11=2,25=1,30=1,71=1,74=-58,116=-2/1,2,3;
 4/5=1/1;
 5/5=2,8=3,13=1,38=6/2,8;
 6/7=3,28=1/1;
 7/29=1,30=1/1,2,3,16;
 1/10=7,30=1/3;
 99//99;
 ------------
 MD Step 1000
 ------------
 Symbolic Z-matrix:
 Charge =  0 Multiplicity = 1
 C                    -0.33615  -0.58161   0.00731 
 H                     0.2172   -1.53323  -0.02792 
 H                    -1.42668  -0.58896  -0.02895 
 C                     0.33332   0.57769   0.00533 
 H                    -0.1616    1.55852  -0.03075 
 H                     1.43803   0.64356  -0.02978 
 

 GradGradGradGradGradGradGradGradGradGradGradGradGradGradGradGradGradGrad
 Berny optimization.
 Initialization pass.
 Trust Radius=3.00D-01 FncErr=1.00D-07 GrdErr=1.00D-07 EigMax=2.50D+02 EigMin=1.00D-04
 Number of steps in this run=      2 maximum allowed number of steps=      2.
 GradGradGradGradGradGradGradGradGradGradGradGradGradGradGradGradGradGrad

                          Input orientation:                          
 ---------------------------------------------------------------------
 Center     Atomic      Atomic             Coordinates (Angstroms)
 Number     Number       Type             X           Y           Z
 ---------------------------------------------------------------------
      1          6           0       -0.336152   -0.581608    0.007308
      2          1           0        0.217204   -1.533227   -0.027925
      3          1           0       -1.426678   -0.588960   -0.028946
      4          6           0        0.333321    0.577693    0.005333
      5          1           0       -0.161605    1.558520   -0.030746
      6          1           0        1.438033    0.643555   -0.029777
 ---------------------------------------------------------------------
                    Distance matrix (angstroms):
                    1          2          3          4          5
     1  C    0.000000
     2  H    1.101373   0.000000
     3  H    1.091154   1.895782   0.000000
     4  C    1.338722   2.114373   2.111836   0.000000
     5  H    2.147571   3.114868   2.492405   1.099216   0.000000
     6  H    2.156416   2.495758   3.118600   1.107230   1.842825
                    6
     6  H    0.000000
 Symmetry turned off by external request.
 Stoichiometry    C2H4
 Framework group  C1[X(C2H4)]
 Deg. of freedom    12
 Full point group                 C1      NOp   1
 Rotational constants (GHZ):         143.2970379          29.6782492          24.5966955
 Standard basis: 6-311G (5D, 7F)
    38 basis functions,    72 primitive gaussians,    38 cartesian basis functions
     8 alpha electrons        8 beta electrons
       nuclear repulsion energy        33.0651187294 Hartrees.
 NAtoms=    6 NActive=    6 NUniq=    6 SFac= 1.00D+00 NAtFMM=   60 NAOKFM=F Big=F
 Integral buffers will be    131072 words long.
 Raffenetti 2 integral format.
 Two-electron integral symmetry is turned off.
 Nuclear repulsion after empirical dispersion term =       33.0642768168 Hartrees.
 One-electron integrals computed using PRISM.
 NBasis=    38 RedAO= T EigKep=  6.44D-03  NBF=    38
 NBsUse=    38 1.00D-06 EigRej= -1.00D+00 NBFU=    38
 Initial guess from the checkpoint file:  "geometry.chk"
 B after Tr=    -0.000239   -0.000365   -0.000532
         Rot=    1.000000    0.000004   -0.000001    0.000005 Ang=   0.00 deg.
 Keep R1 ints in memory in canonical form, NReq=4036876.
 Requested convergence on RMS density matrix=1.00D-08 within  32 cycles.
 Requested convergence on MAX density matrix=1.00D-06.
 Requested convergence on             energy=1.00D-06.
 No special actions if energy rises.
 SCF Done:  E(RwB97XD) =  -78.5558950075     A.U. after    8 cycles
            NFock=  8  Conv=0.66D-08     -V/T= 2.0052
 QCSCF skips out because SCF is already converged.

 **********************************************************************

            Population analysis using the SCF Density.

 **********************************************************************

 Alpha  occ. eigenvalues --  -10.28963 -10.28871  -0.86365  -0.67237  -0.55919
 Alpha  occ. eigenvalues --   -0.50922  -0.43684  -0.35673
 Alpha virt. eigenvalues --    0.07959   0.14096   0.16477   0.17024   0.24090
 Alpha virt. eigenvalues --    0.37392   0.39351   0.39836   0.46480   0.48814
 Alpha virt. eigenvalues --    0.49388   0.59102   0.66567   0.69091   0.77365
 Alpha virt. eigenvalues --    0.77474   0.84126   0.95165   2.23176   2.29044
 Alpha virt. eigenvalues --    2.33218   2.40601   2.67116   2.81741   2.87886
 Alpha virt. eigenvalues --    2.95195   3.14014   3.31862  23.35252  23.70545
     Molecular Orbital Coefficients:
                           1         2         3         4         5
                           O         O         O         O         O
     Eigenvalues --   -10.28963 -10.28871  -0.86365  -0.67237  -0.55919
   1 1   C  1S          0.33463   0.45326  -0.08799   0.06724  -0.00031
   2        2S          0.27557   0.37292  -0.13906   0.10770  -0.00052
   3        2PX         0.00014  -0.00008   0.02623   0.03561   0.13574
   4        2PY         0.00024  -0.00014   0.04661   0.05899  -0.07339
   5        2PZ        -0.00000  -0.00001  -0.00145   0.00218   0.00022
   6        3S          0.00795   0.01224   0.37304  -0.29396   0.00144
   7        3PX        -0.00035   0.00065   0.03457   0.05733   0.21287
   8        3PY        -0.00059   0.00115   0.06113   0.09588  -0.11577
   9        3PZ        -0.00003  -0.00003  -0.00244   0.00389   0.00032
  10        4S         -0.00348  -0.01458   0.19154  -0.22829   0.00097
  11        4PX         0.00065  -0.00204   0.00495   0.02313   0.11094
  12        4PY         0.00112  -0.00352   0.00885   0.03984  -0.06112
  13        4PZ         0.00004   0.00008  -0.00086   0.00195   0.00016
  14 2   H  1S         -0.00006  -0.00003   0.05183  -0.08728   0.10077
  15        2S         -0.00022   0.00022   0.05325  -0.10549   0.12789
  16        3S          0.00146   0.00114  -0.00172  -0.01512   0.04131
  17 3   H  1S         -0.00007  -0.00004   0.05299  -0.09024  -0.10352
  18        2S         -0.00023   0.00021   0.05398  -0.10837  -0.13056
  19        3S          0.00149   0.00115  -0.00176  -0.01589  -0.04214
  20 4   C  1S          0.45316  -0.33479  -0.08722  -0.06795  -0.00021
  21        2S          0.37308  -0.27537  -0.13774  -0.10896  -0.00033
  22        2PX        -0.00009  -0.00014  -0.02730   0.03812   0.12008
  23        2PY        -0.00015  -0.00024  -0.04617   0.06791  -0.07421
  24        2PZ        -0.00000   0.00000  -0.00118  -0.00229   0.00022
  25        3S          0.01113  -0.00932   0.36903   0.29773   0.00088
  26        3PX         0.00014   0.00074  -0.03436   0.06157   0.18793
  27        3PY         0.00026   0.00127  -0.05801   0.10912  -0.11522
  28        3PZ        -0.00004   0.00001  -0.00203  -0.00410   0.00033
  29        4S         -0.00737   0.01293   0.18934   0.23589  -0.00002
  30        4PX        -0.00005  -0.00210  -0.00528   0.02664   0.10269
  31        4PY        -0.00014  -0.00364  -0.00886   0.04605  -0.06231
  32        4PZ         0.00006  -0.00005  -0.00083  -0.00210   0.00016
  33 5   H  1S         -0.00008  -0.00000   0.05074   0.09402  -0.09143
  34        2S         -0.00015  -0.00028   0.05168   0.11175  -0.11506
  35        3S          0.00171  -0.00067  -0.00108   0.01680  -0.03699
  36 6   H  1S         -0.00007  -0.00001   0.04966   0.09229   0.08777
  37        2S         -0.00016  -0.00028   0.05106   0.11020   0.11092
  38        3S          0.00167  -0.00066  -0.00115   0.01629   0.03594
                           6         7         8         9        10
                           O         O         O         V         V
     Eigenvalues --    -0.50922  -0.43684  -0.35673   0.07959   0.14096
   1 1   C  1S         -0.00353   0.00014  -0.00114   0.00308  -0.03448
   2        2S         -0.00526   0.00025  -0.00185   0.00511  -0.05534
   3        2PX         0.09487  -0.11213  -0.00379   0.00173  -0.03250
   4        2PY         0.16813   0.06663  -0.00643   0.00287  -0.06504
   5        2PZ         0.00570  -0.00001   0.17936  -0.18908  -0.00320
   6        3S          0.02028  -0.00052   0.00543  -0.01542   0.12097
   7        3PX         0.13798  -0.17925  -0.00535   0.00261  -0.03825
   8        3PY         0.24582   0.10692  -0.00905   0.00429  -0.07983
   9        3PZ         0.00904   0.00002   0.28813  -0.27780  -0.00501
  10        4S         -0.05419  -0.00283   0.00782  -0.01850   1.24359
  11        4PX         0.06959  -0.11173  -0.00440   0.01428  -0.19949
  12        4PY         0.12494   0.06712  -0.00749   0.02404  -0.38807
  13        4PZ         0.00517   0.00005   0.26709  -0.69439  -0.01847
  14 2   H  1S         -0.08072  -0.11600   0.00014   0.00479  -0.01765
  15        2S         -0.11206  -0.17964   0.00223   0.00770  -0.04793
  16        3S         -0.04192  -0.08323   0.00130   0.02033  -0.84582
  17 3   H  1S         -0.07959   0.11374   0.00009   0.00482  -0.01439
  18        2S         -0.10993   0.17548   0.00217   0.00781  -0.04028
  19        3S         -0.04082   0.08107   0.00127   0.02012  -0.79254
  20 4   C  1S         -0.00855  -0.00043  -0.00088  -0.00288  -0.03522
  21        2S         -0.01340  -0.00071  -0.00144  -0.00477  -0.05654
  22        2PX        -0.09779   0.12383   0.00372   0.00179   0.03953
  23        2PY        -0.16207  -0.07306   0.00676   0.00324   0.06075
  24        2PZ         0.00596   0.00020   0.17905   0.18928  -0.00291
  25        3S          0.04311   0.00203   0.00424   0.01437   0.12436
  26        3PX        -0.14468   0.19782   0.00521   0.00276   0.04856
  27        3PY        -0.23829  -0.11602   0.00950   0.00501   0.07249
  28        3PZ         0.00942   0.00029   0.28687   0.27784  -0.00447
  29        4S         -0.02718   0.00266   0.00723   0.01511   1.22511
  30        4PX        -0.07547   0.12585   0.00398   0.01417   0.25742
  31        4PY        -0.12315  -0.07323   0.00741   0.02514   0.40872
  32        4PZ         0.00543   0.00017   0.26751   0.69517  -0.01751
  33 5   H  1S         -0.07429  -0.12407   0.00027  -0.00438  -0.01147
  34        2S         -0.10116  -0.19272   0.00236  -0.00715  -0.03712
  35        3S         -0.03779  -0.09031   0.00135  -0.01853  -0.81163
  36 6   H  1S         -0.07953   0.12352   0.00020  -0.00439  -0.01448
  37        2S         -0.10870   0.19279   0.00228  -0.00724  -0.04477
  38        3S         -0.04074   0.09038   0.00129  -0.01891  -0.86529
                          11        12        13        14        15
                           V         V         V         V         V
     Eigenvalues --     0.16477   0.17024   0.24090   0.37392   0.39351
   1 1   C  1S          0.00137  -0.04476   0.00006   0.01007   0.00097
   2        2S          0.00223  -0.07296   0.00009   0.01398   0.00155
   3        2PX         0.09862  -0.01878   0.09957  -0.03691  -0.02475
   4        2PY        -0.05453  -0.03701  -0.05700  -0.06685   0.01039
   5        2PZ         0.00021  -0.00739   0.00003  -0.00534  -0.00021
   6        3S         -0.00491   0.16497   0.00024   0.03041  -0.00073
   7        3PX         0.14094  -0.01026   0.10605  -0.04753  -0.10688
   8        3PY        -0.07916  -0.02461  -0.06148  -0.09050   0.04989
   9        3PZ         0.00029  -0.01025  -0.00001  -0.01090  -0.00026
  10        4S         -0.05592   1.40475  -0.01813  -2.65180  -0.18599
  11        4PX         0.58471  -0.10699   1.15998  -1.56491  -0.52697
  12        4PY        -0.31533  -0.20238  -0.66457  -2.72765   0.14794
  13        4PZ         0.00145  -0.04819   0.00084  -0.04738  -0.00255
  14 2   H  1S         -0.02921  -0.02587   0.01265  -0.05722   0.07655
  15        2S         -0.07901  -0.01937  -0.02550  -0.65511   0.77920
  16        3S         -1.02746  -0.99496  -1.52880  -0.31065  -0.34543
  17 3   H  1S          0.02913  -0.02517  -0.01439  -0.05077  -0.07691
  18        2S          0.07866  -0.02057   0.02040  -0.60341  -0.76905
  19        3S          1.10137  -0.97974   1.55440  -0.37650   0.27742
  20 4   C  1S          0.00065   0.04312  -0.00010  -0.01978  -0.00005
  21        2S          0.00103   0.07018  -0.00018  -0.03237   0.00008
  22        2PX         0.10009  -0.02268  -0.10068  -0.04093  -0.03030
  23        2PY        -0.05971  -0.03859   0.05768  -0.07294   0.01289
  24        2PZ         0.00010   0.00719  -0.00003   0.00379   0.00037
  25        3S         -0.00184  -0.15573   0.00033   0.03947  -0.00356
  26        3PX         0.14369  -0.01713  -0.11369  -0.09218  -0.10837
  27        3PY        -0.08511  -0.02816   0.06404  -0.16685   0.05724
  28        3PZ         0.00014   0.00989   0.00001   0.00454   0.00077
  29        4S         -0.03880  -1.37383   0.01270   3.31842   0.14798
  30        4PX         0.53811  -0.11830  -1.13109  -1.19026  -0.57071
  31        4PY        -0.32550  -0.20843   0.65395  -2.08978   0.10910
  32        4PZ         0.00063   0.04702  -0.00083   0.03998   0.00299
  33 5   H  1S          0.03067   0.02452   0.00712   0.01034  -0.07977
  34        2S          0.06878   0.02110  -0.03146   0.06558  -0.78568
  35        3S          1.06519   0.97100  -1.54345   0.45726   0.45031
  36 6   H  1S         -0.03134   0.02471  -0.00590   0.00557   0.08714
  37        2S         -0.06990   0.01903   0.03263   0.02447   0.88917
  38        3S         -1.01448   0.96078   1.52703   0.46916  -0.42856
                          16        17        18        19        20
                           V         V         V         V         V
     Eigenvalues --     0.39836   0.46480   0.48814   0.49388   0.59102
   1 1   C  1S         -0.01838  -0.00969   0.04763  -0.00043  -0.00063
   2        2S         -0.03236  -0.02434   0.08021  -0.00043  -0.00114
   3        2PX         0.02621   0.06043  -0.01549   0.00152   0.00232
   4        2PY         0.04863   0.10492  -0.02196   0.00223   0.00352
   5        2PZ         0.00021   0.00065  -0.00572  -0.15208  -0.19238
   6        3S          0.07775   0.33140  -0.11802  -0.00969  -0.00022
   7        3PX         0.10132   0.24248   0.01835   0.00118   0.00778
   8        3PY         0.19191   0.41919   0.04173   0.00078   0.01190
   9        3PZ        -0.00430   0.00493  -0.02611  -0.62889  -0.68403
  10        4S          2.59437  -0.28744  -3.09154   0.10410   0.07500
  11        4PX         0.21239  -0.28151  -0.80159   0.03324   0.02389
  12        4PY         0.40526  -0.51757  -1.38860   0.05968   0.04168
  13        4PZ        -0.00296   0.00261   0.09820   0.68596   1.23943
  14 2   H  1S         -0.02664   0.03851   0.07428  -0.00288  -0.00188
  15        2S         -0.53798   0.37319   0.88424  -0.02736  -0.01313
  16        3S          0.30362  -0.11400  -0.64294   0.03453   0.02605
  17 3   H  1S         -0.03462   0.04064   0.07215  -0.00281  -0.00180
  18        2S         -0.60984   0.39788   0.85835  -0.02693  -0.01160
  19        3S          0.32326  -0.11599  -0.61409   0.03361   0.02547
  20 4   C  1S         -0.00103  -0.00025  -0.05061   0.00339   0.00077
  21        2S         -0.00528  -0.00818  -0.08753   0.00612   0.00142
  22        2PX         0.00791  -0.05636  -0.02464   0.00005   0.00225
  23        2PY         0.01615  -0.09747  -0.04501  -0.00000   0.00432
  24        2PZ        -0.00391   0.00174  -0.00588  -0.15239   0.19232
  25        3S          0.07920   0.29896   0.20848  -0.02284  -0.00238
  26        3PX        -0.04507  -0.23843  -0.04161  -0.00024   0.00789
  27        3PY        -0.06646  -0.41568  -0.07464  -0.00101   0.01492
  28        3PZ        -0.01126   0.00751  -0.02185  -0.63059   0.68306
  29        4S         -0.77794  -0.60660   3.16384  -0.13029  -0.06881
  30        4PX         1.21804   0.30781  -0.64024   0.01948   0.02347
  31        4PY         2.20675   0.51108  -1.08571   0.03241   0.03999
  32        4PZ        -0.03582   0.01525  -0.04033   0.69335  -1.23814
  33 5   H  1S         -0.04830   0.05983  -0.06722   0.00274   0.00174
  34        2S         -0.84738   0.61086  -0.84844   0.04091   0.00769
  35        3S         -0.19029  -0.22711   0.55720  -0.01213  -0.02511
  36 6   H  1S         -0.04000   0.05871  -0.06727   0.00277   0.00178
  37        2S         -0.75321   0.59470  -0.84256   0.04042   0.00826
  38        3S         -0.21499  -0.24124   0.57634  -0.01333  -0.02536
                          21        22        23        24        25
                           V         V         V         V         V
     Eigenvalues --     0.66567   0.69091   0.77365   0.77474   0.84126
   1 1   C  1S          0.00069   0.00032   0.06621   0.05940   0.00077
   2        2S          0.00142   0.00074   0.14014   0.12687   0.00176
   3        2PX        -0.14221  -0.19123  -0.00000   0.11624  -0.00988
   4        2PY         0.08293   0.11417  -0.00160   0.19169   0.01254
   5        2PZ        -0.00009  -0.00018   0.00188   0.00512   0.00014
   6        3S         -0.01160  -0.01135  -1.01354  -1.14408  -0.01873
   7        3PX        -0.64789  -0.65987  -0.07352   0.46911  -0.23339
   8        3PY         0.37471   0.39459  -0.13485   0.76711   0.16140
   9        3PZ        -0.00047  -0.00068   0.00677   0.01784   0.00049
  10        4S          0.02146   0.05810   1.28005   2.23291  -0.02616
  11        4PX         1.11523   0.72699   0.00326  -0.74936   4.48130
  12        4PY        -0.64667  -0.43913  -0.00853  -1.04220  -2.56919
  13        4PZ         0.00042  -0.00093  -0.00404  -0.06218   0.00368
  14 2   H  1S          0.02626   0.05750   0.01750   0.02960  -0.02605
  15        2S          0.16613   0.61891   0.08762   0.06488  -1.55404
  16        3S         -1.08223  -1.04506  -0.33659  -1.05629  -1.21261
  17 3   H  1S         -0.02563  -0.05719   0.01755   0.03025   0.02892
  18        2S         -0.17873  -0.64562   0.10251   0.03547   1.58785
  19        3S          1.07266   1.01708  -0.34782  -1.17592   1.21423
  20 4   C  1S          0.00091   0.00025   0.08919   0.01158   0.00054
  21        2S          0.00185   0.00046   0.18969   0.02380   0.00108
  22        2PX        -0.14221   0.19259  -0.08250   0.07336   0.01048
  23        2PY         0.08161  -0.10760  -0.14796   0.13298   0.00009
  24        2PZ        -0.00006   0.00019   0.00520  -0.00236  -0.00016
  25        3S         -0.01309   0.00215  -1.54273  -0.02934  -0.00500
  26        3PX        -0.65339   0.66154  -0.28091   0.35225   0.23316
  27        3PY         0.37715  -0.36796  -0.50825   0.63793  -0.10344
  28        3PZ        -0.00035   0.00068   0.01831  -0.00866  -0.00049
  29        4S          0.00936  -0.04149   2.61814  -0.49428   0.00796
  30        4PX         1.25383  -0.79148   0.45473  -0.36893  -4.19818
  31        4PY        -0.71939   0.43870   0.84871  -0.86645   2.38722
  32        4PZ         0.00073   0.00068  -0.04909   0.04012  -0.00286
  33 5   H  1S         -0.02282   0.05649   0.03408  -0.00490  -0.02361
  34        2S         -0.11735   0.58406   0.09856   0.05407  -1.42726
  35        3S          1.07921  -1.03827  -1.07460   0.54481  -1.11377
  36 6   H  1S          0.02334  -0.05644   0.03381  -0.00429   0.02351
  37        2S          0.11337  -0.55653   0.09101   0.00689   1.41537
  38        3S         -1.08103   1.05416  -1.02669   0.46931   1.12373
                          26        27        28        29        30
                           V         V         V         V         V
     Eigenvalues --     0.95165   2.23176   2.29044   2.33218   2.40601
   1 1   C  1S          0.09569  -0.00977  -0.01411   0.00023   0.00039
   2        2S          0.19883   0.00201  -0.01370   0.00063   0.00041
   3        2PX        -0.09126  -0.08183  -0.13415   0.34743   0.40439
   4        2PY        -0.15806  -0.15159  -0.22942  -0.19914  -0.22996
   5        2PZ         0.00022  -0.01504  -0.02063  -0.00007   0.00074
   6        3S         -1.54167  -0.18524  -0.03826  -0.00155   0.00409
   7        3PX        -0.23191   0.08208   0.21277  -0.42114  -0.56528
   8        3PY        -0.39519   0.16307   0.37667   0.24375   0.32347
   9        3PZ        -0.00275   0.01528   0.02576   0.00019  -0.00084
  10        4S          5.71452  -0.09894  -0.88170  -0.00471   0.01865
  11        4PX         1.19396   0.04928  -0.19216  -0.04687  -0.95995
  12        4PY         1.98930   0.06446  -0.35702   0.01725   0.53549
  13        4PZ        -0.02105   0.00325   0.00887  -0.00022  -0.00145
  14 2   H  1S          0.01587  -0.70842  -0.78861  -0.72087  -0.64364
  15        2S         -0.29057   1.00650   1.18112   1.11151   1.43800
  16        3S         -0.09257  -0.30598  -0.47214  -0.48220  -0.36858
  17 3   H  1S          0.01615  -0.70100  -0.79442   0.70476   0.66228
  18        2S         -0.26567   0.99763   1.19361  -1.09076  -1.47666
  19        3S         -0.07703  -0.28717  -0.46382   0.46801   0.36220
  20 4   C  1S         -0.09407  -0.01088   0.01261   0.00045  -0.00025
  21        2S         -0.19513  -0.00061   0.01300   0.00060  -0.00047
  22        2PX        -0.09215   0.13159  -0.12511   0.30156  -0.41900
  23        2PY        -0.15898   0.22955  -0.20699  -0.17541   0.24024
  24        2PZ         0.00035  -0.01616   0.01920   0.00042  -0.00026
  25        3S          1.50883  -0.16811   0.01703   0.00038   0.00024
  26        3PX        -0.22687  -0.16521   0.21261  -0.37144   0.58594
  27        3PY        -0.39613  -0.28376   0.34789   0.21426  -0.33606
  28        3PZ         0.00403   0.01712  -0.02449  -0.00046   0.00038
  29        4S         -5.69921  -0.18153   0.89481   0.01798  -0.00600
  30        4PX         1.11175  -0.01811  -0.19780   0.10431   0.86575
  31        4PY         1.98503  -0.03860  -0.31890  -0.06108  -0.50428
  32        4PZ         0.01387   0.00533  -0.00729  -0.00014   0.00123
  33 5   H  1S         -0.01751  -0.78954   0.67480   0.69716  -0.69624
  34        2S          0.28969   1.14703  -1.03158  -1.01187   1.47787
  35        3S          0.06597  -0.35036   0.39895   0.49960  -0.42753
  36 6   H  1S         -0.01754  -0.78353   0.70010  -0.67854   0.69493
  37        2S          0.30959   1.13661  -1.06458   0.98143  -1.46950
  38        3S          0.07270  -0.35125   0.42697  -0.49272   0.43380
                          31        32        33        34        35
                           V         V         V         V         V
     Eigenvalues --     2.67116   2.81741   2.87886   2.95195   3.14014
   1 1   C  1S          0.00057  -0.00281  -0.01343  -0.00003  -0.00947
   2        2S          0.00049  -0.00813  -0.04440  -0.00036  -0.02915
   3        2PX         0.00622  -0.07987  -0.46524  -0.73612   0.45068
   4        2PY         0.00975  -0.14069  -0.84274   0.40990   0.78880
   5        2PZ        -0.92536   0.92631  -0.15423  -0.00151   0.00765
   6        3S         -0.00220   0.06729   0.38957   0.00486   0.24592
   7        3PX        -0.00515   0.13870   0.82695   0.88459  -0.43561
   8        3PY        -0.00807   0.24227   1.47032  -0.47872  -0.76201
   9        3PZ         0.94095  -1.13231   0.19343   0.00204  -0.00983
  10        4S          0.01558  -0.15588  -0.87427  -0.01431  -0.48098
  11        4PX        -0.00159  -0.11165  -0.70918  -0.67500   0.22136
  12        4PY        -0.00187  -0.19566  -1.26224   0.35581   0.38473
  13        4PZ        -0.33900   0.61259  -0.12261  -0.00160   0.00611
  14 2   H  1S          0.01356   0.02224   0.26643  -0.38027  -0.21595
  15        2S         -0.01560  -0.01422  -0.22475   0.39577   0.16411
  16        3S         -0.00289  -0.04485  -0.29604   0.26671   0.06077
  17 3   H  1S          0.01375   0.02150   0.25503   0.38382  -0.21516
  18        2S         -0.01613  -0.01259  -0.20615  -0.39525   0.16323
  19        3S         -0.00335  -0.04515  -0.29534  -0.28335   0.06699
  20 4   C  1S          0.00055   0.00271   0.01334   0.00052  -0.00766
  21        2S          0.00050   0.00841   0.04711   0.00128  -0.02350
  22        2PX        -0.00774  -0.07188  -0.40778  -0.80172  -0.50114
  23        2PY        -0.01406  -0.12826  -0.73046   0.44304  -0.88827
  24        2PZ        -0.92395  -0.92723   0.15665   0.00071   0.01433
  25        3S         -0.00262  -0.07208  -0.42383  -0.01001   0.20005
  26        3PX         0.00765   0.13068   0.76816   0.95990   0.53530
  27        3PY         0.01367   0.23131   1.36285  -0.52141   0.95706
  28        3PZ         0.93926   1.13293  -0.19752  -0.00088  -0.01811
  29        4S          0.01614   0.15691   0.88894   0.02793  -0.37924
  30        4PX        -0.00017  -0.11102  -0.70559  -0.69762  -0.32391
  31        4PY        -0.00103  -0.19482  -1.23869   0.37240  -0.58353
  32        4PZ        -0.33809  -0.61232   0.12625   0.00059   0.01399
  33 5   H  1S          0.01272  -0.02955  -0.29114   0.41315  -0.26245
  34        2S         -0.01549   0.02357   0.26281  -0.42070   0.20493
  35        3S         -0.00190   0.04292   0.28691  -0.25141   0.12437
  36 6   H  1S          0.01293  -0.02981  -0.28727  -0.42445  -0.25165
  37        2S         -0.01618   0.02458   0.26424   0.43140   0.19638
  38        3S         -0.00149   0.04085   0.27142   0.25428   0.11759
                          36        37        38
                           V         V         V
     Eigenvalues --     3.31862  23.35252  23.70545
   1 1   C  1S         -0.00034  -1.42161  -1.44481
   2        2S         -0.00049   1.51619   1.56241
   3        2PX         0.78040  -0.00641   0.01220
   4        2PY        -0.43655  -0.01057   0.02138
   5        2PZ         0.00097  -0.00061  -0.00027
   6        3S          0.00008  -0.29806  -0.39758
   7        3PX        -1.11306   0.02340  -0.05570
   8        3PY         0.61989   0.03909  -0.09691
   9        3PZ        -0.00148   0.00172   0.00081
  10        4S         -0.01010   0.27800   0.76613
  11        4PX         1.94714  -0.02454   0.13302
  12        4PY        -1.08704  -0.04187   0.22941
  13        4PZ         0.00244  -0.00292  -0.00340
  14 2   H  1S          0.55238   0.01273   0.00651
  15        2S         -0.85948   0.00780  -0.01440
  16        3S         -0.45451  -0.08374  -0.03908
  17 3   H  1S         -0.56281   0.01419   0.00747
  18        2S          0.87428   0.00756  -0.01445
  19        3S          0.47603  -0.08546  -0.03925
  20 4   C  1S          0.00011  -1.44003   1.42634
  21        2S         -0.00008   1.53582  -1.54243
  22        2PX        -0.71650   0.00622   0.01258
  23        2PY         0.40926   0.01118   0.02139
  24        2PZ        -0.00072  -0.00061   0.00016
  25        3S          0.00335  -0.30118   0.39211
  26        3PX         1.02098  -0.02285  -0.05630
  27        3PY        -0.59093  -0.04067  -0.09668
  28        3PZ         0.00111   0.00176  -0.00039
  29        4S         -0.01099   0.27609  -0.76182
  30        4PX        -1.79259   0.02455   0.13098
  31        4PY         1.04431   0.04496   0.22640
  32        4PZ        -0.00193  -0.00283   0.00246
  33 5   H  1S          0.49357   0.01391  -0.00543
  34        2S         -0.76684   0.00777   0.01418
  35        3S         -0.43666  -0.08371   0.03811
  36 6   H  1S         -0.48969   0.01270  -0.00439
  37        2S          0.76259   0.00883   0.01368
  38        3S          0.42792  -0.08204   0.03746
     Density Matrix:
                           1         2         3         4         5
   1 1   C  1S          0.65940
   2        2S          0.56149   0.49196
   3        2PX        -0.00059  -0.00079   0.08394
   4        2PY        -0.00134  -0.00186   0.00373   0.08757
   5        2PZ         0.00009   0.00014  -0.00014  -0.00030   0.06442
   6        3S         -0.08892  -0.15380   0.00295   0.00657  -0.00018
   7        3PX         0.00084   0.00129   0.13010   0.00132  -0.00010
   8        3PY         0.00117   0.00180   0.00134   0.13102  -0.00026
   9        3PZ         0.00019   0.00032  -0.00023  -0.00047   0.10348
  10        4S         -0.07959  -0.11470  -0.01565  -0.02792   0.00064
  11        4PX         0.00024   0.00155   0.07032  -0.00452  -0.00065
  12        4PY         0.00055   0.00292  -0.00458   0.06555  -0.00114
  13        4PZ        -0.00013  -0.00030  -0.00092  -0.00156   0.09588
  14 2   H  1S         -0.02046  -0.03259   0.03456  -0.06286  -0.00135
  15        2S         -0.02285  -0.03654   0.04900  -0.08790  -0.00103
  16        3S          0.00052  -0.00077   0.02075  -0.03321  -0.00005
  17 3   H  1S         -0.02088  -0.03324  -0.07236  -0.00212  -0.00147
  18        2S         -0.02313  -0.03696  -0.10056  -0.00220  -0.00116
  19        3S          0.00055  -0.00074  -0.03860   0.00121  -0.00009
  20 4   C  1S          0.00606   0.00977  -0.01081  -0.01872  -0.00045
  21        2S          0.00974   0.01522  -0.01730  -0.02997  -0.00074
  22        2PX         0.01039   0.01660  -0.01247  -0.03210   0.00051
  23        2PY         0.01809   0.02893  -0.03215  -0.04972   0.00098
  24        2PZ        -0.00055  -0.00089  -0.00044  -0.00068   0.06429
  25        3S         -0.02621  -0.03979   0.04850   0.08412   0.00224
  26        3PX         0.01604   0.02486  -0.01825  -0.04588   0.00067
  27        3PY         0.02791   0.04326  -0.04582  -0.07133   0.00129
  28        3PZ        -0.00093  -0.00149  -0.00076  -0.00120   0.10300
  29        4S          0.00537   0.00400   0.02092   0.03660   0.00276
  30        4PX         0.00307   0.00635  -0.01307  -0.02108   0.00074
  31        4PY         0.00523   0.01089  -0.02110  -0.03751   0.00146
  32        4PZ        -0.00079  -0.00127  -0.00118  -0.00194   0.09602
  33 5   H  1S          0.00420   0.00691  -0.00174  -0.01227  -0.00053
  34        2S          0.00631   0.01049   0.00344  -0.02484  -0.00002
  35        3S          0.00325   0.00475   0.00417  -0.01745   0.00011
  36 6   H  1S          0.00416   0.00683  -0.00978  -0.00765  -0.00054
  37        2S          0.00622   0.01036  -0.02324  -0.00941  -0.00004
  38        3S          0.00320   0.00469  -0.01715  -0.00513   0.00009
                           6         7         8         9        10
   6        3S          0.45245
   7        3PX        -0.00156   0.20198
   8        3PY        -0.00132  -0.00447   0.19654
   9        3PZ        -0.00061  -0.00018  -0.00039   0.16624
  10        4S          0.27460  -0.02656  -0.04800   0.00081   0.18407
  11        4PX        -0.00673   0.10953  -0.01025  -0.00105  -0.01537
  12        4PY        -0.01215  -0.01035   0.09877  -0.00183  -0.02886
  13        4PZ         0.00132  -0.00122  -0.00205   0.15402   0.00239
  14 2   H  1S          0.08713   0.05579  -0.09822  -0.00225   0.06931
  15        2S          0.09778   0.07949  -0.13687  -0.00175   0.08200
  16        3S          0.00617   0.03399  -0.05110  -0.00009   0.01131
  17 3   H  1S          0.08895  -0.11349  -0.00167  -0.00241   0.06929
  18        2S          0.09899  -0.15754  -0.00051  -0.00192   0.08086
  19        3S          0.00623  -0.06023   0.00374  -0.00014   0.01044
  20 4   C  1S         -0.02647  -0.01686  -0.02922  -0.00078   0.00514
  21        2S         -0.04007  -0.02621  -0.04544  -0.00126   0.00385
  22        2PX        -0.04649  -0.01781  -0.04550   0.00088  -0.01767
  23        2PY        -0.08102  -0.04560  -0.07086   0.00166  -0.03075
  24        2PZ         0.00265  -0.00059  -0.00090   0.10328   0.00274
  25        3S          0.10202   0.07113   0.12352   0.00374   0.00101
  26        3PX        -0.06729  -0.02621  -0.06483   0.00116  -0.02629
  27        3PY        -0.11718  -0.06481  -0.10162   0.00222  -0.04568
  28        3PZ         0.00439  -0.00105  -0.00161   0.16546   0.00456
  29        4S          0.00175   0.03162   0.05550   0.00459  -0.03245
  30        4PX        -0.02251  -0.01958  -0.02959   0.00123  -0.00640
  31        4PY        -0.03879  -0.02967  -0.05417   0.00240  -0.01055
  32        4PZ         0.00374  -0.00165  -0.00268   0.15424   0.00423
  33 5   H  1S         -0.02057  -0.00066  -0.01765  -0.00077  -0.01491
  34        2S         -0.03136   0.00855  -0.03660   0.00007  -0.01935
  35        3S         -0.01221   0.00804  -0.02626   0.00020  -0.00352
  36 6   H  1S         -0.02032  -0.01485  -0.00924  -0.00078  -0.01502
  37        2S         -0.03098  -0.03575  -0.01056   0.00004  -0.01981
  38        3S         -0.01206  -0.02657  -0.00607   0.00017  -0.00388
                          11        12        13        14        15
  11        4PX         0.06044
  12        4PY        -0.00916   0.05117
  13        4PZ        -0.00153  -0.00258   0.14274
  14 2   H  1S          0.03352  -0.05410  -0.00117   0.08086
  15        2S          0.04855  -0.07525  -0.00045   0.10948   0.15030
  16        3S          0.02120  -0.02796   0.00021   0.03686   0.05288
  17 3   H  1S         -0.06311   0.00178  -0.00124  -0.01315  -0.02482
  18        2S         -0.08798   0.00433  -0.00052  -0.02476  -0.04318
  19        3S         -0.03391   0.00451   0.00020  -0.01812  -0.02759
  20 4   C  1S         -0.00318  -0.00574  -0.00069   0.00422   0.00671
  21        2S         -0.00656  -0.01173  -0.00111   0.00697   0.01120
  22        2PX        -0.01318  -0.01999   0.00122   0.00178  -0.00279
  23        2PY        -0.02007  -0.03674   0.00225   0.01152   0.02438
  24        2PZ        -0.00086  -0.00140   0.09570  -0.00064  -0.00020
  25        3S          0.02318   0.04122   0.00324  -0.02097  -0.03367
  26        3PX        -0.02018  -0.02836   0.00167   0.00103  -0.00721
  27        3PY        -0.02842  -0.05351   0.00309   0.01710   0.03646
  28        3PZ        -0.00142  -0.00231   0.15333  -0.00094  -0.00021
  29        4S          0.00828   0.01550   0.00418  -0.01778  -0.02443
  30        4PX        -0.01469  -0.01253   0.00151  -0.00151  -0.00820
  31        4PY        -0.01261  -0.02956   0.00285   0.01536   0.02735
  32        4PZ        -0.00171  -0.00283   0.14295  -0.00053   0.00031
  33 5   H  1S          0.00195  -0.01565  -0.00039   0.01119   0.02341
  34        2S          0.00912  -0.02730   0.00051   0.02370   0.04442
  35        3S          0.00747  -0.01573   0.00038   0.01655   0.02780
  36 6   H  1S         -0.01444  -0.00579  -0.00040  -0.00909  -0.01829
  37        2S         -0.02802  -0.00519   0.00049  -0.01877  -0.03434
  38        3S         -0.01716  -0.00117   0.00035  -0.01011  -0.01771
                          16        17        18        19        20
  16        3S          0.02126
  17 3   H  1S         -0.01827   0.08188
  18        2S         -0.02769   0.10973   0.14917
  19        3S         -0.01306   0.03635   0.05169   0.02055
  20 4   C  1S          0.00369   0.00428   0.00674   0.00369   0.65947
  21        2S          0.00544   0.00707   0.01123   0.00543   0.56158
  22        2PX        -0.00354   0.00910   0.02241   0.01684   0.00110
  23        2PY         0.01774   0.00739   0.00970   0.00566   0.00170
  24        2PZ         0.00003  -0.00063  -0.00015   0.00006   0.00010
  25        3S         -0.01413  -0.02121  -0.03367  -0.01400  -0.08926
  26        3PX        -0.00700   0.01437   0.03513   0.02623  -0.00053
  27        3PY         0.02670   0.00955   0.01188   0.00712  -0.00112
  28        3PZ         0.00007  -0.00092  -0.00014   0.00012   0.00020
  29        4S         -0.00592  -0.01757  -0.02373  -0.00548  -0.07998
  30        4PX        -0.00692   0.01401   0.02762   0.01709  -0.00021
  31        4PY         0.01602   0.00660   0.00674   0.00201  -0.00022
  32        4PZ         0.00029  -0.00052   0.00035   0.00032  -0.00005
  33 5   H  1S          0.01631  -0.00906  -0.01824  -0.00951  -0.02029
  34        2S          0.02751  -0.01861  -0.03398  -0.01702  -0.02222
  35        3S          0.01465  -0.01002  -0.01748  -0.00896   0.00064
  36 6   H  1S         -0.00960   0.01119   0.02328   0.01602  -0.02005
  37        2S         -0.01732   0.02372   0.04423   0.02711  -0.02220
  38        3S         -0.00914   0.01654   0.02764   0.01445   0.00054
                          21        22        23        24        25
  21        2S          0.49210
  22        2PX         0.00158   0.08305
  23        2PY         0.00242   0.00353   0.08781
  24        2PZ         0.00015   0.00016   0.00022   0.06420
  25        3S         -0.15429  -0.00514  -0.00798  -0.00020   0.45385
  26        3PX        -0.00080   0.12903   0.00170   0.00010  -0.00001
  27        3PY        -0.00171   0.00175   0.13160   0.00010   0.00100
  28        3PZ         0.00034   0.00024   0.00036   0.10287  -0.00070
  29        4S         -0.11549   0.01366   0.02308   0.00074   0.27754
  30        4PX        -0.00147   0.07294  -0.00500   0.00051   0.00622
  31        4PY        -0.00227  -0.00496   0.06704   0.00094   0.00998
  32        4PZ        -0.00016   0.00089   0.00160   0.09587   0.00088
  33 5   H  1S         -0.03230  -0.03375   0.06387  -0.00143   0.08637
  34        2S         -0.03550  -0.04986   0.08847  -0.00112   0.09500
  35        3S         -0.00056  -0.02251   0.03333  -0.00009   0.00558
  36 6   H  1S         -0.03194   0.07155   0.00266  -0.00133   0.08541
  37        2S         -0.03549   0.10127   0.00088  -0.00098   0.09493
  38        3S         -0.00069   0.04030  -0.00300  -0.00004   0.00583
                          26        27        28        29        30
  26        3PX         0.20077
  27        3PY        -0.00274   0.19776
  28        3PZ         0.00014   0.00016   0.16481
  29        4S          0.02503   0.04202   0.00094   0.18503
  30        4PX         0.11391  -0.01040   0.00081   0.01534   0.06567
  31        4PY        -0.01041   0.10125   0.00151   0.02469  -0.01002
  32        4PZ         0.00114   0.00206   0.15361   0.00227   0.00129
  33 5   H  1S         -0.05386   0.09990  -0.00236   0.06696  -0.03431
  34        2S         -0.07999   0.13788  -0.00186   0.07680  -0.05144
  35        3S         -0.03654   0.05131  -0.00015   0.00907  -0.02370
  36 6   H  1S          0.11283   0.00340  -0.00221   0.06733   0.06551
  37        2S          0.15950  -0.00033  -0.00166   0.07828   0.09306
  38        3S          0.06315  -0.00613  -0.00008   0.00992   0.03717
                          31        32        33        34        35
  31        4PY         0.05336
  32        4PZ         0.00240   0.14319
  33 5   H  1S          0.05563  -0.00121   0.08137
  34        2S          0.07689  -0.00049   0.11015   0.15156
  35        3S          0.02873   0.00020   0.03784   0.05462   0.02248
  36 6   H  1S         -0.00182  -0.00115  -0.01249  -0.02595  -0.01980
  37        2S         -0.00601  -0.00040  -0.02606  -0.04792  -0.03121
  38        3S         -0.00614   0.00022  -0.02000  -0.03134  -0.01535
                          36        37        38
  36 6   H  1S          0.08054
  37        2S          0.10980   0.15209
  38        3S          0.03801   0.05516   0.02278
    Full Mulliken population analysis:
                           1         2         3         4         5
   1 1   C  1S          0.65940
   2        2S          0.49324   0.49196
   3        2PX         0.00000   0.00000   0.08394
   4        2PY         0.00000   0.00000   0.00000   0.08757
   5        2PZ         0.00000   0.00000   0.00000   0.00000   0.06442
   6        3S         -0.02927  -0.06441   0.00000   0.00000   0.00000
   7        3PX         0.00000   0.00000   0.08185   0.00000   0.00000
   8        3PY         0.00000   0.00000   0.00000   0.08243   0.00000
   9        3PZ         0.00000   0.00000   0.00000   0.00000   0.06510
  10        4S         -0.01224  -0.02147   0.00000   0.00000   0.00000
  11        4PX         0.00000   0.00000   0.01549   0.00000   0.00000
  12        4PY         0.00000   0.00000   0.00000   0.01444   0.00000
  13        4PZ         0.00000   0.00000   0.00000   0.00000   0.02112
  14 2   H  1S         -0.00022  -0.00032   0.00176   0.00550   0.00000
  15        2S         -0.00165  -0.00316   0.00427   0.01316   0.00001
  16        3S          0.00004  -0.00007   0.00070   0.00192   0.00000
  17 3   H  1S         -0.00024  -0.00035   0.00766   0.00000   0.00001
  18        2S         -0.00171  -0.00327   0.01763   0.00000   0.00001
  19        3S          0.00004  -0.00007   0.00257  -0.00000   0.00000
  20 4   C  1S          0.00000   0.00000  -0.00002  -0.00006   0.00000
  21        2S          0.00000  -0.00000  -0.00002  -0.00005   0.00000
  22        2PX        -0.00002  -0.00002   0.00011   0.00085   0.00000
  23        2PY        -0.00006  -0.00005   0.00085   0.00196   0.00000
  24        2PZ        -0.00000  -0.00000  -0.00000  -0.00000   0.00041
  25        3S         -0.00059  -0.00099   0.00253   0.00759  -0.00000
  26        3PX        -0.00054  -0.00099   0.00019   0.00554   0.00000
  27        3PY        -0.00163  -0.00299   0.00553   0.01069   0.00000
  28        3PZ        -0.00000  -0.00000  -0.00000  -0.00000   0.00610
  29        4S          0.00034   0.00030   0.00095   0.00288  -0.00000
  30        4PX        -0.00018  -0.00045  -0.00071   0.00146   0.00000
  31        4PY        -0.00053  -0.00134   0.00146   0.00098   0.00000
  32        4PZ        -0.00000  -0.00000  -0.00000  -0.00000   0.00903
  33 5   H  1S          0.00000   0.00000  -0.00000  -0.00000   0.00000
  34        2S          0.00001   0.00002   0.00000  -0.00032   0.00000
  35        3S          0.00008   0.00013   0.00001  -0.00070  -0.00000
  36 6   H  1S          0.00000   0.00000  -0.00000  -0.00000   0.00000
  37        2S          0.00001   0.00002  -0.00024  -0.00007   0.00000
  38        3S          0.00007   0.00013  -0.00057  -0.00012  -0.00000
                           6         7         8         9        10
   6        3S          0.45245
   7        3PX         0.00000   0.20198
   8        3PY         0.00000   0.00000   0.19654
   9        3PZ         0.00000   0.00000   0.00000   0.16624
  10        4S          0.21273   0.00000   0.00000   0.00000   0.18407
  11        4PX         0.00000   0.07157   0.00000   0.00000   0.00000
  12        4PY         0.00000   0.00000   0.06455   0.00000   0.00000
  13        4PZ         0.00000   0.00000   0.00000   0.10065   0.00000
  14 2   H  1S          0.01581   0.01059   0.03208   0.00003   0.01825
  15        2S          0.04088   0.01945   0.05761   0.00003   0.04710
  16        3S          0.00284   0.00398   0.01029   0.00000   0.00852
  17 3   H  1S          0.01659   0.04368   0.00000   0.00003   0.01843
  18        2S          0.04203   0.07718   0.00000   0.00003   0.04682
  19        3S          0.00288   0.01399  -0.00001   0.00000   0.00790
  20 4   C  1S         -0.00059  -0.00057  -0.00171   0.00000   0.00032
  21        2S         -0.00100  -0.00105  -0.00314   0.00000   0.00029
  22        2PX         0.00242   0.00019   0.00549   0.00000   0.00080
  23        2PY         0.00731   0.00551   0.01062   0.00000   0.00242
  24        2PZ         0.00000  -0.00000  -0.00000   0.00612   0.00000
  25        3S          0.02172   0.01332   0.04005  -0.00000   0.00038
  26        3PX         0.01260  -0.00126   0.01849   0.00000   0.00405
  27        3PY         0.03800   0.01849   0.02856   0.00000   0.01219
  28        3PZ         0.00000  -0.00000  -0.00000   0.03522   0.00000
  29        4S          0.00066   0.00487   0.01481  -0.00000  -0.02037
  30        4PX         0.00632  -0.00401   0.00586   0.00000   0.00194
  31        4PY         0.01887   0.00588   0.00128   0.00000   0.00554
  32        4PZ         0.00000  -0.00000  -0.00000   0.04925   0.00000
  33 5   H  1S         -0.00006  -0.00000  -0.00019   0.00000  -0.00081
  34        2S         -0.00123   0.00006  -0.00326  -0.00000  -0.00328
  35        3S         -0.00200   0.00011  -0.00425  -0.00000  -0.00128
  36 6   H  1S         -0.00005  -0.00013  -0.00006   0.00000  -0.00080
  37        2S         -0.00119  -0.00257  -0.00052  -0.00000  -0.00331
  38        3S         -0.00196  -0.00353  -0.00056  -0.00000  -0.00139
                          11        12        13        14        15
  11        4PX         0.06044
  12        4PY         0.00000   0.05117
  13        4PZ         0.00000   0.00000   0.14274
  14 2   H  1S          0.00630   0.01749   0.00001   0.08086
  15        2S          0.01538   0.04100   0.00001   0.07733   0.15030
  16        3S          0.00527   0.01195  -0.00000   0.01377   0.04172
  17 3   H  1S          0.02363  -0.00000   0.00002  -0.00001  -0.00064
  18        2S          0.05537  -0.00002   0.00001  -0.00064  -0.00534
  19        3S          0.01670  -0.00001  -0.00000  -0.00200  -0.00799
  20 4   C  1S         -0.00019  -0.00058   0.00000   0.00000   0.00002
  21        2S         -0.00047  -0.00144   0.00000   0.00000   0.00003
  22        2PX        -0.00071   0.00139   0.00000  -0.00000   0.00000
  23        2PY         0.00139   0.00096   0.00000  -0.00000  -0.00036
  24        2PZ        -0.00000  -0.00000   0.00900   0.00000   0.00000
  25        3S          0.00651   0.02005  -0.00000  -0.00007  -0.00146
  26        3PX        -0.00414   0.00562   0.00000  -0.00000   0.00004
  27        3PY         0.00563   0.00126   0.00000  -0.00022  -0.00354
  28        3PZ        -0.00000  -0.00000   0.04896   0.00000   0.00000
  29        4S          0.00251   0.00813  -0.00000  -0.00103  -0.00435
  30        4PX        -0.00707   0.00317   0.00000   0.00001   0.00017
  31        4PY         0.00319  -0.00559   0.00000  -0.00242  -0.01025
  32        4PZ        -0.00000  -0.00000   0.08971   0.00000  -0.00000
  33 5   H  1S          0.00002  -0.00234   0.00000   0.00000   0.00000
  34        2S          0.00027  -0.00986  -0.00000   0.00000   0.00016
  35        3S          0.00028  -0.00728  -0.00000   0.00023   0.00146
  36 6   H  1S         -0.00176  -0.00049   0.00000  -0.00000  -0.00004
  37        2S         -0.00828  -0.00106  -0.00000  -0.00004  -0.00092
  38        3S         -0.00653  -0.00031  -0.00000  -0.00046  -0.00246
                          16        17        18        19        20
  16        3S          0.02126
  17 3   H  1S         -0.00202   0.08188
  18        2S         -0.00802   0.07751   0.14917
  19        3S         -0.00675   0.01358   0.04078   0.02055
  20 4   C  1S          0.00009   0.00000   0.00002   0.00009   0.65947
  21        2S          0.00016   0.00000   0.00003   0.00016   0.49332
  22        2PX         0.00001  -0.00000  -0.00028  -0.00059   0.00000
  23        2PY        -0.00074  -0.00000  -0.00008  -0.00013   0.00000
  24        2PZ        -0.00000   0.00000   0.00000  -0.00000   0.00000
  25        3S         -0.00242  -0.00007  -0.00147  -0.00241  -0.02938
  26        3PX         0.00006  -0.00016  -0.00286  -0.00366   0.00000
  27        3PY        -0.00445  -0.00007  -0.00064  -0.00066   0.00000
  28        3PZ        -0.00000   0.00000   0.00000  -0.00000   0.00000
  29        4S         -0.00221  -0.00102  -0.00424  -0.00205  -0.01230
  30        4PX         0.00018  -0.00185  -0.00867  -0.00672   0.00000
  31        4PY        -0.00754  -0.00058  -0.00140  -0.00052   0.00000
  32        4PZ        -0.00000   0.00000  -0.00000  -0.00000   0.00000
  33 5   H  1S          0.00023  -0.00000  -0.00004  -0.00043  -0.00023
  34        2S          0.00145  -0.00004  -0.00092  -0.00237  -0.00161
  35        3S          0.00247  -0.00046  -0.00244  -0.00287   0.00005
  36 6   H  1S         -0.00044   0.00000   0.00000   0.00022  -0.00021
  37        2S         -0.00240   0.00000   0.00015   0.00142  -0.00158
  38        3S         -0.00292   0.00023   0.00145   0.00243   0.00004
                          21        22        23        24        25
  21        2S          0.49210
  22        2PX         0.00000   0.08305
  23        2PY         0.00000   0.00000   0.08781
  24        2PZ         0.00000   0.00000   0.00000   0.06420
  25        3S         -0.06462   0.00000   0.00000   0.00000   0.45385
  26        3PX         0.00000   0.08117   0.00000   0.00000   0.00000
  27        3PY         0.00000   0.00000   0.08279   0.00000   0.00000
  28        3PZ         0.00000   0.00000   0.00000   0.06472   0.00000
  29        4S         -0.02161   0.00000   0.00000   0.00000   0.21501
  30        4PX         0.00000   0.01606   0.00000   0.00000   0.00000
  31        4PY         0.00000   0.00000   0.01476   0.00000   0.00000
  32        4PZ         0.00000   0.00000   0.00000   0.02111   0.00000
  33 5   H  1S         -0.00032   0.00155   0.00583   0.00000   0.01576
  34        2S         -0.00308   0.00390   0.01371   0.00001   0.03985
  35        3S         -0.00005   0.00068   0.00199   0.00000   0.00257
  36 6   H  1S         -0.00030   0.00705   0.00002   0.00000   0.01525
  37        2S         -0.00302   0.01738   0.00001   0.00001   0.03933
  38        3S         -0.00006   0.00269  -0.00001   0.00000   0.00267
                          26        27        28        29        30
  26        3PX         0.20077
  27        3PY         0.00000   0.19776
  28        3PZ         0.00000   0.00000   0.16481
  29        4S          0.00000   0.00000   0.00000   0.18503
  30        4PX         0.07443   0.00000   0.00000   0.00000   0.06567
  31        4PY         0.00000   0.06616   0.00000   0.00000   0.00000
  32        4PZ         0.00000   0.00000   0.10038   0.00000   0.00000
  33 5   H  1S          0.00920   0.03383   0.00003   0.01767   0.00578
  34        2S          0.01757   0.06001   0.00003   0.04419   0.01460
  35        3S          0.00383   0.01066   0.00000   0.00684   0.00528
  36 6   H  1S          0.04209   0.00008   0.00003   0.01762   0.02444
  37        2S          0.07724  -0.00001   0.00003   0.04476   0.05859
  38        3S          0.01470  -0.00009   0.00000   0.00745   0.01840
                          31        32        33        34        35
  31        4PY         0.05336
  32        4PZ         0.00000   0.14319
  33 5   H  1S          0.01858   0.00001   0.08137
  34        2S          0.04325   0.00001   0.07781   0.15156
  35        3S          0.01268  -0.00000   0.01414   0.04309   0.02248
  36 6   H  1S         -0.00004   0.00001  -0.00001  -0.00080  -0.00234
  37        2S         -0.00023   0.00001  -0.00081  -0.00664  -0.00955
  38        3S         -0.00018  -0.00000  -0.00237  -0.00959  -0.00823
                          36        37        38
  36 6   H  1S          0.08054
  37        2S          0.07756   0.15209
  38        3S          0.01420   0.04352   0.02278
     Gross orbital populations:
                           1
   1 1   C  1S          1.10437
   2        2S          0.88585
   3        2PX         0.22595
   4        2PY         0.23564
   5        2PZ         0.16620
   6        3S          0.79236
   7        3PX         0.55959
   8        3PY         0.55497
   9        3PZ         0.42270
  10        4S          0.50684
  11        4PX         0.26082
  12        4PY         0.21218
  13        4PZ         0.41220
  14 2   H  1S          0.27262
  15        2S          0.46797
  16        3S          0.08691
  17 3   H  1S          0.27575
  18        2S          0.46617
  19        3S          0.08406
  20 4   C  1S          1.10439
  21        2S          0.88584
  22        2PX         0.22319
  23        2PY         0.23650
  24        2PZ         0.16558
  25        3S          0.79294
  26        3PX         0.55400
  27        3PY         0.55737
  28        3PZ         0.42030
  29        4S          0.50482
  30        4PX         0.27272
  31        4PY         0.21538
  32        4PZ         0.41270
  33 5   H  1S          0.27422
  34        2S          0.46854
  35        3S          0.08759
  36 6   H  1S          0.27165
  37        2S          0.46968
  38        3S          0.08944
          Condensed to atoms (all electrons):
               1          2          3          4          5          6
     1  C    5.034478   0.386799   0.387542   0.601968  -0.035877  -0.035242
     2  H    0.386799   0.518071  -0.033401  -0.040299   0.006005  -0.009674
     3  H    0.387542  -0.033401   0.515345  -0.039839  -0.009573   0.005903
     4  C    0.601968  -0.040299  -0.039839   5.055104   0.384655   0.384143
     5  H   -0.035877   0.006005  -0.009573   0.384655   0.525476  -0.040337
     6  H   -0.035242  -0.009674   0.005903   0.384143  -0.040337   0.525980
 Mulliken charges:
               1
     1  C   -0.339668
     2  H    0.172498
     3  H    0.174023
     4  C   -0.345732
     5  H    0.169651
     6  H    0.169229
 Sum of Mulliken charges =  -0.00000
 Mulliken charges with hydrogens summed into heavy atoms:
               1
     1  C    0.006852
     4  C   -0.006852
 Electronic spatial extent (au):  <R**2>=             83.7240
 Charge=             -0.0000 electrons
 Dipole moment (field-independent basis, Debye):
    X=              0.0049    Y=              0.0245    Z=             -0.1183  Tot=              0.1210
 Quadrupole moment (field-independent basis, Debye-Ang):
   XX=            -12.2021   YY=            -12.2213   ZZ=            -15.6696
   XY=              0.0106   XZ=              0.0006   YZ=             -0.0020
 Traceless Quadrupole moment (field-independent basis, Debye-Ang):
   XX=              1.1622   YY=              1.1430   ZZ=             -2.3052
   XY=              0.0106   XZ=              0.0006   YZ=             -0.0020
 Octapole moment (field-independent basis, Debye-Ang**2):
  XXX=             -0.2901  YYY=              0.0124  ZZZ=             -0.0441  XYY=              0.1979
  XXY=             -0.0091  XXZ=             -0.1514  XZZ=             -0.0655  YZZ=             -0.0481
  YYZ=             -0.2013  XYZ=             -0.0436
 Hexadecapole moment (field-independent basis, Debye-Ang**3):
 XXXX=            -34.2858 YYYY=            -55.2148 ZZZZ=            -17.8183 XXXY=             -7.2498
 XXXZ=              0.0209 YYYX=            -10.7153 YYYZ=              0.0253 ZZZX=              0.0212
 ZZZY=              0.0388 XXYY=            -16.1965 XXZZ=             -9.9265 YYZZ=            -13.6398
 XXYZ=              0.0096 YYXZ=             -0.0010 ZZXY=             -3.2038
 N-N= 3.306427681680D+01 E-N=-2.478390242268D+02  KE= 7.815162666355D+01
 Orbital energies and kinetic energies (alpha):
                                 1                 2
   1         O               -10.289627         15.975933
   2         O               -10.288713         15.982483
   3         O                -0.863654          1.537662
   4         O                -0.672370          1.271739
   5         O                -0.559186          0.941123
   6         O                -0.509223          1.284033
   7         O                -0.436843          1.044425
   8         O                -0.356730          1.038416
   9         V                 0.079593          1.182149
  10         V                 0.140963          0.588742
  11         V                 0.164765          0.594102
  12         V                 0.170238          0.679528
  13         V                 0.240903          0.582775
  14         V                 0.373923          0.853364
  15         V                 0.393508          0.933944
  16         V                 0.398360          0.781240
  17         V                 0.464798          1.188647
  18         V                 0.488137          1.426126
  19         V                 0.493878          1.302151
  20         V                 0.591018          1.652515
  21         V                 0.665672          1.572293
  22         V                 0.690913          2.147976
  23         V                 0.773647          2.515087
  24         V                 0.774741          2.229063
  25         V                 0.841261          1.083239
  26         V                 0.951653          3.421192
  27         V                 2.231758          3.926321
  28         V                 2.290442          4.029398
  29         V                 2.332183          4.303411
  30         V                 2.406011          4.515820
  31         V                 2.671158          6.300694
  32         V                 2.817413          6.304679
  33         V                 2.878861          6.138789
  34         V                 2.951947          6.225977
  35         V                 3.140139          6.821258
  36         V                 3.318616          6.403421
  37         V                23.352524         60.074694
  38         V                23.705452         60.203446
 Total kinetic energy from orbitals= 7.815162666355D+01
 Calling FoFJK, ICntrl=      2127 FMM=F ISym2X=0 I1Cent= 0 IOpClX= 0 NMat=1 NMatS=1 NMatT=0.
 -------------------------------------------------------------------
 Center     Atomic                   Forces (Hartrees/Bohr)
 Number     Number              X              Y              Z
 -------------------------------------------------------------------
      1        6           0.011118476    0.006397116   -0.004993421
      2        1          -0.010303148    0.008113605    0.002493726
      3        1           0.005982834   -0.004272242    0.002321305
      4        6           0.006638916    0.005163980   -0.004943586
      5        1           0.000937010   -0.010360722    0.002497148
      6        1          -0.014374088   -0.005041737    0.002624829
 -------------------------------------------------------------------
 Cartesian Forces:  Max     0.014374088 RMS     0.006974873

 GradGradGradGradGradGradGradGradGradGradGradGradGradGradGradGradGradGrad
 Berny optimization.
 Search for a local minimum.
 Step number   1 out of a maximum of    2
 All quantities printed in internal units (Hartrees-Bohrs-Radians)
 Second derivative matrix not updated -- first step.
 The second derivative matrix:
                          X1        Y1        Z1        X2        Y2
           X1           0.75020
           Y1           0.09940   0.85285
           Z1           0.00682   0.01061   0.17008
           X2          -0.16226   0.09452   0.00251   0.13981
           Y2           0.10048  -0.27993  -0.00893  -0.11355   0.26894
           Z2           0.00398  -0.01124  -0.05465  -0.00361   0.00926
           X3          -0.34633  -0.00153  -0.00966  -0.00028  -0.00015
           Y3          -0.00739  -0.10911  -0.00236   0.03216   0.01863
           Z3          -0.01241  -0.00228  -0.05573   0.00182   0.00067
           X4          -0.26673  -0.17788  -0.00088   0.02276   0.01321
           Y4          -0.17821  -0.47206  -0.00145  -0.01314  -0.00763
           Z4           0.00159   0.00286  -0.09387  -0.00073  -0.00100
           X5           0.02355  -0.01360   0.00075  -0.00001   0.00001
           Y5           0.01186  -0.00685   0.00101   0.00001  -0.00000
           Z5          -0.00063   0.00040   0.01733   0.00031  -0.00016
           X6           0.00158  -0.00091   0.00047  -0.00001   0.00001
           Y6          -0.02613   0.01509   0.00113   0.00001  -0.00000
           Z6           0.00066  -0.00035   0.01684  -0.00031   0.00016
                          Z2        X3        Y3        Z3        X4
           Z2           0.02846
           X3          -0.00036   0.34643
           Y3           0.00194   0.00178   0.07515
           Z3           0.01045   0.01055   0.00160   0.02924
           X4           0.00059   0.00020  -0.02656  -0.00057   0.72014
           Y4          -0.00031  -0.00012   0.01534   0.00036   0.11797
           Z4           0.01569  -0.00053  -0.00118   0.01608  -0.00631
           X5          -0.00030  -0.00001   0.00001   0.00030  -0.14906
           Y5           0.00019   0.00001  -0.00000  -0.00019   0.09504
           Z5           0.00922   0.00031  -0.00020  -0.00936  -0.00382
           X6          -0.00030  -0.00001   0.00001   0.00031  -0.32730
           Y6           0.00016   0.00001  -0.00000  -0.00016  -0.02178
           Z6          -0.00918  -0.00031   0.00020   0.00932   0.01099
                          Y4        Z4        X5        Y5        Z5
           Y4           0.86331
           Z4          -0.01205   0.17639
           X5           0.08675  -0.00253   0.12754
           Y5          -0.29350   0.00903  -0.10592   0.28389
           Z5           0.01116  -0.05744   0.00341  -0.00960   0.02993
           X6          -0.01325   0.00851  -0.00200  -0.00100   0.00042
           Y6          -0.10545   0.00234   0.03275   0.01647  -0.00160
           Z6           0.00230  -0.05686  -0.00163  -0.00044   0.01031
                          X6        Y6        Z6
           X6           0.32775
           Y6           0.01515   0.07390
           Z6          -0.00940  -0.00186   0.02956
 ITU=  0
     Eigenvalues ---    0.03714   0.04380   0.09142   0.10114   0.13510
     Eigenvalues ---    0.17482   0.26296   0.29001   0.52908   0.70342
     Eigenvalues ---    0.97214   1.56028
 Angle between quadratic step and forces=  32.78 degrees.
 Linear search not attempted -- first point.
 B after Tr=     0.005462    0.005976   -0.012166
         Rot=    1.000000   -0.000067    0.000037   -0.000112 Ang=  -0.02 deg.
 Variable       Old X    -DE/DX   Delta X   Delta X   Delta X     New X
                                 (Linear)    (Quad)   (Total)
    X1       -0.63523   0.01112   0.00000   0.01859   0.02430  -0.61094
    Y1       -1.09908   0.00640   0.00000   0.02049   0.02633  -1.07275
    Z1        0.01381  -0.00499   0.00000  -0.02611  -0.03847  -0.02466
    X2        0.41046  -0.01030   0.00000  -0.03926  -0.03316   0.37730
    Y2       -2.89738   0.00811   0.00000   0.02704   0.03310  -2.86428
    Z2       -0.05277   0.00249   0.00000   0.03181   0.01929  -0.03348
    X3       -2.69603   0.00598   0.00000   0.03434   0.04005  -2.65598
    Y3       -1.11297  -0.00427   0.00000  -0.01813  -0.01275  -1.12572
    Z3       -0.05470   0.00232   0.00000   0.03127   0.01876  -0.03594
    X4        0.62989   0.00664   0.00000   0.00401   0.00922   0.63911
    Y4        1.09168   0.00516   0.00000   0.00428   0.01040   1.10208
    Z4        0.01008  -0.00494   0.00000  -0.02423  -0.03620  -0.02613
    X5       -0.30539   0.00094   0.00000  -0.01361  -0.00880  -0.31419
    Y5        2.94518  -0.01036   0.00000  -0.03496  -0.02905   2.91613
    Z5       -0.05810   0.00250   0.00000   0.03040   0.01860  -0.03950
    X6        2.71749  -0.01437   0.00000  -0.03682  -0.03162   2.68587
    Y6        1.21614  -0.00504   0.00000  -0.03461  -0.02803   1.18812
    Z6       -0.05627   0.00262   0.00000   0.02983   0.01802  -0.03825
         Item               Value     Threshold  Converged?
 Maximum Force            0.014374     0.000450     NO 
 RMS     Force            0.006975     0.000300     NO 
 Maximum Displacement     0.040054     0.001800     NO 
 RMS     Displacement     0.026173     0.001200     NO 
 Predicted change in Energy=-1.451356D-03
 GradGradGradGradGradGradGradGradGradGradGradGradGradGradGradGradGradGrad

 Unable to Open any file for archive entry.
 1\1\GINC-BHD0003\Force\RwB97XD\6-311G\C2H4\BWEIGHT\11-Jan-2023\0\\# WB
 97XD/6-311G SCF=XQC FORCE nosym pop=full guess=read\\MD Step 1000\\0,1
 \C,-0.33615151,-0.58160835,0.00730817\H,0.21720406,-1.53322685,-0.0279
 248\H,-1.42667839,-0.58896008,-0.02894607\C,0.33332131,0.57769287,0.00
 533286\H,-0.16160498,1.55851971,-0.03074604\H,1.43803321,0.64355501,-0
 .02977712\\Version=ES64L-G16RevC.01\HF=-78.555895\RMSD=6.565e-09\RMSF=
 6.975e-03\Dipole=0.0019131,0.0096579,-0.0465603\Quadrupole=0.8640894,0
 .849803,-1.7138924,0.0078961,0.0004616,-0.0014782\PG=C01 [X(C2H4)]\\@
 The archive entry for this job was punched.


 NOBODY LOSES ALL THE TIME
 I HAD AN UNCLE NAMED
 SOL WHO WAS A BORN FAILURE AND
 NEARLY EVERYBODY SAID HE SHOULD HAVE GONE
 INTO VAUDEVILLE PERHAPS BECAUSE MY UNCLE SOL COULD
 SING MCCANN HE WAS A DIVER ON XMAS EVE LIKE HELL ITSELF WHICH
 MAY OR MAY NOT ACCOUNT FOR THE FACT THAT MY UNCLE
 SOL INDULGED IN THAT POSSIBLY MOST INEXCUSABLE
 OF ALL TO USE A HIGHFALOOTIN PHRASE
 LUXURIES THAT IS OR TO
 WIT FARMING AND BE
 IT NEEDLESSLY
 ADDED
 MY UNCLE SOL'S FARM     
 FAILED BECAUSE THE CHICKENS
 ATE THE VEGETABLES SO
 MY UNCLE SOL HAD A
 CHICKEN FARM TILL THE
 SKUNKS ATE THE CHICKENS WHEN 
 MY UNCLE SOL
 HAD A SKUNK FARM BUT
 THE SKUNKS CAUGHT COLD AND
 DIED AND SO
 MY UNCLE SOL IMITATED THE
 SKUNKS IN A SUBTLE MANNER
 OR BY DROWNING HIMSELF IN THE WATERTANK
 BUT SOMEBODY WHO'D GIVEN MY UNCLE SOL A VICTOR     
 VICTROLA AND RECORDS WHILE HE LIVED PRESENTED TO
 HIM UPON THE AUSPICIOUS OCCASION OF HIS DECEASE A
 SCRUMPTIOUS NOT TO MENTION SPLENDIFEROUS FUNERAL WITH
 TALL BOYS IN BLACK GLOVES AND FLOWERS AND EVERYTHING AND
 I REMEMBER WE ALL CRIED LIKE THE MISSOURI
 WHEN MY UNCLE SOL'S COFFIN LURCHED BECAUSE     
 SOMEBODY PRESSED A BUTTON
 (AND DOWN WENT
 MY UNCLE
 SOL
 AND STARTED A WORM FARM)
           E. E. CUMMINGS
 Job cpu time:       0 days  0 hours  0 minutes 14.5 seconds.
 Elapsed time:       0 days  0 hours  0 minutes  3.8 seconds.
 File lengths (MBytes):  RWF=    272 Int=      0 D2E=      0 Chk=     32 Scr=     32
 Normal termination of Gaussian 16 at Wed Jan 11 19:53:55 2023.
