6
MD Step 0
C  -0.33763715 -0.58748864 0.00000000
H  0.19552659 -1.51519357 0.00000000
H  -1.40763715 -0.58748864 0.00000000
C  0.33763715 0.58748865 0.00000000
H  -0.19552659 1.51519357 0.00000000
H  1.40763715 0.58748865 0.00000000
6
MD Step 1
C  -0.33800598 -0.58783507 -0.00039392
H  0.19789076 -1.51299334 0.00234934
H  -1.40542173 -0.58521052 0.00234616
C  0.33721694 0.58704651 -0.00039452
H  -0.19318755 1.51768963 0.00235136
H  1.41012076 0.58991080 0.00234817
6
MD Step 2
C  -0.33831639 -0.58808265 -0.00078560
H  0.20026481 -1.51111488 0.00468539
H  -1.40353964 -0.58309466 0.00467911
C  0.33675147 0.58651480 -0.00078679
H  -0.19087804 1.52044000 0.00468930
H  1.41280050 0.59245213 0.00468283
6
MD Step 3
C  -0.33856669 -0.58823238 -0.00117682
H  0.20265790 -1.50955774 0.00701853
H  -1.40202450 -0.58113743 0.00700953
C  0.33624401 0.58589576 -0.00117847
H  -0.18858022 1.52342515 0.00702387
H  1.41562394 0.59511330 0.00701378
6
MD Step 4
C  -0.33875047 -0.58828088 -0.00156385
H  0.20504321 -1.50834708 0.00932644
H  -1.40093331 -0.57936704 0.00931551
C  0.33570364 0.58519811 -0.00156570
H  -0.18630688 1.52658733 0.00933215
H  1.41850303 0.59786125 0.00931770
6
MD Step 5
C  -0.33886698 -0.58823070 -0.00194776
H  0.20741931 -1.50747212 0.01161539
H  -1.40028334 -0.57778203 0.01160393
C  0.33513477 0.58442661 -0.00194940
H  -0.18404051 1.52989303 0.01161969
H  1.42137769 0.60069075 0.01159965
6
MD Step 6
C  -0.33891230 -0.58808127 -0.00232545
H  0.20975678 -1.50694000 0.01386673
H  -1.40010504 -0.57640486 0.01385683
C  0.33454606 0.58359099 -0.00232627
H  -0.18178734 1.53328031 0.01386693
H  1.42416374 0.60357087 0.01383948
6
MD Step 7
C  -0.33888929 -0.58783889 -0.00269961
H  0.21205792 -1.50671661 0.01609625
H  -1.40038166 -0.57522243 0.01609075
C  0.33394034 0.58269582 -0.00269875
H  -0.17951848 1.53671943 0.01608866
H  1.42681412 0.60650463 0.01605141
6
MD Step 8
C  -0.33879810 -0.58750701 -0.00306910
H  0.21429985 -1.50678463 0.01829697
H  -1.40110689 -0.57424335 0.01829943
C  0.33332413 0.58175004 -0.00306549
H  -0.17722761 1.54015646 0.01827680
H  1.42926263 0.60947175 0.01822681
6
MD Step 9
C  -0.33863463 -0.58708471 -0.00342749
H  0.21642651 -1.50715268 0.02043055
H  -1.40229360 -0.57350644 0.02044535
C  0.33270903 0.58076825 -0.00341988
H  -0.17494002 1.54350590 0.02039200
H  1.43141671 0.61242030 0.02032566
6
MD Step 10
C  -0.33840723 -0.58658326 -0.00377972
H  0.21844795 -1.50775705 0.02252621
H  -1.40387490 -0.57298176 0.02255822
C  0.33209501 0.57975398 -0.00376663
H  -0.17261432 1.54675087 0.02246237
H  1.43325787 0.61536583 0.02237573
6
MD Step 11
C  -0.33811958 -0.58600902 -0.00412504
H  0.22033989 -1.50856389 0.02457964
H  -1.40580710 -0.57267169 0.02463417
C  0.33148734 0.57871654 -0.00410487
H  -0.17024381 1.54984270 0.02448262
H  1.43474093 0.61829032 0.02437137
6
MD Step 12
C  -0.33777491 -0.58536760 -0.00446137
H  0.22206979 -1.50954469 0.02657850
H  -1.40804567 -0.57258544 0.02666115
C  0.33089235 0.57766662 -0.00443239
H  -0.16783140 1.55272739 0.02643954
H  1.43582005 0.62116781 0.02629910
6
MD Step 13
C  -0.33737878 -0.58466668 -0.00478818
H  0.22361480 -1.51065977 0.02851981
H  -1.41052925 -0.57272159 0.02863625
C  0.33031436 0.57661329 -0.00474860
H  -0.16537254 1.55536380 0.02832940
H  1.43646685 0.62398195 0.02815509
6
MD Step 14
C  -0.33693251 -0.58390940 -0.00509995
H  0.22492353 -1.51189798 0.03037117
H  -1.41322027 -0.57310682 0.03052718
C  0.32976225 0.57557037 -0.00504805
H  -0.16289422 1.55768565 0.03011933
H  1.43663200 0.62668731 0.02990622
6
MD Step 15
C  -0.33644669 -0.58310795 -0.00539995
H  0.22599805 -1.51319598 0.03215237
H  -1.41602477 -0.57371442 0.03235307
C  0.32923567 0.57454263 -0.00533401
H  -0.16037390 1.55968381 0.03182861
H  1.43632734 0.62929120 0.03157220
6
MD Step 16
C  -0.33592388 -0.58226619 -0.00568292
H  0.22679196 -1.51454166 0.03383276
H  -1.41889718 -0.57456666 0.03408311
C  0.32874227 0.57354290 -0.00560144
H  -0.15784181 1.56130421 0.03342658
H  1.43552333 0.63175116 0.03312232
6
MD Step 17
C  -0.33537712 -0.58139833 -0.00595395
H  0.22732205 -1.51586350 0.03544291
H  -1.42173037 -0.57562368 0.03574647
C  0.32827894 0.57257332 -0.00585543
H  -0.15527012 1.56255972 0.03494354
H  1.43426063 0.63408655 0.03458790
6
MD Step 18
C  -0.33481293 -0.58051185 -0.00621139
H  0.22756823 -1.51713198 0.03697377
H  -1.42445855 -0.57688385 0.03733322
C  0.32784872 0.57164213 -0.00609459
H  -0.15267314 1.56342976 0.03637066
H  1.43254912 0.63627792 0.03596070
6
MD Step 19
C  -0.33423915 -0.57961546 -0.00645501
H  0.22752152 -1.51831248 0.03842460
H  -1.42701100 -0.57833626 0.03884143
C  0.32745282 0.57075560 -0.00631893
H  -0.15005980 1.56390821 0.03770758
H  1.43041543 0.63831494 0.03724114
6
MD Step 20
C  -0.33366505 -0.57871916 -0.00668620
H  0.22718537 -1.51936479 0.03980403
H  -1.42931248 -0.57995974 0.04027820
C  0.32709037 0.56991778 -0.00653004
H  -0.14743255 1.56400461 0.03896333
H  1.42790370 0.64019740 0.03843949
6
MD Step 21
C  -0.33309550 -0.57782847 -0.00690214
H  0.22654216 -1.52027731 0.04109633
H  -1.43131825 -0.58175656 0.04162677
C  0.32676415 0.56913611 -0.00672553
H  -0.14482079 1.56371049 0.04012301
H  1.42504145 0.64190171 0.03954159
6
MD Step 22
C  -0.33253192 -0.57694534 -0.00709683
H  0.22555900 -1.52106164 0.04226695
H  -1.43300915 -0.58374677 0.04285230
C  0.32647960 0.56842042 -0.00690003
H  -0.14227513 1.56300511 0.04115340
H  1.42184497 0.64338651 0.04051434
6
MD Step 23
C  -0.33198623 -0.57608223 -0.00727552
H  0.22427191 -1.52166873 0.04334724
H  -1.43430788 -0.58588454 0.04398373
C  0.32623065 0.56776876 -0.00705889
H  -0.13978356 1.56193960 0.04208646
H  1.41840320 0.64467715 0.04139189
6
MD Step 24
C  -0.33146266 -0.57524380 -0.00743612
H  0.22267758 -1.52209740 0.04432553
H  -1.43518837 -0.58816612 0.04500843
C  0.32601801 0.56718557 -0.00720052
H  -0.13737894 1.56052835 0.04291185
H  1.41476840 0.64575721 0.04216482
6
MD Step 25
C  -0.33096601 -0.57443523 -0.00757772
H  0.22078300 -1.52234487 0.04519709
H  -1.43562661 -0.59058056 0.04592054
C  0.32584082 0.56667332 -0.00732446
H  -0.13508940 1.55879836 0.04362621
H  1.41100491 0.64661818 0.04283092
6
MD Step 26
C  -0.33050038 -0.57366095 -0.00769935
H  0.21859816 -1.52241405 0.04595685
H  -1.43560817 -0.59311702 0.04671397
C  0.32569797 0.56623374 -0.00743022
H  -0.13294523 1.55678158 0.04422594
H  1.40718089 0.64725230 0.04338772
6
MD Step 27
C  -0.33006698 -0.57292244 -0.00779780
H  0.21612314 -1.52232626 0.04658655
H  -1.43514118 -0.59577757 0.04737012
C  0.32559022 0.56586996 -0.00751522
H  -0.13099123 1.55450171 0.04469451
H  1.40335442 0.64763973 0.04381922
6
MD Step 28
C  -0.32966870 -0.57222285 -0.00787226
H  0.21337522 -1.52209383 0.04708210
H  -1.43422898 -0.59855020 0.04788425
C  0.32551576 0.56558198 -0.00757918
H  -0.12925926 1.55200086 0.04502952
H  1.39959956 0.64777587 0.04412392
6
MD Step 29
C  -0.32931202 -0.57156891 -0.00792653
H  0.21040053 -1.52170806 0.04746561
H  -1.43285829 -0.60139707 0.04827674
C  0.32546822 0.56536477 -0.00762595
H  -0.12775607 1.54935067 0.04525434
H  1.39601662 0.64768319 0.04432712
6
MD Step 30
C  -0.32899828 -0.57096224 -0.00795983
H  0.20722174 -1.52119116 0.04773287
H  -1.43105155 -0.60430657 0.04854311
C  0.32544560 0.56521701 -0.00765522
H  -0.12651442 1.54659916 0.04536649
H  1.39267808 0.64735891 0.04442690
6
MD Step 31
C  -0.32873379 -0.57040946 -0.00797748
H  0.20389826 -1.52053542 0.04791431
H  -1.42880626 -0.60723321 0.04871200
C  0.32544020 0.56513111 -0.00767209
H  -0.12553250 1.54383017 0.04539756
H  1.38968701 0.64683551 0.04445681
6
MD Step 32
C  -0.32851450 -0.56990687 -0.00797474
H  0.20043446 -1.51979445 0.04798290
H  -1.42618664 -0.61018901 0.04875744
C  0.32545418 0.56510863 -0.00767254
H  -0.12486423 1.54107054 0.04532227
H  1.38708325 0.64608888 0.04439084
6
MD Step 33
C  -0.32833429 -0.56944876 -0.00794552
H  0.19682870 -1.51903306 0.04790392
H  -1.42327333 -0.61319418 0.04864652
C  0.32549129 0.56515210 -0.00765132
H  -0.12456949 1.53833850 0.04510754
H  1.38489147 0.64508789 0.04419441
6
MD Step 34
C  -0.32819801 -0.56904062 -0.00789608
H  0.19315052 -1.51824877 0.04771292
H  -1.42008458 -0.61619973 0.04841357
C  0.32554382 0.56525210 -0.00761424
H  -0.12463629 1.53572042 0.04478975
H  1.38319768 0.64387217 0.04390518
6
MD Step 35
C  -0.32810299 -0.56868053 -0.00782556
H  0.18942976 -1.51748174 0.04740473
H  -1.41668647 -0.61919774 0.04805442
C  0.32561138 0.56540589 -0.00756061
H  -0.12508997 1.53325882 0.04436473
H  1.38203670 0.64244135 0.04351810
6
MD Step 36
C  -0.32805479 -0.56837503 -0.00774252
H  0.18574965 -1.51672029 0.04702749
H  -1.41309831 -0.62212800 0.04761601
C  0.32568517 0.56560186 -0.00749809
H  -0.12589925 1.53104471 0.04388110
H  1.38148439 0.64084880 0.04308291
6
MD Step 37
C  -0.32804849 -0.56812042 -0.00764525
H  0.18213489 -1.51601194 0.04657071
H  -1.40940384 -0.62498955 0.04708937
C  0.32576683 0.56583839 -0.00742497
H  -0.12708680 1.52910448 0.04332888
H  1.38154412 0.63908971 0.04258820
6
MD Step 38
C  -0.32806814 -0.56790216 -0.00752085
H  0.17854716 -1.51546639 0.04596151
H  -1.40575367 -0.62784480 0.04640605
C  0.32586914 0.56612463 -0.00732972
H  -0.12873273 1.52739489 0.04263534
H  1.38214251 0.63709730 0.04195696
6
MD Step 39
C  -0.32812044 -0.56772865 -0.00738096
H  0.17508424 -1.51505390 0.04526470
H  -1.40216235 -0.63061911 0.04562990
C  0.32598226 0.56644690 -0.00722245
H  -0.13077457 1.52600319 0.04186523
H  1.38333121 0.63494327 0.04125482
6
MD Step 40
C  -0.32820050 -0.56759696 -0.00722534
H  0.17177525 -1.51480940 0.04447816
H  -1.39871228 -0.63330561 0.04476054
C  0.32610810 0.56680315 -0.00710262
H  -0.13321113 1.52494114 0.04101604
H  1.38508124 0.63263296 0.04047759
6
MD Step 41
C  -0.32830057 -0.56750148 -0.00705094
H  0.16863134 -1.51478021 0.04358419
H  -1.39550051 -0.63591386 0.04378272
C  0.32625165 0.56719444 -0.00696722
H  -0.13605103 1.52419600 0.04006935
H  1.38733518 0.63015681 0.03960457
6
MD Step 42
C  -0.32841905 -0.56744296 -0.00686138
H  0.16569790 -1.51497211 0.04260225
H  -1.39258352 -0.63841672 0.04271702
C  0.32641198 0.56761600 -0.00681909
H  -0.13925984 1.52378354 0.03904397
H  1.39006173 0.62754331 0.03865359
6
MD Step 43
C  -0.32854686 -0.56741481 -0.00665232
H  0.16297250 -1.51543059 0.04150739
H  -1.39005732 -0.64083236 0.04154094
C  0.32659587 0.56807103 -0.00665398
H  -0.14284210 1.52366611 0.03791370
H  1.39317499 0.62477727 0.03759628
6
MD Step 44
C  -0.32867758 -0.56741318 -0.00642200
H  0.16046351 -1.51618071 0.04028932
H  -1.38799570 -0.64316472 0.04024609
C  0.32680770 0.56856067 -0.00647004
H  -0.14678234 1.52381267 0.03666695
H  1.39659608 0.62185916 0.03641946
6
MD Step 45
C  -0.32881768 -0.56744689 -0.00618184
H  0.15824880 -1.51716724 0.03901102
H  -1.38638882 -0.64534385 0.03889539
C  0.32703951 0.56907394 -0.00627698
H  -0.15098600 1.52425891 0.03536678
H  1.40031477 0.61886422 0.03518651
6
MD Step 46
C  -0.32895579 -0.56750710 -0.00592407
H  0.15629473 -1.51843640 0.03762879
H  -1.38532433 -0.64740825 0.03744728
C  0.32730117 0.56961834 -0.00606765
H  -0.15546199 1.52492581 0.03396757
H  1.40420805 0.61576118 0.03385004
6
MD Step 47
C  -0.32909343 -0.56759747 -0.00565384
H  0.15463558 -1.51995504 0.03617095
H  -1.38480484 -0.64932363 0.03593053
C  0.32759024 0.57018934 -0.00584636
H  -0.16014247 1.52580169 0.03249734
H  1.40822386 0.61259219 0.03243792
6
MD Step 48
C  -0.32922696 -0.56771633 -0.00537025
H  0.15326722 -1.52171777 0.03463217
H  -1.38485423 -0.65109020 0.03434052
C  0.32790961 0.57078829 -0.00561209
H  -0.16499072 1.52683619 0.03094977
H  1.41227531 0.60936620 0.03094334
6
MD Step 49
C  -0.32935481 -0.56786373 -0.00507381
H  0.15218929 -1.52370487 0.03301522
H  -1.38547471 -0.65270013 0.03268034
C  0.32826048 0.57141525 -0.00536515
H  -0.16995953 1.52798398 0.02932703
H  1.41628495 0.60610104 0.02936834
6
MD Step 50
C  -0.32947220 -0.56803619 -0.00476093
H  0.15137434 -1.52591392 0.03130036
H  -1.38667781 -0.65416893 0.03093047
C  0.32864739 0.57207410 -0.00510233
H  -0.17502330 1.52917477 0.02760820
H  1.42015514 0.60279223 0.02769183
6
MD Step 51
C  -0.32958474 -0.56823997 -0.00443814
H  0.15084741 -1.52828056 0.02952388
H  -1.38840470 -0.65545520 0.02912663
C  0.32906495 0.57275899 -0.00482939
H  -0.18009874 1.53039458 0.02583026
H  1.42384979 0.59949232 0.02595132
6
MD Step 52
C  -0.32968907 -0.56847208 -0.00410188
H  0.15057374 -1.53079274 0.02766649
H  -1.39064087 -0.65657474 0.02724917
C  0.32951664 0.57347344 -0.00454324
H  -0.18515952 1.53157324 0.02397302
H  1.42728129 0.59619786 0.02412684
6
MD Step 53
C  -0.32979128 -0.56873832 -0.00375785
H  0.15056700 -1.53338300 0.02576018
H  -1.39330860 -0.65749153 0.02532926
C  0.32999679 0.57421188 -0.00424907
H  -0.19012797 1.53269420 0.02206936
H  1.43042067 0.59295721 0.02225191
6
MD Step 54
C  -0.32988992 -0.56903664 -0.00340342
H  0.15079137 -1.53602861 0.02379076
H  -1.39636800 -0.65821753 0.02335195
C  0.33050701 0.57497638 -0.00394464
H  -0.19497529 1.53369621 0.02010464
H  1.43319860 0.58977178 0.02031232
6
MD Step 55
C  -0.32998376 -0.56936475 -0.00303578
H  0.15120780 -1.53870631 0.02174323
H  -1.39977235 -0.65876643 0.02130139
C  0.33104855 0.57576878 -0.00362760
H  -0.19967600 1.53452036 0.01806334
H  1.43555250 0.58664179 0.01829312
6
MD Step 56
C  -0.33008054 -0.56972870 -0.00266113
H  0.15182586 -1.54134145 0.01965267
H  -1.40341799 -0.65910169 0.01921168
C  0.33161370 0.57658188 -0.00330372
H  -0.20415638 1.53516284 0.01598176
H  1.43747930 0.58361757 0.01623123
6
MD Step 57
C  -0.33018258 -0.57012885 -0.00227993
H  0.15262158 -1.54389235 0.01752230
H  -1.40723004 -0.65922054 0.01708515
C  0.33219965 0.57741353 -0.00297361
H  -0.20837874 1.53559193 0.01386331
H  1.43895168 0.58071651 0.01413063
6
MD Step 58
C  -0.33029165 -0.57056467 -0.00189208
H  0.15356677 -1.54632218 0.01535209
H  -1.41113533 -0.65912491 0.01492096
C  0.33280371 0.57826167 -0.00263735
H  -0.21231267 1.53577758 0.01170799
H  1.43994746 0.57795182 0.01199184
6
MD Step 59
C  -0.33041274 -0.57103846 -0.00150090
H  0.15465223 -1.54857690 0.01316121
H  -1.41504133 -0.65879854 0.01273759
C  0.33341951 0.57912048 -0.00229814
H  -0.21591240 1.53571475 0.00953560
H  1.44047276 0.57535512 0.00983508
6
MD Step 60
C  -0.33055006 -0.57155147 -0.00110912
H  0.15586535 -1.55060901 0.01096544
H  -1.41886101 -0.65823018 0.01055021
C  0.33404091 0.57998424 -0.00195860
H  -0.21914014 1.53540060 0.00736236
H  1.44053871 0.57295343 0.00767697
6
MD Step 61
C  -0.33069994 -0.57209702 -0.00071167
H  0.15714985 -1.55241924 0.00873680
H  -1.42255542 -0.65745490 0.00833039
C  0.33466879 0.58085431 -0.00161422
H  -0.22200756 1.53479368 0.00515935
H  1.44012019 0.57072831 0.00548885
6
MD Step 62
C  -0.33085968 -0.57266916 -0.00030485
H  0.15845777 -1.55400479 0.00645477
H  -1.42608240 -0.65650164 0.00605731
C  0.33530242 0.58173027 -0.00126168
H  -0.22452367 1.53386633 0.00290523
H  1.43920845 0.56866760 0.00324959
6
MD Step 63
C  -0.33103253 -0.57326760 0.00010860
H  0.15977906 -1.55533023 0.00413528
H  -1.42936786 -0.65536364 0.00374670
C  0.33593462 0.58260501 -0.00090360
H  -0.22666545 1.53263435 0.00061597
H  1.43784074 0.56679468 0.00097524
6
MD Step 64
C  -0.33122767 -0.57389775 0.00051938
H  0.16114221 -1.55632752 0.00183100
H  -1.43230658 -0.65399798 0.00145125
C  0.33655173 0.58346465 -0.00054850
H  -0.22837749 1.53115728 -0.00165470
H  1.43610024 0.56516870 -0.00128057
6
MD Step 65
C  -0.33143576 -0.57454671 0.00093678
H  0.16247172 -1.55704023 -0.00051027
H  -1.43490720 -0.65247014 -0.00088120
C  0.33715756 0.58431294 -0.00018782
H  -0.22971636 1.52939422 -0.00396099
H  1.43397073 0.56374150 -0.00357213
6
MD Step 66
C  -0.33166339 -0.57521721 0.00135325
H  0.16378994 -1.55742059 -0.00284558
H  -1.43708937 -0.65074992 -0.00320745
C  0.33773975 0.58513696 0.00017152
H  -0.23064686 1.52740699 -0.00625961
H  1.43154024 0.56255949 -0.00585648
6
MD Step 67
C  -0.33191181 -0.57590668 0.00176622
H  0.16509305 -1.55745472 -0.00516017
H  -1.43880962 -0.64883703 -0.00551239
C  0.33829057 0.58592830 0.00052722
H  -0.23116740 1.52523462 -0.00853634
H  1.42887448 0.56163921 -0.00811979
6
MD Step 68
C  -0.33217992 -0.57661025 0.00217508
H  0.16636843 -1.55714532 -0.00745025
H  -1.44004438 -0.64674354 -0.00779186
C  0.33880421 0.58668021 0.00087880
H  -0.23129234 1.52291036 -0.01078837
H  1.42603310 0.56098461 -0.01035975
6
MD Step 69
C  -0.33247136 -0.57732780 0.00257385
H  0.16763674 -1.55646957 -0.00968153
H  -1.44074827 -0.64445144 -0.01001100
C  0.33926978 0.58738053 0.00122082
H  -0.23100948 1.52050336 -0.01298177
H  1.42311085 0.56062897 -0.01254309
6
MD Step 70
C  -0.33277323 -0.57804296 0.00297284
H  0.16882687 -1.55550470 -0.01191341
H  -1.44098000 -0.64203879 -0.01222896
C  0.33969240 0.58803298 0.00156329
H  -0.23040579 1.51799230 -0.01517837
H  1.42010992 0.56050974 -0.01473201
6
MD Step 71
C  -0.33308410 -0.57875081 0.00337034
H  0.16994001 -1.55426260 -0.01413599
H  -1.44073675 -0.63951388 -0.01443534
C  0.34006576 0.58862940 0.00190483
H  -0.22950173 1.51543000 -0.01736939
H  1.41710483 0.56063292 -0.01691838
6
MD Step 72
C  -0.33340078 -0.57944485 0.00376601
H  0.17097167 -1.55276778 -0.01634749
H  -1.44003233 -0.63689371 -0.01662790
C  0.34038527 0.58916303 0.00224541
H  -0.22832925 1.51286434 -0.01955445
H  1.41416250 0.56099513 -0.01910242
6
MD Step 73
C  -0.33372157 -0.58012028 0.00415766
H  0.17193078 -1.55103775 -0.01853525
H  -1.43887769 -0.63418453 -0.01879350
C  0.34064494 0.58962536 0.00258321
H  -0.22691201 1.51035659 -0.02172221
H  1.41135989 0.56160286 -0.02127341
6
MD Step 74
C  -0.33404281 -0.58077059 0.00454473
H  0.17281894 -1.54910333 -0.02069621
H  -1.43730150 -0.63140243 -0.02092869
C  0.34084092 0.59000975 0.00291801
H  -0.22528534 1.50795969 -0.02387111
H  1.40876143 0.56245192 -0.02343030
6
MD Step 75
C  -0.33436017 -0.58138891 0.00492707
H  0.17363770 -1.54700070 -0.02282957
H  -1.43534233 -0.62856582 -0.02303241
C  0.34097043 0.59031026 0.00324999
H  -0.22348812 1.50572454 -0.02600194
H  1.40642473 0.56353491 -0.02557422
6
MD Step 76
C  -0.33467518 -0.58197456 0.00529841
H  0.17442685 -1.54473219 -0.02489838
H  -1.43300951 -0.62565650 -0.02506713
C  0.34102530 0.59051527 0.00357319
H  -0.22152323 1.50373744 -0.02807882
H  1.40443763 0.56487990 -0.02766994
6
MD Step 77
C  -0.33498415 -0.58252206 0.00565746
H  0.17519858 -1.54233175 -0.02689497
H  -1.43034890 -0.62268563 -0.02702499
C  0.34100318 0.59061871 0.00388655
H  -0.21942259 1.50205272 -0.03009546
H  1.40284994 0.56648476 -0.02971130
6
MD Step 78
C  -0.33528281 -0.58302581 0.00600331
H  0.17596449 -1.53983694 -0.02881373
H  -1.42741497 -0.61966625 -0.02890043
C  0.34090297 0.59061558 0.00418930
H  -0.21721885 1.50071874 -0.03204750
H  1.40169935 0.56834448 -0.03169379
6
MD Step 79
C  -0.33556588 -0.58347969 0.00633589
H  0.17673229 -1.53729115 -0.03065406
H  -1.42427283 -0.61661605 -0.03069316
C  0.34072538 0.59050261 0.00448147
H  -0.21494748 1.49977362 -0.03393538
H  1.40100726 0.57044829 -0.03361733
6
MD Step 80
C  -0.33582909 -0.58387911 0.00665402
H  0.17751719 -1.53473110 -0.03240865
H  -1.42098546 -0.61354548 -0.03239624
C  0.34047095 0.59027633 0.00476187
H  -0.21263412 1.49925571 -0.03575248
H  1.40078988 0.57279144 -0.03547469
6
MD Step 81
C  -0.33606276 -0.58421461 0.00696179
H  0.17830274 -1.53222483 -0.03410207
H  -1.41765127 -0.61049659 -0.03403572
C  0.34014654 0.58993979 0.00503475
H  -0.21033277 1.49916362 -0.03752403
H  1.40101890 0.57533644 -0.03728929
6
MD Step 82
C  -0.33626864 -0.58448858 0.00725235
H  0.17913941 -1.52977144 -0.03569195
H  -1.41430297 -0.60744333 -0.03556900
C  0.33974863 0.58948588 0.00529264
H  -0.20802570 1.49955472 -0.03920724
H  1.40172151 0.57811217 -0.03901829
6
MD Step 83
C  -0.33643132 -0.58468688 0.00753547
H  0.17997479 -1.52747047 -0.03723807
H  -1.41107651 -0.60446182 -0.03705902
C  0.33929173 0.58892603 0.00554582
H  -0.20579310 1.50037421 -0.04086197
H  1.40281002 0.58104424 -0.04071804
6
MD Step 84
C  -0.33655286 -0.58481317 0.00780452
H  0.18085678 -1.52531639 -0.03869895
H  -1.40800402 -0.60152548 -0.03846437
C  0.33877400 0.58825590 0.00578679
H  -0.20360843 1.50165934 -0.04244549
H  1.40428845 0.58415892 -0.04234552
6
MD Step 85
C  -0.33662671 -0.58486296 0.00806145
H  0.18177841 -1.52335343 -0.04008639
H  -1.40516790 -0.59866060 -0.03979892
C  0.33820320 0.58748146 0.00601729
H  -0.20149358 1.50338375 -0.04396831
H  1.40609752 0.58742814 -0.04390903
6
MD Step 86
C  -0.33665208 -0.58483779 0.00830328
H  0.18276182 -1.52159032 -0.04138121
H  -1.40261421 -0.59586162 -0.04104452
C  0.33758242 0.58660481 0.00623356
H  -0.19943448 1.50554225 -0.04540932
H  1.40820101 0.59085381 -0.04538640
6
MD Step 87
C  -0.33663164 -0.58474298 0.00852443
H  0.18384383 -1.52001405 -0.04254734
H  -1.40036557 -0.59310534 -0.04216522
C  0.33691231 0.58562655 0.00642867
H  -0.19739552 1.50813698 -0.04672999
H  1.41057277 0.59445372 -0.04673910
6
MD Step 88
C  -0.33655764 -0.58457361 0.00872969
H  0.18499309 -1.51867280 -0.04361452
H  -1.39850304 -0.59043408 -0.04319370
C  0.33620500 0.58455962 0.00660742
H  -0.19540292 1.51109498 -0.04795756
H  1.41311490 0.59817850 -0.04799160
6
MD Step 89
C  -0.33642573 -0.58432826 0.00892136
H  0.18619088 -1.51759402 -0.04459720
H  -1.39708282 -0.58787422 -0.04414679
C  0.33547024 0.58341558 0.00677187
H  -0.19346407 1.51435071 -0.04910356
H  1.41574155 0.60199303 -0.04915340
6
MD Step 90
C  -0.33623975 -0.58401370 0.00909506
H  0.18745889 -1.51675627 -0.04546663
H  -1.39610670 -0.58540825 -0.04499572
C  0.33471067 0.58219974 0.00691626
H  -0.19154051 1.51787534 -0.05013603
H  1.41840886 0.60590438 -0.05019298
6
MD Step 91
C  -0.33599177 -0.58362480 0.00925807
H  0.18874024 -1.51620877 -0.04627005
H  -1.39564093 -0.58309416 -0.04579139
C  0.33394170 0.58093109 0.00704864
H  -0.18966766 1.52155864 -0.05109888
H  1.42099707 0.60984264 -0.05115100
6
MD Step 92
C  -0.33569058 -0.58317301 0.00940332
H  0.19006863 -1.51590162 -0.04696121
H  -1.39564531 -0.58089594 -0.04648613
C  0.33316299 0.57961367 0.00716008
H  -0.18778666 1.52538025 -0.05194267
H  1.42348223 0.61383063 -0.05197995
6
MD Step 93
C  -0.33533413 -0.58265870 0.00953451
H  0.19140467 -1.51585072 -0.04756470
H  -1.39613812 -0.57884776 -0.04710639
C  0.33238595 0.57826395 0.00725459
H  -0.18590883 1.52924672 -0.05268870
H  1.42577289 0.61781970 -0.05269963
6
MD Step 94
C  -0.33492569 -0.58208726 0.00965139
H  0.19273230 -1.51604158 -0.04807956
H  -1.39709970 -0.57695772 -0.04765151
C  0.33161753 0.57689455 0.00733161
H  -0.18402043 1.53308950 -0.05333290
H  1.42780797 0.62178632 -0.05330603
6
MD Step 95
C  -0.33447581 -0.58147115 0.00974803
H  0.19407156 -1.51641750 -0.04846665
H  -1.39846073 -0.57519544 -0.04808009
C  0.33085798 0.57551190 0.00738358
H  -0.18207097 1.53687874 -0.05383382
H  1.42957023 0.62574476 -0.05376017
6
MD Step 96
C  -0.33398149 -0.58080888 0.00983139
H  0.19535487 -1.51700456 -0.04877358
H  -1.40022829 -0.57361603 -0.04844177
C  0.33012182 0.57413698 0.00741898
H  -0.18009738 1.54050036 -0.05423599
H  1.43096264 0.62962280 -0.05410462
6
MD Step 97
C  -0.33345381 -0.58011286 0.00989647
H  0.19659333 -1.51774603 -0.04896781
H  -1.40232034 -0.57219444 -0.04870159
C  0.32940976 0.57277726 0.00743165
H  -0.17805941 1.54392333 -0.05450527
H  1.43197551 0.63342830 -0.05430768
6
MD Step 98
C  -0.33290016 -0.57939151 0.00994218
H  0.19777159 -1.51860889 -0.04904295
H  -1.40467358 -0.57093077 -0.04885166
C  0.32872644 0.57144431 0.00742024
H  -0.17594510 1.54709510 -0.05463378
H  1.43258119 0.63714355 -0.05436278
6
MD Step 99
C  -0.33232225 -0.57864729 0.00997291
H  0.19883730 -1.51959553 -0.04903000
H  -1.40725627 -0.56986113 -0.04892315
C  0.32808236 0.57015542 0.00739045
H  -0.17378190 1.54993157 -0.05465056
H  1.43272359 0.64071441 -0.05429855
6
MD Step 100
C  -0.33172972 -0.57789045 0.00998631
H  0.19978378 -1.52066213 -0.04891434
H  -1.40998720 -0.56897570 -0.04889923
C  0.32747980 0.56891973 0.00733960
H  -0.17155534 1.55240013 -0.05454057
H  1.43240092 0.64413299 -0.05410188
6
MD Step 101
C  -0.33112941 -0.57712827 0.00998270
H  0.20058726 -1.52178251 -0.04869964
H  -1.41280092 -0.56828156 -0.04878205
C  0.32692355 0.56774865 0.00726850
H  -0.16927183 1.55445728 -0.05430698
H  1.43160276 0.64737458 -0.05377706
6
MD Step 102
C  -0.33053068 -0.57637044 0.00996032
H  0.20123979 -1.52291641 -0.04837495
H  -1.41561699 -0.56777041 -0.04855844
C  0.32641532 0.56665034 0.00717527
H  -0.16692662 1.55608150 -0.05393932
H  1.43034258 0.65043029 -0.05331551
6
MD Step 103
C  -0.32993798 -0.57562157 0.00992170
H  0.20170596 -1.52405365 -0.04795899
H  -1.41838530 -0.56746174 -0.04824614
C  0.32596114 0.56563683 0.00706363
H  -0.16454692 1.55723028 -0.05345613
H  1.42861435 0.65326357 -0.05273642
6
MD Step 104
C  -0.32936197 -0.57489253 0.00986373
H  0.20199119 -1.52514697 -0.04743134
H  -1.42101954 -0.56733560 -0.04782218
C  0.32555979 0.56471264 0.00693008
H  -0.16212479 1.55790804 -0.05283870
H  1.42646007 0.65587839 -0.05202329
6
MD Step 105
C  -0.32880667 -0.57418732 0.00978895
H  0.20206458 -1.52618969 -0.04681097
H  -1.42347602 -0.56740912 -0.04730465
C  0.32521590 0.56388755 0.00677851
H  -0.15969349 1.55808935 -0.05210646
H  1.42389262 0.65824182 -0.05119624
6
MD Step 106
C  -0.32828793 -0.57352209 0.00968902
H  0.20197262 -1.52710324 -0.04604111
H  -1.42564147 -0.56762453 -0.04663340
C  0.32492072 0.56315775 0.00659886
H  -0.15721556 1.55783177 -0.05120666
H  1.42100809 0.66039776 -0.05020573
6
MD Step 107
C  -0.32780780 -0.57289882 0.00956752
H  0.20168399 -1.52789266 -0.04514708
H  -1.42748997 -0.56800275 -0.04583322
C  0.32467851 0.56253153 0.00639622
H  -0.15473586 1.55712117 -0.05016554
H  1.41783052 0.66231120 -0.04907847
6
MD Step 108
C  -0.32737300 -0.57232428 0.00942335
H  0.20120250 -1.52853443 -0.04412175
H  -1.42897081 -0.56853202 -0.04489565
C  0.32448740 0.56201055 0.00616970
H  -0.15227018 1.55598382 -0.04897859
H  1.41442338 0.66398134 -0.04781127
6
MD Step 109
C  -0.32698638 -0.57180127 0.00925838
H  0.20051571 -1.52902810 -0.04297786
H  -1.43006058 -0.56921876 -0.04383279
C  0.32434816 0.56159836 0.00592209
H  -0.14985582 1.55443503 -0.04766057
H  1.41083779 0.66539003 -0.04641961
6
MD Step 110
C  -0.32664558 -0.57132720 0.00907856
H  0.19958662 -1.52940455 -0.04175656
H  -1.43077168 -0.57009568 -0.04268599
C  0.32426565 0.56130171 0.00566134
H  -0.14755936 1.55247072 -0.04625331
H  1.40710363 0.66649348 -0.04494526
6
MD Step 111
C  -0.32636106 -0.57091269 0.00887763
H  0.19846441 -1.52961581 -0.04041485
H  -1.43104169 -0.57111280 -0.04141078
C  0.32423000 0.56111231 0.00538013
H  -0.14536762 1.55017704 -0.04471860
H  1.40333862 0.66733320 -0.04335161
6
MD Step 112
C  -0.32613474 -0.57055960 0.00865641
H  0.19715387 -1.52966520 -0.03895818
H  -1.43086446 -0.57226614 -0.04001240
C  0.32423890 0.56102842 0.00507990
H  -0.14331562 1.54760000 -0.04306458
H  1.39961712 0.66790515 -0.04164715
6
MD Step 113
C  -0.32596775 -0.57026897 0.00841581
H  0.19566295 -1.52955999 -0.03739211
H  -1.43024276 -0.57355093 -0.03849636
C  0.32428962 0.56104708 0.00476210
H  -0.14143928 1.54479199 -0.04129950
H  1.39601571 0.66820728 -0.03984034
6
MD Step 114
C  -0.32585671 -0.57003727 0.00816016
H  0.19398007 -1.52933369 -0.03574520
H  -1.42921070 -0.57498385 -0.03689168
C  0.32438294 0.56116789 0.00443224
H  -0.13979718 1.54178845 -0.03945358
H  1.39258927 0.66821687 -0.03796103
6
MD Step 115
C  -0.32579837 -0.56986110 0.00789302
H  0.19210189 -1.52901786 -0.03404061
H  -1.42780540 -0.57657551 -0.03522207
C  0.32451847 0.56138849 0.00409487
H  -0.13844241 1.53863480 -0.03755171
H  1.38939727 0.66791846 -0.03603362
6
MD Step 116
C  -0.32579758 -0.56974552 0.00760973
H  0.19008182 -1.52859338 -0.03224664
H  -1.42601791 -0.57828246 -0.03345587
C  0.32468645 0.56169669 0.00374465
H  -0.13737412 1.53543350 -0.03556625
H  1.38655044 0.66735246 -0.03403044
6
MD Step 117
C  -0.32585460 -0.56969093 0.00730926
H  0.18795226 -1.52806747 -0.03035541
H  -1.42387080 -0.58008385 -0.03158571
C  0.32488115 0.56208341 0.00338047
H  -0.13661305 1.53226549 -0.03349216
H  1.38413118 0.66653730 -0.03194585
6
MD Step 118
C  -0.32596379 -0.56969180 0.00699532
H  0.18571632 -1.52748131 -0.02839092
H  -1.42142589 -0.58198927 -0.02963655
C  0.32510232 0.56254419 0.00300683
H  -0.13620852 1.52918053 -0.03135457
H  1.38218337 0.66546118 -0.02980393
6
MD Step 119
C  -0.32612843 -0.56975189 0.00666270
H  0.18343749 -1.52682009 -0.02631786
H  -1.41869382 -0.58395028 -0.02757364
C  0.32534006 0.56306456 0.00261765
H  -0.13614919 1.52628485 -0.02912147
H  1.38079973 0.66417193 -0.02757192
6
MD Step 120
C  -0.32633945 -0.56986253 0.00631709
H  0.18110980 -1.52614147 -0.02417269
H  -1.41576296 -0.58598813 -0.02543466
C  0.32559689 0.56364165 0.00221947
H  -0.13648959 1.52361053 -0.02682944
H  1.37999101 0.66264726 -0.02528504
6
MD Step 121
C  -0.32659398 -0.57002155 0.00595782
H  0.17876963 -1.52546325 -0.02195007
H  -1.41268620 -0.58808320 -0.02321519
C  0.32586884 0.56426579 0.00181137
H  -0.13723882 1.52122533 -0.02447449
H  1.37979622 0.66090691 -0.02293815
6
MD Step 122
C  -0.32688190 -0.57021958 0.00559062
H  0.17641296 -1.52484459 -0.01968600
H  -1.40956203 -0.59025624 -0.02095242
C  0.32615935 0.56493438 0.00139965
H  -0.13844091 1.51914917 -0.02209225
H  1.38019982 0.65893024 -0.02056557
6
MD Step 123
C  -0.32720005 -0.57045455 0.00521417
H  0.17408064 -1.52429981 -0.01737127
H  -1.40644714 -0.59248365 -0.01863803
C  0.32646483 0.56563779 0.00098263
H  -0.14008951 1.51743798 -0.01967419
H  1.38121682 0.65674209 -0.01815777
6
MD Step 124
C  -0.32754460 -0.57072385 0.00482748
H  0.17181074 -1.52384465 -0.01499900
H  -1.40340224 -0.59474416 -0.01626597
C  0.32678259 0.56636736 0.00055904
H  -0.14217382 1.51613547 -0.01721369
H  1.38284549 0.65436547 -0.01570731
6
MD Step 125
C  -0.32791076 -0.57102406 0.00443029
H  0.16963588 -1.52349798 -0.01256698
H  -1.40049293 -0.59702119 -0.01383476
C  0.32711119 0.56711589 0.00012838
H  -0.14468044 1.51526964 -0.01470838
H  1.38506517 0.65181932 -0.01321113