56
MD Step 0
C  4.88541000 -0.65621000 0.57938000
C  4.00832000 0.38619000 0.39934000
C  2.72354000 0.20045000 -0.17458000
C  2.38681000 -1.13374000 -0.52158000
C  3.25424000 -2.20077000 -0.35108000
C  4.53560000 -1.99029000 0.20117000
C  1.75873000 1.23557000 -0.37431000
C  0.21413000 -0.47407000 -1.20808000
C  0.50922000 0.89765000 -0.90179000
C  -0.54487000 1.83152000 -1.17158000
H  -0.36351000 2.88411000 -0.99006000
C  -1.76263000 1.43062000 -1.62544000
C  -2.05632000 0.03772000 -1.86290000
C  -1.00139000 -0.89708000 -1.67592000
H  5.84878000 -0.45470000 1.02977000
H  4.29956000 1.38196000 0.71335000
H  2.90318000 -3.18327000 -0.63583000
H  -2.53656000 2.16994000 -1.77637000
H  -1.15126000 -1.95649000 -1.82371000
N  -3.27160000 -0.35069000 -2.27566000
N  5.40969000 -3.02703000 0.37975000
P  -4.03908000 -0.67292000 1.40032000
C  2.07655000 2.63980000 0.00255000
C  1.35012000 3.27950000 1.02062000
C  3.10456000 3.34230000 -0.64724000
C  1.65120000 4.59288000 1.38121000
H  0.55936000 2.74084000 1.53486000
C  3.39328000 4.65954000 -0.29164000
H  3.66401000 2.85934000 -1.44373000
C  2.66992000 5.28627000 0.72511000
H  1.08637000 5.07269000 2.17532000
H  4.18251000 5.19611000 -0.81093000
H  2.89873000 6.31100000 1.00409000
F  -2.83183000 -1.49737000 0.62055000
F  -3.02591000 -0.36530000 2.63031000
F  -3.52922000 0.71368000 0.64523000
F  -5.22980000 0.16142000 2.11566000
F  -4.53111000 -2.05270000 2.09256000
F  -5.01725000 -0.96711000 0.10158000
C  -4.38030000 0.60981000 -2.34259000
H  -5.28369000 0.07589000 -2.63054000
H  -4.54123000 1.05581000 -1.35965000
H  -4.17709000 1.38078000 -3.09475000
C  -3.57878000 -1.77909000 -2.40249000
H  -4.61485000 -1.88797000 -2.71736000
H  -2.93390000 -2.24260000 -3.15818000
H  -3.45346000 -2.26772000 -1.43376000
C  5.00725000 -4.38561000 0.03694000
H  5.83614000 -5.06555000 0.23497000
H  4.14356000 -4.71461000 0.62992000
H  4.74742000 -4.46682000 -1.02596000
C  6.70938000 -2.80178000 1.00115000
H  6.61239000 -2.43292000 2.03087000
H  7.25712000 -3.74404000 1.02932000
H  7.30735000 -2.08149000 0.42940000
O  1.16634000 -1.43662000 -1.03439000
56
MD Step 1000
C  4.94830820 -0.11669125 1.51059907
C  4.02045601 0.88529953 1.30110559
C  2.86520432 0.65391075 0.50307324
C  2.73536802 -0.67830202 -0.01995754
C  3.63101790 -1.68672765 0.18772210
C  4.78924027 -1.44077342 0.98027830
C  1.84953540 1.64814665 0.18575273
C  0.65676681 -0.09800530 -1.10037154
C  0.77017871 1.25124717 -0.61528485
C  -0.29457994 2.13922184 -0.99818156
H  -0.28401577 3.19829545 -0.69802981
C  -1.36255336 1.68658391 -1.74728532
C  -1.46456198 0.30556981 -2.19910735
C  -0.39216419 -0.58579307 -1.87763253
H  5.79718641 0.09556232 2.08292694
H  4.16957714 1.85670404 1.75231371
H  3.42795562 -2.65850934 -0.17377729
H  -2.16087540 2.40803862 -1.99713935
H  -0.37756073 -1.67329545 -2.07490436
N  -2.54330996 -0.12453843 -2.92109244
N  5.71131288 -2.39866768 1.27241847
P  -4.13823747 -1.61435355 0.22807028
C  1.92307376 3.03408724 0.77162289
C  0.93705840 3.45994663 1.71195165
C  2.95508056 3.92648613 0.37755839
C  1.05281147 4.74003675 2.31387119
H  0.10894307 2.75492205 1.95559573
C  3.05883486 5.19960869 0.97464098
H  3.63843974 3.58289452 -0.40115753
C  2.08167664 5.62182017 1.91099204
H  0.29154491 5.00953779 3.01305748
H  3.86312856 5.84854512 0.64522443
H  2.12980185 6.60198662 2.32540671
F  -2.66716566 -2.10894768 -0.35800766
F  -3.50944461 -1.54624644 1.72207102
F  -3.66798771 -0.04770800 -0.02097357
F  -5.58571259 -1.08624890 0.74845442
F  -4.57528454 -3.16829775 0.43589721
F  -4.72468880 -1.66139661 -1.31110280
C  -3.80663708 0.65171122 -2.89917741
H  -4.61379739 -0.07342866 -3.17419805
H  -4.00975369 1.02433022 -1.88969848
H  -3.75206580 1.44495482 -3.66591425
C  -2.57395354 -1.49981327 -3.42632843
H  -3.32709650 -1.57640299 -4.16708438
H  -1.65295269 -1.80175487 -3.94538672
H  -2.74750443 -2.26655877 -2.64528398
C  5.49951049 -3.75092552 0.76413563
H  6.37276432 -4.37591456 1.06251964
H  4.59792981 -4.22196763 1.21612745
H  5.40764161 -3.80463073 -0.33752596
C  6.82862091 -2.11546835 2.20024935
H  6.41772839 -1.71400968 3.14811676
H  7.31020612 -3.07596186 2.33131795
H  7.50191854 -1.35512561 1.75347548
O  1.64251352 -1.01331622 -0.80608412
