 Entering Gaussian System, Link 0=g16
 Initial command:
 /software/gaussian/g16-c01/avx/g16/l1.exe "/gpfs/fs2/scratch/bweight/software/many_molecule_many_mode_NAMD/src/ELECTRONIC_STRUCTURE_INPUT/EXAMPLE/G16/TD_NEW_S3/Gau-8413.inp" -scrdir="/gpfs/fs2/scratch/bweight/software/many_molecule_many_mode_NAMD/src/ELECTRONIC_STRUCTURE_INPUT/EXAMPLE/G16/TD_NEW_S3/"
 Entering Link 1 = /software/gaussian/g16-c01/avx/g16/l1.exe PID=      8414.
  
 Copyright (c) 1988-2019, Gaussian, Inc.  All Rights Reserved.
  
 This is part of the Gaussian(R) 16 program.  It is based on
 the Gaussian(R) 09 system (copyright 2009, Gaussian, Inc.),
 the Gaussian(R) 03 system (copyright 2003, Gaussian, Inc.),
 the Gaussian(R) 98 system (copyright 1998, Gaussian, Inc.),
 the Gaussian(R) 94 system (copyright 1995, Gaussian, Inc.),
 the Gaussian 92(TM) system (copyright 1992, Gaussian, Inc.),
 the Gaussian 90(TM) system (copyright 1990, Gaussian, Inc.),
 the Gaussian 88(TM) system (copyright 1988, Gaussian, Inc.),
 the Gaussian 86(TM) system (copyright 1986, Carnegie Mellon
 University), and the Gaussian 82(TM) system (copyright 1983,
 Carnegie Mellon University). Gaussian is a federally registered
 trademark of Gaussian, Inc.
  
 This software contains proprietary and confidential information,
 including trade secrets, belonging to Gaussian, Inc.
  
 This software is provided under written license and may be
 used, copied, transmitted, or stored only in accord with that
 written license.
  
 The following legend is applicable only to US Government
 contracts under FAR:
  
                    RESTRICTED RIGHTS LEGEND
  
 Use, reproduction and disclosure by the US Government is
 subject to restrictions as set forth in subparagraphs (a)
 and (c) of the Commercial Computer Software - Restricted
 Rights clause in FAR 52.227-19.
  
 Gaussian, Inc.
 340 Quinnipiac St., Bldg. 40, Wallingford CT 06492
  
  
 ---------------------------------------------------------------
 Warning -- This program may not be used in any manner that
 competes with the business of Gaussian, Inc. or will provide
 assistance to any competitor of Gaussian, Inc.  The licensee
 of this program is prohibited from giving any competitor of
 Gaussian, Inc. access to this program.  By using this program,
 the user acknowledges that Gaussian, Inc. is engaged in the
 business of creating and licensing software in the field of
 computational chemistry and represents and warrants to the
 licensee that it is not a competitor of Gaussian, Inc. and that
 it will not use this program in any manner prohibited above.
 ---------------------------------------------------------------
  

 Cite this work as:
 Gaussian 16, Revision C.01,
 M. J. Frisch, G. W. Trucks, H. B. Schlegel, G. E. Scuseria, 
 M. A. Robb, J. R. Cheeseman, G. Scalmani, V. Barone, 
 G. A. Petersson, H. Nakatsuji, X. Li, M. Caricato, A. V. Marenich, 
 J. Bloino, B. G. Janesko, R. Gomperts, B. Mennucci, H. P. Hratchian, 
 J. V. Ortiz, A. F. Izmaylov, J. L. Sonnenberg, D. Williams-Young, 
 F. Ding, F. Lipparini, F. Egidi, J. Goings, B. Peng, A. Petrone, 
 T. Henderson, D. Ranasinghe, V. G. Zakrzewski, J. Gao, N. Rega, 
 G. Zheng, W. Liang, M. Hada, M. Ehara, K. Toyota, R. Fukuda, 
 J. Hasegawa, M. Ishida, T. Nakajima, Y. Honda, O. Kitao, H. Nakai, 
 T. Vreven, K. Throssell, J. A. Montgomery, Jr., J. E. Peralta, 
 F. Ogliaro, M. J. Bearpark, J. J. Heyd, E. N. Brothers, K. N. Kudin, 
 V. N. Staroverov, T. A. Keith, R. Kobayashi, J. Normand, 
 K. Raghavachari, A. P. Rendell, J. C. Burant, S. S. Iyengar, 
 J. Tomasi, M. Cossi, J. M. Millam, M. Klene, C. Adamo, R. Cammi, 
 J. W. Ochterski, R. L. Martin, K. Morokuma, O. Farkas, 
 J. B. Foresman, and D. J. Fox, Gaussian, Inc., Wallingford CT, 2019.
 
 ******************************************
 Gaussian 16:  ES64L-G16RevC.01  3-Jul-2019
                27-Dec-2022 
 ******************************************
 %oldchk=../TD_NEW_S1/geometry.chk
 %chk=geometry.chk
 %nprocshared=1
 Will use up to    1 processors via shared memory.
 %mem=5GB
 Copying data from "../TD_NEW_S1/geometry.chk" to current chk file "geometry.chk"
 IOpt=  2 FromEx=T IUOpen= 4 IOptOp= 5 NList=   0 IFRang= 0 IUIn= 4 IUOut= 2.
 ----------------------------------------------------------------------
 # AM1/sto-3g TD=(read,singlets,nstates=4,root=3) FORCE nosym pop=full 
 guess=read
 ----------------------------------------------------------------------
 1/10=7,30=1,38=1/1,3;
 2/12=2,15=1,17=6,18=5,40=1/2;
 3/5=2,6=3,25=1,41=700000,71=1,116=-2/1,2,3,8;
 4/5=1,35=1/1;
 5/5=2,35=1,38=6/2;
 8/6=1,10=1,107=3,108=4/1;
 9/8=3,15=2,41=4,42=1,48=1,49=13,70=2/14;
 10/5=4,28=3,31=1/2;
 6/7=3,18=1/1;
 7/12=6,13=5,14=3,29=1,30=1/1,2,3,16;
 1/10=7,30=1/3;
 99//99;
 ---------
 MD Step 1
 ---------
 Symbolic Z-matrix:
 Charge =  0 Multiplicity = 1
 C                    -1.59611  -0.22883   0. 
 C                    -0.20095  -0.22883   0. 
 C                     0.49659   0.97892   0. 
 C                    -0.20107   2.18743  -0.0012 
 C                    -1.59589   2.18735  -0.00168 
 C                    -2.29349   0.97914  -0.00068 
 H                    -2.14587  -1.18115   0.00045 
 H                     0.34856  -1.18135   0.00132 
 H                     1.59627   0.979     0.00063 
 H                     0.34913   3.13957  -0.00126 
 H                    -2.14601   3.13963  -0.00263 
 H                    -3.3931    0.97933  -0.00086 
 

 GradGradGradGradGradGradGradGradGradGradGradGradGradGradGradGradGradGrad
 Berny optimization.
 Initialization pass.
 Trust Radius=3.00D-01 FncErr=1.00D-07 GrdErr=1.00D-07 EigMax=2.50D+02 EigMin=1.00D-04
 Number of steps in this run=      2 maximum allowed number of steps=      2.
 GradGradGradGradGradGradGradGradGradGradGradGradGradGradGradGradGradGrad

                          Input orientation:                          
 ---------------------------------------------------------------------
 Center     Atomic      Atomic             Coordinates (Angstroms)
 Number     Number       Type             X           Y           Z
 ---------------------------------------------------------------------
      1          6           0       -1.596110   -0.228833    0.000000
      2          6           0       -0.200950   -0.228833    0.000000
      3          6           0        0.496588    0.978918    0.000000
      4          6           0       -0.201066    2.187427   -0.001199
      5          6           0       -1.595891    2.187349   -0.001678
      6          6           0       -2.293492    0.979143   -0.000682
      7          1           0       -2.145869   -1.181150    0.000450
      8          1           0        0.348558   -1.181346    0.001315
      9          1           0        1.596268    0.978998    0.000634
     10          1           0        0.349134    3.139570   -0.001258
     11          1           0       -2.146013    3.139630   -0.002631
     12          1           0       -3.393096    0.979326   -0.000862
 ---------------------------------------------------------------------
                    Distance matrix (angstroms):
                    1          2          3          4          5
     1  C    0.000000
     2  C    1.395160   0.000000
     3  C    2.416205   1.394712   0.000000
     4  C    2.790065   2.416260   1.395427   0.000000
     5  C    2.416183   2.789946   2.416356   1.394825   0.000000
     6  C    1.394829   2.416183   2.790080   2.416236   1.395138
     7  H    1.099610   2.165553   3.412986   3.889675   3.413102
     8  H    2.165414   1.099655   2.165330   3.413316   3.889601
     9  H    3.413229   2.165375   1.099680   2.165806   3.413209
    10  H    3.889745   3.413024   2.165678   1.099680   2.165606
    11  H    3.413055   3.889707   3.413506   2.165528   1.099761
    12  H    2.165365   3.413128   3.889684   3.412999   2.165471
                    6          7          8          9         10
     6  C    0.000000
     7  H    2.165331   0.000000
     8  H    3.412938   2.494427   0.000000
     9  H    3.889760   4.320860   2.494768   0.000000
    10  H    3.413344   4.989355   4.320917   2.494678   0.000000
    11  H    2.165516   4.320781   4.989362   4.321228   2.495147
    12  H    1.099604   2.494641   4.320704   4.989364   4.320988
                   11         12
    11  H    0.000000
    12  H    2.494420   0.000000
 Symmetry turned off by external request.
 Stoichiometry    C6H6
 Framework group  C1[X(C6H6)]
 Deg. of freedom    30
 Full point group                 C1      NOp   1
 Rotational constants (GHZ):           5.6865650           5.6862640           2.8432074
 Standard basis: VSTO-3G (5D, 7F)
    30 basis functions,   180 primitive gaussians,    30 cartesian basis functions
    15 alpha electrons       15 beta electrons
       nuclear repulsion energy       119.6010023102 Hartrees.
 Integral buffers will be    131072 words long.
 Regular integral format.
 Two-electron integral symmetry is turned off.
 Do NDO integrals.
 One-electron integrals computed using PRISM.
 NBasis=    30 RedAO= F EigKep=  0.00D+00  NBF=    30
 NBsUse=    30 1.00D-04 EigRej=  0.00D+00 NBFU=    30
 Initial guess from the checkpoint file:  "geometry.chk"
 B after Tr=     0.000000    0.000000    0.000000
         Rot=    1.000000    0.000000    0.000000    0.000000 Ang=   0.00 deg.
 Keep J ints in memory in canonical form, NReq=861816.
 Overlap will be assumed to be unity.
 Requested convergence on RMS density matrix=1.00D-08 within 128 cycles.
 Requested convergence on MAX density matrix=1.00D-06.
 Requested convergence on             energy=1.00D-06.
 No special actions if energy rises.
 SCF Done:  E(RAM1) =  0.349530586474E-01 A.U. after    2 cycles
            NFock=  1  Conv=0.45D-09     -V/T= 1.0007
 Range of M.O.s used for correlation:     1    30
 NBasis=    30 NAE=    15 NBE=    15 NFC=     0 NFV=     0
 NROrb=     30 NOA=    15 NOB=    15 NVA=    15 NVB=    15
 Keep J ints in memory in canonical form, NReq=862156.
 Generating guess from checkpoint file densities.
 Convergence on wavefunction:    0.000001000000000
 Iteration     1 Dimension     8 NMult     0 NNew      8
 CISAX will form     8 AO SS matrices at one time.
 Iteration     2 Dimension    16 NMult     8 NNew      8
 ***********************************************************************
 Excited states from <AA,BB:AA,BB> singles matrix:
 ***********************************************************************
 
 Ground to excited state transition densities written to RWF  633
 Ground to excited state transition electric dipole moments (Au):
       state          X           Y           Z        Dip. S.      Osc.
         1        -0.0002      0.0000     -0.0000      0.0000      0.0000
         2        -0.0003      0.0014     -0.0004      0.0000      0.0000
         3        -1.0170      1.3351     -0.0009      2.8168      0.3785
         4         1.3353      1.0172     -0.0004      2.8178      0.3787
 Ground to excited state transition velocity dipole moments (Au):
       state          X           Y           Z        Dip. S.      Osc.
         1         0.0000     -0.0000      0.0000      0.0000      0.0000
         2         0.0001     -0.0003      0.0001      0.0000      0.0000
         3         0.3197     -0.4197      0.0004      0.2784      0.9207
         4        -0.4198     -0.3198      0.0000      0.2785      0.9209
 Ground to excited state transition magnetic dipole moments (Au):
       state          X           Y           Z
         1        -0.0001      0.0001     -0.0000
         2        -0.0002     -0.0004      0.0031
         3         0.0007      0.0005      0.1211
         4        -0.0001      0.0005      1.3197
 Ground to excited state transition velocity quadrupole moments (Au):
       state          XX          YY          ZZ          XY          XZ          YZ
         1        -0.0001     -0.0000      0.0000      0.0001     -0.0000     -0.0001
         2        -0.0001     -0.0014      0.0000      0.0005      0.0003     -0.0001
         3        -1.0860     -1.5532     -0.0000      1.3046     -0.0010      0.0017
         4         1.4251     -1.1832     -0.0000     -0.2345     -0.0000      0.0005
 <0|del|b> * <b|rxdel|0> + <0|del|b> * <b|delr+rdel|0>
 Rotatory Strengths (R) in cgs (10**-40 erg-esu-cm/Gauss)
       state          XX          YY          ZZ    R(velocity)    E-M Angle
         1        -0.0000     -0.0000     -0.0000     -0.0000       90.00
         2         0.0010      0.0003      0.0001      0.0005       90.00
         3        -0.0247      0.4296     -0.1552      0.0832       90.00
         4        -0.2448     -0.1596      0.1547     -0.0832       90.00
 1/2[<0|r|b>*<b|rxdel|0> + (<0|rxdel|b>*<b|r|0>)*]
 Rotatory Strengths (R) in cgs (10**-40 erg-esu-cm/Gauss)
       state          XX          YY          ZZ     R(length)
         1        -0.0000     -0.0000     -0.0000     -0.0000
         2        -0.0000      0.0004      0.0008      0.0004
         3         0.5203     -0.4811      0.0742      0.0378
         4         0.1206     -0.3737      0.3659      0.0376
  1/2[<0|del|b>*<b|r|0> + (<0|r|b>*<b|del|0>)*] (Au)
       state          X           Y           Z        Dip. S.   Osc.(frdel)
         1        -0.0000     -0.0000     -0.0000      0.0000      0.0000
         2        -0.0000     -0.0000     -0.0000      0.0000      0.0000
         3        -0.3252     -0.5604     -0.0000      0.8856      0.5904
         4        -0.5605     -0.3253     -0.0000      0.8858      0.5906

 Excitation energies and oscillator strengths:
 
 Excited state symmetry could not be determined.
 Excited State   1:      Singlet-?Sym    3.8443 eV  322.52 nm  f=0.0000  <S**2>=0.000
      14 -> 16         0.50434
      15 -> 17         0.50442
 
 Excited state symmetry could not be determined.
 Excited State   2:      Singlet-?Sym    4.1842 eV  296.32 nm  f=0.0000  <S**2>=0.000
      11 -> 18         0.11333
      14 -> 17        -0.49314
      15 -> 16         0.49382
 
 Excited state symmetry could not be determined.
 Excited State   3:      Singlet-?Sym    5.4853 eV  226.03 nm  f=0.3785  <S**2>=0.000
      14 -> 16        -0.21823
      14 -> 17         0.44993
      15 -> 16         0.44934
      15 -> 17         0.21819
 This state for optimization and/or second-order correction.
 Total Energy, E(TD-HF/TD-DFT) =  0.236535636693    
 Copying the excited state density for this state as the 1-particle RhoCI density.
 
 Excited state symmetry could not be determined.
 Excited State   4:      Singlet-?Sym    5.4856 eV  226.02 nm  f=0.3787  <S**2>=0.000
      14 -> 16         0.44967
      14 -> 17         0.21836
      15 -> 16         0.21806
      15 -> 17        -0.44960
 SavETr:  write IOETrn=   770 NScale= 10 NData=  16 NLR=1 NState=    4 LETran=      82.
          IDoAtm=111111111111
          Differentiating once with respect to electric field.
                with respect to dipole field.
          Differentiating once with respect to nuclear coordinates.
          Electric field/nuclear overlap derivatives assumed to be zero.
 Keep J ints in memory in canonical form, NReq=863127.
          There are     1 degrees of freedom in the 1st order CPHF.  IDoFFX=0 NUNeed=     1.
 LinEq1:  Iter=  0 NonCon=     1 RMS=1.59D-02 Max=1.58D-01 NDo=     1
 AX will form     1 AO Fock derivatives at one time.
 LinEq1:  Iter=  1 NonCon=     1 RMS=4.58D-04 Max=3.05D-03 NDo=     1
 LinEq1:  Iter=  2 NonCon=     1 RMS=5.13D-05 Max=2.90D-04 NDo=     1
 LinEq1:  Iter=  3 NonCon=     1 RMS=4.87D-06 Max=2.96D-05 NDo=     1
 LinEq1:  Iter=  4 NonCon=     1 RMS=4.25D-07 Max=2.52D-06 NDo=     1
 LinEq1:  Iter=  5 NonCon=     1 RMS=4.34D-08 Max=2.23D-07 NDo=     1
 LinEq1:  Iter=  6 NonCon=     1 RMS=8.18D-09 Max=7.71D-08 NDo=     1
 LinEq1:  Iter=  7 NonCon=     1 RMS=1.37D-09 Max=8.61D-09 NDo=     1
 LinEq1:  Iter=  8 NonCon=     1 RMS=2.14D-10 Max=1.13D-09 NDo=     1
 LinEq1:  Iter=  9 NonCon=     0 RMS=3.45D-11 Max=2.39D-10 NDo=     1
 Linear equations converged to 1.000D-10 1.000D-09 after     9 iterations.
 End of Minotr F.D. properties file   721 does not exist.
 End of Minotr F.D. properties file   722 does not exist.
 End of Minotr F.D. properties file   788 does not exist.

 **********************************************************************

            Population analysis using the SCF Density.

 **********************************************************************

 Alpha  occ. eigenvalues --   -1.43865  -1.15288  -1.15282  -0.84749  -0.84743
 Alpha  occ. eigenvalues --   -0.65620  -0.59250  -0.56597  -0.52042  -0.52040
 Alpha  occ. eigenvalues --   -0.49177  -0.43692  -0.43686  -0.35477  -0.35473
 Alpha virt. eigenvalues --    0.02037   0.02041   0.10944   0.14831   0.14834
 Alpha virt. eigenvalues --    0.14876   0.15409   0.16900   0.16901   0.18827
 Alpha virt. eigenvalues --    0.18828   0.20624   0.20625   0.21054   0.22541
     Molecular Orbital Coefficients:
                           1         2         3         4         5
                           O         O         O         O         O
     Eigenvalues --    -1.43865  -1.15288  -1.15282  -0.84749  -0.84743
   1 1   C  1S          0.37827   0.12066  -0.48943   0.37154  -0.12221
   2        1PX         0.05965   0.18001   0.03246   0.03602   0.29733
   3        1PY         0.10338  -0.09744  -0.04505  -0.14994  -0.12916
   4        1PZ        -0.00005   0.00008   0.00004   0.00007   0.00008
   5 2   C  1S          0.37826   0.48433  -0.13983  -0.07966   0.38289
   6        1PX        -0.05965   0.03956   0.17861  -0.29950  -0.00240
   7        1PY         0.10337   0.04889   0.09561  -0.14518  -0.13453
   8        1PZ        -0.00001   0.00007  -0.00003  -0.00003   0.00012
   9 3   C  1S          0.37814   0.36356   0.34929  -0.29163  -0.26074
  10        1PX        -0.11934  -0.01699  -0.01629  -0.08778  -0.07850
  11        1PY        -0.00009  -0.14618   0.15182   0.22583  -0.25294
  12        1PZ        -0.00008   0.00004  -0.00012  -0.00014   0.00010
  13 4   C  1S          0.37809  -0.12100   0.48945   0.37154  -0.12252
  14        1PX        -0.05972   0.18003   0.03218  -0.03585  -0.29739
  15        1PY        -0.10331  -0.09741  -0.04496   0.14981   0.12911
  16        1PZ         0.00006   0.00012   0.00007  -0.00009  -0.00023
  17 5   C  1S          0.37819  -0.48422   0.14033  -0.07991   0.38289
  18        1PX         0.05967   0.03934   0.17867   0.29956   0.00216
  19        1PY        -0.10335   0.04880   0.09559   0.14516   0.13435
  20        1PZ         0.00011  -0.00006  -0.00001  -0.00005  -0.00011
  21 6   C  1S          0.37825  -0.36338  -0.34939  -0.29180  -0.26043
  22        1PX         0.11935  -0.01695  -0.01626   0.08785   0.07845
  23        1PY        -0.00005  -0.14598   0.15207  -0.22596   0.25287
  24        1PZ        -0.00002   0.00013  -0.00007   0.00018  -0.00017
  25 7   H  1S          0.09693   0.04428  -0.17957   0.21552  -0.07088
  26 8   H  1S          0.09692   0.17767  -0.05133  -0.04616   0.22213
  27 9   H  1S          0.09688   0.13334   0.12814  -0.16913  -0.15126
  28 10  H  1S          0.09686  -0.04435   0.17955   0.21546  -0.07114
  29 11  H  1S          0.09688  -0.17761   0.05145  -0.04640   0.22207
  30 12  H  1S          0.09692  -0.13332  -0.12818  -0.16929  -0.15107
                           6         7         8         9        10
                           O         O         O         O         O
     Eigenvalues --    -0.65620  -0.59250  -0.56597  -0.52042  -0.52040
   1 1   C  1S         -0.04388   0.23288   0.00009   0.00700   0.05130
   2        1PX         0.16528  -0.10236   0.35357   0.12927   0.21251
   3        1PY         0.28622  -0.17712  -0.20406  -0.00460   0.39943
   4        1PZ        -0.00018   0.00005   0.00004  -0.00031  -0.00017
   5 2   C  1S         -0.04390  -0.23288  -0.00005   0.04779   0.01965
   6        1PX        -0.16527  -0.10204  -0.35364  -0.17305  -0.17874
   7        1PY         0.28621   0.17706  -0.20401   0.38763   0.09668
   8        1PZ        -0.00027  -0.00015  -0.00004  -0.00063  -0.00003
   9 3   C  1S         -0.04389   0.23288   0.00013   0.04096  -0.03162
  10        1PX        -0.33041   0.20456   0.00021  -0.36126   0.27875
  11        1PY         0.00010   0.00000   0.40823  -0.07051  -0.09133
  12        1PZ        -0.00021   0.00014  -0.00017  -0.00055   0.00033
  13 4   C  1S         -0.04394  -0.23287  -0.00004  -0.00693  -0.05130
  14        1PX        -0.16514  -0.10248   0.35361   0.12954   0.21276
  15        1PY        -0.28618  -0.17703  -0.20406  -0.00420   0.39930
  16        1PZ         0.00007   0.00001   0.00036  -0.00029  -0.00003
  17 5   C  1S         -0.04391   0.23289   0.00005  -0.04779  -0.01958
  18        1PX         0.16516  -0.10212  -0.35361  -0.17326  -0.17910
  19        1PY        -0.28620   0.17704  -0.20409   0.38733   0.09706
  20        1PZ         0.00024  -0.00027   0.00013  -0.00068  -0.00005
  21 6   C  1S         -0.04388  -0.23287  -0.00003  -0.04103   0.03157
  22        1PX         0.33049   0.20453   0.00016  -0.36096   0.27904
  23        1PY         0.00001  -0.00013   0.40822  -0.07029  -0.09149
  24        1PZ         0.00002  -0.00007  -0.00032  -0.00026   0.00011
  25 7   H  1S         -0.23569   0.26580   0.00003  -0.04385  -0.32740
  26 8   H  1S         -0.23569  -0.26565  -0.00002  -0.30577  -0.12532
  27 9   H  1S         -0.23562   0.26579   0.00027  -0.26157   0.20183
  28 10  H  1S         -0.23564  -0.26578   0.00016   0.04427   0.32740
  29 11  H  1S         -0.23564   0.26565   0.00015   0.30564   0.12576
  30 12  H  1S         -0.23568  -0.26577  -0.00008   0.26130  -0.20210
                          11        12        13        14        15
                           O         O         O         O         O
     Eigenvalues --    -0.49177  -0.43692  -0.43686  -0.35477  -0.35473
   1 1   C  1S          0.00003   0.01445  -0.00765  -0.00001   0.00005
   2        1PX         0.00013  -0.28490  -0.19202   0.00006   0.00011
   3        1PY         0.00011  -0.17026   0.28545   0.00004   0.00024
   4        1PZ         0.40831   0.00014   0.00002   0.19496   0.54339
   5 2   C  1S         -0.00012  -0.00077   0.01631  -0.00019  -0.00005
   6        1PX        -0.00030   0.29503   0.17604  -0.00022  -0.00009
   7        1PY         0.00056   0.18581  -0.27557   0.00038   0.00008
   8        1PZ         0.40831  -0.00002   0.00037   0.56821   0.10213
   9 3   C  1S          0.00011  -0.01385  -0.00866   0.00004  -0.00007
  10        1PX        -0.00059  -0.27589  -0.17542  -0.00030   0.00036
  11        1PY         0.00013  -0.18682   0.29449   0.00008  -0.00022
  12        1PZ         0.40819  -0.00017  -0.00022   0.37315  -0.44061
  13 4   C  1S         -0.00008   0.01450  -0.00749   0.00005   0.00006
  14        1PX        -0.00020   0.28466   0.19184   0.00011   0.00029
  15        1PY         0.00017   0.17008  -0.28594  -0.00003  -0.00030
  16        1PZ         0.40814   0.00009   0.00021  -0.19563  -0.54327
  17 5   C  1S         -0.00004  -0.00059   0.01633   0.00001   0.00001
  18        1PX        -0.00016  -0.29472  -0.17596   0.00011   0.00002
  19        1PY         0.00064  -0.18635   0.27558  -0.00059  -0.00013
  20        1PZ         0.40825   0.00019  -0.00038  -0.56810  -0.10294
  21 6   C  1S         -0.00003  -0.01376  -0.00881  -0.00004   0.00006
  22        1PX        -0.00036   0.27621   0.17497  -0.00003  -0.00000
  23        1PY         0.00028   0.18693  -0.29438  -0.00017   0.00039
  24        1PZ         0.40830  -0.00008   0.00023  -0.37265   0.44094
  25 7   H  1S          0.00003   0.28665  -0.14963   0.00001   0.00000
  26 8   H  1S         -0.00024  -0.01342   0.32309   0.00003  -0.00006
  27 9   H  1S         -0.00023  -0.27290  -0.17340  -0.00006   0.00007
  28 10  H  1S         -0.00005   0.28648  -0.14990   0.00011  -0.00002
  29 11  H  1S          0.00021  -0.01372   0.32308  -0.00009  -0.00003
  30 12  H  1S          0.00023  -0.27310  -0.17315   0.00007  -0.00001
                          16        17        18        19        20
                           V         V         V         V         V
     Eigenvalues --     0.02037   0.02041   0.10944   0.14831   0.14834
   1 1   C  1S          0.00006   0.00010  -0.00005   0.01436   0.03054
   2        1PX         0.00004   0.00007  -0.00017   0.12740  -0.26431
   3        1PY         0.00028  -0.00006   0.00024  -0.26117  -0.19612
   4        1PZ         0.53673  -0.21264   0.40830   0.00009   0.00009
   5 2   C  1S          0.00005  -0.00025   0.00030   0.04219   0.00431
   6        1PX         0.00010  -0.00021   0.00017   0.17876  -0.23261
   7        1PY        -0.00002   0.00039  -0.00035  -0.29312  -0.14483
   8        1PZ        -0.08350   0.57124  -0.40829   0.00031   0.00005
   9 3   C  1S         -0.00008   0.00001  -0.00005   0.01486  -0.03563
  10        1PX         0.00032   0.00021  -0.00025   0.17995  -0.29250
  11        1PY        -0.00015  -0.00025   0.00027  -0.23380  -0.14316
  12        1PZ        -0.45257  -0.35855   0.40820   0.00025  -0.00018
  13 4   C  1S         -0.00006   0.00007   0.00017  -0.01317  -0.03132
  14        1PX        -0.00027   0.00010   0.00017   0.12724  -0.26334
  15        1PY         0.00028  -0.00012  -0.00015  -0.26239  -0.19651
  16        1PZ         0.53657  -0.21331  -0.40816   0.00014  -0.00002
  17 5   C  1S          0.00007  -0.00003  -0.00006  -0.04262  -0.00298
  18        1PX         0.00004  -0.00015  -0.00022   0.17802  -0.23211
  19        1PY        -0.00012   0.00053   0.00039  -0.29397  -0.14590
  20        1PZ        -0.08427   0.57116   0.40825   0.00038   0.00009
  21 6   C  1S         -0.00010  -0.00005   0.00002  -0.01630   0.03455
  22        1PX        -0.00001   0.00000   0.00000   0.17945  -0.29270
  23        1PY        -0.00037  -0.00018  -0.00025  -0.23309  -0.14406
  24        1PZ        -0.45290  -0.35802  -0.40829   0.00014   0.00010
  25 7   H  1S         -0.00005  -0.00006  -0.00001  -0.17316  -0.32513
  26 8   H  1S         -0.00007   0.00019  -0.00030  -0.37607  -0.01283
  27 9   H  1S          0.00003  -0.00003   0.00007  -0.19084   0.32012
  28 10  H  1S          0.00004  -0.00010  -0.00020   0.17316   0.32566
  29 11  H  1S         -0.00004  -0.00002  -0.00005   0.37675   0.01273
  30 12  H  1S          0.00009   0.00002  -0.00009   0.19165  -0.31940
                          21        22        23        24        25
                           V         V         V         V         V
     Eigenvalues --     0.14876   0.15409   0.16900   0.16901   0.18827
   1 1   C  1S         -0.30131  -0.14715   0.41118  -0.00891  -0.09750
   2        1PX         0.00798   0.10376   0.00845   0.23210  -0.16398
   3        1PY         0.01890   0.18035   0.00342  -0.13499  -0.39986
   4        1PZ        -0.00011   0.00002  -0.00001   0.00022   0.00021
   5 2   C  1S          0.30003  -0.14743  -0.21378  -0.35127   0.01543
   6        1PX         0.00687  -0.10397   0.20029  -0.11788  -0.16681
   7        1PY        -0.00747   0.18058   0.11214  -0.07498  -0.02063
   8        1PZ         0.00035  -0.00033  -0.00018  -0.00030  -0.00002
   9 3   C  1S         -0.30123  -0.14715  -0.19760   0.36035   0.08275
  10        1PX        -0.01542  -0.20776   0.00291  -0.00656  -0.36184
  11        1PY         0.00419   0.00037  -0.23566  -0.12910   0.09733
  12        1PZ        -0.00013  -0.00002   0.00020   0.00004  -0.00032
  13 4   C  1S          0.30171  -0.14771   0.41078  -0.00925  -0.09776
  14        1PX         0.00811  -0.10376  -0.00872  -0.23304   0.16342
  15        1PY         0.01835  -0.17970  -0.00320   0.13415   0.39989
  16        1PZ         0.00019  -0.00008   0.00011  -0.00018  -0.00014
  17 5   C  1S         -0.30065  -0.14681  -0.21288  -0.35160   0.01481
  18        1PX         0.00705   0.10416  -0.20112   0.11774   0.16724
  19        1PY        -0.00782  -0.17983  -0.11127   0.07426   0.01978
  20        1PZ        -0.00011   0.00030  -0.00005  -0.00004  -0.00000
  21 6   C  1S          0.30061  -0.14771  -0.19786   0.36041   0.08234
  22        1PX        -0.01506   0.20784  -0.00389   0.00586   0.36231
  23        1PY         0.00496   0.00014   0.23572   0.12898  -0.09687
  24        1PZ         0.00000  -0.00008  -0.00007  -0.00023   0.00008
  25 7   H  1S          0.28086   0.31901  -0.30341   0.00594  -0.27140
  26 8   H  1S         -0.26942   0.31952   0.15843   0.25924   0.04115
  27 9   H  1S          0.27589   0.31868   0.14631  -0.26562   0.22902
  28 10  H  1S         -0.28077   0.31891  -0.30314   0.00736  -0.27098
  29 11  H  1S          0.27029   0.31843   0.15657   0.26002   0.04238
  30 12  H  1S         -0.27504   0.31926   0.14558  -0.26634   0.22970
                          26        27        28        29        30
                           V         V         V         V         V
     Eigenvalues --     0.18828   0.20624   0.20625   0.21054   0.22541
   1 1   C  1S          0.03924  -0.08871   0.25932  -0.00008  -0.14779
   2        1PX         0.21157   0.37946   0.08588  -0.35445  -0.17619
   3        1PY         0.07484  -0.18942  -0.13895   0.20386  -0.30598
   4        1PZ        -0.00009   0.00016   0.00005  -0.00005   0.00018
   5 2   C  1S         -0.10437  -0.26871   0.05357   0.00041   0.14795
   6        1PX         0.20889   0.03425   0.38809  -0.35411  -0.17601
   7        1PY        -0.40618   0.11271   0.20624  -0.20398   0.30600
   8        1PZ         0.00033  -0.00027   0.00004  -0.00003  -0.00019
   9 3   C  1S          0.06489  -0.18009  -0.20639   0.00054  -0.14776
  10        1PX        -0.28574  -0.05400  -0.06104   0.00042   0.35300
  11        1PY        -0.12293  -0.33729   0.29503  -0.40773   0.00066
  12        1PZ        -0.00018   0.00025  -0.00009   0.00017   0.00025
  13 4   C  1S          0.03868   0.08785  -0.25936  -0.00017   0.14772
  14        1PX        -0.21159   0.38091   0.08674   0.35265  -0.17707
  15        1PY        -0.07582  -0.18906  -0.13901  -0.20400  -0.30535
  16        1PZ        -0.00001   0.00028   0.00005   0.00035   0.00011
  17 5   C  1S         -0.10436   0.26873  -0.05294  -0.00050  -0.14794
  18        1PX        -0.20833   0.03623   0.38862   0.35324  -0.17691
  19        1PY         0.40638   0.11336   0.20545   0.20440   0.30542
  20        1PZ        -0.00043  -0.00003  -0.00007  -0.00012  -0.00031
  21 6   C  1S          0.06554   0.18089   0.20589  -0.00015   0.14781
  22        1PX         0.28508  -0.05335  -0.06183   0.00076   0.35306
  23        1PY         0.12312  -0.33637   0.29494   0.40867  -0.00041
  24        1PZ        -0.00005   0.00016  -0.00027  -0.00031  -0.00001
  25 7   H  1S          0.10783   0.07266  -0.21412  -0.00040  -0.14218
  26 8   H  1S         -0.28873   0.22208  -0.04373  -0.00006   0.14204
  27 9   H  1S          0.18117   0.14891   0.16997  -0.00058  -0.14213
  28 10  H  1S          0.10891  -0.07300   0.21382   0.00025   0.14213
  29 11  H  1S         -0.28861  -0.22172   0.04419   0.00009  -0.14199
  30 12  H  1S          0.18020  -0.14886  -0.17030   0.00057   0.14215
     Density Matrix:
                           1         2         3         4         5
   1 1   C  1S          1.21855
   2        1PX        -0.03291   0.93888
   3        1PY        -0.05707   0.02926   0.97269
   4        1PZ         0.00007   0.00005  -0.00001   1.00000
   5 2   C  1S          0.28496   0.48038   0.00362  -0.00019   1.21852
   6        1PX        -0.48040  -0.64452  -0.00100  -0.00017   0.03291
   7        1PY         0.00366   0.00105   0.11897   0.00033  -0.05707
   8        1PZ        -0.00005  -0.00010   0.00027   0.66598  -0.00011
   9 3   C  1S         -0.01170  -0.03110  -0.00287   0.00002   0.28514
  10        1PX         0.01804   0.02429  -0.01518  -0.00003  -0.24345
  11        1PY         0.02549   0.04809   0.00529  -0.00006  -0.41429
  12        1PZ         0.00003   0.00006   0.00002  -0.00001  -0.00017
  13 4   C  1S         -0.02567  -0.00863  -0.01489   0.00004  -0.01170
  14        1PX         0.00858  -0.01515   0.01606   0.00019  -0.01307
  15        1PY         0.01493   0.01613   0.00344  -0.00020   0.02837
  16        1PZ        -0.00003  -0.00008  -0.00015  -0.33340  -0.00003
  17 5   C  1S         -0.01170   0.01305  -0.02836  -0.00000  -0.02566
  18        1PX         0.01306  -0.00421   0.03163  -0.00003  -0.00857
  19        1PY         0.02837  -0.03164   0.03378   0.00001   0.01491
  20        1PZ        -0.00005  -0.00001  -0.00006  -0.00001   0.00011
  21 6   C  1S          0.28508  -0.23709   0.41792  -0.00017  -0.01170
  22        1PX         0.24335  -0.07176   0.33157  -0.00019  -0.01803
  23        1PY        -0.41429   0.32959  -0.45353   0.00073   0.02548
  24        1PZ         0.00030  -0.00016   0.00066   0.66732  -0.00001
  25 7   H  1S          0.55811  -0.39944  -0.69199   0.00035  -0.04767
  26 8   H  1S         -0.04765  -0.07133  -0.00258   0.00010   0.55806
  27 9   H  1S          0.04761   0.07389   0.00073  -0.00003  -0.04768
  28 10  H  1S          0.00599   0.00202   0.00346  -0.00001   0.04755
  29 11  H  1S          0.04757  -0.03629   0.06428  -0.00001   0.00598
  30 12  H  1S         -0.04767   0.03344  -0.06308   0.00001   0.04760
                           6         7         8         9        10
   6        1PX         0.93888
   7        1PY        -0.02926   0.97270
   8        1PZ        -0.00001  -0.00001   1.00001
   9 3   C  1S          0.23716   0.41790   0.00001   1.21860
  10        1PX        -0.07182  -0.33163  -0.00032   0.06589   0.98956
  11        1PY        -0.32963  -0.45336   0.00033   0.00007   0.00001
  12        1PZ        -0.00023   0.00035   0.66739   0.00013  -0.00005
  13 4   C  1S         -0.01306  -0.02836  -0.00000   0.28487  -0.24327
  14        1PX        -0.00422  -0.03164   0.00001   0.23701  -0.07193
  15        1PY         0.03165   0.03379   0.00003  -0.41782   0.33158
  16        1PZ        -0.00003  -0.00007   0.00001   0.00048  -0.00070
  17 5   C  1S          0.00863  -0.01488   0.00002  -0.01171   0.01804
  18        1PX        -0.01514  -0.01605   0.00005  -0.03110   0.02429
  19        1PY        -0.01612   0.00343  -0.00031   0.00288   0.01518
  20        1PZ         0.00014  -0.00020  -0.33325  -0.00002   0.00000
  21 6   C  1S          0.03110  -0.00288  -0.00000  -0.02567   0.01721
  22        1PX         0.02428   0.01518  -0.00001  -0.01721   0.01273
  23        1PY        -0.04809   0.00529  -0.00001  -0.00003   0.00002
  24        1PZ         0.00004   0.00001  -0.00001  -0.00005   0.00023
  25 7   H  1S          0.07135  -0.00258   0.00002   0.04757  -0.03752
  26 8   H  1S          0.39933  -0.69209   0.00075  -0.04767   0.03792
  27 9   H  1S         -0.03345  -0.06308  -0.00000   0.55812   0.79899
  28 10  H  1S          0.03628   0.06424   0.00003  -0.04766   0.03792
  29 11  H  1S         -0.00202   0.00345  -0.00001   0.04761  -0.03758
  30 12  H  1S         -0.07388   0.00073   0.00000   0.00599  -0.00400
                          11        12        13        14        15
  11        1PY         0.92198
  12        1PZ         0.00001   0.99999
  13 4   C  1S          0.41419  -0.00046   1.21862
  14        1PX         0.32957  -0.00063   0.03298   0.93887
  15        1PY        -0.45378   0.00086   0.05704   0.02927   0.97265
  16        1PZ         0.00081   0.66593  -0.00008  -0.00006   0.00004
  17 5   C  1S         -0.02551   0.00004   0.28513  -0.48047  -0.00362
  18        1PX        -0.04811   0.00007   0.48050  -0.64432  -0.00101
  19        1PY         0.00528  -0.00001  -0.00359   0.00094   0.11912
  20        1PZ         0.00002   0.00001   0.00008  -0.00048   0.00034
  21 6   C  1S         -0.00004  -0.00006  -0.01170   0.03109   0.00287
  22        1PX        -0.00003  -0.00001  -0.01804   0.02429  -0.01519
  23        1PY        -0.02444  -0.00024  -0.02550   0.04809   0.00528
  24        1PZ        -0.00012  -0.33335   0.00003  -0.00005  -0.00003
  25 7   H  1S         -0.06355  -0.00004   0.00599  -0.00199  -0.00348
  26 8   H  1S          0.06048   0.00009   0.04761   0.03632  -0.06438
  27 9   H  1S          0.00007   0.00044  -0.04767  -0.03346   0.06311
  28 10  H  1S         -0.06052   0.00009   0.55812   0.39967   0.69184
  29 11  H  1S          0.06364  -0.00007  -0.04768   0.07136   0.00259
  30 12  H  1S          0.00002   0.00005   0.04757  -0.07381  -0.00071
                          16        17        18        19        20
  16        1PZ         0.99998
  17 5   C  1S         -0.00022   1.21856
  18        1PX        -0.00046  -0.03298   0.93887
  19        1PY         0.00049   0.05705  -0.02927   0.97268
  20        1PZ         0.66737  -0.00007   0.00004   0.00004   1.00000
  21 6   C  1S          0.00001   0.28496  -0.23705  -0.41785   0.00039
  22        1PX         0.00005   0.24336  -0.07190  -0.33163   0.00023
  23        1PY         0.00002   0.41422  -0.32957  -0.45363   0.00082
  24        1PZ         0.00000  -0.00034   0.00016   0.00093   0.66601
  25 7   H  1S          0.00001   0.04760  -0.03630  -0.06434   0.00008
  26 8   H  1S          0.00008   0.00598   0.00198  -0.00347  -0.00006
  27 9   H  1S         -0.00009   0.04755   0.07378  -0.00070   0.00003
  28 10  H  1S         -0.00014  -0.04769  -0.07139   0.00257   0.00002
  29 11  H  1S          0.00004   0.55806  -0.39964   0.69191  -0.00066
  30 12  H  1S         -0.00006  -0.04766   0.03343   0.06308  -0.00007
                          21        22        23        24        25
  21 6   C  1S          1.21854
  22        1PX        -0.06588   0.98958
  23        1PY         0.00002  -0.00001   0.92199
  24        1PZ         0.00005   0.00000   0.00007   1.00001
  25 7   H  1S         -0.04767  -0.03791   0.06049  -0.00007   0.86989
  26 8   H  1S          0.04757   0.03752  -0.06357   0.00000  -0.02406
  27 9   H  1S          0.00599   0.00400   0.00002   0.00003  -0.02832
  28 10  H  1S          0.04760   0.03758   0.06362  -0.00011   0.01395
  29 11  H  1S         -0.04766  -0.03791  -0.06050   0.00004  -0.02831
  30 12  H  1S          0.55810  -0.79901   0.00012  -0.00009  -0.02406
                          26        27        28        29        30
  26 8   H  1S          0.86991
  27 9   H  1S         -0.02408   0.86987
  28 10  H  1S         -0.02831  -0.02402   0.86987
  29 11  H  1S          0.01396  -0.02832  -0.02407   0.86989
  30 12  H  1S         -0.02831   0.01395  -0.02832  -0.02406   0.86989
    Full Mulliken population analysis:
                           1         2         3         4         5
   1 1   C  1S          1.21855
   2        1PX         0.00000   0.93888
   3        1PY         0.00000   0.00000   0.97269
   4        1PZ         0.00000   0.00000   0.00000   1.00000
   5 2   C  1S          0.00000   0.00000   0.00000   0.00000   1.21852
   6        1PX         0.00000   0.00000   0.00000   0.00000   0.00000
   7        1PY         0.00000   0.00000   0.00000   0.00000   0.00000
   8        1PZ         0.00000   0.00000   0.00000   0.00000   0.00000
   9 3   C  1S          0.00000   0.00000   0.00000   0.00000   0.00000
  10        1PX         0.00000   0.00000   0.00000   0.00000   0.00000
  11        1PY         0.00000   0.00000   0.00000   0.00000   0.00000
  12        1PZ         0.00000   0.00000   0.00000   0.00000   0.00000
  13 4   C  1S          0.00000   0.00000   0.00000   0.00000   0.00000
  14        1PX         0.00000   0.00000   0.00000   0.00000   0.00000
  15        1PY         0.00000   0.00000   0.00000   0.00000   0.00000
  16        1PZ         0.00000   0.00000   0.00000   0.00000   0.00000
  17 5   C  1S          0.00000   0.00000   0.00000   0.00000   0.00000
  18        1PX         0.00000   0.00000   0.00000   0.00000   0.00000
  19        1PY         0.00000   0.00000   0.00000   0.00000   0.00000
  20        1PZ         0.00000   0.00000   0.00000   0.00000   0.00000
  21 6   C  1S          0.00000   0.00000   0.00000   0.00000   0.00000
  22        1PX         0.00000   0.00000   0.00000   0.00000   0.00000
  23        1PY         0.00000   0.00000   0.00000   0.00000   0.00000
  24        1PZ         0.00000   0.00000   0.00000   0.00000   0.00000
  25 7   H  1S          0.00000   0.00000   0.00000   0.00000   0.00000
  26 8   H  1S          0.00000   0.00000   0.00000   0.00000   0.00000
  27 9   H  1S          0.00000   0.00000   0.00000   0.00000   0.00000
  28 10  H  1S          0.00000   0.00000   0.00000   0.00000   0.00000
  29 11  H  1S          0.00000   0.00000   0.00000   0.00000   0.00000
  30 12  H  1S          0.00000   0.00000   0.00000   0.00000   0.00000
                           6         7         8         9        10
   6        1PX         0.93888
   7        1PY         0.00000   0.97270
   8        1PZ         0.00000   0.00000   1.00001
   9 3   C  1S          0.00000   0.00000   0.00000   1.21860
  10        1PX         0.00000   0.00000   0.00000   0.00000   0.98956
  11        1PY         0.00000   0.00000   0.00000   0.00000   0.00000
  12        1PZ         0.00000   0.00000   0.00000   0.00000   0.00000
  13 4   C  1S          0.00000   0.00000   0.00000   0.00000   0.00000
  14        1PX         0.00000   0.00000   0.00000   0.00000   0.00000
  15        1PY         0.00000   0.00000   0.00000   0.00000   0.00000
  16        1PZ         0.00000   0.00000   0.00000   0.00000   0.00000
  17 5   C  1S          0.00000   0.00000   0.00000   0.00000   0.00000
  18        1PX         0.00000   0.00000   0.00000   0.00000   0.00000
  19        1PY         0.00000   0.00000   0.00000   0.00000   0.00000
  20        1PZ         0.00000   0.00000   0.00000   0.00000   0.00000
  21 6   C  1S          0.00000   0.00000   0.00000   0.00000   0.00000
  22        1PX         0.00000   0.00000   0.00000   0.00000   0.00000
  23        1PY         0.00000   0.00000   0.00000   0.00000   0.00000
  24        1PZ         0.00000   0.00000   0.00000   0.00000   0.00000
  25 7   H  1S          0.00000   0.00000   0.00000   0.00000   0.00000
  26 8   H  1S          0.00000   0.00000   0.00000   0.00000   0.00000
  27 9   H  1S          0.00000   0.00000   0.00000   0.00000   0.00000
  28 10  H  1S          0.00000   0.00000   0.00000   0.00000   0.00000
  29 11  H  1S          0.00000   0.00000   0.00000   0.00000   0.00000
  30 12  H  1S          0.00000   0.00000   0.00000   0.00000   0.00000
                          11        12        13        14        15
  11        1PY         0.92198
  12        1PZ         0.00000   0.99999
  13 4   C  1S          0.00000   0.00000   1.21862
  14        1PX         0.00000   0.00000   0.00000   0.93887
  15        1PY         0.00000   0.00000   0.00000   0.00000   0.97265
  16        1PZ         0.00000   0.00000   0.00000   0.00000   0.00000
  17 5   C  1S          0.00000   0.00000   0.00000   0.00000   0.00000
  18        1PX         0.00000   0.00000   0.00000   0.00000   0.00000
  19        1PY         0.00000   0.00000   0.00000   0.00000   0.00000
  20        1PZ         0.00000   0.00000   0.00000   0.00000   0.00000
  21 6   C  1S          0.00000   0.00000   0.00000   0.00000   0.00000
  22        1PX         0.00000   0.00000   0.00000   0.00000   0.00000
  23        1PY         0.00000   0.00000   0.00000   0.00000   0.00000
  24        1PZ         0.00000   0.00000   0.00000   0.00000   0.00000
  25 7   H  1S          0.00000   0.00000   0.00000   0.00000   0.00000
  26 8   H  1S          0.00000   0.00000   0.00000   0.00000   0.00000
  27 9   H  1S          0.00000   0.00000   0.00000   0.00000   0.00000
  28 10  H  1S          0.00000   0.00000   0.00000   0.00000   0.00000
  29 11  H  1S          0.00000   0.00000   0.00000   0.00000   0.00000
  30 12  H  1S          0.00000   0.00000   0.00000   0.00000   0.00000
                          16        17        18        19        20
  16        1PZ         0.99998
  17 5   C  1S          0.00000   1.21856
  18        1PX         0.00000   0.00000   0.93887
  19        1PY         0.00000   0.00000   0.00000   0.97268
  20        1PZ         0.00000   0.00000   0.00000   0.00000   1.00000
  21 6   C  1S          0.00000   0.00000   0.00000   0.00000   0.00000
  22        1PX         0.00000   0.00000   0.00000   0.00000   0.00000
  23        1PY         0.00000   0.00000   0.00000   0.00000   0.00000
  24        1PZ         0.00000   0.00000   0.00000   0.00000   0.00000
  25 7   H  1S          0.00000   0.00000   0.00000   0.00000   0.00000
  26 8   H  1S          0.00000   0.00000   0.00000   0.00000   0.00000
  27 9   H  1S          0.00000   0.00000   0.00000   0.00000   0.00000
  28 10  H  1S          0.00000   0.00000   0.00000   0.00000   0.00000
  29 11  H  1S          0.00000   0.00000   0.00000   0.00000   0.00000
  30 12  H  1S          0.00000   0.00000   0.00000   0.00000   0.00000
                          21        22        23        24        25
  21 6   C  1S          1.21854
  22        1PX         0.00000   0.98958
  23        1PY         0.00000   0.00000   0.92199
  24        1PZ         0.00000   0.00000   0.00000   1.00001
  25 7   H  1S          0.00000   0.00000   0.00000   0.00000   0.86989
  26 8   H  1S          0.00000   0.00000   0.00000   0.00000   0.00000
  27 9   H  1S          0.00000   0.00000   0.00000   0.00000   0.00000
  28 10  H  1S          0.00000   0.00000   0.00000   0.00000   0.00000
  29 11  H  1S          0.00000   0.00000   0.00000   0.00000   0.00000
  30 12  H  1S          0.00000   0.00000   0.00000   0.00000   0.00000
                          26        27        28        29        30
  26 8   H  1S          0.86991
  27 9   H  1S          0.00000   0.86987
  28 10  H  1S          0.00000   0.00000   0.86987
  29 11  H  1S          0.00000   0.00000   0.00000   0.86989
  30 12  H  1S          0.00000   0.00000   0.00000   0.00000   0.86989
     Gross orbital populations:
                           1
   1 1   C  1S          1.21855
   2        1PX         0.93888
   3        1PY         0.97269
   4        1PZ         1.00000
   5 2   C  1S          1.21852
   6        1PX         0.93888
   7        1PY         0.97270
   8        1PZ         1.00001
   9 3   C  1S          1.21860
  10        1PX         0.98956
  11        1PY         0.92198
  12        1PZ         0.99999
  13 4   C  1S          1.21862
  14        1PX         0.93887
  15        1PY         0.97265
  16        1PZ         0.99998
  17 5   C  1S          1.21856
  18        1PX         0.93887
  19        1PY         0.97268
  20        1PZ         1.00000
  21 6   C  1S          1.21854
  22        1PX         0.98958
  23        1PY         0.92199
  24        1PZ         1.00001
  25 7   H  1S          0.86989
  26 8   H  1S          0.86991
  27 9   H  1S          0.86987
  28 10  H  1S          0.86987
  29 11  H  1S          0.86989
  30 12  H  1S          0.86989
          Condensed to atoms (all electrons):
               1          2          3          4          5          6
     1  C    4.130115   0.000000   0.000000   0.000000   0.000000   0.000000
     2  C    0.000000   4.130114   0.000000   0.000000   0.000000   0.000000
     3  C    0.000000   0.000000   4.130123   0.000000   0.000000   0.000000
     4  C    0.000000   0.000000   0.000000   4.130114   0.000000   0.000000
     5  C    0.000000   0.000000   0.000000   0.000000   4.130113   0.000000
     6  C    0.000000   0.000000   0.000000   0.000000   0.000000   4.130118
     7  H    0.000000   0.000000   0.000000   0.000000   0.000000   0.000000
     8  H    0.000000   0.000000   0.000000   0.000000   0.000000   0.000000
     9  H    0.000000   0.000000   0.000000   0.000000   0.000000   0.000000
    10  H    0.000000   0.000000   0.000000   0.000000   0.000000   0.000000
    11  H    0.000000   0.000000   0.000000   0.000000   0.000000   0.000000
    12  H    0.000000   0.000000   0.000000   0.000000   0.000000   0.000000
               7          8          9         10         11         12
     1  C    0.000000   0.000000   0.000000   0.000000   0.000000   0.000000
     2  C    0.000000   0.000000   0.000000   0.000000   0.000000   0.000000
     3  C    0.000000   0.000000   0.000000   0.000000   0.000000   0.000000
     4  C    0.000000   0.000000   0.000000   0.000000   0.000000   0.000000
     5  C    0.000000   0.000000   0.000000   0.000000   0.000000   0.000000
     6  C    0.000000   0.000000   0.000000   0.000000   0.000000   0.000000
     7  H    0.869885   0.000000   0.000000   0.000000   0.000000   0.000000
     8  H    0.000000   0.869907   0.000000   0.000000   0.000000   0.000000
     9  H    0.000000   0.000000   0.869867   0.000000   0.000000   0.000000
    10  H    0.000000   0.000000   0.000000   0.869866   0.000000   0.000000
    11  H    0.000000   0.000000   0.000000   0.000000   0.869887   0.000000
    12  H    0.000000   0.000000   0.000000   0.000000   0.000000   0.869890
 Mulliken charges:
               1
     1  C   -0.130115
     2  C   -0.130114
     3  C   -0.130123
     4  C   -0.130114
     5  C   -0.130113
     6  C   -0.130118
     7  H    0.130115
     8  H    0.130093
     9  H    0.130133
    10  H    0.130134
    11  H    0.130113
    12  H    0.130110
 Sum of Mulliken charges =   0.00000
 Mulliken charges with hydrogens summed into heavy atoms:
               1
     1  C    0.000000
     2  C   -0.000022
     3  C    0.000010
     4  C    0.000019
     5  C    0.000000
     6  C   -0.000008
 Charge=              0.0000 electrons
 Dipole moment (field-independent basis, Debye):
    X=              0.0001    Y=              0.0002    Z=              0.0008  Tot=              0.0009
 N-N= 1.196010023102D+02 E-N=-1.705415444274D+02  KE=-4.785091947864D+01
 Orbital energies and kinetic energies (alpha):
                                 1                 2
   1         O                -1.438652         -2.451606
   2         O                -1.152884         -2.128927
   3         O                -1.152818         -2.128854
   4         O                -0.847490         -1.766623
   5         O                -0.847432         -1.766556
   6         O                -0.656201         -1.366099
   7         O                -0.592495         -1.255569
   8         O                -0.565972         -1.602961
   9         O                -0.520420         -1.239437
  10         O                -0.520402         -1.239430
  11         O                -0.491772         -1.603541
  12         O                -0.436917         -1.179684
  13         O                -0.436862         -1.179653
  14         O                -0.354775         -1.508274
  15         O                -0.354726         -1.508246
  16         V                 0.020374         -1.387135
  17         V                 0.020412         -1.387109
  18         V                 0.109444         -1.340474
  19         V                 0.148308         -0.864436
  20         V                 0.148340         -0.864316
  21         V                 0.148761         -0.914479
  22         V                 0.154091         -0.680133
  23         V                 0.169004         -1.076310
  24         V                 0.169013         -1.076048
  25         V                 0.188270         -1.011834
  26         V                 0.188279         -1.012203
  27         V                 0.206241         -1.127775
  28         V                 0.206254         -1.127862
  29         V                 0.210545         -1.248939
  30         V                 0.225406         -1.144799
 Total kinetic energy from orbitals=-4.785091947864D+01
 Calling FoFJK, ICntrl=  10005127 FMM=F ISym2X=0 I1Cent= 0 IOpClX= 0 NMat=1 NMatS=1 NMatT=0.
 -------------------------------------------------------------------
 Center     Atomic                   Forces (Hartrees/Bohr)
 Number     Number              X              Y              Z
 -------------------------------------------------------------------
      1        6          -0.007187910   -0.027386454   -0.000015673
      2        6           0.009739965   -0.012262829    0.000090749
      3        6           0.024151268   -0.009399421   -0.000051554
      4        6           0.007682635    0.027030855    0.000027587
      5        6          -0.010166337    0.012021047    0.000004488
      6        6          -0.024182096    0.010091062   -0.000016689
      7        1          -0.000101002    0.000021309   -0.000000817
      8        1           0.000181554   -0.000367372   -0.000024686
      9        1           0.000078308    0.000156989    0.000010331
     10        1           0.000064428   -0.000072164   -0.000014133
     11        1          -0.000118583    0.000312763   -0.000015312
     12        1          -0.000142230   -0.000145785    0.000005711
 -------------------------------------------------------------------
 Cartesian Forces:  Max     0.027386454 RMS     0.009779655

 GradGradGradGradGradGradGradGradGradGradGradGradGradGradGradGradGradGrad
 Berny optimization.
 Search for a local minimum.
 Step number   1 out of a maximum of    2
 All quantities printed in internal units (Hartrees-Bohrs-Radians)
 Second derivative matrix not updated -- first step.
 ITU=  0
     Eigenvalues ---    0.01582   0.01584   0.03239   0.04271   0.06692
     Eigenvalues ---    0.06692   0.06945   0.06946   0.07017   0.09484
     Eigenvalues ---    0.09485   0.11402   0.11404   0.16002   0.18066
     Eigenvalues ---    0.27816   0.29733   0.29743   0.41183   0.41187
     Eigenvalues ---    0.43603   0.66190   0.66197   0.97893   1.06355
     Eigenvalues ---    1.20758   1.20773   1.47173   1.57418   1.57468
 Angle between quadratic step and forces=  46.81 degrees.
 Linear search not attempted -- first point.
 B after Tr=    -0.000011   -0.000012    0.000050
         Rot=    1.000000   -0.000000    0.000001    0.000001 Ang=  -0.00 deg.
 Variable       Old X    -DE/DX   Delta X   Delta X   Delta X     New X
                                 (Linear)    (Quad)   (Total)
    X1       -3.01621  -0.00719   0.00000  -0.02485  -0.02486  -3.04107
    Y1       -0.43243  -0.02739   0.00000  -0.05015  -0.05015  -0.48258
    Z1        0.00000  -0.00002   0.00000  -0.00001   0.00004   0.00004
    X2       -0.37974   0.00974   0.00000   0.02005   0.02004  -0.35970
    Y2       -0.43243  -0.01226   0.00000  -0.03264  -0.03265  -0.46508
    Z2        0.00000   0.00009   0.00000   0.00044   0.00049   0.00049
    X3        0.93842   0.02415   0.00000   0.05107   0.05106   0.98948
    Y3        1.84989  -0.00940   0.00000  -0.00438  -0.00439   1.84550
    Z3        0.00000  -0.00005   0.00000  -0.00017  -0.00012  -0.00012
    X4       -0.37996   0.00768   0.00000   0.02507   0.02507  -0.35489
    Y4        4.13364   0.02703   0.00000   0.04980   0.04979   4.18342
    Z4       -0.00227   0.00003   0.00000   0.00018   0.00023  -0.00203
    X5       -3.01580  -0.01017   0.00000  -0.02021  -0.02021  -3.03601
    Y5        4.13349   0.01202   0.00000   0.03241   0.03240   4.16589
    Z5       -0.00317   0.00000   0.00000   0.00019   0.00023  -0.00294
    X6       -4.33407  -0.02418   0.00000  -0.05122  -0.05122  -4.38530
    Y6        1.85031   0.01009   0.00000   0.00487   0.00487   1.85518
    Z6       -0.00129  -0.00002   0.00000  -0.00007  -0.00003  -0.00132
    X7       -4.05510  -0.00010   0.00000  -0.02166  -0.02168  -4.07678
    Y7       -2.23205   0.00002   0.00000  -0.05210  -0.05210  -2.28415
    Z7        0.00085  -0.00000   0.00000  -0.00024  -0.00020   0.00065
    X8        0.65868   0.00018   0.00000   0.02198   0.02196   0.68064
    Y8       -2.23242  -0.00037   0.00000  -0.03293  -0.03294  -2.26536
    Z8        0.00248  -0.00002   0.00000   0.00002   0.00007   0.00255
    X9        3.01651   0.00008   0.00000   0.05130   0.05129   3.06780
    Y9        1.85004   0.00016   0.00000  -0.00908  -0.00910   1.84094
    Z9        0.00120   0.00001   0.00000  -0.00035  -0.00029   0.00091
   X10        0.65977   0.00006   0.00000   0.02173   0.02173   0.68150
   Y10        5.93293  -0.00007   0.00000   0.05163   0.05161   5.98454
   Z10       -0.00238  -0.00001   0.00000  -0.00020  -0.00015  -0.00252
   X11       -4.05538  -0.00012   0.00000  -0.02154  -0.02154  -4.07692
   Y11        5.93304   0.00031   0.00000   0.03277   0.03276   5.96581
   Z11       -0.00497  -0.00002   0.00000  -0.00016  -0.00011  -0.00508
   X12       -6.41202  -0.00014   0.00000  -0.05164  -0.05165  -6.46367
   Y12        1.85066  -0.00015   0.00000   0.00990   0.00990   1.86056
   Z12       -0.00163   0.00001   0.00000  -0.00020  -0.00017  -0.00180
         Item               Value     Threshold  Converged?
 Maximum Force            0.027386     0.000450     NO 
 RMS     Force            0.009780     0.000300     NO 
 Maximum Displacement     0.052100     0.001800     NO 
 RMS     Displacement     0.028551     0.001200     NO 
 Predicted change in Energy=-3.439797D-03
 GradGradGradGradGradGradGradGradGradGradGradGradGradGradGradGradGradGrad

 Unable to Open any file for archive entry.
 1\1\GINC-BHP0004\Force\RAM1 TD-FC\STO-3G\C6H6\BWEIGHT\27-Dec-2022\0\\#
  AM1/sto-3g TD=(read,singlets,nstates=4,root=3) FORCE nosym pop=full g
 uess=read\\MD Step 1\\0,1\C,-1.59610985,-0.22883295,0.\C,-0.20094985,-
 0.22883295,0.\C,0.49658815,0.97891805,0.\C,-0.20106585,2.18742705,-0.0
 01199\C,-1.59589085,2.18734905,-0.001678\C,-2.29349185,0.97914305,-0.0
 00682\H,-2.14586885,-1.18114995,0.00045\H,0.34855815,-1.18134595,0.001
 315\H,1.59626815,0.97899805,0.000634\H,0.34913415,3.13957005,-0.001258
 \H,-2.14601285,3.13963005,-0.002631\H,-3.39309585,0.97932605,-0.000862
 \\Version=ES64L-G16RevC.01\HF=0.0349531\RMSD=4.453e-10\RMSF=9.780e-03\
 Dipole=0.000004,0.0000494,0.0003991\PG=C01 [X(C6H6)]\\@
 The archive entry for this job was punched.


 NOTHING RESEMBLES A NEW PHENOMENON AS MUCH AS A MISTAKE.

                               -- ENRICO FERMI (?)
 Job cpu time:       0 days  0 hours  0 minutes  1.5 seconds.
 Elapsed time:       0 days  0 hours  0 minutes  1.7 seconds.
 File lengths (MBytes):  RWF=    272 Int=      0 D2E=      0 Chk=     32 Scr=     32
 Normal termination of Gaussian 16 at Tue Dec 27 19:59:42 2022.
