6
MD Step 0
C  -0.33763715 -0.58748865 0.00000000
H  0.19552659 -1.51519357 0.00000000
H  -1.40763715 -0.58748865 0.00000000
C  0.33763715 0.58748864 0.00000000
H  -0.19552660 1.51519357 0.00000000
H  1.40763715 0.58748864 0.00000000
6
MD Step 1
C  -0.33602377 -0.58586991 0.00158320
H  0.20103154 -1.51048168 0.00547125
H  -1.40288297 -0.58233444 0.00546453
C  0.33918999 0.58903633 0.00158295
H  -0.19010090 1.52141990 0.00547207
H  1.41382031 0.59326595 0.00546535
6
MD Step 2
C  -0.33434576 -0.58418153 0.00316447
H  0.20661868 -1.50727815 0.01094620
H  -1.39960668 -0.57780023 0.01094844
C  0.34068764 0.59051582 0.00316400
H  -0.18472075 1.52913031 0.01094776
H  1.42133211 0.59967010 0.01094955
6
MD Step 3
C  -0.33260165 -0.58242904 0.00474197
H  0.21227750 -1.50553969 0.01643068
H  -1.39781932 -0.57387704 0.01646853
C  0.34213762 0.59193422 0.00474136
H  -0.17934124 1.53825752 0.01643272
H  1.43004204 0.60669772 0.01646799
6
MD Step 4
C  -0.33079239 -0.58062175 0.00631396
H  0.21797908 -1.50518883 0.02193209
H  -1.39748776 -0.57055324 0.02203869
C  0.34354900 0.59330250 0.00631338
H  -0.17390332 1.54870061 0.02193406
H  1.43978993 0.61434053 0.02203230
6
MD Step 5
C  -0.32892136 -0.57877217 0.00787895
H  0.22367797 -1.50611782 0.02745808
H  -1.39853616 -0.56781525 0.02767047
C  0.34493212 0.59463508 0.00787861
H  -0.16833735 1.56032916 0.02745907
H  1.45039276 0.62258508 0.02765129
6
MD Step 6
C  -0.32699428 -0.57689553 0.00943566
H  0.22931492 -1.50819364 0.03301551
H  -1.40084967 -0.56564785 0.03337346
C  0.34629830 0.59594928 0.00943586
H  -0.16256697 1.57298845 0.03301422
H  1.46165191 0.63141272 0.03333153
6
MD Step 7
C  -0.32501898 -0.57500907 0.01098312
H  0.23482005 -1.51126356 0.03860999
H  -1.40427983 -0.56403449 0.03915532
C  0.34765949 0.59726469 0.01098417
H  -0.15651294 1.58650528 0.03860472
H  1.47336033 0.64079956 0.03907763
6
MD Step 8
C  -0.32300503 -0.57313140 0.01252067
H  0.24011633 -1.51516097 0.04424567
H  -1.40865132 -0.56295728 0.04502176
C  0.34902794 0.59860243 0.01252281
H  -0.15009677 1.60069406 0.04423433
H  1.48530915 0.65071684 0.04489254
6
MD Step 9
C  -0.32096332 -0.57128190 0.01404793
H  0.24512298 -1.51971112 0.04992525
H  -1.41376926 -0.56239700 0.05097657
C  0.35041594 0.59998451 0.01405131
H  -0.14324381 1.61536277 0.04990539
H  1.49729338 0.66113123 0.05077774
6
MD Step 10
C  -0.31890562 -0.56948006 0.01556481
H  0.24975873 -1.52473649 0.05565000
H  -1.41942670 -0.56233298 0.05702170
C  0.35183549 0.60143312 0.01556937
H  -0.13588584 1.63031831 0.05561885
H  1.50911624 0.67200542 0.05673344
6
MD Step 11
C  -0.31684414 -0.56774492 0.01707150
H  0.25394469 -1.53006150 0.06142001
H  -1.42541170 -0.56274309 0.06315736
C  0.35329812 0.60297002 0.01707689
H  -0.12796281 1.64537117 0.06137453
H  1.52059263 0.68329872 0.06275885
6
MD Step 12
C  -0.31479105 -0.56609457 0.01856839
H  0.25760677 -1.53551653 0.06723433
H  -1.43151380 -0.56360366 0.06938229
C  0.35481465 0.60461604 0.01857388
H  -0.11942412 1.66033909 0.06717129
H  1.53155192 0.69496773 0.06885241
6
MD Step 13
C  -0.31275812 -0.56454573 0.02005607
H  0.26067756 -1.54094112 0.07309117
H  -1.43752949 -0.56488957 0.07569396
C  0.35639496 0.60639055 0.02006048
H  -0.11022927 1.67505011 0.07300724
H  1.54184002 0.70696711 0.07501197
6
MD Step 14
C  -0.31075638 -0.56311337 0.02153524
H  0.26309774 -1.54618644 0.07898811
H  -1.44326662 -0.56657426 0.08208889
C  0.35804782 0.60831108 0.02153685
H  -0.10034817 1.68934502 0.07887995
H  1.55132081 0.71925023 0.08123508
6
MD Step 15
C  -0.30879580 -0.56181044 0.02300676
H  0.26481708 -1.55111709 0.08492226
H  -1.44854766 -0.56862992 0.08856288
C  0.35978076 0.61039298 0.02300322
H  -0.08976114 1.70307923 0.08478661
H  1.55987673 0.73176982 0.08751920
6
MD Step 16
C  -0.30688518 -0.56064763 0.02447153
H  0.26579511 -1.55561248 0.09089043
H  -1.45321209 -0.57102757 0.09511130
C  0.36159998 0.61264916 0.02445979
H  -0.07845863 1.71612407 0.09072420
H  1.56740895 0.74447853 0.09386188
6
MD Step 17
C  -0.30503191 -0.55963317 0.02593050
H  0.26600164 -1.55956782 0.09688929
H  -1.45711796 -0.57373727 0.10172929
C  0.36351027 0.61508988 0.02590675
H  -0.06644080 1.72836758 0.09668967
H  1.57383718 0.75732944 0.10026096
6
MD Step 18
C  -0.30324195 -0.55877274 0.02738464
H  0.26541696 -1.56289478 0.10291550
H  -1.46014295 -0.57672828 0.10841198
C  0.36551496 0.61772264 0.02734420
H  -0.05371697 1.73971501 0.10268005
H  1.57909936 0.77027652 0.10671472
6
MD Step 19
C  -0.30151977 -0.55806937 0.02883489
H  0.26403202 -1.56552195 0.10896578
H  -1.46218495 -0.57996920 0.11515474
C  0.36761590 0.62055209 0.02877219
H  -0.04030497 1.75008907 0.10869258
H  1.58315134 0.78327503 0.11322208
6
MD Step 20
C  -0.29986830 -0.55752345 0.03028219
H  0.26184853 -1.56739513 0.11503707
H  -1.46316233 -0.58342814 0.12195336
C  0.36981346 0.62358001 0.03019063
H  -0.02623060 1.75942999 0.11472479
H  1.58596643 0.79628176 0.11978276
6
MD Step 21
C  -0.29828898 -0.55713266 0.03172740
H  0.25887890 -1.56847758 0.12112657
H  -1.46301402 -0.58707280 0.12880422
C  0.37210648 0.62680531 0.03159930
H  -0.01152701 1.76769565 0.12077462
H  1.58753509 0.80925543 0.12639747
6
MD Step 22
C  -0.29678182 -0.55689209 0.03317129
H  0.25514633 -1.56875016 0.12723182
H  -1.46169949 -0.59087066 0.13570459
C  0.37449238 0.63022408 0.03299783
H  0.00376576 1.77486152 0.12684046
H  1.58786459 0.82215680 0.13306816
6
MD Step 23
C  -0.29534544 -0.55679422 0.03461456
H  0.25068474 -1.56821154 0.13335088
H  -1.45919860 -0.59478902 0.14265277
C  0.37696713 0.63382962 0.03438564
H  0.01960132 1.78092075 0.13292131
H  1.58697872 0.83494896 0.13979818
6
MD Step 24
C  -0.29397712 -0.55682910 0.03605773
H  0.24553878 -1.56687830 0.13948233
H  -1.45551161 -0.59879510 0.14964844
C  0.37952532 0.63761257 0.03576193
H  0.03592735 1.78588423 0.13901684
H  1.58491760 0.84759748 0.14659265
6
MD Step 25
C  -0.29267293 -0.55698438 0.03750118
H  0.23976376 -1.56478508 0.14562550
H  -1.45065909 -0.60285613 0.15669287
C  0.38216023 0.64156102 0.03712564
H  0.05268599 1.78978062 0.14512750
H  1.58173742 0.86007049 0.15345864
6
MD Step 26
C  -0.29142776 -0.55724548 0.03894508
H  0.23342555 -1.56198455 0.15178049
H  -1.44468198 -0.60693944 0.16378933
C  0.38486389 0.64566059 0.03847540
H  0.06981425 1.79265638 0.15125465
H  1.57751028 0.87233888 0.16040557
6
MD Step 27
C  -0.29023540 -0.55759575 0.04038935
H  0.22660032 -1.55854726 0.15794838
H  -1.43764153 -0.61101251 0.17094339
C  0.38762716 0.64989465 0.03980952
H  0.08724442 1.79457577 0.15740065
H  1.57232388 0.88437627 0.16744552
6
MD Step 28
C  -0.28908862 -0.55801666 0.04183361
H  0.21937420 -1.55456128 0.16413133
H  -1.42961932 -0.61504307 0.17816339
C  0.39043984 0.65424444 0.04112592
H  0.10490440 1.79562066 0.16356897
H  1.56628114 0.89615906 0.17459360
6
MD Step 29
C  -0.28797922 -0.55848800 0.04327716
H  0.21184267 -1.55013142 0.17033262
H  -1.42071701 -0.61899920 0.18546079
C  0.39329075 0.65868930 0.04242210
H  0.12271811 1.79589023 0.16976424
H  1.55949971 0.90766631 0.18186829
6
MD Step 30
C  -0.28689810 -0.55898817 0.04471894
H  0.20410972 -1.54537811 0.17655676
H  -1.41105593 -0.62284940 0.19285068
C  0.39616788 0.66320691 0.04369513
H  0.14060596 1.79550026 0.17599233
H  1.55211123 0.91887959 0.18929184
6
MD Step 31
C  -0.28583531 -0.55949447 0.04615747
H  0.19628665 -1.54043554 0.18280941
H  -1.40077629 -0.62656275 0.20035210
C  0.39905848 0.66777359 0.04494157
H  0.15848543 1.79458193 0.18226034
H  1.54426022 0.92978273 0.19689056
6
MD Step 32
C  -0.28478011 -0.55998352 0.04759086
H  0.18849046 -1.53544910 0.18909731
H  -1.39003593 -0.63010899 0.20798847
C  0.40194928 0.67236465 0.04615751
H  0.17627170 1.79328003 0.18857654
H  1.53610259 0.94036137 0.20469507
6
MD Step 33
C  -0.28372106 -0.56043165 0.04901680
H  0.18084176 -1.53057186 0.19542795
H  -1.37900849 -0.63345868 0.21578778
C  0.40482663 0.67695480 0.04733854
H  0.19387839 1.79175045 0.19495025
H  1.52780351 0.95060243 0.21274031
6
MD Step 34
C  -0.28264605 -0.56081544 0.05043259
H  0.17346214 -1.52596006 0.20180927
H  -1.36788065 -0.63658327 0.22378268
C  0.40767680 0.68151863 0.04847979
H  0.21121829 1.79015718 0.20139161
H  1.51953471 0.96049340 0.22106547
6
MD Step 35
C  -0.28154253 -0.56111234 0.05183516
H  0.16647131 -1.52176796 0.20824900
H  -1.35684848 -0.63945528 0.23201027
C  0.41048623 0.68603110 0.04957596
H  0.22820419 1.78866853 0.20791129
H  1.51147115 0.97002145 0.22971365
6
MD Step 36
C  -0.28039763 -0.56130119 0.05322122
H  0.15998383 -1.51814189 0.21475403
H  -1.34611255 -0.64204829 0.24051157
C  0.41324183 0.69046820 0.05062143
H  0.24474979 1.78745265 0.21452011
H  1.50378714 0.97917249 0.23873124
6
MD Step 37
C  -0.27919848 -0.56136290 0.05458737
H  0.15410577 -1.51521389 0.22132959
H  -1.33587181 -0.64433705 0.24933070
C  0.41593133 0.69480743 0.05161032
H  0.26077073 1.78667224 0.22122858
H  1.49665181 0.98793012 0.24816699
6
MD Step 38
C  -0.27793256 -0.56128099 0.05593028
H  0.14893143 -1.51309546 0.22797837
H  -1.32631676 -0.64629743 0.25851353
C  0.41854365 0.69902853 0.05253673
H  0.27618551 1.78647902 0.22804625
H  1.49022440 0.99627459 0.25807086
6
MD Step 39
C  -0.27658802 -0.56104216 0.05724689
H  0.14454036 -1.51187163 0.23469954
H  -1.31762196 -0.64790638 0.26810607
C  0.42106922 0.70311398 0.05339483
H  0.29091645 1.78700802 0.23498099
H  1.48464921 1.00418193 0.26849253
6
MD Step 40
C  -0.27515423 -0.56063665 0.05853463
H  0.14099488 -1.51159617 0.24148783
H  -1.30993844 -0.64914179 0.27815255
C  0.42350033 0.70704956 0.05417909
H  0.30489064 1.78837202 0.24203817
H  1.48005072 1.01162318 0.27947991
6
MD Step 41
C  -0.27362215 -0.56005864 0.05979171
H  0.13833833 -1.51228808 0.24833279
H  -1.30338634 -0.64998239 0.28869332
C  0.42583147 0.71082482 0.05488450
H  0.31804092 1.79065669 0.24921977
H  1.47652885 1.01856390 0.29107744
6
MD Step 42
C  -0.27198482 -0.55930627 0.06101725
H  0.13659426 -1.51393015 0.25521822
H  -1.29804859 -0.65040757 0.29976272
C  0.42805954 0.71443338 0.05550678
H  0.33030669 1.79391674 0.25652355
H  1.47415502 1.02496391 0.30332452
6
MD Step 43
C  -0.27023775 -0.55838164 0.06221153
H  0.13576647 -1.51646937 0.26212201
H  -1.29396621 -0.65039738 0.31138722
C  0.43018403 0.71787312 0.05604252
H  0.34163473 1.79817353 0.26394236
H  1.47296906 1.03077757 0.31625416
6
MD Step 44
C  -0.26837911 -0.55729058 0.06337611
H  0.13584006 -1.51981958 0.26901628
H  -1.29113586 -0.64993247 0.32358378
C  0.43220714 0.72114617 0.05648941
H  0.35197979 1.80341427 0.27146365
H  1.47297758 1.03595422 0.32989172
6
MD Step 45
C  -0.26640991 -0.55604222 0.06451386
H  0.13678324 -1.52386562 0.27586801
H  -1.28950987 -0.64899422 0.33635886
C  0.43413368 0.72425877 0.05684631
H  0.36130503 1.80959297 0.27906923
H  1.47415370 1.04043921 0.34425414
6
MD Step 46
C  -0.26433392 -0.55464851 0.06562900
H  0.13854974 -1.52846896 0.28263981
H  -1.28899890 -0.64756503 0.34970787
C  0.43597099 0.72722091 0.05711336
H  0.36958215 1.81663290 0.28673534
H  1.47643839 1.04417503 0.35934935
6
MD Step 47
C  -0.26215744 -0.55312361 0.06672695
H  0.14108163 -1.53347390 0.28929104
H  -1.28947677 -0.64562860 0.36361525
C  0.43772865 0.73004588 0.05729195
H  0.37679129 1.82443039 0.29443292
H  1.47974307 1.04710275 0.37517597
6
MD Step 48
C  -0.25988899 -0.55148329 0.06781424
H  0.14431220 -1.53871400 0.29577890
H  -1.29078697 -0.64317045 0.37805505
C  0.43941818 0.73274973 0.05738477
H  0.38292071 1.83285946 0.30212811
H  1.48395339 1.04916348 0.39172327
6
MD Step 49
C  -0.25753887 -0.54974428 0.06889831
H  0.14816878 -1.54401828 0.30205955
H  -1.29275014 -0.64017836 0.39299187
C  0.44105267 0.73535063 0.05739569
H  0.38796624 1.84177686 0.30978292
H  1.48893367 1.05029990 0.40897128
6
MD Step 50
C  -0.25511868 -0.54792376 0.06998724
H  0.15257534 -1.54921678 0.30808926
H  -1.29517180 -0.63664284 0.40838225
C  0.44264634 0.73786827 0.05732968
H  0.39193068 1.85102724 0.31735590
H  1.49453177 1.05045770 0.42689125
6
MD Step 51
C  -0.25264087 -0.54603878 0.07108957
H  0.15745479 -1.55414541 0.31382535
H  -1.29784996 -0.63255759 0.42417628
C  0.44421419 0.74032326 0.05719272
H  0.39482315 1.86044802 0.32480298
H  1.50058390 1.04958685 0.44544622
6
MD Step 52
C  -0.25011827 -0.54410593 0.07221401
H  0.16273090 -1.55864983 0.31922709
H  -1.30058197 -0.62791976 0.44031937
C  0.44577160 0.74273663 0.05699164
H  0.39665836 1.86987389 0.33207819
H  1.50691933 1.04764261 0.46459187
6
MD Step 53
C  -0.24756370 -0.54214093 0.07336925
H  0.16832982 -1.56258836 0.32425638
H  -1.30317041 -0.62273015 0.45675397
C  0.44733400 0.74512935 0.05673405
H  0.39745575 1.87914063 0.33913436
H  1.51336464 1.04458634 0.48427732
6
MD Step 54
C  -0.24498963 -0.54015847 0.07456378
H  0.17418135 -1.56583415 0.32887823
H  -1.30542777 -0.61699324 0.47342130
C  0.44891660 0.74752196 0.05642817
H  0.39723878 1.88808850 0.34592369
H  1.51974767 1.04038599 0.50444624
6
MD Step 55
C  -0.24240801 -0.53817195 0.07580567
H  0.18021986 -1.56827655 0.33306119
H  -1.30717977 -0.61071709 0.49026267
C  0.45053415 0.74993423 0.05608273
H  0.39603401 1.89656492 0.35239834
H  1.52590072 1.03501632 0.52503776
6
MD Step 56
C  -0.23983003 -0.53619344 0.07710248
H  0.18638507 -1.56982213 0.33677762
H  -1.30826779 -0.60391318 0.50722088
C  0.45220079 0.75238499 0.05570686
H  0.39387031 1.90442653 0.35851082
H  1.53166299 1.02845889 0.54598755
6
MD Step 57
C  -0.23726592 -0.53423320 0.07846130
H  0.19262712 -1.57039635 0.34000642
H  -1.30855143 -0.59659168 0.52425140
C  0.45393010 0.75489197 0.05531028
H  0.39077551 1.91154571 0.36421788
H  1.53688642 1.02069664 0.56724073
6
MD Step 58
C  -0.23472522 -0.53230013 0.07988840
H  0.19889791 -1.56994054 0.34272735
H  -1.30790668 -0.58877024 0.54130054
C  0.45573475 0.75747146 0.05490293
H  0.38677945 1.91780011 0.36947246
H  1.54142798 1.01172294 0.58872515
6
MD Step 59
C  -0.23221664 -0.53040163 0.08138925
H  0.20515589 -1.56841419 0.34492448
H  -1.30622775 -0.58046929 0.55831850
C  0.45762664 0.76013839 0.05449489
H  0.38191285 1.92307996 0.37422883
H  1.54515517 1.00153793 0.61036694
6
MD Step 60
C  -0.22974814 -0.52854368 0.08296836
H  0.21136450 -1.56579525 0.34658566
H  -1.30342714 -0.57171393 0.57525586
C  0.45961671 0.76290617 0.05409623
H  0.37620877 1.92728755 0.37844203
H  1.54794548 0.99015127 0.63208609
6
MD Step 61
C  -0.22732687 -0.52673058 0.08462939
H  0.21749671 -1.56207965 0.34770425
H  -1.29943485 -0.56252859 0.59207393
C  0.46171516 0.76578668 0.05371706
H  0.36969868 1.93034142 0.38207112
H  1.54968956 0.97757563 0.65380920
6
MD Step 62
C  -0.22495927 -0.52496495 0.08637509
H  0.22353295 -1.55728120 0.34827814
H  -1.29419774 -0.55293968 0.60873854
C  0.46393132 0.76879002 0.05336748
H  0.36241372 1.93217465 0.38507778
H  1.55028940 0.96382998 0.67546183
6
MD Step 63
C  -0.22265119 -0.52324769 0.08820724
H  0.22946145 -1.55143151 0.34830997
H  -1.28767873 -0.54297518 0.62522046
C  0.46627372 0.77192438 0.05305746
H  0.35438459 1.93273575 0.38742712
H  1.54965822 0.94893950 0.69696906
6
MD Step 64
C  -0.22040789 -0.52157793 0.09012669
H  0.23527866 -1.54457988 0.34780725
H  -1.27985597 -0.53266428 0.64149560
C  0.46875002 0.77519588 0.05279681
H  0.34564140 1.93198968 0.38908859
H  1.54772011 0.93293573 0.71825583
6
MD Step 65
C  -0.21823416 -0.51995299 0.09213331
H  0.24098935 -1.53679318 0.34678247
H  -1.27072215 -0.52203737 0.65754471
C  0.47136709 0.77860832 0.05259503
H  0.33621391 1.92991885 0.39003694
H  1.54440958 0.91585705 0.73924682
6
MD Step 66
C  -0.21613435 -0.51836836 0.09422602
H  0.24660683 -1.52815576 0.34525319
H  -1.26028381 -0.51112590 0.67335339
C  0.47413095 0.78216302 0.05246118
H  0.32613160 1.92652444 0.39025332
H  1.53967134 0.89774910 0.75986664
6
MD Step 67
C  -0.21411238 -0.51681767 0.09640272
H  0.25215305 -1.51876902 0.34324200
H  -1.24856086 -0.49996226 0.68891208
C  0.47704675 0.78585864 0.05240378
H  0.31542372 1.92182783 0.38972648
H  1.53346007 0.87866523 0.78004014
6
MD Step 68
C  -0.21217177 -0.51529277 0.09866038
H  0.25765860 -1.50875076 0.34077644
H  -1.23558606 -0.48857958 0.70421638
C  0.48011883 0.78969097 0.05243060
H  0.30411902 1.91587200 0.38845399
H  1.52574022 0.85866673 0.79969295
6
MD Step 69
C  -0.21031565 -0.51378384 0.10099499
H  0.26316249 -1.49823420 0.33788868
H  -1.22140466 -0.47701167 0.71926730
C  0.48335066 0.79365281 0.05254855
H  0.29224559 1.90872297 0.38644334
H  1.51648605 0.83782331 0.81875200
6
MD Step 70
C  -0.20854667 -0.51227948 0.10340159
H  0.26871175 -1.48736630 0.33461502
H  -1.20607395 -0.46529273 0.73407172
C  0.48674488 0.79773387 0.05276350
H  0.27983011 1.90047105 0.38371297
H  1.50568162 0.81621308 0.83714632
6
MD Step 71
C  -0.20686704 -0.51076702 0.10587432
H  0.27436056 -1.47630563 0.33099515
H  -1.18966290 -0.45345722 0.74864296
C  0.49030338 0.80192072 0.05308012
H  0.26689715 1.89123173 0.38029298
H  1.49332094 0.79392251 0.85480810
6
MD Step 72
C  -0.20527836 -0.50923281 0.10840646
H  0.28016904 -1.46521928 0.32707119
H  -1.17225168 -0.44153959 0.76300133
C  0.49402733 0.80619689 0.05350172
H  0.25346803 1.88114579 0.37622555
H  1.47940799 0.77104593 0.87167394
6
MD Step 73
C  -0.20378157 -0.50766267 0.11099049
H  0.28620142 -1.45427892 0.32288649
H  -1.15393099 -0.42957404 0.77717475
C  0.49791731 0.81054308 0.05403014
H  0.23955974 1.87037856 0.37156488
H  1.46395674 0.74768481 0.88768621
6
MD Step 74
C  -0.20237684 -0.50604233 0.11361822
H  0.29252368 -1.44365603 0.31848422
H  -1.13480118 -0.41759427 0.79119921
C  0.50197336 0.81493746 0.05466565
H  0.22518378 1.85911779 0.36637662
H  1.44699125 0.72394694 0.90279451
6
MD Step 75
C  -0.20106337 -0.50435808 0.11628086
H  0.29920061 -1.43351643 0.31390594
H  -1.11497112 -0.40563334 0.80511913
C  0.50619509 0.81935619 0.05540689
H  0.21034524 1.84757011 0.36073668
H  1.42854580 0.69994542 0.91695708
6
MD Step 76
C  -0.19983927 -0.50259727 0.11896923
H  0.30629241 -1.42401431 0.30919002
H  -1.09455657 -0.39372354 0.81898732
C  0.51058167 0.82377397 0.05625093
H  0.19504228 1.83595599 0.35472955
H  1.40866510 0.67579759 0.93014238
6
MD Step 77
C  -0.19870142 -0.50074900 0.12167389
H  0.31385098 -1.41528623 0.30437032
H  -1.07367823 -0.38189628 0.83286453
C  0.51513188 0.82816487 0.05719323
H  0.17926639 1.82450287 0.34844577
H  1.38740416 0.65162339 0.94233052
6
MD Step 78
C  -0.19764535 -0.49880459 0.12438538
H  0.32191619 -1.40744544 0.29947500
H  -1.05245935 -0.37018225 0.84681853
C  0.51984398 0.83250333 0.05822783
H  0.16300366 1.81343626 0.34197893
H  1.36482775 0.62754347 0.95351489
6
MD Step 79
C  -0.19666518 -0.49675804 0.12709439
H  0.33051236 -1.40057703 0.29452577
H  -1.03102302 -0.35861152 0.86092264
C  0.52471560 0.83676522 0.05934746
H  0.14623741 1.80296928 0.33542211
H  1.34100996 0.60367710 0.96370360
6
MD Step 80
C  -0.19575359 -0.49460638 0.12979203
H  0.33964524 -1.39473439 0.28953750
H  -1.00948926 -0.34721400 0.87525361
C  0.52974342 0.84092903 0.06054370
H  0.12895204 1.79329164 0.32886418
H  1.31603370 0.58014008 0.97292087
6
MD Step 81
C  -0.19490191 -0.49234977 0.13247008
H  0.34929997 -1.38993728 0.28451837
H  -0.98797177 -0.33601986 0.88988881
C  0.53492281 0.84497693 0.06180721
H  0.11113800 1.78455896 0.32238632
H  1.28998971 0.55704276 0.98120772
6
MD Step 82
C  -0.19410085 -0.48999363 0.13512068
H  0.35945367 -1.38616491 0.27946167
H  -0.96652865 -0.32503836 0.90494128
C  0.54024898 0.84889879 0.06312660
H  0.09277155 1.77687013 0.31605001
H  1.26292009 0.53444451 0.98865142
6
MD Step 83
C  -0.19334040 -0.48754651 0.13773675
H  0.37004510 -1.38337676 0.27436491
H  -0.94524563 -0.31430269 0.92049026
C  0.54571436 0.85268912 0.06448967
H  0.07387883 1.77029380 0.30991687
H  1.23491731 0.51244009 0.99533822
6
MD Step 84
C  -0.19260989 -0.48501932 0.14031269
H  0.38099277 -1.38150402 0.26922162
H  -0.92419317 -0.30384951 0.93660347
C  0.55130913 0.85634804 0.06588377
H  0.05450884 1.76484635 0.30403547
H  1.20607625 0.49111305 1.00137091
6
MD Step 85
C  -0.19189835 -0.48242471 0.14284466
H  0.39219756 -1.38045429 0.26402259
H  -0.90342473 -0.29372002 0.95333258
C  0.55702108 0.85988116 0.06729583
H  0.03473678 1.76049283 0.29844158
H  1.17649200 0.47053436 1.00686739
6
MD Step 86
C  -0.19119481 -0.47977640 0.14533087
H  0.40354606 -1.38011713 0.25875698
H  -0.88297610 -0.28396105 0.97070913
C  0.56283566 0.86329912 0.06871237
H  0.01466543 1.75715194 0.29315947
H  1.14625768 0.45076177 1.01195858
6
MD Step 87
C  -0.19048853 -0.47708854 0.14777178
H  0.41491451 -1.38037000 0.25341344
H  -0.86286598 -0.27462599 0.98874108
C  0.56873626 0.86661682 0.07011965
H  -0.00557610 1.75470407 0.28820398
H  1.11546188 0.43183965 1.01678520
6
MD Step 88
C  -0.18976922 -0.47437503 0.15017023
H  0.42617283 -1.38108402 0.24798087
H  -0.84309795 -0.26577554 1.00741046
C  0.57470467 0.86985238 0.07150366
H  -0.02583561 1.75300132 0.28358287
H  1.08418661 0.41379962 1.02149418
6
MD Step 89
C  -0.18902710 -0.47164900 0.15253150
H  0.43718858 -1.38212927 0.24244908
H  -0.82366381 -0.25747815 1.02667225
C  0.58072168 0.87302605 0.07285034
H  -0.04594257 1.75187849 0.27929939
H  1.05250534 0.39666239 1.02623399
6
MD Step 90
C  -0.18825291 -0.46892234 0.15486324
H  0.44783045 -1.38337932 0.23680914
H  -0.80454797 -0.24981012 1.04645461
C  0.58676769 0.87615901 0.07414576
H  -0.06571397 1.75116380 0.27535459
H  1.02048207 0.38044078 1.03114925
6
MD Step 91
C  -0.18743785 -0.46620545 0.15717532
H  0.45797137 -1.38471483 0.23105359
H  -0.78573233 -0.24285532 1.06666053
C  0.59282332 0.87927222 0.07537645
H  -0.08496019 1.75068828 0.27174923
H  0.98817166 0.36514352 1.03637552
6
MD Step 92
C  -0.18657344 -0.46350701 0.15947951
H  0.46749088 -1.38602617 0.22517653
H  -0.76720145 -0.23670444 1.08717073
C  0.59886984 0.88238543 0.07652971
H  -0.10349032 1.75029333 0.26848521
H  0.95562091 0.35077983 1.04203414
6
MD Step 93
C  -0.18565143 -0.46083396 0.16178907
H  0.47627713 -1.38721513 0.21917364
H  -0.74894754 -0.23145390 1.10784745
C  0.60488953 0.88551628 0.07759402
H  -0.12111674 1.74983634 0.26556635
H  0.92287072 0.33736462 1.04822715
6
MD Step 94
C  -0.18466369 -0.45819153 0.16411824
H  0.48422843 -1.38819586 0.21304218
H  -0.73097469 -0.22720424 1.12853884
C  0.61086577 0.88867953 0.07855948
H  -0.13765892 1.74919469 0.26299863
H  0.88996007 0.32492408 1.05503335
6
MD Step 95
C  -0.18360213 -0.45558400 0.16648229
H  0.49131697 -1.38890777 0.20673223
H  -0.71314570 -0.22402369 1.14925879
C  0.61678780 0.89189038 0.07941765
H  -0.15307224 1.74826969 0.26077249
H  0.85665028 0.31340511 1.06256782
6
MD Step 96
C  -0.18245928 -0.45301617 0.16889469
H  0.49745681 -1.38929296 0.20023927
H  -0.69547626 -0.22202769 1.16986114
C  0.62264156 0.89515787 0.08016206
H  -0.16718225 1.74698954 0.25890398
H  0.82295390 0.30288838 1.07087484
6
MD Step 97
C  -0.18122788 -0.45049202 0.17136762
H  0.50257297 -1.38930459 0.19356071
H  -0.67800127 -0.22133442 1.19019488
C  0.62841260 0.89848592 0.08078973
H  -0.17981852 1.74530727 0.25741016
H  0.78890511 0.29349441 1.07996935
6
MD Step 98
C  -0.17990113 -0.44801479 0.17391100
H  0.50660344 -1.38890534 0.18669660
H  -0.66077626 -0.22206102 1.21010598
C  0.63408505 0.90187246 0.08130236
H  -0.19081495 1.74320098 0.25630613
H  0.75457544 0.28539183 1.08983550
6
MD Step 99
C  -0.17847306 -0.44558726 0.17653129
H  0.50950189 -1.38806512 0.17965073
H  -0.64387716 -0.22431784 1.22943883
C  0.63964041 0.90530854 0.08170771
H  -0.20001127 1.74067266 0.25560014
H  0.72009168 0.27880222 1.10042628
6
MD Step 100
C  -0.17693911 -0.44321175 0.17923055
H  0.51124111 -1.38675859 0.17243147
H  -0.62739700 -0.22820058 1.24803838
C  0.64505632 0.90877802 0.08202101
H  -0.20725756 1.73774539 0.25528694
H  0.68565107 0.27399725 1.11166495
6
MD Step 101
C  -0.17529659 -0.44088999 0.18200584
H  0.51181587 -1.38496287 0.16505452
H  -0.61144536 -0.23378018 1.26574741
C  0.65030605 0.91225796 0.08226589
H  -0.21242035 1.73445865 0.25534009
H  0.65153965 0.27128482 1.12344587
6
MD Step 102
C  -0.17354520 -0.43862296 0.18484937
H  0.51124573 -1.38265704 0.15754438
H  -0.59614261 -0.24109289 1.28240920
C  0.65535901 0.91572032 0.08247417
H  -0.21539397 1.73086222 0.25570535
H  0.61813150 0.27098051 1.13563915
6
MD Step 103
C  -0.17168714 -0.43641074 0.18774954
H  0.50957553 -1.37982430 0.14993458
H  -0.58161166 -0.25013478 1.29787443
C  0.66018278 0.91913497 0.08268397
H  -0.21611193 1.72701063 0.25629847
H  0.58586733 0.27337184 1.14809906
6
MD Step 104
C  -0.16972680 -0.43425251 0.19069241
H  0.50687304 -1.37645657 0.14226566
H  -0.56796768 -0.26086385 1.31201105
C  0.66474587 0.92247297 0.08293647
H  -0.21455381 1.72296058 0.25700952
H  0.55521419 0.27868678 1.16067491
6
MD Step 105
C  -0.16767015 -0.43214655 0.19366344
H  0.50322441 -1.37255992 0.13458131
H  -0.55530840 -0.27320858 1.32471313
C  0.66902027 0.92570886 0.08327246
H  -0.21074577 1.71877174 0.25771218
H  0.52661986 0.28707736 1.17322120
6
MD Step 106
C  -0.16552391 -0.43009006 0.19664873
H  0.49872932 -1.36815850 0.12692405
H  -0.54370694 -0.28707777 1.33590403
C  0.67298294 0.92882143 0.08372991
H  -0.20475637 1.71450991 0.25827419
H  0.50047817 0.29861949 1.18560428
6
MD Step 107
C  -0.16329508 -0.42807889 0.19963577
H  0.49349721 -1.36329595 0.11933169
H  -0.53320808 -0.30236668 1.34553371
C  0.67661618 0.93179307 0.08434292
H  -0.19669156 1.71025028 0.25856449
H  0.47711371 0.31332247 1.19770473
6
MD Step 108
C  -0.16099084 -0.42610741 0.20261361
H  0.48764555 -1.35803441 0.11183594
H  -0.52382788 -0.31895698 1.35357225
C  0.67990733 0.93460861 0.08514210
H  -0.18669236 1.70607988 0.25845547
H  0.45678447 0.33113762 1.20941526
6
MD Step 109
C  -0.15861891 -0.42416835 0.20557295
H  0.48130001 -1.35245179 0.10446307
H  -0.51555631 -0.33671142 1.36000410
C  0.68284868 0.93725456 0.08615533
H  -0.17493741 1.70209784 0.25782109
H  0.43969310 0.35195755 1.22063596
6
MD Step 110
C  -0.15618810 -0.42225246 0.20850643
H  0.47459700 -1.34663757 0.09723691
H  -0.50836384 -0.35546585 1.36482600
C  0.68543826 0.93971938 0.08740800
H  -0.16165182 1.69841285 0.25653393
H  0.42599763 0.37559889 1.23126888
6
MD Step 111
C  -0.15371356 -0.42036160 0.21138406
H  0.46752357 -1.34054307 0.09003653
H  -0.50192360 -0.37538578 1.36817171
C  0.68765502 0.94198156 0.08897057
H  -0.14671049 1.69510855 0.25429082
H  0.41573061 0.40256755 1.24140626
6
MD Step 112
C  -0.15122391 -0.41850029 0.21416563
H  0.46024193 -1.33422289 0.08294329
H  -0.49608230 -0.39615385 1.37004781
C  0.68947779 0.94402156 0.09092219
H  -0.13032870 1.69234607 0.25069995
H  0.40941205 0.43273475 1.25084849
6
MD Step 113
C  -0.14876127 -0.41666720 0.21681412
H  0.45299627 -1.32770567 0.07611339
H  -0.49072382 -0.41732278 1.37051343
C  0.69090725 0.94583945 0.09333800
H  -0.11291590 1.69023812 0.24529711
H  0.40759863 0.46554477 1.25934868
6
MD Step 114
C  -0.14637636 -0.41484448 0.21932057
H  0.44613511 -1.32100990 0.06976752
H  -0.48587302 -0.43840959 1.36967912
C  0.69199414 0.94746828 0.09624522
H  -0.09515360 1.68881544 0.23772697
H  0.41064131 0.49987073 1.26668142
6
MD Step 115
C  -0.14410419 -0.41299202 0.22172903
H  0.44003603 -1.31422081 0.06406843
H  -0.48174792 -0.45911847 1.36764031
C  0.69284597 0.94896086 0.09957720
H  -0.07788937 1.68808463 0.22804509
H  0.41833547 0.53434720 1.27278582
6
MD Step 116
C  -0.14194879 -0.41106383 0.22411267
H  0.43497440 -1.30752972 0.05901489
H  -0.47861301 -0.47940696 1.36442418
C  0.69357734 0.95035051 0.10321251
H  -0.06184920 1.68814781 0.21667777
H  0.43002267 0.56801933 1.27778757
6
MD Step 117
C  -0.13989599 -0.40902481 0.22653345
H  0.43110093 -1.30117354 0.05449200
H  -0.47663466 -0.49932912 1.36002403
C  0.69426963 0.95163926 0.10704481
H  -0.04752241 1.68921016 0.20410290
H  0.44499239 0.60046633 1.28188078
6
MD Step 118
C  -0.13792671 -0.40685225 0.22903161
H  0.42848304 -1.29537423 0.05034803
H  -0.47587466 -0.51892893 1.35444275
C  0.69497103 0.95281065 0.11100233
H  -0.03521002 1.69151231 0.19069264
H  0.46265753 0.63158090 1.28525203
6
MD Step 119
C  -0.13602150 -0.40453277 0.23163001
H  0.42713682 -1.29031538 0.04643305
H  -0.47632903 -0.53820814 1.34771241
C  0.69570674 0.95384193 0.11504066
H  -0.02508329 1.69527221 0.17670841
H  0.48255107 0.66138290 1.28806004
6
MD Step 120
C  -0.13416137 -0.40205967 0.23433955
H  0.42703960 -1.28612824 0.04261080
H  -0.47795741 -0.55714192 1.33989542
C  0.69648645 0.95471152 0.11913364
H  -0.01720159 1.70064777 0.16231964
H  0.50430360 0.68995183 1.29043860
6
MD Step 121
C  -0.13232771 -0.39943142 0.23716293
H  0.42813825 -1.28288648 0.03876325
H  -0.48070386 -0.57569630 1.33107855
C  0.69730866 0.95540303 0.12326675
H  -0.01152311 1.70771680 0.14762493
H  0.52762752 0.71739960 1.29250140
6
MD Step 122
C  -0.13050203 -0.39665086 0.24009690
H  0.43035541 -1.28060910 0.03479313
H  -0.48450963 -0.59383317 1.32136807
C  0.69816331 0.95590705 0.12743245
H  -0.00791957 1.71646951 0.13267775
H  0.55229698 0.74384849 1.29434488
6
MD Step 123
C  -0.12866574 -0.39372457 0.24313393
H  0.43359415 -1.27926531 0.03062386
H  -0.48932043 -0.61151594 1.31088383
C  0.69903360 0.95622155 0.13162727
H  -0.00619054 1.72681171 0.11750561
H  0.57813516 0.76942358 1.29605035
6
MD Step 124
C  -0.12680004 -0.39066225 0.24626326
H  0.43774212 -1.27878136 0.02619870
H  -0.49508997 -0.62871204 1.29975419
C  0.69989775 0.95635134 0.13584991
H  -0.00608053 1.73857583 0.10212523
H  0.60500378 0.79424829 1.29768478
6
MD Step 125
C  -0.12488608 -0.38747615 0.24947185
H  0.44267556 -1.27904846 0.02147928
H  -0.50178113 -0.64539388 1.28811146
C  0.70073059 0.95630689 0.14010001
H  -0.00729736 1.75153662 0.08655376
H  0.63279410 0.81844117 1.29930048
6
MD Step 126
C  -0.12290509 -0.38418048 0.25274510
H  0.44826316 -1.27993084 0.01644403
H  -0.50936566 -0.66153869 1.27608769
C  0.70150522 0.95610294 0.14437756
H  -0.00953013 1.76542874 0.07081600
H  0.66141944 0.84211377 1.30093406
6
MD Step 127
C  -0.12083870 -0.38079070 0.25606767
H  0.45436993 -1.28127383 0.01108624
H  -0.51782302 -0.67712823 1.26381029
C  0.70219445 0.95575702 0.14868263
H  -0.01246507 1.77996427 0.05494793