 Entering Gaussian System, Link 0=g16
 Initial command:
 /software/gaussian/g16-c01/avx2/g16/l1.exe "/gpfs/fs2/scratch/bweight/software/many_molecule_many_mode_NAMD/src/NAMD/TEST_NVT/TRAJ/traj-57/G16/GS_NEW/Gau-2474.inp" -scrdir="/gpfs/fs2/scratch/bweight/software/many_molecule_many_mode_NAMD/src/NAMD/TEST_NVT/TRAJ/traj-57/G16/GS_NEW/"
 Entering Link 1 = /software/gaussian/g16-c01/avx2/g16/l1.exe PID=      2475.
  
 Copyright (c) 1988-2019, Gaussian, Inc.  All Rights Reserved.
  
 This is part of the Gaussian(R) 16 program.  It is based on
 the Gaussian(R) 09 system (copyright 2009, Gaussian, Inc.),
 the Gaussian(R) 03 system (copyright 2003, Gaussian, Inc.),
 the Gaussian(R) 98 system (copyright 1998, Gaussian, Inc.),
 the Gaussian(R) 94 system (copyright 1995, Gaussian, Inc.),
 the Gaussian 92(TM) system (copyright 1992, Gaussian, Inc.),
 the Gaussian 90(TM) system (copyright 1990, Gaussian, Inc.),
 the Gaussian 88(TM) system (copyright 1988, Gaussian, Inc.),
 the Gaussian 86(TM) system (copyright 1986, Carnegie Mellon
 University), and the Gaussian 82(TM) system (copyright 1983,
 Carnegie Mellon University). Gaussian is a federally registered
 trademark of Gaussian, Inc.
  
 This software contains proprietary and confidential information,
 including trade secrets, belonging to Gaussian, Inc.
  
 This software is provided under written license and may be
 used, copied, transmitted, or stored only in accord with that
 written license.
  
 The following legend is applicable only to US Government
 contracts under FAR:
  
                    RESTRICTED RIGHTS LEGEND
  
 Use, reproduction and disclosure by the US Government is
 subject to restrictions as set forth in subparagraphs (a)
 and (c) of the Commercial Computer Software - Restricted
 Rights clause in FAR 52.227-19.
  
 Gaussian, Inc.
 340 Quinnipiac St., Bldg. 40, Wallingford CT 06492
  
  
 ---------------------------------------------------------------
 Warning -- This program may not be used in any manner that
 competes with the business of Gaussian, Inc. or will provide
 assistance to any competitor of Gaussian, Inc.  The licensee
 of this program is prohibited from giving any competitor of
 Gaussian, Inc. access to this program.  By using this program,
 the user acknowledges that Gaussian, Inc. is engaged in the
 business of creating and licensing software in the field of
 computational chemistry and represents and warrants to the
 licensee that it is not a competitor of Gaussian, Inc. and that
 it will not use this program in any manner prohibited above.
 ---------------------------------------------------------------
  

 Cite this work as:
 Gaussian 16, Revision C.01,
 M. J. Frisch, G. W. Trucks, H. B. Schlegel, G. E. Scuseria, 
 M. A. Robb, J. R. Cheeseman, G. Scalmani, V. Barone, 
 G. A. Petersson, H. Nakatsuji, X. Li, M. Caricato, A. V. Marenich, 
 J. Bloino, B. G. Janesko, R. Gomperts, B. Mennucci, H. P. Hratchian, 
 J. V. Ortiz, A. F. Izmaylov, J. L. Sonnenberg, D. Williams-Young, 
 F. Ding, F. Lipparini, F. Egidi, J. Goings, B. Peng, A. Petrone, 
 T. Henderson, D. Ranasinghe, V. G. Zakrzewski, J. Gao, N. Rega, 
 G. Zheng, W. Liang, M. Hada, M. Ehara, K. Toyota, R. Fukuda, 
 J. Hasegawa, M. Ishida, T. Nakajima, Y. Honda, O. Kitao, H. Nakai, 
 T. Vreven, K. Throssell, J. A. Montgomery, Jr., J. E. Peralta, 
 F. Ogliaro, M. J. Bearpark, J. J. Heyd, E. N. Brothers, K. N. Kudin, 
 V. N. Staroverov, T. A. Keith, R. Kobayashi, J. Normand, 
 K. Raghavachari, A. P. Rendell, J. C. Burant, S. S. Iyengar, 
 J. Tomasi, M. Cossi, J. M. Millam, M. Klene, C. Adamo, R. Cammi, 
 J. W. Ochterski, R. L. Martin, K. Morokuma, O. Farkas, 
 J. B. Foresman, and D. J. Fox, Gaussian, Inc., Wallingford CT, 2019.
 
 ******************************************
 Gaussian 16:  ES64L-G16RevC.01  3-Jul-2019
                11-Jan-2023 
 ******************************************
 %oldchk=../GS_OLD/geometry.chk
 %chk=geometry.chk
 %nprocshared=4
 Will use up to    4 processors via shared memory.
 %mem=5GB
 Copying data from "../GS_OLD/geometry.chk" to current chk file "geometry.chk"
 IOpt=  2 FromEx=T IUOpen= 4 IOptOp= 5 NList=   0 IFRang= 0 IUIn= 4 IUOut= 2.
 -------------------------------------------------------
 # WB97XD/6-311G SCF=XQC FORCE nosym pop=full guess=read
 -------------------------------------------------------
 1/10=7,30=1,38=1/1,3;
 2/12=2,15=1,17=6,18=5,40=1/2;
 3/5=4,6=6,11=2,25=1,30=1,71=1,74=-58,116=-2/1,2,3;
 4/5=1/1;
 5/5=2,8=3,13=1,38=6/2,8;
 6/7=3,28=1/1;
 7/29=1,30=1/1,2,3,16;
 1/10=7,30=1/3;
 99//99;
 ------------
 MD Step 1000
 ------------
 Symbolic Z-matrix:
 Charge =  0 Multiplicity = 1
 C                    -0.33644  -0.58253   0.00656 
 H                     0.22025  -1.52798  -0.022 
 H                    -1.42298  -0.58103  -0.02267 
 C                     0.33334   0.57723   0.00482 
 H                    -0.15841   1.5627   -0.02536 
 H                     1.43892   0.65034  -0.02471 
 

 GradGradGradGradGradGradGradGradGradGradGradGradGradGradGradGradGradGrad
 Berny optimization.
 Initialization pass.
 Trust Radius=3.00D-01 FncErr=1.00D-07 GrdErr=1.00D-07 EigMax=2.50D+02 EigMin=1.00D-04
 Number of steps in this run=      2 maximum allowed number of steps=      2.
 GradGradGradGradGradGradGradGradGradGradGradGradGradGradGradGradGradGrad

                          Input orientation:                          
 ---------------------------------------------------------------------
 Center     Atomic      Atomic             Coordinates (Angstroms)
 Number     Number       Type             X           Y           Z
 ---------------------------------------------------------------------
      1          6           0       -0.336440   -0.582531    0.006562
      2          1           0        0.220252   -1.527978   -0.022004
      3          1           0       -1.422978   -0.581027   -0.022668
      4          6           0        0.333344    0.577233    0.004822
      5          1           0       -0.158405    1.562696   -0.025364
      6          1           0        1.438916    0.650343   -0.024710
 ---------------------------------------------------------------------
                    Distance matrix (angstroms):
                    1          2          3          4          5
     1  C    0.000000
     2  H    1.097539   0.000000
     3  H    1.086932   1.896555   0.000000
     4  C    1.339278   2.108417   2.104041   0.000000
     5  H    2.152839   3.113785   2.488916   1.101756   0.000000
     6  H    2.161676   2.496043   3.115559   1.108380   1.839517
                    6
     6  H    0.000000
 Symmetry turned off by external request.
 Stoichiometry    C2H4
 Framework group  C1[X(C2H4)]
 Deg. of freedom    12
 Full point group                 C1      NOp   1
 Rotational constants (GHZ):         143.5452593          29.6766248          24.5994925
 Standard basis: 6-311G (5D, 7F)
    38 basis functions,    72 primitive gaussians,    38 cartesian basis functions
     8 alpha electrons        8 beta electrons
       nuclear repulsion energy        33.0744650326 Hartrees.
 NAtoms=    6 NActive=    6 NUniq=    6 SFac= 1.00D+00 NAtFMM=   60 NAOKFM=F Big=F
 Integral buffers will be    131072 words long.
 Raffenetti 2 integral format.
 Two-electron integral symmetry is turned off.
 Nuclear repulsion after empirical dispersion term =       33.0736231659 Hartrees.
 One-electron integrals computed using PRISM.
 NBasis=    38 RedAO= T EigKep=  6.45D-03  NBF=    38
 NBsUse=    38 1.00D-06 EigRej= -1.00D+00 NBFU=    38
 Initial guess from the checkpoint file:  "geometry.chk"
 B after Tr=    -0.000234   -0.000435   -0.000617
         Rot=    1.000000    0.000003   -0.000001    0.000004 Ang=   0.00 deg.
 Keep R1 ints in memory in canonical form, NReq=4036876.
 Requested convergence on RMS density matrix=1.00D-08 within  32 cycles.
 Requested convergence on MAX density matrix=1.00D-06.
 Requested convergence on             energy=1.00D-06.
 No special actions if energy rises.
 SCF Done:  E(RwB97XD) =  -78.5557672733     A.U. after    8 cycles
            NFock=  8  Conv=0.81D-08     -V/T= 2.0051
 QCSCF skips out because SCF is already converged.

 **********************************************************************

            Population analysis using the SCF Density.

 **********************************************************************

 Alpha  occ. eigenvalues --  -10.28972 -10.28825  -0.86368  -0.67265  -0.55972
 Alpha  occ. eigenvalues --   -0.50903  -0.43702  -0.35662
 Alpha virt. eigenvalues --    0.07960   0.14106   0.16504   0.17040   0.24085
 Alpha virt. eigenvalues --    0.37245   0.39403   0.39954   0.46481   0.48875
 Alpha virt. eigenvalues --    0.49396   0.59100   0.66602   0.69185   0.77336
 Alpha virt. eigenvalues --    0.77528   0.84286   0.95113   2.23122   2.29092
 Alpha virt. eigenvalues --    2.33262   2.40721   2.67107   2.81788   2.87810
 Alpha virt. eigenvalues --    2.95204   3.14028   3.32075  23.35314  23.70531
     Molecular Orbital Coefficients:
                           1         2         3         4         5
                           O         O         O         O         O
     Eigenvalues --   -10.28972 -10.28825  -0.86368  -0.67265  -0.55972
   1 1   C  1S          0.17647   0.53505  -0.08822   0.06699  -0.00041
   2        2S          0.14543   0.44029  -0.13944   0.10728  -0.00068
   3        2PX         0.00016  -0.00004   0.02596   0.03565   0.13729
   4        2PY         0.00028  -0.00005   0.04629   0.05870  -0.07495
   5        2PZ        -0.00000  -0.00001  -0.00121   0.00176   0.00016
   6        3S          0.00374   0.01413   0.37408  -0.29277   0.00188
   7        3PX        -0.00054   0.00051   0.03440   0.05727   0.21526
   8        3PY        -0.00092   0.00090   0.06109   0.09529  -0.11818
   9        3PZ        -0.00002  -0.00003  -0.00202   0.00314   0.00023
  10        4S          0.00121  -0.01496   0.19183  -0.22619   0.00168
  11        4PX         0.00125  -0.00173   0.00489   0.02299   0.11145
  12        4PY         0.00216  -0.00300   0.00871   0.03952  -0.06194
  13        4PZ         0.00001   0.00007  -0.00071   0.00157   0.00011
  14 2   H  1S         -0.00005  -0.00005   0.05248  -0.08709   0.10305
  15        2S         -0.00028   0.00014   0.05380  -0.10510   0.13040
  16        3S          0.00105   0.00155  -0.00180  -0.01498   0.04202
  17 3   H  1S         -0.00006  -0.00006   0.05379  -0.09016  -0.10528
  18        2S         -0.00028   0.00013   0.05463  -0.10807  -0.13237
  19        3S          0.00107   0.00158  -0.00178  -0.01580  -0.04265
  20 4   C  1S          0.53501  -0.17666  -0.08695  -0.06824  -0.00016
  21        2S          0.44039  -0.14520  -0.13730  -0.10944  -0.00025
  22        2PX        -0.00004  -0.00016  -0.02730   0.03844   0.11837
  23        2PY        -0.00006  -0.00028  -0.04624   0.06797  -0.07276
  24        2PZ        -0.00000   0.00000  -0.00097  -0.00193   0.00016
  25        3S          0.01346  -0.00537   0.36780   0.29910   0.00071
  26        3PX        -0.00010   0.00075  -0.03424   0.06207   0.18509
  27        3PY        -0.00015   0.00129  -0.05783   0.10931  -0.11301
  28        3PZ        -0.00003  -0.00000  -0.00168  -0.00346   0.00024
  29        4S         -0.01100   0.00998   0.18895   0.23690  -0.00021
  30        4PX         0.00060  -0.00201  -0.00543   0.02706   0.10172
  31        4PY         0.00100  -0.00349  -0.00896   0.04646  -0.06138
  32        4PZ         0.00006  -0.00002  -0.00069  -0.00177   0.00012
  33 5   H  1S         -0.00007  -0.00003   0.05023   0.09403  -0.08937
  34        2S         -0.00006  -0.00031   0.05122   0.11185  -0.11242
  35        3S          0.00182  -0.00011  -0.00103   0.01679  -0.03605
  36 6   H  1S         -0.00006  -0.00003   0.04926   0.09281   0.08588
  37        2S         -0.00007  -0.00032   0.05070   0.11073   0.10833
  38        3S          0.00178  -0.00010  -0.00108   0.01635   0.03498
                           6         7         8         9        10
                           O         O         O         V         V
     Eigenvalues --    -0.50903  -0.43702  -0.35662   0.07960   0.14106
   1 1   C  1S         -0.00314   0.00012  -0.00093   0.00251  -0.03383
   2        2S         -0.00464   0.00021  -0.00151   0.00416  -0.05429
   3        2PX         0.09547  -0.11050  -0.00310   0.00133  -0.03264
   4        2PY         0.16815   0.06584  -0.00527   0.00224  -0.06421
   5        2PZ         0.00466   0.00000   0.17938  -0.18910  -0.00243
   6        3S          0.01849  -0.00037   0.00440  -0.01260   0.11832
   7        3PX         0.13877  -0.17636  -0.00438   0.00201  -0.03870
   8        3PY         0.24564   0.10554  -0.00744   0.00335  -0.07900
   9        3PZ         0.00739   0.00003   0.28838  -0.27802  -0.00385
  10        4S         -0.05547  -0.00280   0.00645  -0.01440   1.23507
  11        4PX         0.06993  -0.10979  -0.00358   0.01143  -0.19802
  12        4PY         0.12470   0.06596  -0.00612   0.01948  -0.37967
  13        4PZ         0.00421   0.00005   0.26722  -0.69438  -0.01395
  14 2   H  1S         -0.08065  -0.11465   0.00012   0.00391  -0.01717
  15        2S         -0.11191  -0.17698   0.00181   0.00621  -0.04692
  16        3S         -0.04185  -0.08180   0.00109   0.01643  -0.83199
  17 3   H  1S         -0.07994   0.11247   0.00008   0.00392  -0.01430
  18        2S         -0.11036   0.17283   0.00177   0.00624  -0.04048
  19        3S         -0.04100   0.07958   0.00107   0.01613  -0.78583
  20 4   C  1S         -0.00897  -0.00040  -0.00074  -0.00239  -0.03585
  21        2S         -0.01407  -0.00065  -0.00121  -0.00396  -0.05758
  22        2PX        -0.09748   0.12544   0.00309   0.00155   0.03919
  23        2PY        -0.16208  -0.07404   0.00559   0.00279   0.06145
  24        2PZ         0.00496   0.00015   0.17905   0.18942  -0.00261
  25        3S          0.04503   0.00186   0.00358   0.01189   0.12696
  26        3PX        -0.14430   0.20038   0.00433   0.00240   0.04781
  27        3PY        -0.23859  -0.11758   0.00786   0.00432   0.07317
  28        3PZ         0.00783   0.00023   0.28670   0.27795  -0.00396
  29        4S         -0.02518   0.00231   0.00594   0.01303   1.23602
  30        4PX        -0.07540   0.12783   0.00334   0.01197   0.25867
  31        4PY        -0.12367  -0.07464   0.00617   0.02107   0.41709
  32        4PZ         0.00453   0.00014   0.26765   0.69544  -0.01574
  33 5   H  1S         -0.07416  -0.12538   0.00021  -0.00365  -0.01183
  34        2S         -0.10098  -0.19496   0.00197  -0.00602  -0.03791
  35        3S         -0.03775  -0.09146   0.00109  -0.01552  -0.82632
  36 6   H  1S         -0.07929   0.12459   0.00016  -0.00365  -0.01444
  37        2S         -0.10830   0.19456   0.00191  -0.00611  -0.04467
  38        3S         -0.04060   0.09133   0.00105  -0.01580  -0.87292
                          11        12        13        14        15
                           V         V         V         V         V
     Eigenvalues --     0.16504   0.17040   0.24085   0.37245   0.39403
   1 1   C  1S          0.00044  -0.04527   0.00011   0.00918   0.00051
   2        2S          0.00071  -0.07379   0.00016   0.01242   0.00071
   3        2PX         0.09695  -0.02035   0.09952  -0.03614  -0.02291
   4        2PY        -0.05490  -0.03615  -0.05700  -0.06504   0.01141
   5        2PZ         0.00003  -0.00604   0.00002  -0.00426  -0.00015
   6        3S         -0.00147   0.16693   0.00018   0.03368   0.00217
   7        3PX         0.13871  -0.01226   0.10514  -0.04462  -0.10286
   8        3PY        -0.07908  -0.02291  -0.06102  -0.08454   0.05573
   9        3PZ         0.00004  -0.00837  -0.00001  -0.00875  -0.00025
  10        4S         -0.02690   1.42669  -0.02322  -2.51290  -0.12232
  11        4PX         0.58400  -0.11719   1.16626  -1.54127  -0.52850
  12        4PY        -0.32311  -0.20018  -0.67094  -2.68062   0.15989
  13        4PZ         0.00033  -0.03956   0.00059  -0.03864  -0.00208
  14 2   H  1S         -0.02923  -0.02530   0.01379  -0.05950   0.07502
  15        2S         -0.08052  -0.01786  -0.02502  -0.67479   0.75856
  16        3S         -1.05182  -0.99216  -1.53802  -0.29347  -0.31304
  17 3   H  1S          0.02808  -0.02547  -0.01558  -0.05350  -0.07671
  18        2S          0.07897  -0.02080   0.01965  -0.62593  -0.77533
  19        3S          1.08500  -1.01140   1.56703  -0.35805   0.25936
  20 4   C  1S          0.00126   0.04256  -0.00012  -0.01993  -0.00019
  21        2S          0.00203   0.06928  -0.00021  -0.03280  -0.00028
  22        2PX         0.10079  -0.02427  -0.10048  -0.04034  -0.03123
  23        2PY        -0.06055  -0.03745   0.05763  -0.07215   0.01350
  24        2PZ         0.00018   0.00592  -0.00001   0.00303   0.00023
  25        3S         -0.00414  -0.15340   0.00027   0.04444  -0.00018
  26        3PX         0.14466  -0.01953  -0.11411  -0.09256  -0.11109
  27        3PY        -0.08587  -0.02703   0.06443  -0.16787   0.05485
  28        3PZ         0.00025   0.00815   0.00001   0.00359   0.00044
  29        4S         -0.05454  -1.35525   0.01499   3.24414   0.12679
  30        4PX         0.53681  -0.12629  -1.12859  -1.13164  -0.53933
  31        4PY        -0.32656  -0.19849   0.64980  -1.98887   0.16543
  32        4PZ         0.00112   0.03863  -0.00056   0.03155   0.00173
  33 5   H  1S          0.03115   0.02415   0.00600   0.00789  -0.08197
  34        2S          0.06729   0.02015  -0.03454   0.03417  -0.81692
  35        3S          1.07779   0.93888  -1.53679   0.44818   0.46575
  36 6   H  1S         -0.03092   0.02518  -0.00505   0.00299   0.08685
  37        2S         -0.06753   0.02045   0.03534  -0.00704   0.87696
  38        3S         -1.00380   0.96725   1.52028   0.46268  -0.44927
                          16        17        18        19        20
                           V         V         V         V         V
     Eigenvalues --     0.39954   0.46481   0.48875   0.49396   0.59100
   1 1   C  1S         -0.01896   0.01164   0.04672  -0.00053  -0.00052
   2        2S         -0.03317   0.02758   0.07825  -0.00065  -0.00093
   3        2PX         0.02901  -0.06118  -0.01304   0.00117   0.00189
   4        2PY         0.05174  -0.10582  -0.01749   0.00169   0.00286
   5        2PZ         0.00041  -0.00041  -0.00539  -0.15196  -0.19239
   6        3S          0.07469  -0.33537  -0.09848  -0.00792  -0.00044
   7        3PX         0.10777  -0.24208   0.03033   0.00027   0.00628
   8        3PY         0.19607  -0.41676   0.06281  -0.00051   0.00962
   9        3PZ        -0.00319  -0.00387  -0.02420  -0.62861  -0.68439
  10        4S          2.77990   0.19262  -3.08967   0.09589   0.06315
  11        4PX         0.31065   0.25371  -0.81130   0.03007   0.02005
  12        4PY         0.54915   0.47120  -1.41613   0.05392   0.03428
  13        4PZ        -0.00055   0.00048   0.08417   0.68574   1.23981
  14 2   H  1S         -0.02680  -0.03460   0.07529  -0.00275  -0.00155
  15        2S         -0.53764  -0.33364   0.89537  -0.02692  -0.01161
  16        3S          0.33431   0.08202  -0.64345   0.03073   0.02141
  17 3   H  1S         -0.03057  -0.03695   0.07328  -0.00270  -0.00147
  18        2S         -0.56785  -0.36210   0.87499  -0.02663  -0.01012
  19        3S          0.33714   0.08345  -0.61202   0.02976   0.02090
  20 4   C  1S          0.00020  -0.00195  -0.05086   0.00302   0.00064
  21        2S         -0.00328   0.00438  -0.08841   0.00546   0.00119
  22        2PX         0.01019   0.05475  -0.02679   0.00014   0.00190
  23        2PY         0.01878   0.09536  -0.04893   0.00023   0.00361
  24        2PZ        -0.00348  -0.00162  -0.00545  -0.15261   0.19223
  25        3S          0.07782  -0.28925   0.22619  -0.02047  -0.00219
  26        3PX        -0.03884   0.23500  -0.05300   0.00013   0.00669
  27        3PY        -0.06203   0.41156  -0.09551  -0.00009   0.01252
  28        3PZ        -0.00973  -0.00665  -0.02050  -0.63126   0.68255
  29        4S         -0.98334   0.71499   3.12941  -0.11696  -0.05617
  30        4PX         1.30861  -0.32282  -0.61215   0.01654   0.01909
  31        4PY         2.33087  -0.53333  -1.03797   0.02758   0.03336
  32        4PZ        -0.03153  -0.01502  -0.03001   0.69350  -1.23745
  33 5   H  1S         -0.04504  -0.06345  -0.06473   0.00248   0.00143
  34        2S         -0.82256  -0.65471  -0.82453   0.03680   0.00566
  35        3S         -0.23061   0.25608   0.54280  -0.01138  -0.02081
  36 6   H  1S         -0.04083  -0.06187  -0.06526   0.00253   0.00148
  37        2S         -0.77290  -0.63239  -0.82234   0.03663   0.00643
  38        3S         -0.23896   0.26592   0.56202  -0.01243  -0.02099
                          21        22        23        24        25
                           V         V         V         V         V
     Eigenvalues --     0.66602   0.69185   0.77336   0.77528   0.84286
   1 1   C  1S          0.00062  -0.00049   0.04750   0.07521   0.00087
   2        2S          0.00128  -0.00110   0.10019   0.16032   0.00196
   3        2PX        -0.13679   0.19545  -0.03121   0.11185  -0.00895
   4        2PY         0.07996  -0.11657  -0.05403   0.18382   0.01105
   5        2PZ        -0.00006   0.00014   0.00036   0.00442   0.00012
   6        3S         -0.01041   0.01425  -0.66151  -1.37698  -0.01865
   7        3PX        -0.62943   0.68316  -0.19564   0.43065  -0.22761
   8        3PY         0.36490  -0.40709  -0.33896   0.70034   0.15430
   9        3PZ        -0.00031   0.00055   0.00149   0.01545   0.00050
  10        4S          0.02181  -0.06783   0.61518   2.47641  -0.05088
  11        4PX         1.08970  -0.78379   0.18401  -0.71603   4.51555
  12        4PY        -0.63242   0.46573   0.27859  -1.01143  -2.60607
  13        4PZ         0.00024   0.00070   0.01074  -0.04938   0.00243
  14 2   H  1S          0.02491  -0.05813   0.00855   0.03318  -0.02742
  15        2S          0.15383  -0.62384   0.07419   0.09003  -1.58311
  16        3S         -1.05981   1.08256  -0.03368  -1.11503  -1.22834
  17 3   H  1S         -0.02442   0.05769   0.00841   0.03391   0.03002
  18        2S         -0.16618   0.65265   0.08718   0.07022   1.61717
  19        3S          1.05156  -1.05670  -0.02503  -1.23060   1.23141
  20 4   C  1S          0.00084  -0.00053   0.08260   0.03558   0.00076
  21        2S          0.00169  -0.00103   0.17589   0.07492   0.00160
  22        2PX        -0.14752  -0.18805  -0.10032   0.04828   0.00810
  23        2PY         0.08469   0.10546  -0.17856   0.08795  -0.00001
  24        2PZ        -0.00004  -0.00016   0.00472  -0.00075  -0.00012
  25        3S         -0.01157   0.00217  -1.47551  -0.45301  -0.01061
  26        3PX        -0.67172  -0.64217  -0.37031   0.26378   0.22459
  27        3PY         0.38746   0.35804  -0.66180   0.47684  -0.10499
  28        3PZ        -0.00023  -0.00055   0.01671  -0.00298  -0.00040
  29        4S          0.00637   0.03887   2.66094   0.26098   0.03504
  30        4PX         1.28125   0.78750   0.55871  -0.24805  -4.17490
  31        4PY        -0.73269  -0.44529   1.04253  -0.61452   2.36141
  32        4PZ         0.00050  -0.00038  -0.04864   0.02096  -0.00177
  33 5   H  1S         -0.02417  -0.05560   0.03408   0.00459  -0.02327
  34        2S         -0.12954  -0.55967   0.08068   0.07352  -1.41475
  35        3S          1.10366   1.01918  -1.16880   0.23425  -1.10170
  36 6   H  1S          0.02465   0.05525   0.03379   0.00525   0.02362
  37        2S          0.12706   0.53398   0.08073   0.03148   1.40631
  38        3S         -1.10614  -1.02634  -1.12311   0.17831   1.10783
                          26        27        28        29        30
                           V         V         V         V         V
     Eigenvalues --     0.95113   2.23122   2.29092   2.33262   2.40721
   1 1   C  1S          0.09590  -0.00996  -0.01452   0.00029  -0.00039
   2        2S          0.19928   0.00175  -0.01429   0.00071  -0.00041
   3        2PX        -0.09092  -0.07739  -0.13263   0.34871  -0.40575
   4        2PY        -0.15761  -0.14297  -0.22937  -0.19956   0.23231
   5        2PZ         0.00019  -0.01208  -0.01680  -0.00004  -0.00052
   6        3S         -1.54534  -0.18602  -0.03921  -0.00168  -0.00413
   7        3PX        -0.23107   0.07375   0.20949  -0.41929   0.56595
   8        3PY        -0.39434   0.14828   0.37430   0.24210  -0.32645
   9        3PZ        -0.00221   0.01211   0.02091   0.00013   0.00060
  10        4S          5.71392  -0.10071  -0.88347  -0.00024  -0.02531
  11        4PX         1.19057   0.05356  -0.19361  -0.05997   0.98145
  12        4PY         1.99236   0.06884  -0.35535   0.02679  -0.55268
  13        4PZ        -0.01746   0.00254   0.00748  -0.00023   0.00106
  14 2   H  1S          0.01548  -0.70284  -0.79836  -0.71281   0.64743
  15        2S         -0.28605   0.99689   1.19556   1.10476  -1.45538
  16        3S         -0.09572  -0.29991  -0.47520  -0.47048   0.36048
  17 3   H  1S          0.01562  -0.69601  -0.79932   0.70197  -0.66602
  18        2S         -0.26268   0.98942   1.19917  -1.09236   1.49398
  19        3S         -0.08388  -0.28027  -0.46413   0.45898  -0.35456
  20 4   C  1S         -0.09389  -0.01078   0.01246   0.00034   0.00021
  21        2S         -0.19471  -0.00062   0.01271   0.00047   0.00036
  22        2PX        -0.09210   0.13590  -0.12176   0.30108   0.41895
  23        2PY        -0.15886   0.23719  -0.20470  -0.17413  -0.23901
  24        2PZ         0.00029  -0.01359   0.01605   0.00024   0.00020
  25        3S          1.50535  -0.16623   0.01702   0.00019  -0.00018
  26        3PX        -0.22608  -0.17206   0.20802  -0.37324  -0.58638
  27        3PY        -0.39421  -0.29724   0.34530   0.21413   0.33417
  28        3PZ         0.00336   0.01454  -0.02044  -0.00026  -0.00029
  29        4S         -5.69189  -0.18282   0.89351   0.01306   0.01029
  30        4PX         1.11098  -0.01710  -0.19187   0.11351  -0.86582
  31        4PY         1.97511  -0.03415  -0.31662  -0.06557   0.49931
  32        4PZ         0.01141   0.00459  -0.00595  -0.00008  -0.00082
  33 5   H  1S         -0.01772  -0.79360   0.67039   0.69997   0.69240
  34        2S          0.29284   1.15434  -1.02469  -1.01297  -1.46904
  35        3S          0.06663  -0.35592   0.39785   0.50640   0.42860
  36 6   H  1S         -0.01771  -0.78733   0.69100  -0.68701  -0.69069
  37        2S          0.31040   1.14396  -1.05275   0.99139   1.46149
  38        3S          0.07109  -0.35521   0.41991  -0.50195  -0.43277
                          31        32        33        34        35
                           V         V         V         V         V
     Eigenvalues --     2.67107   2.81788   2.87810   2.95204   3.14028
   1 1   C  1S          0.00046   0.00234  -0.01342   0.00002  -0.00980
   2        2S          0.00036   0.00672  -0.04403  -0.00018  -0.02991
   3        2PX         0.00449   0.06740  -0.47698  -0.72813   0.44313
   4        2PY         0.00714   0.11816  -0.85528   0.40556   0.77905
   5        2PZ        -0.92496  -0.93084  -0.12796  -0.00103   0.00564
   6        3S         -0.00144  -0.05542   0.38490   0.00323   0.25068
   7        3PX        -0.00324  -0.11649   0.84056   0.87644  -0.42256
   8        3PY        -0.00517  -0.20277   1.48393  -0.47616  -0.74363
   9        3PZ         0.94043   1.13772   0.16052   0.00141  -0.00726
  10        4S          0.01191   0.12940  -0.87294  -0.01143  -0.49135
  11        4PX        -0.00187   0.09354  -0.71575  -0.67196   0.20798
  12        4PY        -0.00252   0.16324  -1.26658   0.35729   0.36741
  13        4PZ        -0.33859  -0.61606  -0.10154  -0.00113   0.00422
  14 2   H  1S          0.01111  -0.01797   0.26076  -0.37487  -0.21364
  15        2S         -0.01265   0.01095  -0.21615   0.38977   0.16240
  16        3S         -0.00266   0.03779  -0.29939   0.27356   0.05654
  17 3   H  1S          0.01121  -0.01728   0.25015   0.37782  -0.21044
  18        2S         -0.01294   0.00950  -0.19778  -0.38842   0.15843
  19        3S         -0.00310   0.03837  -0.30153  -0.28989   0.06033
  20 4   C  1S          0.00047  -0.00227   0.01349   0.00047  -0.00746
  21        2S          0.00046  -0.00705   0.04768   0.00116  -0.02286
  22        2PX        -0.00691   0.05939  -0.40306  -0.80726  -0.50773
  23        2PY        -0.01239   0.10598  -0.72193   0.45052  -0.89644
  24        2PZ        -0.92444   0.93074   0.13137   0.00050   0.01254
  25        3S         -0.00261   0.06049  -0.42912  -0.00926   0.19472
  26        3PX         0.00715  -0.10841   0.76436   0.96560   0.54775
  27        3PY         0.01266  -0.19188   1.35566  -0.53041   0.97381
  28        3PZ         0.93994  -1.13744  -0.16551  -0.00063  -0.01590
  29        4S          0.01430  -0.13133   0.89649   0.02570  -0.36890
  30        4PX        -0.00075   0.09250  -0.70668  -0.70072  -0.33602
  31        4PY        -0.00177   0.16244  -1.23973   0.37760  -0.60187
  32        4PZ        -0.33833   0.61550   0.10560   0.00042   0.01247
  33 5   H  1S          0.01047   0.02505  -0.29277   0.41959  -0.26561
  34        2S         -0.01291  -0.02028   0.26629  -0.42798   0.20859
  35        3S         -0.00131  -0.03551   0.28471  -0.24790   0.12843
  36 6   H  1S          0.01060   0.02537  -0.29068  -0.42826  -0.25696
  37        2S         -0.01337  -0.02117   0.26954   0.43612   0.20135
  38        3S         -0.00103  -0.03380   0.27031   0.25066   0.12382
                          36        37        38
                           V         V         V
     Eigenvalues --     3.32075  23.35314  23.70531
   1 1   C  1S         -0.00042  -1.41671  -1.44964
   2        2S         -0.00066   1.51097   1.56759
   3        2PX         0.78667  -0.00652   0.01212
   4        2PY        -0.44190  -0.01070   0.02132
   5        2PZ         0.00067  -0.00050  -0.00023
   6        3S          0.00150  -0.29708  -0.39858
   7        3PX        -1.12301   0.02373  -0.05542
   8        3PY         0.62908   0.03948  -0.09662
   9        3PZ        -0.00103   0.00141   0.00069
  10        4S         -0.01856   0.27671   0.76650
  11        4PX         1.97055  -0.02520   0.13240
  12        4PY        -1.10906  -0.04259   0.22938
  13        4PZ         0.00171  -0.00237  -0.00282
  14 2   H  1S          0.56284   0.01312   0.00710
  15        2S         -0.87711   0.00764  -0.01454
  16        3S         -0.46632  -0.08420  -0.03938
  17 3   H  1S         -0.57319   0.01465   0.00825
  18        2S          0.89162   0.00726  -0.01496
  19        3S          0.48668  -0.08603  -0.03995
  20 4   C  1S          0.00011  -1.44487   1.42142
  21        2S         -0.00006   1.54103  -1.53711
  22        2PX        -0.70901   0.00625   0.01263
  23        2PY         0.40308   0.01114   0.02149
  24        2PZ        -0.00047  -0.00051   0.00013
  25        3S          0.00264  -0.30242   0.39062
  26        3PX         1.01135  -0.02276  -0.05628
  27        3PY        -0.58157  -0.04030  -0.09663
  28        3PZ         0.00072   0.00147  -0.00031
  29        4S         -0.00561   0.27792  -0.75946
  30        4PX        -1.78453   0.02421   0.13093
  31        4PY         1.03107   0.04406   0.22558
  32        4PZ        -0.00125  -0.00237   0.00201
  33 5   H  1S          0.48436   0.01363  -0.00502
  34        2S         -0.75504   0.00793   0.01405
  35        3S         -0.43193  -0.08317   0.03793
  36 6   H  1S         -0.48168   0.01262  -0.00409
  37        2S          0.75238   0.00895   0.01345
  38        3S          0.42621  -0.08190   0.03708
     Density Matrix:
                           1         2         3         4         5
   1 1   C  1S          0.65940
   2        2S          0.56149   0.49197
   3        2PX        -0.00052  -0.00068   0.08426
   4        2PY        -0.00123  -0.00170   0.00360   0.08769
   5        2PZ         0.00008   0.00012  -0.00012  -0.00025   0.06440
   6        3S         -0.08891  -0.15379   0.00265   0.00610  -0.00018
   7        3PX         0.00087   0.00134   0.13048   0.00113  -0.00009
   8        3PY         0.00122   0.00188   0.00114   0.13114  -0.00023
   9        3PZ         0.00016   0.00027  -0.00020  -0.00040   0.10354
  10        4S         -0.07940  -0.11436  -0.01572  -0.02814   0.00054
  11        4PX         0.00026   0.00157   0.07013  -0.00445  -0.00053
  12        4PY         0.00061   0.00301  -0.00447   0.06542  -0.00093
  13        4PZ        -0.00010  -0.00024  -0.00076  -0.00129   0.09591
  14 2   H  1S         -0.02061  -0.03282   0.03475  -0.06303  -0.00111
  15        2S         -0.02297  -0.03672   0.04884  -0.08786  -0.00085
  16        3S          0.00054  -0.00075   0.02046  -0.03308  -0.00003
  17 3   H  1S         -0.02104  -0.03349  -0.07267  -0.00190  -0.00119
  18        2S         -0.02324  -0.03712  -0.10049  -0.00216  -0.00094
  19        3S          0.00058  -0.00072  -0.03835   0.00106  -0.00006
  20 4   C  1S          0.00605   0.00975  -0.01086  -0.01878  -0.00038
  21        2S          0.00971   0.01518  -0.01739  -0.03007  -0.00062
  22        2PX         0.01032   0.01649  -0.01253  -0.03206   0.00044
  23        2PY         0.01799   0.02877  -0.03215  -0.04971   0.00082
  24        2PZ        -0.00045  -0.00073  -0.00034  -0.00054   0.06427
  25        3S         -0.02611  -0.03964   0.04878   0.08442   0.00187
  26        3PX         0.01592   0.02465  -0.01839  -0.04582   0.00057
  27        3PY         0.02773   0.04297  -0.04586  -0.07138   0.00108
  28        3PZ        -0.00076  -0.00122  -0.00060  -0.00096   0.10292
  29        4S          0.00535   0.00394   0.02128   0.03710   0.00227
  30        4PX         0.00306   0.00633  -0.01309  -0.02113   0.00064
  31        4PY         0.00522   0.01087  -0.02116  -0.03766   0.00123
  32        4PZ        -0.00064  -0.00104  -0.00095  -0.00157   0.09606
  33 5   H  1S          0.00419   0.00688  -0.00168  -0.01237  -0.00044
  34        2S          0.00627   0.01042   0.00356  -0.02493  -0.00000
  35        3S          0.00320   0.00468   0.00424  -0.01747   0.00009
  36 6   H  1S          0.00414   0.00680  -0.00992  -0.00768  -0.00045
  37        2S          0.00616   0.01025  -0.02342  -0.00937  -0.00002
  38        3S          0.00314   0.00460  -0.01723  -0.00506   0.00007
                           6         7         8         9        10
   6        3S          0.45246
   7        3PX        -0.00175   0.20236
   8        3PY        -0.00157  -0.00475   0.19663
   9        3PZ        -0.00053  -0.00017  -0.00035   0.16647
  10        4S          0.27356  -0.02647  -0.04803   0.00071   0.18264
  11        4PX        -0.00679   0.10911  -0.01014  -0.00086  -0.01529
  12        4PY        -0.01242  -0.01015   0.09850  -0.00150  -0.02893
  13        4PZ         0.00106  -0.00101  -0.00171   0.15420   0.00200
  14 2   H  1S          0.08775   0.05606  -0.09837  -0.00184   0.06947
  15        2S          0.09829   0.07916  -0.13664  -0.00144   0.08205
  16        3S          0.00616   0.03348  -0.05085  -0.00006   0.01130
  17 3   H  1S          0.08959  -0.11381  -0.00126  -0.00196   0.06931
  18        2S          0.09946  -0.15721  -0.00040  -0.00156   0.08070
  19        3S          0.00624  -0.05975   0.00350  -0.00009   0.01039
  20 4   C  1S         -0.02642  -0.01697  -0.02937  -0.00064   0.00508
  21        2S         -0.03998  -0.02638  -0.04568  -0.00104   0.00379
  22        2PX        -0.04617  -0.01784  -0.04545   0.00075  -0.01731
  23        2PY        -0.08056  -0.04564  -0.07084   0.00140  -0.03026
  24        2PZ         0.00217  -0.00047  -0.00072   0.10333   0.00226
  25        3S          0.10168   0.07166   0.12420   0.00312   0.00104
  26        3PX        -0.06669  -0.02633  -0.06476   0.00099  -0.02567
  27        3PY        -0.11633  -0.06492  -0.10167   0.00186  -0.04483
  28        3PZ         0.00359  -0.00083  -0.00129   0.16546   0.00375
  29        4S          0.00197   0.03221   0.05635   0.00378  -0.03215
  30        4PX        -0.02243  -0.01953  -0.02966   0.00106  -0.00623
  31        4PY        -0.03870  -0.02978  -0.05435   0.00202  -0.01034
  32        4PZ         0.00304  -0.00133  -0.00217   0.15443   0.00349
  33 5   H  1S         -0.02047  -0.00061  -0.01772  -0.00064  -0.01464
  34        2S         -0.03117   0.00866  -0.03664   0.00007  -0.01900
  35        3S         -0.01205   0.00810  -0.02628   0.00016  -0.00339
  36 6   H  1S         -0.02019  -0.01496  -0.00925  -0.00065  -0.01470
  37        2S         -0.03064  -0.03589  -0.01047   0.00005  -0.01931
  38        3S         -0.01180  -0.02664  -0.00597   0.00013  -0.00368
                          11        12        13        14        15
  11        4PX         0.05987
  12        4PY        -0.00889   0.05085
  13        4PZ        -0.00125  -0.00212   0.14286
  14 2   H  1S          0.03337  -0.05397  -0.00095   0.08121
  15        2S          0.04795  -0.07480  -0.00037   0.10946   0.14959
  16        3S          0.02076  -0.02767   0.00019   0.03659   0.05224
  17 3   H  1S         -0.06296   0.00175  -0.00100  -0.01324  -0.02464
  18        2S         -0.08734   0.00406  -0.00041  -0.02455  -0.04240
  19        3S         -0.03347   0.00426   0.00018  -0.01786  -0.02699
  20 4   C  1S         -0.00323  -0.00580  -0.00058   0.00423   0.00674
  21        2S         -0.00664  -0.01182  -0.00092   0.00699   0.01125
  22        2PX        -0.01332  -0.01990   0.00103   0.00180  -0.00272
  23        2PY        -0.01999  -0.03668   0.00188   0.01143   0.02427
  24        2PZ        -0.00069  -0.00113   0.09573  -0.00052  -0.00017
  25        3S          0.02342   0.04149   0.00271  -0.02104  -0.03384
  26        3PX        -0.02044  -0.02823   0.00140   0.00107  -0.00707
  27        3PY        -0.02834  -0.05349   0.00258   0.01704   0.03638
  28        3PZ        -0.00113  -0.00186   0.15328  -0.00077  -0.00018
  29        4S          0.00856   0.01589   0.00344  -0.01794  -0.02467
  30        4PX        -0.01477  -0.01252   0.00128  -0.00147  -0.00810
  31        4PY        -0.01257  -0.02962   0.00239   0.01538   0.02738
  32        4PZ        -0.00137  -0.00229   0.14308  -0.00044   0.00024
  33 5   H  1S          0.00205  -0.01566  -0.00032   0.01118   0.02331
  34        2S          0.00926  -0.02727   0.00044   0.02372   0.04430
  35        3S          0.00753  -0.01571   0.00030   0.01660   0.02778
  36 6   H  1S         -0.01456  -0.00578  -0.00033  -0.00907  -0.01816
  37        2S         -0.02815  -0.00515   0.00043  -0.01878  -0.03419
  38        3S         -0.01720  -0.00114   0.00029  -0.01014  -0.01767
                          16        17        18        19        20
  16        3S          0.02088
  17 3   H  1S         -0.01805   0.08229
  18        2S         -0.02712   0.10976   0.14847
  19        3S         -0.01268   0.03609   0.05107   0.02018
  20 4   C  1S          0.00373   0.00429   0.00678   0.00374   0.65948
  21        2S          0.00551   0.00709   0.01131   0.00550   0.56159
  22        2PX        -0.00346   0.00901   0.02226   0.01675   0.00112
  23        2PY         0.01770   0.00735   0.00972   0.00574   0.00178
  24        2PZ         0.00003  -0.00052  -0.00014   0.00005   0.00008
  25        3S         -0.01428  -0.02130  -0.03394  -0.01420  -0.08930
  26        3PX        -0.00688   0.01430   0.03497   0.02611  -0.00053
  27        3PY         0.02666   0.00956   0.01202   0.00726  -0.00108
  28        3PZ         0.00006  -0.00076  -0.00013   0.00011   0.00017
  29        4S         -0.00604  -0.01780  -0.02412  -0.00569  -0.08005
  30        4PX        -0.00684   0.01393   0.02747   0.01702  -0.00018
  31        4PY         0.01605   0.00657   0.00675   0.00206  -0.00020
  32        4PZ         0.00025  -0.00043   0.00027   0.00027  -0.00004
  33 5   H  1S          0.01621  -0.00908  -0.01815  -0.00940  -0.02018
  34        2S          0.02737  -0.01870  -0.03391  -0.01687  -0.02213
  35        3S          0.01460  -0.01009  -0.01748  -0.00891   0.00063
  36 6   H  1S         -0.00949   0.01118   0.02315   0.01590  -0.01999
  37        2S         -0.01716   0.02376   0.04409   0.02693  -0.02214
  38        3S         -0.00908   0.01661   0.02762   0.01437   0.00054
                          21        22        23        24        25
  21        2S          0.49210
  22        2PX         0.00161   0.08296
  23        2PY         0.00253   0.00358   0.08767
  24        2PZ         0.00012   0.00012   0.00018   0.06417
  25        3S         -0.15433  -0.00521  -0.00829  -0.00014   0.45398
  26        3PX        -0.00079   0.12889   0.00182   0.00006  -0.00003
  27        3PY        -0.00165   0.00188   0.13149   0.00007   0.00080
  28        3PZ         0.00028   0.00018   0.00028   0.10276  -0.00055
  29        4S         -0.11563   0.01337   0.02264   0.00059   0.27808
  30        4PX        -0.00142   0.07325  -0.00507   0.00042   0.00609
  31        4PY        -0.00222  -0.00504   0.06729   0.00078   0.00980
  32        4PZ        -0.00014   0.00073   0.00131   0.09590   0.00076
  33 5   H  1S         -0.03213  -0.03366   0.06375  -0.00119   0.08593
  34        2S         -0.03536  -0.05002   0.08845  -0.00092   0.09462
  35        3S         -0.00057  -0.02277   0.03342  -0.00008   0.00555
  36 6   H  1S         -0.03186   0.07150   0.00282  -0.00112   0.08520
  37        2S         -0.03539   0.10133   0.00091  -0.00082   0.09467
  38        3S         -0.00068   0.04043  -0.00312  -0.00005   0.00578
                          26        27        28        29        30
  26        3PX         0.20055
  27        3PY        -0.00250   0.19775
  28        3PZ         0.00009   0.00010   0.16454
  29        4S          0.02465   0.04158   0.00074   0.18543
  30        4PX         0.11440  -0.01048   0.00067   0.01510   0.06630
  31        4PY        -0.01052   0.10172   0.00125   0.02451  -0.01025
  32        4PZ         0.00093   0.00168   0.15356   0.00185   0.00107
  33 5   H  1S         -0.05369   0.09982  -0.00196   0.06673  -0.03451
  34        2S         -0.08021   0.13800  -0.00154   0.07660  -0.05197
  35        3S         -0.03694   0.05148  -0.00014   0.00903  -0.02409
  36 6   H  1S          0.11276   0.00372  -0.00186   0.06712   0.06577
  37        2S          0.15962  -0.00019  -0.00140   0.07794   0.09357
  38        3S          0.06338  -0.00629  -0.00009   0.00976   0.03749
                          31        32        33        34        35
  31        4PY         0.05385
  32        4PZ         0.00199   0.14333
  33 5   H  1S          0.05587  -0.00102   0.08114
  34        2S          0.07738  -0.00041   0.11014   0.15196
  35        3S          0.02901   0.00015   0.03803   0.05505   0.02276
  36 6   H  1S         -0.00179  -0.00097  -0.01243  -0.02607  -0.01998
  37        2S         -0.00615  -0.00034  -0.02617  -0.04838  -0.03161
  38        3S         -0.00633   0.00017  -0.02016  -0.03172  -0.01560
                          36        37        38
  36 6   H  1S          0.08045
  37        2S          0.10981   0.15231
  38        3S          0.03813   0.05542   0.02297
    Full Mulliken population analysis:
                           1         2         3         4         5
   1 1   C  1S          0.65940
   2        2S          0.49324   0.49197
   3        2PX         0.00000   0.00000   0.08426
   4        2PY         0.00000   0.00000   0.00000   0.08769
   5        2PZ         0.00000   0.00000   0.00000   0.00000   0.06440
   6        3S         -0.02927  -0.06441   0.00000   0.00000   0.00000
   7        3PX         0.00000   0.00000   0.08208   0.00000   0.00000
   8        3PY         0.00000   0.00000   0.00000   0.08250   0.00000
   9        3PZ         0.00000   0.00000   0.00000   0.00000   0.06514
  10        4S         -0.01221  -0.02140   0.00000   0.00000   0.00000
  11        4PX         0.00000   0.00000   0.01545   0.00000   0.00000
  12        4PY         0.00000   0.00000   0.00000   0.01441   0.00000
  13        4PZ         0.00000   0.00000   0.00000   0.00000   0.02112
  14 2   H  1S         -0.00023  -0.00033   0.00182   0.00560   0.00000
  15        2S         -0.00167  -0.00320   0.00431   0.01317   0.00000
  16        3S          0.00004  -0.00007   0.00069   0.00190   0.00000
  17 3   H  1S         -0.00025  -0.00036   0.00784  -0.00000   0.00000
  18        2S         -0.00173  -0.00332   0.01771  -0.00000   0.00000
  19        3S          0.00005  -0.00007   0.00255   0.00000   0.00000
  20 4   C  1S          0.00000   0.00000  -0.00002  -0.00006   0.00000
  21        2S          0.00000  -0.00000  -0.00002  -0.00005   0.00000
  22        2PX        -0.00002  -0.00002   0.00011   0.00085   0.00000
  23        2PY        -0.00006  -0.00005   0.00085   0.00195   0.00000
  24        2PZ        -0.00000  -0.00000  -0.00000  -0.00000   0.00041
  25        3S         -0.00058  -0.00098   0.00254   0.00760  -0.00000
  26        3PX        -0.00054  -0.00098   0.00019   0.00553   0.00000
  27        3PY        -0.00162  -0.00297   0.00553   0.01069   0.00000
  28        3PZ        -0.00000  -0.00000  -0.00000  -0.00000   0.00608
  29        4S          0.00034   0.00030   0.00097   0.00291  -0.00000
  30        4PX        -0.00018  -0.00045  -0.00071   0.00146   0.00000
  31        4PY        -0.00053  -0.00134   0.00147   0.00098   0.00000
  32        4PZ        -0.00000  -0.00000  -0.00000  -0.00000   0.00902
  33 5   H  1S          0.00000   0.00000  -0.00000  -0.00000   0.00000
  34        2S          0.00001   0.00002   0.00000  -0.00032   0.00000
  35        3S          0.00007   0.00013   0.00001  -0.00070  -0.00000
  36 6   H  1S          0.00000   0.00000  -0.00000  -0.00000   0.00000
  37        2S          0.00001   0.00002  -0.00024  -0.00007   0.00000
  38        3S          0.00007   0.00013  -0.00056  -0.00012  -0.00000
                           6         7         8         9        10
   6        3S          0.45246
   7        3PX         0.00000   0.20236
   8        3PY         0.00000   0.00000   0.19663
   9        3PZ         0.00000   0.00000   0.00000   0.16647
  10        4S          0.21193   0.00000   0.00000   0.00000   0.18264
  11        4PX         0.00000   0.07130   0.00000   0.00000   0.00000
  12        4PY         0.00000   0.00000   0.06437   0.00000   0.00000
  13        4PZ         0.00000   0.00000   0.00000   0.10076   0.00000
  14 2   H  1S          0.01609   0.01082   0.03226   0.00002   0.01836
  15        2S          0.04133   0.01960   0.05748   0.00002   0.04727
  16        3S          0.00284   0.00395   0.01020   0.00000   0.00852
  17 3   H  1S          0.01691   0.04415  -0.00000   0.00002   0.01852
  18        2S          0.04250   0.07723  -0.00000   0.00002   0.04688
  19        3S          0.00289   0.01387   0.00000   0.00000   0.00788
  20 4   C  1S         -0.00059  -0.00057  -0.00171   0.00000   0.00032
  21        2S         -0.00099  -0.00105  -0.00315   0.00000   0.00029
  22        2PX         0.00240   0.00019   0.00548   0.00000   0.00079
  23        2PY         0.00726   0.00551   0.01061   0.00000   0.00238
  24        2PZ         0.00000  -0.00000  -0.00000   0.00611   0.00000
  25        3S          0.02162   0.01341   0.04024  -0.00000   0.00039
  26        3PX         0.01248  -0.00126   0.01846   0.00000   0.00396
  27        3PY         0.03769   0.01851   0.02858   0.00000   0.01196
  28        3PZ         0.00000  -0.00000  -0.00000   0.03518   0.00000
  29        4S          0.00074   0.00496   0.01504  -0.00000  -0.02017
  30        4PX         0.00630  -0.00400   0.00588   0.00000   0.00189
  31        4PY         0.01882   0.00590   0.00130   0.00000   0.00542
  32        4PZ         0.00000  -0.00000  -0.00000   0.04928   0.00000
  33 5   H  1S         -0.00005  -0.00000  -0.00019   0.00000  -0.00078
  34        2S         -0.00121   0.00006  -0.00322  -0.00000  -0.00319
  35        3S         -0.00197   0.00011  -0.00424  -0.00000  -0.00122
  36 6   H  1S         -0.00005  -0.00013  -0.00005   0.00000  -0.00077
  37        2S         -0.00116  -0.00254  -0.00052  -0.00000  -0.00320
  38        3S         -0.00190  -0.00351  -0.00055  -0.00000  -0.00132
                          11        12        13        14        15
  11        4PX         0.05987
  12        4PY         0.00000   0.05085
  13        4PZ         0.00000   0.00000   0.14286
  14 2   H  1S          0.00634   0.01741   0.00001   0.08121
  15        2S          0.01533   0.04061   0.00001   0.07732   0.14959
  16        3S          0.00520   0.01177  -0.00000   0.01367   0.04122
  17 3   H  1S          0.02359   0.00000   0.00001  -0.00001  -0.00063
  18        2S          0.05495   0.00000   0.00001  -0.00063  -0.00523
  19        3S          0.01645   0.00000  -0.00000  -0.00197  -0.00781
  20 4   C  1S         -0.00019  -0.00058   0.00000   0.00000   0.00002
  21        2S         -0.00047  -0.00145   0.00000   0.00000   0.00003
  22        2PX        -0.00072   0.00138   0.00000  -0.00000   0.00000
  23        2PY         0.00139   0.00096   0.00000  -0.00000  -0.00036
  24        2PZ        -0.00000  -0.00000   0.00899   0.00000   0.00000
  25        3S          0.00658   0.02017  -0.00000  -0.00007  -0.00150
  26        3PX        -0.00418   0.00559   0.00000  -0.00000   0.00004
  27        3PY         0.00561   0.00128   0.00000  -0.00023  -0.00358
  28        3PZ        -0.00000  -0.00000   0.04892   0.00000   0.00000
  29        4S          0.00259   0.00834  -0.00000  -0.00105  -0.00444
  30        4PX        -0.00710   0.00317   0.00000   0.00001   0.00016
  31        4PY         0.00318  -0.00559   0.00000  -0.00244  -0.01033
  32        4PZ        -0.00000  -0.00000   0.08976   0.00000  -0.00000
  33 5   H  1S          0.00003  -0.00232   0.00000   0.00000   0.00000
  34        2S          0.00028  -0.00979  -0.00000   0.00000   0.00016
  35        3S          0.00029  -0.00725  -0.00000   0.00023   0.00147
  36 6   H  1S         -0.00176  -0.00048   0.00000  -0.00000  -0.00004
  37        2S         -0.00825  -0.00105  -0.00000  -0.00004  -0.00091
  38        3S         -0.00652  -0.00030  -0.00000  -0.00046  -0.00245
                          16        17        18        19        20
  16        3S          0.02088
  17 3   H  1S         -0.00199   0.08229
  18        2S         -0.00784   0.07753   0.14847
  19        3S         -0.00656   0.01349   0.04029   0.02018
  20 4   C  1S          0.00009   0.00000   0.00002   0.00009   0.65948
  21        2S          0.00016   0.00000   0.00003   0.00016   0.49332
  22        2PX         0.00001  -0.00000  -0.00028  -0.00059   0.00000
  23        2PY        -0.00074  -0.00000  -0.00008  -0.00013   0.00000
  24        2PZ        -0.00000   0.00000   0.00000  -0.00000   0.00000
  25        3S         -0.00247  -0.00007  -0.00152  -0.00247  -0.02940
  26        3PX         0.00006  -0.00016  -0.00291  -0.00367   0.00000
  27        3PY        -0.00447  -0.00007  -0.00066  -0.00067   0.00000
  28        3PZ        -0.00000   0.00000   0.00000  -0.00000   0.00000
  29        4S         -0.00227  -0.00105  -0.00437  -0.00215  -0.01231
  30        4PX         0.00017  -0.00186  -0.00870  -0.00673   0.00000
  31        4PY        -0.00757  -0.00058  -0.00141  -0.00054   0.00000
  32        4PZ        -0.00000   0.00000  -0.00000  -0.00000   0.00000
  33 5   H  1S          0.00023  -0.00000  -0.00004  -0.00043  -0.00022
  34        2S          0.00144  -0.00004  -0.00092  -0.00237  -0.00160
  35        3S          0.00247  -0.00046  -0.00245  -0.00286   0.00005
  36 6   H  1S         -0.00043   0.00000   0.00000   0.00022  -0.00021
  37        2S         -0.00238   0.00000   0.00016   0.00142  -0.00157
  38        3S         -0.00290   0.00023   0.00145   0.00242   0.00004
                          21        22        23        24        25
  21        2S          0.49210
  22        2PX         0.00000   0.08296
  23        2PY         0.00000   0.00000   0.08767
  24        2PZ         0.00000   0.00000   0.00000   0.06417
  25        3S         -0.06463   0.00000   0.00000   0.00000   0.45398
  26        3PX         0.00000   0.08109   0.00000   0.00000   0.00000
  27        3PY         0.00000   0.00000   0.08272   0.00000   0.00000
  28        3PZ         0.00000   0.00000   0.00000   0.06465   0.00000
  29        4S         -0.02164   0.00000   0.00000   0.00000   0.21543
  30        4PX         0.00000   0.01613   0.00000   0.00000   0.00000
  31        4PY         0.00000   0.00000   0.01482   0.00000   0.00000
  32        4PZ         0.00000   0.00000   0.00000   0.02112   0.00000
  33 5   H  1S         -0.00031   0.00152   0.00577   0.00000   0.01557
  34        2S         -0.00305   0.00387   0.01370   0.00000   0.03953
  35        3S         -0.00005   0.00068   0.00200   0.00000   0.00255
  36 6   H  1S         -0.00030   0.00701   0.00002   0.00000   0.01516
  37        2S         -0.00301   0.01736   0.00001   0.00000   0.03915
  38        3S         -0.00006   0.00270  -0.00001   0.00000   0.00264
                          26        27        28        29        30
  26        3PX         0.20055
  27        3PY         0.00000   0.19775
  28        3PZ         0.00000   0.00000   0.16454
  29        4S          0.00000   0.00000   0.00000   0.18543
  30        4PX         0.07476   0.00000   0.00000   0.00000   0.06630
  31        4PY         0.00000   0.06647   0.00000   0.00000   0.00000
  32        4PZ         0.00000   0.00000   0.10034   0.00000   0.00000
  33 5   H  1S          0.00905   0.03372   0.00002   0.01756   0.00576
  34        2S          0.01744   0.06011   0.00002   0.04399   0.01463
  35        3S          0.00384   0.01073   0.00000   0.00680   0.00532
  36 6   H  1S          0.04196   0.00009   0.00002   0.01754   0.02453
  37        2S          0.07722  -0.00001   0.00002   0.04452   0.05890
  38        3S          0.01475  -0.00010   0.00000   0.00733   0.01856
                          31        32        33        34        35
  31        4PY         0.05385
  32        4PZ         0.00000   0.14333
  33 5   H  1S          0.01870   0.00001   0.08114
  34        2S          0.04365   0.00001   0.07780   0.15196
  35        3S          0.01284  -0.00000   0.01421   0.04343   0.02276
  36 6   H  1S         -0.00004   0.00001  -0.00001  -0.00082  -0.00237
  37        2S         -0.00026   0.00001  -0.00082  -0.00676  -0.00970
  38        3S         -0.00021  -0.00000  -0.00239  -0.00974  -0.00839
                          36        37        38
  36 6   H  1S          0.08045
  37        2S          0.07757   0.15231
  38        3S          0.01425   0.04373   0.02297
     Gross orbital populations:
                           1
   1 1   C  1S          1.10436
   2        2S          0.88586
   3        2PX         0.22683
   4        2PY         0.23594
   5        2PZ         0.16620
   6        3S          0.79266
   7        3PX         0.56095
   8        3PY         0.55539
   9        3PZ         0.42302
  10        4S          0.50513
  11        4PX         0.25922
  12        4PY         0.21149
  13        4PZ         0.41243
  14 2   H  1S          0.27370
  15        2S          0.46698
  16        3S          0.08583
  17 3   H  1S          0.27702
  18        2S          0.46516
  19        3S          0.08297
  20 4   C  1S          1.10440
  21        2S          0.88584
  22        2PX         0.22289
  23        2PY         0.23615
  24        2PZ         0.16547
  25        3S          0.79289
  26        3PX         0.55327
  27        3PY         0.55710
  28        3PZ         0.41979
  29        4S          0.50536
  30        4PX         0.27422
  31        4PY         0.21657
  32        4PZ         0.41288
  33 5   H  1S          0.27352
  34        2S          0.46910
  35        3S          0.08832
  36 6   H  1S          0.27138
  37        2S          0.46993
  38        3S          0.08979
          Condensed to atoms (all electrons):
               1          2          3          4          5          6
     1  C    5.031891   0.387468   0.388297   0.602085  -0.035448  -0.034815
     2  H    0.387468   0.516097  -0.032678  -0.040760   0.005998  -0.009616
     3  H    0.388297  -0.032678   0.513569  -0.040371  -0.009578   0.005907
     4  C    0.602085  -0.040760  -0.040371   5.057867   0.384219   0.383789
     5  H   -0.035448   0.005998  -0.009578   0.384219   0.526746  -0.040993
     6  H   -0.034815  -0.009616   0.005907   0.383789  -0.040993   0.526821
 Mulliken charges:
               1
     1  C   -0.339478
     2  H    0.173491
     3  H    0.174853
     4  C   -0.346829
     5  H    0.169056
     6  H    0.168907
 Sum of Mulliken charges =   0.00000
 Mulliken charges with hydrogens summed into heavy atoms:
               1
     1  C    0.008866
     4  C   -0.008866
 Electronic spatial extent (au):  <R**2>=             83.6913
 Charge=              0.0000 electrons
 Dipole moment (field-independent basis, Debye):
    X=              0.0058    Y=              0.0260    Z=             -0.0976  Tot=              0.1012
 Quadrupole moment (field-independent basis, Debye-Ang):
   XX=            -12.1999   YY=            -12.2187   ZZ=            -15.6688
   XY=              0.0090   XZ=             -0.0009   YZ=             -0.0036
 Traceless Quadrupole moment (field-independent basis, Debye-Ang):
   XX=              1.1626   YY=              1.1437   ZZ=             -2.3063
   XY=              0.0090   XZ=             -0.0009   YZ=             -0.0036
 Octapole moment (field-independent basis, Debye-Ang**2):
  XXX=             -0.3429  YYY=             -0.0279  ZZZ=             -0.0594  XYY=              0.2320
  XXY=             -0.0126  XXZ=             -0.1305  XZZ=             -0.0801  YZZ=             -0.0747
  YYZ=             -0.1720  XYZ=             -0.0360
 Hexadecapole moment (field-independent basis, Debye-Ang**3):
 XXXX=            -34.2504 YYYY=            -55.2026 ZZZZ=            -17.8121 XXXY=             -7.2579
 XXXZ=              0.0179 YYYX=            -10.7053 YYYZ=              0.0235 ZZZX=              0.0227
 ZZZY=              0.0405 XXYY=            -16.1827 XXZZ=             -9.9160 YYZZ=            -13.6377
 XXYZ=              0.0082 YYXZ=             -0.0002 ZZXY=             -3.2027
 N-N= 3.307362316591D+01 E-N=-2.478607387717D+02  KE= 7.815623514526D+01
 Orbital energies and kinetic energies (alpha):
                                 1                 2
   1         O               -10.289716         15.977438
   2         O               -10.288254         15.980870
   3         O                -0.863685          1.536912
   4         O                -0.672647          1.272394
   5         O                -0.559720          0.942254
   6         O                -0.509030          1.285075
   7         O                -0.437016          1.045125
   8         O                -0.356620          1.038050
   9         V                 0.079600          1.182183
  10         V                 0.141063          0.588240
  11         V                 0.165035          0.592827
  12         V                 0.170400          0.678740
  13         V                 0.240854          0.582203
  14         V                 0.372447          0.850392
  15         V                 0.394034          0.935010
  16         V                 0.399537          0.785466
  17         V                 0.464814          1.191597
  18         V                 0.488752          1.421817
  19         V                 0.493964          1.302345
  20         V                 0.591002          1.651862
  21         V                 0.666023          1.573103
  22         V                 0.691849          2.148147
  23         V                 0.773362          2.410856
  24         V                 0.775281          2.335395
  25         V                 0.842863          1.085077
  26         V                 0.951125          3.418943
  27         V                 2.231224          3.927932
  28         V                 2.290916          4.027773
  29         V                 2.332617          4.305717
  30         V                 2.407207          4.519973
  31         V                 2.671072          6.300656
  32         V                 2.817880          6.306236
  33         V                 2.878103          6.139004
  34         V                 2.952038          6.225619
  35         V                 3.140284          6.820657
  36         V                 3.320752          6.402721
  37         V                23.353139         60.075005
  38         V                23.705305         60.203153
 Total kinetic energy from orbitals= 7.815623514526D+01
 Calling FoFJK, ICntrl=      2127 FMM=F ISym2X=0 I1Cent= 0 IOpClX= 0 NMat=1 NMatS=1 NMatT=0.
 -------------------------------------------------------------------
 Center     Atomic                   Forces (Hartrees/Bohr)
 Number     Number              X              Y              Z
 -------------------------------------------------------------------
      1        6           0.013668223    0.010371081   -0.003916263
      2        1          -0.010012308    0.005716517    0.001969011
      3        1           0.003320181   -0.005392787    0.001815105
      4        6           0.007050353    0.007330193   -0.004209414
      5        1           0.000835146   -0.011998885    0.002126253
      6        1          -0.014861595   -0.006026119    0.002215309
 -------------------------------------------------------------------
 Cartesian Forces:  Max     0.014861595 RMS     0.007536422

 GradGradGradGradGradGradGradGradGradGradGradGradGradGradGradGradGradGrad
 Berny optimization.
 Search for a local minimum.
 Step number   1 out of a maximum of    2
 All quantities printed in internal units (Hartrees-Bohrs-Radians)
 Second derivative matrix not updated -- first step.
 The second derivative matrix:
                          X1        Y1        Z1        X2        Y2
           X1           0.75779
           Y1           0.09485   0.85528
           Z1           0.00559   0.00871   0.16977
           X2          -0.16531   0.09671   0.00208   0.14257
           Y2           0.10250  -0.28233  -0.00738  -0.11590   0.27108
           Z2           0.00329  -0.00927  -0.05466  -0.00301   0.00763
           X3          -0.35143   0.00038  -0.00797   0.00000   0.00001
           Y3          -0.00526  -0.11013  -0.00193   0.03232   0.01898
           Z3          -0.01022  -0.00185  -0.05560   0.00151   0.00057
           X4          -0.26632  -0.17735  -0.00072   0.02275   0.01338
           Y4          -0.17774  -0.47111  -0.00119  -0.01314  -0.00773
           Z4           0.00132   0.00237  -0.09390  -0.00059  -0.00082
           X5           0.02353  -0.01359   0.00063  -0.00001   0.00000
           Y5           0.01173  -0.00677   0.00084   0.00000  -0.00000
           Z5          -0.00050   0.00032   0.01737   0.00025  -0.00013
           X6           0.00174  -0.00100   0.00039  -0.00001   0.00000
           Y6          -0.02608   0.01506   0.00094   0.00000  -0.00000
           Z6           0.00052  -0.00028   0.01702  -0.00025   0.00013
                          Z2        X3        Y3        Z3        X4
           Z2           0.02841
           X3          -0.00028   0.35146
           Y3           0.00162  -0.00042   0.07576
           Z3           0.01054   0.00868   0.00127   0.02914
           X4           0.00050  -0.00002  -0.02665  -0.00049   0.71664
           Y4          -0.00027   0.00001   0.01539   0.00031   0.12041
           Z4           0.01569  -0.00043  -0.00096   0.01594  -0.00533
           X5          -0.00025  -0.00001   0.00000   0.00025  -0.14711
           Y5           0.00016   0.00000  -0.00000  -0.00016   0.09360
           Z5           0.00921   0.00025  -0.00016  -0.00934  -0.00315
           X6          -0.00025  -0.00001   0.00000   0.00026  -0.32593
           Y6           0.00013   0.00000  -0.00000  -0.00013  -0.02339
           Z6          -0.00919  -0.00025   0.00016   0.00932   0.00918
                          Y4        Z4        X5        Y5        Z5
           Y4           0.86090
           Z4          -0.01002   0.17653
           X5           0.08511  -0.00207   0.12579
           Y5          -0.29213   0.00747  -0.10425   0.28262
           Z5           0.00925  -0.05730   0.00279  -0.00795   0.02977
           X6          -0.01465   0.00710  -0.00220  -0.00109   0.00036
           Y6          -0.10533   0.00196   0.03272   0.01629  -0.00132
           Z6           0.00193  -0.05697  -0.00134  -0.00036   0.01029
                          X6        Y6        Z6
           X6           0.32640
           Y6           0.01674   0.07398
           Z6          -0.00786  -0.00159   0.02954
 ITU=  0
     Eigenvalues ---    0.03712   0.04388   0.09237   0.10049   0.13520
     Eigenvalues ---    0.17522   0.26320   0.29116   0.53034   0.70485
     Eigenvalues ---    0.97702   1.55896
 Angle between quadratic step and forces=  33.96 degrees.
 Linear search not attempted -- first point.
 B after Tr=     0.006270    0.007923   -0.010027
         Rot=    1.000000   -0.000045    0.000025   -0.000109 Ang=  -0.01 deg.
 Variable       Old X    -DE/DX   Delta X   Delta X   Delta X     New X
                                 (Linear)    (Quad)   (Total)
    X1       -0.63578   0.01367   0.00000   0.02043   0.02694  -0.60884
    Y1       -1.10082   0.01037   0.00000   0.02493   0.03272  -1.06811
    Z1        0.01240  -0.00392   0.00000  -0.02134  -0.03150  -0.01910
    X2        0.41622  -0.01001   0.00000  -0.03920  -0.03231   0.38391
    Y2       -2.88746   0.00572   0.00000   0.02275   0.03076  -2.85670
    Z2       -0.04158   0.00197   0.00000   0.02614   0.01587  -0.02571
    X3       -2.68904   0.00332   0.00000   0.02870   0.03522  -2.65382
    Y3       -1.09798  -0.00539   0.00000  -0.02379  -0.01645  -1.11443
    Z3       -0.04284   0.00182   0.00000   0.02564   0.01538  -0.02745
    X4        0.62993   0.00705   0.00000   0.00550   0.01153   0.64146
    Y4        1.09081   0.00733   0.00000   0.00789   0.01595   1.10676
    Z4        0.00911  -0.00421   0.00000  -0.02015  -0.03005  -0.02093
    X5       -0.29934   0.00084   0.00000  -0.01618  -0.01055  -0.30989
    Y5        2.95307  -0.01200   0.00000  -0.03881  -0.03096   2.92211
    Z5       -0.04793   0.00213   0.00000   0.02518   0.01540  -0.03253
    X6        2.71916  -0.01486   0.00000  -0.03685  -0.03083   2.68832
    Y6        1.22897  -0.00603   0.00000  -0.04053  -0.03202   1.19695
    Z6       -0.04669   0.00222   0.00000   0.02468   0.01489  -0.03180
         Item               Value     Threshold  Converged?
 Maximum Force            0.014862     0.000450     NO 
 RMS     Force            0.007536     0.000300     NO 
 Maximum Displacement     0.035218     0.001800     NO 
 RMS     Displacement     0.025356     0.001200     NO 
 Predicted change in Energy=-1.499608D-03
 GradGradGradGradGradGradGradGradGradGradGradGradGradGradGradGradGradGrad

 Unable to Open any file for archive entry.
 1\1\GINC-BHD0011\Force\RwB97XD\6-311G\C2H4\BWEIGHT\11-Jan-2023\0\\# WB
 97XD/6-311G SCF=XQC FORCE nosym pop=full guess=read\\MD Step 1000\\0,1
 \C,-0.33643962,-0.58253097,0.00656171\H,0.22025206,-1.52797786,-0.0220
 0365\H,-1.42297753,-0.58102724,-0.02266816\C,0.333344,0.5772329,0.0048
 2187\H,-0.15840512,1.56269622,-0.02536372\H,1.43891589,0.65034252,-0.0
 2470976\\Version=ES64L-G16RevC.01\HF=-78.5557673\RMSD=8.138e-09\RMSF=7
 .536e-03\Dipole=0.0022981,0.0102419,-0.0384022\Quadrupole=0.8643283,0.
 8503419,-1.7146703,0.0067238,-0.000642,-0.0026432\PG=C01 [X(C2H4)]\\@
 The archive entry for this job was punched.


 The theorems and results in mathematical physics are
 not theorems and results about Nature, but about our
 description of it.
                   --Gerard 't Hooft
 Job cpu time:       0 days  0 hours  0 minutes 18.7 seconds.
 Elapsed time:       0 days  0 hours  0 minutes  5.8 seconds.
 File lengths (MBytes):  RWF=    272 Int=      0 D2E=      0 Chk=     32 Scr=     32
 Normal termination of Gaussian 16 at Wed Jan 11 18:50:27 2023.
