2
MD Step 0
Li  0.00000000 0.00000000 0.00000000
F  0.00000000 0.00000000 4.00000000
2
MD Step 1
Li  0.00833246 0.00832964 0.00845960
F  0.00503508 0.00503581 4.00498894
2
MD Step 2
Li  0.01666471 0.01665908 0.01717162
F  0.01007023 0.01007170 4.00988565
2
MD Step 3
Li  0.02499655 0.02498811 0.02613431
F  0.01510554 0.01510774 4.01469079
2
MD Step 4
Li  0.03332777 0.03331652 0.03534563
F  0.02014107 0.02014401 4.01940509
2
MD Step 5
Li  0.04165817 0.04164411 0.04480326
F  0.02517690 0.02518057 4.02402940
2
MD Step 6
Li  0.04998757 0.04997071 0.05450452
F  0.03021309 0.03021750 4.02856470
2
MD Step 7
Li  0.05831578 0.05829611 0.06444630
F  0.03524973 0.03525486 4.03301213
2
MD Step 8
Li  0.06664261 0.06662014 0.07462509
F  0.04028687 0.04029273 4.03737298
2
MD Step 9
Li  0.07496790 0.07494263 0.08503680
F  0.04532457 0.04533117 4.04164873
2
MD Step 10
Li  0.08329148 0.08326341 0.09567674
F  0.05036290 0.05037022 4.04584109
2
MD Step 11
Li  0.09161321 0.09158235 0.10653951
F  0.05540191 0.05540996 4.04995205
2
MD Step 12
Li  0.09993296 0.09989931 0.11761886
F  0.06044164 0.06045042 4.05398388
2
MD Step 13
Li  0.10825062 0.10821417 0.12890756
F  0.06548214 0.06549164 4.05793923
2
MD Step 14
Li  0.11656610 0.11652687 0.14039717
F  0.07052343 0.07053366 4.06182118
2
MD Step 15
Li  0.12487935 0.12483733 0.15207789
F  0.07556555 0.07557650 4.06563331
2
MD Step 16
Li  0.13319035 0.13314555 0.16393818
F  0.08060848 0.08062016 4.06937984
2
MD Step 17
Li  0.14149913 0.14145155 0.17596444
F  0.08565224 0.08566464 4.07306574
2
MD Step 18
Li  0.14980578 0.14975541 0.18814051
F  0.09069677 0.09070989 4.07669690
2
MD Step 19
Li  0.15811046 0.15805732 0.20044704
F  0.09574202 0.09575586 4.08028040
2
MD Step 20
Li  0.16641344 0.16635753 0.21286061
F  0.10078790 0.10080246 4.08382480
2
MD Step 21
Li  0.17471510 0.17465642 0.22535257
F  0.10583426 0.10584954 4.08734057
2
MD Step 22
Li  0.18301603 0.18295458 0.23788727
F  0.11088089 0.11089689 4.09084073
2
MD Step 23
Li  0.19131703 0.19125281 0.25041958
F  0.11592750 0.11594422 4.09434176
2
MD Step 24
Li  0.19961925 0.19955226 0.26289090
F  0.12097368 0.12099112 4.09786508
2
MD Step 25
Li  0.20792435 0.20785459 0.27522264
F  0.12601880 0.12603696 4.10143941
2
MD Step 26
Li  0.21623483 0.21616229 0.28730446
F  0.13106197 0.13108085 4.10510505
2
MD Step 27
Li  0.22455461 0.22447928 0.29897093
F  0.13610175 0.13612136 4.10892245
2
MD Step 28
Li  0.23289045 0.23281231 0.30994653
F  0.14113567 0.14115601 4.11299226
2
MD Step 29
Li  0.24125630 0.24117532 0.31967954
F  0.14615863 0.14617971 4.11751606
2
MD Step 30
Li  0.24969411 0.24961021 0.32653988
F  0.15115531 0.15117717 4.12308939
2
MD Step 31
Li  0.25824740 0.25816046 0.32895119
F  0.15610980 0.15613247 4.13028816
2
MD Step 32
Li  0.26683903 0.26674901 0.32993602
F  0.16105028 0.16107379 4.13800808
2
MD Step 33
Li  0.27545132 0.27535820 0.33017714
F  0.16598321 0.16600755 4.14599971
2
MD Step 34
Li  0.28407606 0.28397983 0.32998351
F  0.17091156 0.17093676 4.15415017
2
MD Step 35
Li  0.29270840 0.29260904 0.32953287
F  0.17583713 0.17586317 4.16239451
2
MD Step 36
Li  0.30134503 0.30124254 0.32894108
F  0.18076111 0.18078800 4.17069041
2
MD Step 37
Li  0.30998351 0.30987790 0.32828945
F  0.18568439 0.18571213 4.17900816
2
MD Step 38
Li  0.31862198 0.31851323 0.32763803
F  0.19060766 0.19063625 4.18732582
2
MD Step 39
Li  0.32725889 0.32714702 0.32703274
F  0.19553148 0.19556092 4.19562662
2
MD Step 40
Li  0.33589299 0.33577800 0.32650960
F  0.20045630 0.20048659 4.20389739
2
MD Step 41
Li  0.34452319 0.34440508 0.32609749
F  0.20538252 0.20541366 4.21212758
2
MD Step 42
Li  0.35314855 0.35302733 0.32581986
F  0.21031049 0.21034247 4.22030863
2
MD Step 43
Li  0.36176825 0.36164392 0.32569604
F  0.21524050 0.21527332 4.22843347
2
MD Step 44
Li  0.37038155 0.37025413 0.32574211
F  0.22017283 0.22020649 4.23649623
2
MD Step 45
Li  0.37898779 0.37885728 0.32597154
F  0.22510772 0.22514221 4.24449199
2
MD Step 46
Li  0.38758636 0.38745277 0.32639574
F  0.23004539 0.23008071 4.25241658
2
MD Step 47
Li  0.39617670 0.39604004 0.32702440
F  0.23498605 0.23502220 4.26026645
2
MD Step 48
Li  0.40475831 0.40461859 0.32786580
F  0.23992987 0.23996685 4.26803860
2
MD Step 49
Li  0.41333071 0.41318794 0.32892703
F  0.24487705 0.24491485 4.27573041
2
MD Step 50
Li  0.42189344 0.42174763 0.33021420
F  0.24982774 0.24986635 4.28333967
2
MD Step 51
Li  0.43044610 0.43029725 0.33173260
F  0.25478209 0.25482152 4.29086443
2
MD Step 52
Li  0.43898827 0.43883641 0.33348677
F  0.25974026 0.25978049 4.29830305
2
MD Step 53
Li  0.44751959 0.44736472 0.33548068
F  0.26470237 0.26474342 4.30565407
2
MD Step 54
Li  0.45603970 0.45588183 0.33771774
F  0.26966857 0.26971041 4.31291625
2
MD Step 55
Li  0.46454825 0.46438741 0.34020094
F  0.27463898 0.27468162 4.32008849
2
MD Step 56
Li  0.47304492 0.47288111 0.34293286
F  0.27961371 0.27965714 4.32716985
2
MD Step 57
Li  0.48152940 0.48136263 0.34591575
F  0.28459289 0.28463711 4.33415951
2
MD Step 58
Li  0.49000137 0.48983166 0.34915153
F  0.28957662 0.28962162 4.34105678
2
MD Step 59
Li  0.49846055 0.49828791 0.35264189
F  0.29456502 0.29461080 4.34786102
2
MD Step 60
Li  0.50690666 0.50673111 0.35638827
F  0.29955819 0.29960474 4.35457172
2
MD Step 61
Li  0.51533942 0.51516096 0.36039192
F  0.30455622 0.30460354 4.36118843
2
MD Step 62
Li  0.52375856 0.52357722 0.36465388
F  0.30955922 0.30960730 4.36771075
2
MD Step 63
Li  0.53216383 0.53197961 0.36917503
F  0.31456729 0.31461612 4.37413837
2
MD Step 64
Li  0.54055497 0.54036790 0.37395612
F  0.31958050 0.31963009 4.38047103
2
MD Step 65
Li  0.54893173 0.54874183 0.37899774
F  0.32459897 0.32464930 4.38670849
2
MD Step 66
Li  0.55729389 0.55710116 0.38430036
F  0.32962277 0.32967384 4.39285060
2
MD Step 67
Li  0.56564120 0.56544566 0.38986433
F  0.33465199 0.33470379 4.39889721
2
MD Step 68
Li  0.57397345 0.57377511 0.39568989
F  0.33968671 0.33973924 4.40484826
2
MD Step 69
Li  0.58229040 0.58208929 0.40177716
F  0.34472702 0.34478027 4.41070369
2
MD Step 70
Li  0.59059185 0.59038797 0.40812618
F  0.34977299 0.34982695 4.41646349
2
MD Step 71
Li  0.59887758 0.59867096 0.41473685
F  0.35482470 0.35487937 4.42212770
2
MD Step 72
Li  0.60714740 0.60693805 0.42160898
F  0.35988223 0.35993761 4.42769638
2
MD Step 73
Li  0.61540111 0.61518905 0.42874228
F  0.36494564 0.36500172 4.43316965
2
MD Step 74
Li  0.62363851 0.62342377 0.43613634
F  0.37001501 0.37007178 4.43854765
2
MD Step 75
Li  0.63185944 0.63164203 0.44379061
F  0.37509041 0.37514786 4.44383059
2
MD Step 76
Li  0.64006373 0.63984365 0.45170444
F  0.38017189 0.38023002 4.44901870
2
MD Step 77
Li  0.64825120 0.64802849 0.45987703
F  0.38525952 0.38531832 4.45411228
2
MD Step 78
Li  0.65642171 0.65619638 0.46830742
F  0.39035335 0.39041281 4.45911168
2
MD Step 79
Li  0.66457513 0.66434720 0.47699450
F  0.39545343 0.39551355 4.46401731
2
MD Step 80
Li  0.67271133 0.67248081 0.48593695
F  0.40055981 0.40062058 4.46882964
2
MD Step 81
Li  0.68083020 0.68059712 0.49513327
F  0.40567253 0.40573394 4.47354923
2
MD Step 82
Li  0.68893165 0.68869602 0.50458170
F  0.41079162 0.41085367 4.47817672
2
MD Step 83
Li  0.69701561 0.69677746 0.51428022
F  0.41591710 0.41597978 4.48271285
2
MD Step 84
Li  0.70508205 0.70484139 0.52422651
F  0.42104900 0.42111231 4.48715847
2
MD Step 85
Li  0.71313094 0.71288779 0.53441790
F  0.42618733 0.42625124 4.49151456
2
MD Step 86
Li  0.72116230 0.72091669 0.54485131
F  0.43133206 0.43139659 4.49578223
2
MD Step 87
Li  0.72917619 0.72892813 0.55552322
F  0.43648319 0.43654832 4.49996278
2
MD Step 88
Li  0.73717270 0.73692221 0.56642956
F  0.44164068 0.44170640 4.50405770
2
MD Step 89
Li  0.74515199 0.74489909 0.57756566
F  0.44680448 0.44687079 4.50806869
2
MD Step 90
Li  0.75311427 0.75285898 0.58892610
F  0.45197450 0.45204139 4.51199773
2
MD Step 91
Li  0.76105983 0.76080216 0.60050464
F  0.45715065 0.45721811 4.51584711
2
MD Step 92
Li  0.76898905 0.76872902 0.61229402
F  0.46233278 0.46240081 4.51961947
2
MD Step 93
Li  0.77690240 0.77664004 0.62428577
F  0.46752072 0.46758931 4.52331792
2
MD Step 94
Li  0.78480050 0.78453582 0.63647000
F  0.47271424 0.47278339 4.52694606
2
MD Step 95
Li  0.79268412 0.79241712 0.64883506
F  0.47791308 0.47798278 4.53050815
2
MD Step 96
Li  0.80055420 0.80028491 0.66136717
F  0.48311688 0.48318712 4.53400923
2
MD Step 97
Li  0.80841196 0.80814039 0.67404994
F  0.48832519 0.48839598 4.53745529
2
MD Step 98
Li  0.81625888 0.81598505 0.68686360
F  0.49353748 0.49360880 4.54085355
2
MD Step 99
Li  0.82409688 0.82382078 0.69978417
F  0.49875305 0.49882490 4.54421277
2
MD Step 100
Li  0.83192834 0.83164999 0.71278211
F  0.50397102 0.50404341 4.54754375
2
MD Step 101
Li  0.83975637 0.83947577 0.72582046
F  0.50919027 0.50926318 4.55085999
2
MD Step 102
Li  0.84758500 0.84730215 0.73885197
F  0.51440931 0.51448275 4.55417874
2
MD Step 103
Li  0.85541967 0.85513456 0.75181465
F  0.51962617 0.51970014 4.55752267
2
MD Step 104
Li  0.86326787 0.86298049 0.76462399
F  0.52483810 0.52491260 4.56092264
2
MD Step 105
Li  0.87114059 0.87085091 0.77715867
F  0.53004109 0.53011614 4.56442298
2
MD Step 106
Li  0.87905505 0.87876303 0.78922998
F  0.53522885 0.53530446 4.56809263
2
MD Step 107
Li  0.88704223 0.88674779 0.80050224
F  0.54039005 0.54046626 4.57205423
2
MD Step 108
Li  0.89517473 0.89487771 0.81019355
F  0.54549819 0.54557504 4.57659345
2
MD Step 109
Li  0.90385467 0.90355449 0.81398826
F  0.55040633 0.55048404 4.58328699
2
MD Step 110
Li  0.91270674 0.91240323 0.81594706
F  0.55525158 0.55533022 4.59065127
2
MD Step 111
Li  0.92164520 0.92133824 0.81699325
F  0.56006526 0.56014487 4.59834895
2
MD Step 112
Li  0.93063426 0.93032381 0.81750972
F  0.56486043 0.56494102 4.60624016
2
MD Step 113
Li  0.93965408 0.93934012 0.81770687
F  0.56964434 0.56972592 4.61424801
2
MD Step 114
Li  0.94869198 0.94837447 0.81771803
F  0.57442162 0.57450421 4.62232381
2
MD Step 115
Li  0.95773907 0.95741801 0.81763512
F  0.57919552 0.57927911 4.63043395
2
MD Step 116
Li  0.96678880 0.96646418 0.81752509
F  0.58396844 0.58405304 4.63855399
2
MD Step 117
Li  0.97583610 0.97550793 0.81743867
F  0.58874222 0.58882782 4.64666539
2
MD Step 118
Li  0.98487696 0.98454525 0.81741538
F  0.59351832 0.59360492 4.65475371
2
MD Step 119
Li  0.99390812 0.99357287 0.81748670
F  0.59829795 0.59838555 4.66280746
2
MD Step 120
Li  1.00292685 1.00258809 0.81767811
F  0.60308209 0.60317068 4.67081731
2
MD Step 121
Li  1.01193090 1.01158863 0.81801054
F  0.60787157 0.60796116 4.67877563
2
MD Step 122
Li  1.02091832 1.02057256 0.81850136
F  0.61266711 0.61275768 4.68667607
