 Entering Gaussian System, Link 0=g16
 Initial command:
 /software/gaussian/g16-c01/avx2/g16/l1.exe "/gpfs/fs2/scratch/bweight/software/many_molecule_many_mode_NAMD/src/NAMD/TEST_NVT/TRAJ/traj-56/G16/GS_NEW/Gau-29400.inp" -scrdir="/gpfs/fs2/scratch/bweight/software/many_molecule_many_mode_NAMD/src/NAMD/TEST_NVT/TRAJ/traj-56/G16/GS_NEW/"
 Entering Link 1 = /software/gaussian/g16-c01/avx2/g16/l1.exe PID=     29401.
  
 Copyright (c) 1988-2019, Gaussian, Inc.  All Rights Reserved.
  
 This is part of the Gaussian(R) 16 program.  It is based on
 the Gaussian(R) 09 system (copyright 2009, Gaussian, Inc.),
 the Gaussian(R) 03 system (copyright 2003, Gaussian, Inc.),
 the Gaussian(R) 98 system (copyright 1998, Gaussian, Inc.),
 the Gaussian(R) 94 system (copyright 1995, Gaussian, Inc.),
 the Gaussian 92(TM) system (copyright 1992, Gaussian, Inc.),
 the Gaussian 90(TM) system (copyright 1990, Gaussian, Inc.),
 the Gaussian 88(TM) system (copyright 1988, Gaussian, Inc.),
 the Gaussian 86(TM) system (copyright 1986, Carnegie Mellon
 University), and the Gaussian 82(TM) system (copyright 1983,
 Carnegie Mellon University). Gaussian is a federally registered
 trademark of Gaussian, Inc.
  
 This software contains proprietary and confidential information,
 including trade secrets, belonging to Gaussian, Inc.
  
 This software is provided under written license and may be
 used, copied, transmitted, or stored only in accord with that
 written license.
  
 The following legend is applicable only to US Government
 contracts under FAR:
  
                    RESTRICTED RIGHTS LEGEND
  
 Use, reproduction and disclosure by the US Government is
 subject to restrictions as set forth in subparagraphs (a)
 and (c) of the Commercial Computer Software - Restricted
 Rights clause in FAR 52.227-19.
  
 Gaussian, Inc.
 340 Quinnipiac St., Bldg. 40, Wallingford CT 06492
  
  
 ---------------------------------------------------------------
 Warning -- This program may not be used in any manner that
 competes with the business of Gaussian, Inc. or will provide
 assistance to any competitor of Gaussian, Inc.  The licensee
 of this program is prohibited from giving any competitor of
 Gaussian, Inc. access to this program.  By using this program,
 the user acknowledges that Gaussian, Inc. is engaged in the
 business of creating and licensing software in the field of
 computational chemistry and represents and warrants to the
 licensee that it is not a competitor of Gaussian, Inc. and that
 it will not use this program in any manner prohibited above.
 ---------------------------------------------------------------
  

 Cite this work as:
 Gaussian 16, Revision C.01,
 M. J. Frisch, G. W. Trucks, H. B. Schlegel, G. E. Scuseria, 
 M. A. Robb, J. R. Cheeseman, G. Scalmani, V. Barone, 
 G. A. Petersson, H. Nakatsuji, X. Li, M. Caricato, A. V. Marenich, 
 J. Bloino, B. G. Janesko, R. Gomperts, B. Mennucci, H. P. Hratchian, 
 J. V. Ortiz, A. F. Izmaylov, J. L. Sonnenberg, D. Williams-Young, 
 F. Ding, F. Lipparini, F. Egidi, J. Goings, B. Peng, A. Petrone, 
 T. Henderson, D. Ranasinghe, V. G. Zakrzewski, J. Gao, N. Rega, 
 G. Zheng, W. Liang, M. Hada, M. Ehara, K. Toyota, R. Fukuda, 
 J. Hasegawa, M. Ishida, T. Nakajima, Y. Honda, O. Kitao, H. Nakai, 
 T. Vreven, K. Throssell, J. A. Montgomery, Jr., J. E. Peralta, 
 F. Ogliaro, M. J. Bearpark, J. J. Heyd, E. N. Brothers, K. N. Kudin, 
 V. N. Staroverov, T. A. Keith, R. Kobayashi, J. Normand, 
 K. Raghavachari, A. P. Rendell, J. C. Burant, S. S. Iyengar, 
 J. Tomasi, M. Cossi, J. M. Millam, M. Klene, C. Adamo, R. Cammi, 
 J. W. Ochterski, R. L. Martin, K. Morokuma, O. Farkas, 
 J. B. Foresman, and D. J. Fox, Gaussian, Inc., Wallingford CT, 2019.
 
 ******************************************
 Gaussian 16:  ES64L-G16RevC.01  3-Jul-2019
                11-Jan-2023 
 ******************************************
 %oldchk=../GS_OLD/geometry.chk
 %chk=geometry.chk
 %nprocshared=4
 Will use up to    4 processors via shared memory.
 %mem=5GB
 Copying data from "../GS_OLD/geometry.chk" to current chk file "geometry.chk"
 IOpt=  2 FromEx=T IUOpen= 4 IOptOp= 5 NList=   0 IFRang= 0 IUIn= 4 IUOut= 2.
 -------------------------------------------------------
 # WB97XD/6-311G SCF=XQC FORCE nosym pop=full guess=read
 -------------------------------------------------------
 1/10=7,30=1,38=1/1,3;
 2/12=2,15=1,17=6,18=5,40=1/2;
 3/5=4,6=6,11=2,25=1,30=1,71=1,74=-58,116=-2/1,2,3;
 4/5=1/1;
 5/5=2,8=3,13=1,38=6/2,8;
 6/7=3,28=1/1;
 7/29=1,30=1/1,2,3,16;
 1/10=7,30=1/3;
 99//99;
 ------------
 MD Step 1000
 ------------
 Symbolic Z-matrix:
 Charge =  0 Multiplicity = 1
 C                    -0.33816  -0.58525   0.00686 
 H                     0.23784  -1.52048  -0.02043 
 H                    -1.42554  -0.56532  -0.02167 
 C                     0.33275   0.57608   0.00444 
 H                    -0.14735   1.57559  -0.02506 
 H                     1.4432    0.66324  -0.02372 
 

 GradGradGradGradGradGradGradGradGradGradGradGradGradGradGradGradGradGrad
 Berny optimization.
 Initialization pass.
 Trust Radius=3.00D-01 FncErr=1.00D-07 GrdErr=1.00D-07 EigMax=2.50D+02 EigMin=1.00D-04
 Number of steps in this run=      2 maximum allowed number of steps=      2.
 GradGradGradGradGradGradGradGradGradGradGradGradGradGradGradGradGradGrad

                          Input orientation:                          
 ---------------------------------------------------------------------
 Center     Atomic      Atomic             Coordinates (Angstroms)
 Number     Number       Type             X           Y           Z
 ---------------------------------------------------------------------
      1          6           0       -0.338155   -0.585252    0.006863
      2          1           0        0.237844   -1.520480   -0.020432
      3          1           0       -1.425537   -0.565316   -0.021665
      4          6           0        0.332751    0.576081    0.004436
      5          1           0       -0.147345    1.575585   -0.025063
      6          1           0        1.443198    0.663242   -0.023718
 ---------------------------------------------------------------------
                    Distance matrix (angstroms):
                    1          2          3          4          5
     1  C    0.000000
     2  H    1.098714   0.000000
     3  H    1.087939   1.918118   0.000000
     4  C    1.341199   2.098856   2.096436   0.000000
     5  H    2.169481   3.119938   2.493440   1.109221   0.000000
     6  H    2.175521   2.494300   3.120737   1.114218   1.833630
                    6
     6  H    0.000000
 Symmetry turned off by external request.
 Stoichiometry    C2H4
 Framework group  C1[X(C2H4)]
 Deg. of freedom    12
 Full point group                 C1      NOp   1
 Rotational constants (GHZ):         142.3172502          29.6041121          24.5129765
 Standard basis: 6-311G (5D, 7F)
    38 basis functions,    72 primitive gaussians,    38 cartesian basis functions
     8 alpha electrons        8 beta electrons
       nuclear repulsion energy        33.0024911121 Hartrees.
 NAtoms=    6 NActive=    6 NUniq=    6 SFac= 1.00D+00 NAtFMM=   60 NAOKFM=F Big=F
 Integral buffers will be    131072 words long.
 Raffenetti 2 integral format.
 Two-electron integral symmetry is turned off.
 Nuclear repulsion after empirical dispersion term =       33.0016441475 Hartrees.
 One-electron integrals computed using PRISM.
 NBasis=    38 RedAO= T EigKep=  6.49D-03  NBF=    38
 NBsUse=    38 1.00D-06 EigRej= -1.00D+00 NBFU=    38
 Initial guess from the checkpoint file:  "geometry.chk"
 B after Tr=    -0.000255   -0.000518   -0.000447
         Rot=    1.000000    0.000005   -0.000003    0.000004 Ang=   0.00 deg.
 Keep R1 ints in memory in canonical form, NReq=4036876.
 Requested convergence on RMS density matrix=1.00D-08 within  32 cycles.
 Requested convergence on MAX density matrix=1.00D-06.
 Requested convergence on             energy=1.00D-06.
 No special actions if energy rises.
 SCF Done:  E(RwB97XD) =  -78.5544678978     A.U. after    8 cycles
            NFock=  8  Conv=0.60D-08     -V/T= 2.0054
 QCSCF skips out because SCF is already converged.

 **********************************************************************

            Population analysis using the SCF Density.

 **********************************************************************

 Alpha  occ. eigenvalues --  -10.29109 -10.28926  -0.86323  -0.67158  -0.55973
 Alpha  occ. eigenvalues --   -0.50776  -0.43607  -0.35645
 Alpha virt. eigenvalues --    0.07915   0.14027   0.16431   0.16954   0.24027
 Alpha virt. eigenvalues --    0.36676   0.39384   0.40268   0.46341   0.48796
 Alpha virt. eigenvalues --    0.49397   0.59055   0.66526   0.68996   0.77163
 Alpha virt. eigenvalues --    0.77421   0.84308   0.94928   2.23102   2.29235
 Alpha virt. eigenvalues --    2.33123   2.40556   2.67026   2.81770   2.87672
 Alpha virt. eigenvalues --    2.95207   3.13888   3.31837  23.35131  23.70277
     Molecular Orbital Coefficients:
                           1         2         3         4         5
                           O         O         O         O         O
     Eigenvalues --   -10.29109 -10.28926  -0.86323  -0.67158  -0.55973
   1 1   C  1S          0.13587   0.54678  -0.08842   0.06665  -0.00039
   2        2S          0.11202   0.44996  -0.13980   0.10671  -0.00064
   3        2PX         0.00016  -0.00001   0.02608   0.03453   0.14018
   4        2PY         0.00028  -0.00002   0.04636   0.05647  -0.07647
   5        2PZ        -0.00000  -0.00001  -0.00121   0.00167   0.00020
   6        3S          0.00268   0.01436   0.37532  -0.29125   0.00176
   7        3PX        -0.00057   0.00047   0.03510   0.05557   0.22033
   8        3PY        -0.00097   0.00083   0.06204   0.09192  -0.12094
   9        3PZ        -0.00001  -0.00003  -0.00202   0.00298   0.00030
  10        4S          0.00226  -0.01480   0.19296  -0.22465   0.00150
  11        4PX         0.00137  -0.00165   0.00499   0.02232   0.11321
  12        4PY         0.00236  -0.00285   0.00868   0.03801  -0.06280
  13        4PZ         0.00001   0.00007  -0.00069   0.00149   0.00014
  14 2   H  1S         -0.00004  -0.00006   0.05301  -0.08548   0.10638
  15        2S         -0.00029   0.00012   0.05452  -0.10400   0.13490
  16        3S          0.00094   0.00163  -0.00202  -0.01467   0.04345
  17 3   H  1S         -0.00005  -0.00007   0.05422  -0.08883  -0.10854
  18        2S         -0.00029   0.00010   0.05535  -0.10723  -0.13666
  19        3S          0.00096   0.00166  -0.00200  -0.01551  -0.04402
  20 4   C  1S          0.54676  -0.13606  -0.08660  -0.06847  -0.00002
  21        2S          0.45003  -0.11178  -0.13672  -0.10985  -0.00002
  22        2PX        -0.00002  -0.00017  -0.02735   0.03970   0.11440
  23        2PY        -0.00003  -0.00029  -0.04664   0.06948  -0.07080
  24        2PZ        -0.00000   0.00000  -0.00087  -0.00187   0.00020
  25        3S          0.01376  -0.00433   0.36626   0.30043   0.00006
  26        3PX        -0.00015   0.00074  -0.03394   0.06398   0.17881
  27        3PY        -0.00025   0.00127  -0.05778   0.11173  -0.10994
  28        3PZ        -0.00003  -0.00000  -0.00153  -0.00336   0.00031
  29        4S         -0.01159   0.00911   0.18871   0.24022  -0.00101
  30        4PX         0.00073  -0.00195  -0.00549   0.02818   0.09971
  31        4PY         0.00123  -0.00339  -0.00917   0.04826  -0.06073
  32        4PZ         0.00006  -0.00002  -0.00066  -0.00174   0.00016
  33 5   H  1S         -0.00006  -0.00004   0.04905   0.09462  -0.08552
  34        2S         -0.00004  -0.00031   0.05036   0.11287  -0.10772
  35        3S          0.00178   0.00003  -0.00093   0.01703  -0.03454
  36 6   H  1S         -0.00005  -0.00004   0.04838   0.09379   0.08170
  37        2S         -0.00005  -0.00032   0.05001   0.11213   0.10312
  38        3S          0.00176   0.00002  -0.00093   0.01670   0.03334
                           6         7         8         9        10
                           O         O         O         V         V
     Eigenvalues --    -0.50776  -0.43607  -0.35645   0.07915   0.14027
   1 1   C  1S         -0.00168   0.00013  -0.00095   0.00248  -0.03360
   2        2S         -0.00229   0.00024  -0.00155   0.00411  -0.05391
   3        2PX         0.09565  -0.10661  -0.00300   0.00129  -0.03267
   4        2PY         0.16872   0.06383  -0.00502   0.00208  -0.06473
   5        2PZ         0.00444  -0.00001   0.17948  -0.18922  -0.00238
   6        3S          0.01204  -0.00047   0.00451  -0.01242   0.11743
   7        3PX         0.13886  -0.17053  -0.00425   0.00193  -0.03895
   8        3PY         0.24624   0.10238  -0.00709   0.00307  -0.08013
   9        3PZ         0.00706   0.00001   0.28865  -0.27803  -0.00381
  10        4S         -0.06302  -0.00299   0.00638  -0.01492   1.23184
  11        4PX         0.06974  -0.10726  -0.00355   0.01115  -0.19005
  12        4PY         0.12474   0.06476  -0.00595   0.01851  -0.36844
  13        4PZ         0.00402   0.00004   0.26745  -0.69287  -0.01349
  14 2   H  1S         -0.08116  -0.11168   0.00010   0.00388  -0.01870
  15        2S         -0.11367  -0.17210   0.00172   0.00617  -0.04971
  16        3S         -0.04270  -0.07924   0.00105   0.01636  -0.82149
  17 3   H  1S         -0.08060   0.10922   0.00004   0.00388  -0.01580
  18        2S         -0.11230   0.16755   0.00165   0.00621  -0.04313
  19        3S         -0.04189   0.07684   0.00102   0.01604  -0.77359
  20 4   C  1S         -0.01023  -0.00042  -0.00066  -0.00228  -0.03634
  21        2S         -0.01612  -0.00069  -0.00108  -0.00377  -0.05837
  22        2PX        -0.09722   0.12803   0.00294   0.00148   0.03955
  23        2PY        -0.16063  -0.07592   0.00545   0.00283   0.06185
  24        2PZ         0.00482   0.00022   0.17899   0.18970  -0.00250
  25        3S          0.05099   0.00203   0.00322   0.01131   0.12927
  26        3PX        -0.14440   0.20456   0.00410   0.00230   0.04815
  27        3PY        -0.23736  -0.12076   0.00767   0.00437   0.07352
  28        3PZ         0.00761   0.00034   0.28619   0.27795  -0.00378
  29        4S         -0.01839   0.00213   0.00563   0.01236   1.22863
  30        4PX        -0.07609   0.13287   0.00310   0.01135   0.26542
  31        4PY        -0.12412  -0.07791   0.00595   0.02069   0.42736
  32        4PZ         0.00444   0.00021   0.26806   0.69443  -0.01514
  33 5   H  1S         -0.07294  -0.12741   0.00023  -0.00346  -0.01191
  34        2S         -0.09948  -0.19908   0.00193  -0.00583  -0.03878
  35        3S         -0.03745  -0.09386   0.00106  -0.01505  -0.82863
  36 6   H  1S         -0.07847   0.12649   0.00017  -0.00345  -0.01452
  37        2S         -0.10736   0.19827   0.00183  -0.00583  -0.04575
  38        3S         -0.04054   0.09344   0.00100  -0.01512  -0.87625
                          11        12        13        14        15
                           V         V         V         V         V
     Eigenvalues --     0.16431   0.16954   0.24027   0.36676   0.39384
   1 1   C  1S         -0.00030  -0.04605   0.00006   0.00709   0.00003
   2        2S         -0.00049  -0.07508   0.00009   0.00889  -0.00007
   3        2PX         0.09577  -0.02161   0.09975  -0.03467  -0.02108
   4        2PY        -0.05468  -0.03444  -0.05721  -0.06242   0.01160
   5        2PZ        -0.00005  -0.00597   0.00005  -0.00403  -0.00012
   6        3S          0.00132   0.17120   0.00015   0.03794   0.00219
   7        3PX         0.13739  -0.01392   0.10432  -0.03986  -0.09938
   8        3PY        -0.07840  -0.02047  -0.06056  -0.07486   0.05751
   9        3PZ        -0.00006  -0.00832   0.00001  -0.00849  -0.00032
  10        4S         -0.00566   1.43544  -0.01726  -2.21873  -0.03726
  11        4PX         0.58995  -0.12689   1.17122  -1.45135  -0.49918
  12        4PY        -0.32966  -0.19001  -0.67088  -2.52131   0.18707
  13        4PZ        -0.00017  -0.03868   0.00099  -0.03588  -0.00189
  14 2   H  1S         -0.02932  -0.02604   0.01529  -0.06591   0.07214
  15        2S         -0.08475  -0.01871  -0.02259  -0.71250   0.72632
  16        3S         -1.06750  -0.97633  -1.53575  -0.21991  -0.26920
  17 3   H  1S          0.02736  -0.02698  -0.01728  -0.06066  -0.07523
  18        2S          0.08255  -0.02458   0.01657  -0.67199  -0.76500
  19        3S          1.06997  -1.03514   1.56133  -0.28282   0.23788
  20 4   C  1S          0.00200   0.04222  -0.00006  -0.01974  -0.00006
  21        2S          0.00323   0.06867  -0.00012  -0.03277  -0.00010
  22        2PX         0.10175  -0.02617  -0.10114  -0.03873  -0.03226
  23        2PY        -0.06236  -0.03738   0.05800  -0.06880   0.01616
  24        2PZ         0.00033   0.00576  -0.00006   0.00266   0.00009
  25        3S         -0.00684  -0.15171   0.00025   0.05160   0.00005
  26        3PX         0.14620  -0.02286  -0.11687  -0.09120  -0.11075
  27        3PY        -0.08805  -0.02794   0.06618  -0.16360   0.05711
  28        3PZ         0.00046   0.00793  -0.00005   0.00282   0.00008
  29        4S         -0.07610  -1.33701   0.00663   3.01775   0.08126
  30        4PX         0.52735  -0.13271  -1.11352  -1.00575  -0.50080
  31        4PY        -0.32764  -0.19393   0.64413  -1.75796   0.23029
  32        4PZ         0.00199   0.03716  -0.00097   0.02914   0.00059
  33 5   H  1S          0.03246   0.02435   0.00331   0.00245  -0.08506
  34        2S          0.06672   0.02164  -0.03821  -0.02616  -0.85550
  35        3S          1.08198   0.90936  -1.51780   0.42255   0.50446
  36 6   H  1S         -0.03113   0.02633  -0.00258  -0.00126   0.08714
  37        2S         -0.06556   0.02333   0.03823  -0.05640   0.87330
  38        3S         -0.97697   0.96876   1.50849   0.43473  -0.50054
                          16        17        18        19        20
                           V         V         V         V         V
     Eigenvalues --     0.40268   0.46341   0.48796   0.49397   0.59055
   1 1   C  1S         -0.02044   0.01432   0.04515  -0.00095  -0.00045
   2        2S         -0.03525   0.03198   0.07487  -0.00134  -0.00081
   3        2PX         0.03328  -0.06164  -0.00836   0.00110   0.00178
   4        2PY         0.05819  -0.10715  -0.00990   0.00146   0.00263
   5        2PZ         0.00078  -0.00024  -0.00674  -0.15193  -0.19236
   6        3S          0.06811  -0.33744  -0.06949  -0.00755  -0.00104
   7        3PX         0.11641  -0.23752   0.05190  -0.00085   0.00590
   8        3PY         0.20660  -0.41122   0.09915  -0.00288   0.00871
   9        3PZ        -0.00223  -0.00351  -0.02969  -0.62807  -0.68433
  10        4S          3.14180   0.07488  -2.99890   0.11929   0.06124
  11        4PX         0.50001   0.23525  -0.85200   0.03842   0.01871
  12        4PY         0.85300   0.43117  -1.48272   0.06859   0.03367
  13        4PZ         0.00018   0.00425   0.08766   0.68432   1.23952
  14 2   H  1S         -0.02529  -0.02840   0.07557  -0.00349  -0.00146
  15        2S         -0.51875  -0.26863   0.88993  -0.03543  -0.01144
  16        3S          0.39773   0.03913  -0.65278   0.03689   0.02060
  17 3   H  1S         -0.02591  -0.03004   0.07407  -0.00343  -0.00142
  18        2S         -0.51517  -0.28745   0.87111  -0.03491  -0.01054
  19        3S          0.38955   0.03990  -0.62634   0.03579   0.02017
  20 4   C  1S          0.00309  -0.00549  -0.05111   0.00347   0.00063
  21        2S          0.00150  -0.00183  -0.08954   0.00625   0.00118
  22        2PX         0.01445   0.05289  -0.03076   0.00059   0.00186
  23        2PY         0.02452   0.09169  -0.05456   0.00085   0.00361
  24        2PZ        -0.00362  -0.00191  -0.00684  -0.15284   0.19214
  25        3S          0.07283  -0.26962   0.25463  -0.02336  -0.00265
  26        3PX        -0.02965   0.23055  -0.07423   0.00159   0.00654
  27        3PY        -0.05178   0.40158  -0.12962   0.00187   0.01257
  28        3PZ        -0.00966  -0.00729  -0.02624  -0.63182   0.68172
  29        4S         -1.41432   0.82301   3.06094  -0.14097  -0.05157
  30        4PX         1.47366  -0.31762  -0.54953   0.01898   0.01907
  31        4PY         2.58326  -0.53344  -0.93814   0.03267   0.03170
  32        4PZ        -0.03256  -0.01689  -0.01916   0.69432  -1.23612
  33 5   H  1S         -0.03922  -0.06890  -0.06137   0.00300   0.00135
  34        2S         -0.78637  -0.71406  -0.79410   0.04339   0.00409
  35        3S         -0.30630   0.29818   0.52392  -0.01621  -0.01988
  36 6   H  1S         -0.03879  -0.06792  -0.06142   0.00303   0.00137
  37        2S         -0.77501  -0.70098  -0.79061   0.04314   0.00441
  38        3S         -0.29921   0.30723   0.53454  -0.01699  -0.01998
                          21        22        23        24        25
                           V         V         V         V         V
     Eigenvalues --     0.66526   0.68996   0.77163   0.77421   0.84308
   1 1   C  1S          0.00057  -0.00076   0.04328   0.07726   0.00105
   2        2S          0.00120  -0.00163   0.09106   0.16464   0.00237
   3        2PX        -0.13561   0.19681  -0.03757   0.11011  -0.01040
   4        2PY         0.07925  -0.11736  -0.06493   0.17991   0.01266
   5        2PZ        -0.00011   0.00017   0.00019   0.00422   0.00010
   6        3S         -0.01056   0.01724  -0.58057  -1.40457  -0.02334
   7        3PX        -0.62231   0.68894  -0.21770   0.41811  -0.23649
   8        3PY         0.36046  -0.41020  -0.37581   0.67383   0.16209
   9        3PZ        -0.00054   0.00067   0.00094   0.01468   0.00032
  10        4S          0.02445  -0.06008   0.47651   2.45989  -0.01951
  11        4PX         1.04418  -0.76862   0.21221  -0.71355   4.59380
  12        4PY        -0.60293   0.46604   0.31940  -0.97992  -2.62926
  13        4PZ         0.00050   0.00054   0.01258  -0.04669   0.00429
  14 2   H  1S          0.02524  -0.05902   0.00628   0.03420  -0.02820
  15        2S          0.16254  -0.64429   0.07093   0.09336  -1.62202
  16        3S         -1.04611   1.08558   0.02006  -1.10348  -1.24786
  17 3   H  1S         -0.02476   0.05831   0.00630   0.03493   0.03135
  18        2S         -0.17714   0.66979   0.08525   0.06875   1.65698
  19        3S          1.03855  -1.05177   0.03171  -1.22961   1.25042
  20 4   C  1S          0.00084  -0.00065   0.08012   0.04094   0.00096
  21        2S          0.00169  -0.00129   0.17069   0.08627   0.00199
  22        2PX        -0.14857  -0.18606  -0.10405   0.04318   0.00709
  23        2PY         0.08568   0.10464  -0.18401   0.07928   0.00086
  24        2PZ        -0.00010  -0.00021   0.00461  -0.00053  -0.00009
  25        3S         -0.01148   0.00521  -1.44226  -0.54843  -0.01233
  26        3PX        -0.67615  -0.63175  -0.38751   0.24454   0.22069
  27        3PY         0.39162   0.35248  -0.68807   0.44480  -0.10162
  28        3PZ        -0.00052  -0.00069   0.01637  -0.00231  -0.00015
  29        4S          0.00284   0.02055   2.64315   0.44490   0.00266
  30        4PX         1.32233   0.79083   0.58270  -0.22389  -4.06334
  31        4PY        -0.75942  -0.44024   1.08213  -0.58776   2.31737
  32        4PZ         0.00116  -0.00007  -0.04796   0.01791  -0.00357
  33 5   H  1S         -0.02361  -0.05537   0.03397   0.00717  -0.02175
  34        2S         -0.11246  -0.53522   0.06749   0.07571  -1.36520
  35        3S          1.10322   1.00844  -1.16565   0.17711  -1.06102
  36 6   H  1S          0.02419   0.05497   0.03378   0.00781   0.02212
  37        2S          0.11200   0.51555   0.07152   0.03012   1.35960
  38        3S         -1.10538  -1.01769  -1.12595   0.11872   1.06857
                          26        27        28        29        30
                           V         V         V         V         V
     Eigenvalues --     0.94928   2.23102   2.29235   2.33123   2.40556
   1 1   C  1S          0.09634  -0.00926  -0.01467   0.00034  -0.00040
   2        2S          0.20026   0.00315  -0.01386   0.00073  -0.00044
   3        2PX        -0.09026  -0.06352  -0.13157   0.36335  -0.39988
   4        2PY        -0.15637  -0.11959  -0.23030  -0.20686   0.22719
   5        2PZ         0.00030  -0.01149  -0.01647   0.00018  -0.00064
   6        3S         -1.55619  -0.19231  -0.04801  -0.00089  -0.00413
   7        3PX        -0.22773   0.05269   0.20773  -0.43739   0.55992
   8        3PY        -0.38833   0.11302   0.37530   0.25095  -0.31971
   9        3PZ        -0.00183   0.01146   0.02047  -0.00013   0.00077
  10        4S          5.70994  -0.07250  -0.86485   0.00181  -0.01840
  11        4PX         1.19491   0.05793  -0.19429  -0.10520   0.99647
  12        4PY         1.99380   0.07739  -0.36426   0.05207  -0.55631
  13        4PZ        -0.01831   0.00183   0.00718  -0.00031   0.00144
  14 2   H  1S          0.01518  -0.67915  -0.82672  -0.71567   0.63618
  15        2S         -0.28101   0.95707   1.22989   1.13162  -1.44772
  16        3S         -0.10506  -0.28647  -0.49399  -0.46280   0.34653
  17 3   H  1S          0.01534  -0.66946  -0.82506   0.71009  -0.65496
  18        2S         -0.25615   0.94480   1.23155  -1.12717   1.48689
  19        3S         -0.09062  -0.26544  -0.47872   0.45318  -0.33980
  20 4   C  1S         -0.09342  -0.01052   0.01177   0.00027   0.00017
  21        2S         -0.19362  -0.00037   0.01184   0.00031   0.00033
  22        2PX        -0.09170   0.14764  -0.11524   0.28967   0.42097
  23        2PY        -0.15824   0.25702  -0.19417  -0.16779  -0.24172
  24        2PZ         0.00038  -0.01339   0.01514   0.00036   0.00037
  25        3S          1.49799  -0.16349   0.01437   0.00083  -0.00073
  26        3PX        -0.22195  -0.19181   0.20081  -0.36283  -0.59061
  27        3PY        -0.38660  -0.33235   0.33471   0.20858   0.33964
  28        3PZ         0.00338   0.01461  -0.01945  -0.00042  -0.00053
  29        4S         -5.67821  -0.19487   0.88181   0.01080   0.00060
  30        4PX         1.09870  -0.01215  -0.18956   0.15632  -0.82650
  31        4PY         1.95580  -0.02113  -0.30847  -0.09015   0.48059
  32        4PZ         0.00981   0.00460  -0.00508   0.00008  -0.00110
  33 5   H  1S         -0.01822  -0.81174   0.64332   0.69112   0.70397
  34        2S          0.29890   1.18520  -0.98639  -0.98184  -1.46687
  35        3S          0.06422  -0.37372   0.38587   0.51243   0.45237
  36 6   H  1S         -0.01811  -0.80697   0.66083  -0.67911  -0.70408
  37        2S          0.31595   1.17762  -1.00846   0.96259   1.46309
  38        3S          0.07155  -0.37137   0.40642  -0.50785  -0.45653
                          31        32        33        34        35
                           V         V         V         V         V
     Eigenvalues --     2.67026   2.81770   2.87672   2.95207   3.13888
   1 1   C  1S          0.00044   0.00230  -0.01366  -0.00001  -0.01029
   2        2S          0.00033   0.00641  -0.04334  -0.00028  -0.03119
   3        2PX         0.00407   0.06641  -0.49101  -0.70683   0.42670
   4        2PY         0.00577   0.11645  -0.88404   0.39419   0.74945
   5        2PZ        -0.92512  -0.93136  -0.12260  -0.00121   0.00416
   6        3S         -0.00121  -0.05195   0.37306   0.00412   0.25933
   7        3PX        -0.00267  -0.11316   0.84991   0.85046  -0.39141
   8        3PY        -0.00354  -0.19707   1.50601  -0.46154  -0.68824
   9        3PZ         0.94099   1.13804   0.15349   0.00161  -0.00542
  10        4S          0.01107   0.12395  -0.86595  -0.01310  -0.51456
  11        4PX        -0.00206   0.08944  -0.71125  -0.66287   0.17746
  12        4PY        -0.00318   0.15651  -1.26217   0.35064   0.31496
  13        4PZ        -0.33884  -0.61616  -0.09665  -0.00128   0.00255
  14 2   H  1S          0.01086  -0.01502   0.24787  -0.36340  -0.20319
  15        2S         -0.01215   0.00766  -0.19805   0.38158   0.15522
  16        3S         -0.00287   0.03689  -0.30065   0.27666   0.03860
  17 3   H  1S          0.01097  -0.01446   0.23827   0.36559  -0.20024
  18        2S         -0.01244   0.00636  -0.18136  -0.37954   0.15083
  19        3S         -0.00324   0.03707  -0.30073  -0.29331   0.04369
  20 4   C  1S          0.00044  -0.00220   0.01377   0.00042  -0.00686
  21        2S          0.00044  -0.00687   0.04863   0.00105  -0.02096
  22        2PX        -0.00680   0.05525  -0.38614  -0.82514  -0.51937
  23        2PY        -0.01292   0.09898  -0.68926   0.45903  -0.92053
  24        2PZ        -0.92415   0.93153   0.12695   0.00012   0.01347
  25        3S         -0.00261   0.05905  -0.43668  -0.00847   0.17891
  26        3PX         0.00723  -0.10226   0.74537   0.98498   0.57259
  27        3PY         0.01359  -0.18121   1.31681  -0.53913   1.02137
  28        3PZ         0.94003  -1.13799  -0.15995  -0.00019  -0.01704
  29        4S          0.01384  -0.12658   0.89952   0.02477  -0.33755
  30        4PX        -0.00105   0.08839  -0.69912  -0.70598  -0.36282
  31        4PY        -0.00256   0.15497  -1.22261   0.37915  -0.65411
  32        4PZ        -0.33833   0.61552   0.10196   0.00013   0.01373
  33 5   H  1S          0.00993   0.02552  -0.29788   0.42951  -0.27791
  34        2S         -0.01248  -0.02162   0.27796  -0.43810   0.22221
  35        3S         -0.00082  -0.03275   0.27310  -0.23613   0.14224
  36 6   H  1S          0.01002   0.02557  -0.29401  -0.43924  -0.26679
  37        2S         -0.01283  -0.02213   0.27790   0.44675   0.21168
  38        3S         -0.00062  -0.03159   0.26238   0.24068   0.13597
                          36        37        38
                           V         V         V
     Eigenvalues --     3.31837  23.35131  23.70277
   1 1   C  1S         -0.00040  -1.41070  -1.45548
   2        2S         -0.00062   1.50450   1.57383
   3        2PX         0.80483  -0.00650   0.01221
   4        2PY        -0.44965  -0.01064   0.02143
   5        2PZ         0.00096  -0.00047  -0.00024
   6        3S          0.00094  -0.29575  -0.39975
   7        3PX        -1.14564   0.02356  -0.05539
   8        3PY         0.63802   0.03912  -0.09641
   9        3PZ        -0.00146   0.00134   0.00074
  10        4S         -0.01219   0.27574   0.76524
  11        4PX         2.00514  -0.02470   0.13313
  12        4PY        -1.11985  -0.04180   0.22967
  13        4PZ         0.00249  -0.00228  -0.00288
  14 2   H  1S          0.57930   0.01269   0.00744
  15        2S         -0.90344   0.00775  -0.01450
  16        3S         -0.47159  -0.08441  -0.03987
  17 3   H  1S         -0.59004   0.01423   0.00851
  18        2S          0.91861   0.00754  -0.01467
  19        3S          0.49409  -0.08636  -0.04010
  20 4   C  1S         -0.00002  -1.45073   1.41537
  21        2S         -0.00030   1.54724  -1.53049
  22        2PX        -0.68975   0.00633   0.01273
  23        2PY         0.39244   0.01116   0.02177
  24        2PZ        -0.00074  -0.00049   0.00010
  25        3S          0.00419  -0.30329   0.38840
  26        3PX         0.98234  -0.02282  -0.05614
  27        3PY        -0.56639  -0.04004  -0.09660
  28        3PZ         0.00111   0.00141  -0.00021
  29        4S         -0.01674   0.27686  -0.75529
  30        4PX        -1.73194   0.02438   0.12987
  31        4PY         1.00729   0.04376   0.22465
  32        4PZ        -0.00194  -0.00225   0.00174
  33 5   H  1S          0.46089   0.01276  -0.00385
  34        2S         -0.72004   0.00868   0.01332
  35        3S         -0.41695  -0.08216   0.03711
  36 6   H  1S         -0.45951   0.01200  -0.00322
  37        2S          0.71881   0.00947   0.01307
  38        3S          0.41199  -0.08116   0.03673
     Density Matrix:
                           1         2         3         4         5
   1 1   C  1S          0.65938
   2        2S          0.56145   0.49190
   3        2PX        -0.00044  -0.00056   0.08409
   4        2PY        -0.00109  -0.00149   0.00357   0.08750
   5        2PZ         0.00007   0.00011  -0.00012  -0.00026   0.06447
   6        3S         -0.08881  -0.15365   0.00233   0.00560  -0.00015
   7        3PX         0.00088   0.00135   0.13039   0.00096  -0.00010
   8        3PY         0.00123   0.00190   0.00099   0.13086  -0.00025
   9        3PZ         0.00015   0.00025  -0.00020  -0.00041   0.10369
  10        4S         -0.07944  -0.11444  -0.01648  -0.02942   0.00052
  11        4PX         0.00031   0.00168   0.06978  -0.00445  -0.00054
  12        4PY         0.00071   0.00321  -0.00444   0.06512  -0.00095
  13        4PZ        -0.00012  -0.00027  -0.00074  -0.00124   0.09605
  14 2   H  1S         -0.02068  -0.03294   0.03497  -0.06265  -0.00105
  15        2S         -0.02322  -0.03714   0.04842  -0.08767  -0.00081
  16        3S          0.00052  -0.00079   0.01978  -0.03302  -0.00003
  17 3   H  1S         -0.02113  -0.03363  -0.07244  -0.00166  -0.00117
  18        2S         -0.02352  -0.03757  -0.10005  -0.00260  -0.00095
  19        3S          0.00055  -0.00076  -0.03792   0.00046  -0.00007
  20 4   C  1S          0.00602   0.00970  -0.01093  -0.01895  -0.00035
  21        2S          0.00965   0.01509  -0.01750  -0.03034  -0.00057
  22        2PX         0.01021   0.01631  -0.01252  -0.03204   0.00043
  23        2PY         0.01775   0.02837  -0.03206  -0.04960   0.00085
  24        2PZ        -0.00045  -0.00073  -0.00032  -0.00047   0.06429
  25        3S         -0.02590  -0.03935   0.04917   0.08533   0.00172
  26        3PX         0.01569   0.02429  -0.01849  -0.04592   0.00055
  27        3PY         0.02728   0.04224  -0.04583  -0.07151   0.00111
  28        3PZ        -0.00076  -0.00122  -0.00056  -0.00083   0.10279
  29        4S          0.00551   0.00417   0.02214   0.03879   0.00220
  30        4PX         0.00300   0.00623  -0.01329  -0.02132   0.00058
  31        4PY         0.00512   0.01068  -0.02134  -0.03800   0.00119
  32        4PZ        -0.00064  -0.00104  -0.00091  -0.00145   0.09626
  33 5   H  1S          0.00416   0.00681  -0.00167  -0.01257  -0.00040
  34        2S          0.00615   0.01021   0.00362  -0.02511   0.00002
  35        3S          0.00307   0.00448   0.00429  -0.01751   0.00009
  36 6   H  1S          0.00412   0.00675  -0.01008  -0.00775  -0.00041
  37        2S          0.00607   0.01009  -0.02356  -0.00940  -0.00001
  38        3S          0.00303   0.00442  -0.01723  -0.00506   0.00007
                           6         7         8         9        10
   6        3S          0.45215
   7        3PX        -0.00177   0.20250
   8        3PY        -0.00161  -0.00519   0.19619
   9        3PZ        -0.00048  -0.00018  -0.00039   0.16676
  10        4S          0.27384  -0.02731  -0.04949   0.00068   0.18390
  11        4PX        -0.00715   0.10870  -0.01023  -0.00088  -0.01590
  12        4PY        -0.01303  -0.01024   0.09802  -0.00152  -0.03001
  13        4PZ         0.00112  -0.00099  -0.00165   0.15447   0.00197
  14 2   H  1S          0.08810   0.05665  -0.09771  -0.00175   0.07008
  15        2S          0.09942   0.07883  -0.13623  -0.00137   0.08355
  16        3S          0.00629   0.03253  -0.05073  -0.00005   0.01177
  17 3   H  1S          0.09002  -0.11353  -0.00068  -0.00193   0.07002
  18        2S          0.10068  -0.15660  -0.00081  -0.00157   0.08230
  19        3S          0.00636  -0.05911   0.00264  -0.00011   0.01085
  20 4   C  1S         -0.02635  -0.01714  -0.02973  -0.00059   0.00513
  21        2S         -0.03983  -0.02667  -0.04628  -0.00096   0.00396
  22        2PX        -0.04570  -0.01779  -0.04547   0.00074  -0.01652
  23        2PY        -0.07948  -0.04552  -0.07062   0.00144  -0.02865
  24        2PZ         0.00217  -0.00044  -0.00062   0.10339   0.00218
  25        3S          0.10114   0.07255   0.12611   0.00288   0.00015
  26        3PX        -0.06573  -0.02638  -0.06499   0.00096  -0.02430
  27        3PY        -0.11434  -0.06488  -0.10177   0.00191  -0.04213
  28        3PZ         0.00358  -0.00078  -0.00113   0.16531   0.00361
  29        4S          0.00152   0.03364   0.05916   0.00365  -0.03306
  30        4PX        -0.02217  -0.01979  -0.02993   0.00097  -0.00558
  31        4PY        -0.03816  -0.02999  -0.05475   0.00197  -0.00911
  32        4PZ         0.00304  -0.00129  -0.00201   0.15480   0.00339
  33 5   H  1S         -0.02023  -0.00053  -0.01785  -0.00058  -0.01388
  34        2S         -0.03053   0.00886  -0.03673   0.00011  -0.01784
  35        3S         -0.01153   0.00821  -0.02631   0.00017  -0.00281
  36 6   H  1S         -0.02004  -0.01511  -0.00926  -0.00060  -0.01409
  37        2S         -0.03018  -0.03604  -0.01042   0.00007  -0.01840
  38        3S         -0.01136  -0.02666  -0.00596   0.00013  -0.00320
                          11        12        13        14        15
  11        4PX         0.05945
  12        4PY        -0.00887   0.05053
  13        4PZ        -0.00125  -0.00209   0.14310
  14 2   H  1S          0.03343  -0.05365  -0.00091   0.08099
  15        2S          0.04749  -0.07457  -0.00035   0.10915   0.14906
  16        3S          0.02019  -0.02754   0.00018   0.03617   0.05154
  17 3   H  1S         -0.06267   0.00186  -0.00099  -0.01347  -0.02416
  18        2S         -0.08680   0.00364  -0.00044  -0.02407  -0.04066
  19        3S         -0.03302   0.00380   0.00016  -0.01729  -0.02579
  20 4   C  1S         -0.00331  -0.00595  -0.00054   0.00424   0.00691
  21        2S         -0.00676  -0.01206  -0.00086   0.00703   0.01155
  22        2PX        -0.01364  -0.01953   0.00099   0.00184  -0.00233
  23        2PY        -0.01955  -0.03661   0.00187   0.01115   0.02403
  24        2PZ        -0.00069  -0.00108   0.09578  -0.00053  -0.00021
  25        3S          0.02379   0.04222   0.00252  -0.02125  -0.03482
  26        3PX        -0.02105  -0.02777   0.00134   0.00126  -0.00633
  27        3PY        -0.02775  -0.05366   0.00257   0.01688   0.03635
  28        3PZ        -0.00114  -0.00178   0.15314  -0.00078  -0.00025
  29        4S          0.00926   0.01718   0.00332  -0.01877  -0.02618
  30        4PX        -0.01535  -0.01227   0.00118  -0.00151  -0.00798
  31        4PY        -0.01231  -0.02997   0.00232   0.01541   0.02763
  32        4PZ        -0.00137  -0.00222   0.14342  -0.00045   0.00017
  33 5   H  1S          0.00251  -0.01592  -0.00028   0.01113   0.02303
  34        2S          0.00997  -0.02764   0.00045   0.02373   0.04410
  35        3S          0.00784  -0.01589   0.00030   0.01668   0.02786
  36 6   H  1S         -0.01491  -0.00549  -0.00030  -0.00904  -0.01789
  37        2S         -0.02867  -0.00468   0.00043  -0.01878  -0.03388
  38        3S         -0.01742  -0.00095   0.00028  -0.01015  -0.01753
                          16        17        18        19        20
  16        3S          0.02043
  17 3   H  1S         -0.01747   0.08207
  18        2S         -0.02591   0.10942   0.14785
  19        3S         -0.01195   0.03563   0.05030   0.01969
  20 4   C  1S          0.00388   0.00430   0.00691   0.00386   0.65950
  21        2S          0.00574   0.00711   0.01153   0.00569   0.56159
  22        2PX        -0.00309   0.00878   0.02194   0.01663   0.00120
  23        2PY         0.01776   0.00728   0.00994   0.00607   0.00196
  24        2PZ         0.00000  -0.00052  -0.00017   0.00004   0.00007
  25        3S         -0.01495  -0.02144  -0.03467  -0.01473  -0.08941
  26        3PX        -0.00627   0.01410   0.03464   0.02596  -0.00048
  27        3PY         0.02683   0.00963   0.01256   0.00779  -0.00096
  28        3PZ         0.00003  -0.00076  -0.00018   0.00008   0.00016
  29        4S         -0.00665  -0.01856  -0.02548  -0.00623  -0.08037
  30        4PX        -0.00670   0.01404   0.02772   0.01717  -0.00014
  31        4PY         0.01629   0.00660   0.00702   0.00232  -0.00015
  32        4PZ         0.00022  -0.00045   0.00022   0.00025  -0.00003
  33 5   H  1S          0.01601  -0.00900  -0.01780  -0.00907  -0.01990
  34        2S          0.02717  -0.01866  -0.03355  -0.01648  -0.02194
  35        3S          0.01458  -0.01009  -0.01735  -0.00877   0.00061
  36 6   H  1S         -0.00919   0.01113   0.02292   0.01572  -0.01977
  37        2S         -0.01678   0.02373   0.04386   0.02671  -0.02196
  38        3S         -0.00893   0.01664   0.02762   0.01431   0.00054
                          21        22        23        24        25
  21        2S          0.49209
  22        2PX         0.00173   0.08253
  23        2PY         0.00280   0.00370   0.08722
  24        2PZ         0.00011   0.00012   0.00016   0.06413
  25        3S         -0.15446  -0.00554  -0.00908  -0.00012   0.45446
  26        3PX        -0.00072   0.12833   0.00212   0.00006  -0.00028
  27        3PY        -0.00145   0.00215   0.13116   0.00004   0.00013
  28        3PZ         0.00026   0.00018   0.00026   0.10254  -0.00052
  29        4S         -0.11627   0.01267   0.02157   0.00061   0.28035
  30        4PX        -0.00134   0.07419  -0.00539   0.00038   0.00575
  31        4PY        -0.00213  -0.00534   0.06793   0.00071   0.00940
  32        4PZ        -0.00011   0.00070   0.00126   0.09601   0.00065
  33 5   H  1S         -0.03171  -0.03318   0.06346  -0.00115   0.08482
  34        2S         -0.03505  -0.05006   0.08845  -0.00091   0.09376
  35        3S         -0.00055  -0.02325   0.03364  -0.00010   0.00541
  36 6   H  1S         -0.03152   0.07114   0.00296  -0.00104   0.08431
  37        2S         -0.03510   0.10142   0.00072  -0.00076   0.09389
  38        3S         -0.00067   0.04082  -0.00347  -0.00004   0.00566
                          26        27        28        29        30
  26        3PX         0.19987
  27        3PY        -0.00189   0.19779
  28        3PZ         0.00007   0.00005   0.16395
  29        4S          0.02381   0.04043   0.00075   0.18783
  30        4PX         0.11599  -0.01092   0.00060   0.01461   0.06845
  31        4PY        -0.01090   0.10302   0.00113   0.02406  -0.01105
  32        4PZ         0.00088   0.00160   0.15351   0.00177   0.00099
  33 5   H  1S         -0.05287   0.09968  -0.00190   0.06629  -0.03502
  34        2S         -0.08020   0.13843  -0.00152   0.07628  -0.05343
  35        3S         -0.03769   0.05197  -0.00016   0.00885  -0.02515
  36 6   H  1S          0.11235   0.00410  -0.00174   0.06658   0.06660
  37        2S          0.15997  -0.00029  -0.00129   0.07735   0.09537
  38        3S          0.06407  -0.00680  -0.00007   0.00947   0.03861
                          31        32        33        34        35
  31        4PY         0.05525
  32        4PZ         0.00188   0.14376
  33 5   H  1S          0.05658  -0.00100   0.08045
  34        2S          0.07880  -0.00043   0.10997   0.15283
  35        3S          0.02980   0.00013   0.03842   0.05602   0.02340
  36 6   H  1S         -0.00199  -0.00092  -0.01227  -0.02631  -0.02041
  37        2S         -0.00684  -0.00031  -0.02638  -0.04944  -0.03257
  38        3S         -0.00690   0.00017  -0.02053  -0.03264  -0.01623
                          36        37        38
  36 6   H  1S          0.07994
  37        2S          0.10973   0.15310
  38        3S          0.03849   0.05629   0.02354
    Full Mulliken population analysis:
                           1         2         3         4         5
   1 1   C  1S          0.65938
   2        2S          0.49320   0.49190
   3        2PX         0.00000   0.00000   0.08409
   4        2PY         0.00000   0.00000   0.00000   0.08750
   5        2PZ         0.00000   0.00000   0.00000   0.00000   0.06447
   6        3S         -0.02924  -0.06435   0.00000   0.00000   0.00000
   7        3PX         0.00000   0.00000   0.08203   0.00000   0.00000
   8        3PY         0.00000   0.00000   0.00000   0.08233   0.00000
   9        3PZ         0.00000   0.00000   0.00000   0.00000   0.06523
  10        4S         -0.01221  -0.02142   0.00000   0.00000   0.00000
  11        4PX         0.00000   0.00000   0.01537   0.00000   0.00000
  12        4PY         0.00000   0.00000   0.00000   0.01434   0.00000
  13        4PZ         0.00000   0.00000   0.00000   0.00000   0.02115
  14 2   H  1S         -0.00023  -0.00033   0.00188   0.00547   0.00000
  15        2S         -0.00169  -0.00323   0.00441   0.01297   0.00000
  16        3S          0.00004  -0.00008   0.00069   0.00188   0.00000
  17 3   H  1S         -0.00025  -0.00036   0.00778  -0.00000   0.00000
  18        2S         -0.00175  -0.00335   0.01760  -0.00001   0.00000
  19        3S          0.00004  -0.00007   0.00253   0.00000   0.00000
  20 4   C  1S          0.00000   0.00000  -0.00002  -0.00006   0.00000
  21        2S          0.00000  -0.00000  -0.00002  -0.00005   0.00000
  22        2PX        -0.00002  -0.00002   0.00011   0.00084   0.00000
  23        2PY        -0.00006  -0.00005   0.00084   0.00193   0.00000
  24        2PZ        -0.00000  -0.00000  -0.00000  -0.00000   0.00041
  25        3S         -0.00057  -0.00097   0.00254   0.00764  -0.00000
  26        3PX        -0.00053  -0.00096   0.00020   0.00552   0.00000
  27        3PY        -0.00158  -0.00290   0.00551   0.01068   0.00000
  28        3PZ        -0.00000  -0.00000  -0.00000  -0.00000   0.00603
  29        4S          0.00035   0.00031   0.00100   0.00304  -0.00000
  30        4PX        -0.00017  -0.00044  -0.00071   0.00148   0.00000
  31        4PY        -0.00052  -0.00131   0.00148   0.00100   0.00000
  32        4PZ        -0.00000  -0.00000  -0.00000  -0.00000   0.00902
  33 5   H  1S          0.00000   0.00000  -0.00000  -0.00000   0.00000
  34        2S          0.00001   0.00002   0.00000  -0.00030  -0.00000
  35        3S          0.00007   0.00012   0.00001  -0.00069  -0.00000
  36 6   H  1S          0.00000   0.00000  -0.00000  -0.00000   0.00000
  37        2S          0.00001   0.00002  -0.00023  -0.00006   0.00000
  38        3S          0.00007   0.00012  -0.00055  -0.00011  -0.00000
                           6         7         8         9        10
   6        3S          0.45215
   7        3PX         0.00000   0.20250
   8        3PY         0.00000   0.00000   0.19619
   9        3PZ         0.00000   0.00000   0.00000   0.16676
  10        4S          0.21214   0.00000   0.00000   0.00000   0.18390
  11        4PX         0.00000   0.07103   0.00000   0.00000   0.00000
  12        4PY         0.00000   0.00000   0.06405   0.00000   0.00000
  13        4PZ         0.00000   0.00000   0.00000   0.10094   0.00000
  14 2   H  1S          0.01610   0.01128   0.03159   0.00002   0.01850
  15        2S          0.04173   0.02016   0.05658   0.00002   0.04809
  16        3S          0.00289   0.00397   0.01005   0.00000   0.00887
  17 3   H  1S          0.01694   0.04395  -0.00000   0.00002   0.01869
  18        2S          0.04296   0.07687  -0.00001   0.00002   0.04777
  19        3S          0.00295   0.01372   0.00001   0.00000   0.00823
  20 4   C  1S         -0.00058  -0.00057  -0.00172   0.00000   0.00032
  21        2S         -0.00098  -0.00106  -0.00317   0.00000   0.00030
  22        2PX         0.00236   0.00019   0.00547   0.00000   0.00075
  23        2PY         0.00712   0.00547   0.01055   0.00000   0.00225
  24        2PZ         0.00000  -0.00000  -0.00000   0.00607   0.00000
  25        3S          0.02141   0.01354   0.04073  -0.00000   0.00006
  26        3PX         0.01226  -0.00124   0.01850   0.00000   0.00374
  27        3PY         0.03693   0.01847   0.02861   0.00000   0.01124
  28        3PZ         0.00000  -0.00000  -0.00000   0.03499   0.00000
  29        4S          0.00058   0.00518   0.01578  -0.00000  -0.02071
  30        4PX         0.00622  -0.00404   0.00594   0.00000   0.00169
  31        4PY         0.01854   0.00595   0.00136   0.00000   0.00478
  32        4PZ         0.00000  -0.00000  -0.00000   0.04930   0.00000
  33 5   H  1S         -0.00005  -0.00000  -0.00018   0.00000  -0.00072
  34        2S         -0.00113   0.00007  -0.00310  -0.00000  -0.00292
  35        3S         -0.00184   0.00012  -0.00418  -0.00000  -0.00100
  36 6   H  1S         -0.00005  -0.00012  -0.00005   0.00000  -0.00072
  37        2S         -0.00109  -0.00246  -0.00050  -0.00000  -0.00298
  38        3S         -0.00180  -0.00346  -0.00054  -0.00000  -0.00113
                          11        12        13        14        15
  11        4PX         0.05945
  12        4PY         0.00000   0.05053
  13        4PZ         0.00000   0.00000   0.14310
  14 2   H  1S          0.00656   0.01709   0.00001   0.08099
  15        2S          0.01570   0.04001   0.00001   0.07710   0.14906
  16        3S          0.00523   0.01159  -0.00000   0.01351   0.04066
  17 3   H  1S          0.02347   0.00001   0.00001  -0.00000  -0.00058
  18        2S          0.05461   0.00004   0.00001  -0.00057  -0.00478
  19        3S          0.01623   0.00003  -0.00000  -0.00186  -0.00729
  20 4   C  1S         -0.00019  -0.00060   0.00000   0.00000   0.00002
  21        2S         -0.00048  -0.00148   0.00000   0.00000   0.00003
  22        2PX        -0.00073   0.00135   0.00000  -0.00000   0.00000
  23        2PY         0.00136   0.00096   0.00000  -0.00000  -0.00037
  24        2PZ        -0.00000  -0.00000   0.00897   0.00000   0.00000
  25        3S          0.00668   0.02052  -0.00000  -0.00008  -0.00158
  26        3PX        -0.00429   0.00551   0.00000  -0.00000   0.00003
  27        3PY         0.00550   0.00133   0.00000  -0.00023  -0.00367
  28        3PZ        -0.00000  -0.00000   0.04877   0.00000   0.00000
  29        4S          0.00281   0.00901  -0.00000  -0.00112  -0.00478
  30        4PX        -0.00737   0.00311   0.00000   0.00001   0.00014
  31        4PY         0.00313  -0.00561   0.00000  -0.00249  -0.01053
  32        4PZ        -0.00000  -0.00000   0.08985   0.00000  -0.00000
  33 5   H  1S          0.00003  -0.00230   0.00000   0.00000   0.00000
  34        2S          0.00031  -0.00974  -0.00000   0.00000   0.00015
  35        3S          0.00032  -0.00728  -0.00000   0.00023   0.00146
  36 6   H  1S         -0.00175  -0.00045   0.00000  -0.00000  -0.00004
  37        2S         -0.00825  -0.00094  -0.00000  -0.00004  -0.00091
  38        3S         -0.00654  -0.00025  -0.00000  -0.00046  -0.00244
                          16        17        18        19        20
  16        3S          0.02043
  17 3   H  1S         -0.00188   0.08207
  18        2S         -0.00733   0.07729   0.14785
  19        3S         -0.00609   0.01331   0.03968   0.01969
  20 4   C  1S          0.00010   0.00000   0.00002   0.00010   0.65950
  21        2S          0.00017   0.00000   0.00003   0.00017   0.49333
  22        2PX         0.00001  -0.00000  -0.00029  -0.00059   0.00000
  23        2PY        -0.00075  -0.00000  -0.00008  -0.00014   0.00000
  24        2PZ        -0.00000   0.00000   0.00000  -0.00000   0.00000
  25        3S         -0.00261  -0.00008  -0.00159  -0.00258  -0.02943
  26        3PX         0.00005  -0.00017  -0.00295  -0.00369   0.00000
  27        3PY        -0.00453  -0.00007  -0.00069  -0.00072   0.00000
  28        3PZ        -0.00000   0.00000   0.00000  -0.00000   0.00000
  29        4S         -0.00252  -0.00111  -0.00467  -0.00237  -0.01236
  30        4PX         0.00014  -0.00191  -0.00889  -0.00684   0.00000
  31        4PY        -0.00773  -0.00058  -0.00146  -0.00060   0.00000
  32        4PZ        -0.00000   0.00000  -0.00000  -0.00000   0.00000
  33 5   H  1S          0.00022  -0.00000  -0.00004  -0.00041  -0.00021
  34        2S          0.00142  -0.00004  -0.00090  -0.00229  -0.00155
  35        3S          0.00244  -0.00046  -0.00242  -0.00280   0.00005
  36 6   H  1S         -0.00042   0.00000   0.00000   0.00022  -0.00020
  37        2S         -0.00233   0.00000   0.00015   0.00139  -0.00154
  38        3S         -0.00285   0.00023   0.00144   0.00240   0.00004
                          21        22        23        24        25
  21        2S          0.49209
  22        2PX         0.00000   0.08253
  23        2PY         0.00000   0.00000   0.08722
  24        2PZ         0.00000   0.00000   0.00000   0.06413
  25        3S         -0.06469   0.00000   0.00000   0.00000   0.45446
  26        3PX         0.00000   0.08074   0.00000   0.00000   0.00000
  27        3PY         0.00000   0.00000   0.08251   0.00000   0.00000
  28        3PZ         0.00000   0.00000   0.00000   0.06451   0.00000
  29        4S         -0.02176   0.00000   0.00000   0.00000   0.21718
  30        4PX         0.00000   0.01634   0.00000   0.00000   0.00000
  31        4PY         0.00000   0.00000   0.01496   0.00000   0.00000
  32        4PZ         0.00000   0.00000   0.00000   0.02114   0.00000
  33 5   H  1S         -0.00029   0.00141   0.00560   0.00000   0.01506
  34        2S         -0.00297   0.00372   0.01368   0.00000   0.03872
  35        3S         -0.00005   0.00067   0.00203   0.00000   0.00247
  36 6   H  1S         -0.00028   0.00679   0.00002   0.00000   0.01477
  37        2S         -0.00294   0.01724   0.00001   0.00000   0.03848
  38        3S         -0.00006   0.00272  -0.00002   0.00000   0.00258
                          26        27        28        29        30
  26        3PX         0.19987
  27        3PY         0.00000   0.19779
  28        3PZ         0.00000   0.00000   0.16395
  29        4S          0.00000   0.00000   0.00000   0.18783
  30        4PX         0.07580   0.00000   0.00000   0.00000   0.06845
  31        4PY         0.00000   0.06732   0.00000   0.00000   0.00000
  32        4PZ         0.00000   0.00000   0.10032   0.00000   0.00000
  33 5   H  1S          0.00852   0.03346   0.00002   0.01731   0.00567
  34        2S          0.01683   0.06046   0.00002   0.04354   0.01459
  35        3S          0.00381   0.01093   0.00000   0.00664   0.00541
  36 6   H  1S          0.04132   0.00012   0.00002   0.01730   0.02480
  37        2S          0.07703  -0.00001   0.00002   0.04398   0.06002
  38        3S          0.01492  -0.00012   0.00000   0.00709   0.01915
                          31        32        33        34        35
  31        4PY         0.05525
  32        4PZ         0.00000   0.14376
  33 5   H  1S          0.01906   0.00001   0.08045
  34        2S          0.04481   0.00001   0.07768   0.15283
  35        3S          0.01333  -0.00000   0.01436   0.04420   0.02340
  36 6   H  1S         -0.00006   0.00001  -0.00001  -0.00084  -0.00244
  37        2S         -0.00034   0.00000  -0.00084  -0.00699  -0.01006
  38        3S         -0.00027  -0.00000  -0.00246  -0.01008  -0.00876
                          36        37        38
  36 6   H  1S          0.07994
  37        2S          0.07751   0.15310
  38        3S          0.01438   0.04441   0.02354
     Gross orbital populations:
                           1
   1 1   C  1S          1.10436
   2        2S          0.88586
   3        2PX         0.22656
   4        2PY         0.23533
   5        2PZ         0.16633
   6        3S          0.79219
   7        3PX         0.56155
   8        3PY         0.55428
   9        3PZ         0.42336
  10        4S          0.50751
  11        4PX         0.25817
  12        4PY         0.21085
  13        4PZ         0.41281
  14 2   H  1S          0.27294
  15        2S          0.46645
  16        3S          0.08526
  17 3   H  1S          0.27629
  18        2S          0.46457
  19        3S          0.08236
  20 4   C  1S          1.10443
  21        2S          0.88584
  22        2PX         0.22157
  23        2PY         0.23503
  24        2PZ         0.16524
  25        3S          0.79265
  26        3PX         0.55082
  27        3PY         0.55634
  28        3PZ         0.41864
  29        4S          0.50754
  30        4PX         0.27857
  31        4PY         0.21949
  32        4PZ         0.41342
  33 5   H  1S          0.27135
  34        2S          0.47021
  35        3S          0.09009
  36 6   H  1S          0.26976
  37        2S          0.47085
  38        3S          0.09117
          Condensed to atoms (all electrons):
               1          2          3          4          5          6
     1  C    5.031112   0.387856   0.388701   0.599654  -0.034338  -0.033843
     2  H    0.387856   0.513027  -0.030376  -0.042291   0.005929  -0.009496
     3  H    0.388701  -0.030376   0.510191  -0.041757  -0.009372   0.005834
     4  C    0.599654  -0.042291  -0.041757   5.068637   0.382762   0.382566
     5  H   -0.034338   0.005929  -0.009372   0.382762   0.529142  -0.042480
     6  H   -0.033843  -0.009496   0.005834   0.382566  -0.042480   0.529196
 Mulliken charges:
               1
     1  C   -0.339141
     2  H    0.175352
     3  H    0.176779
     4  C   -0.349569
     5  H    0.168357
     6  H    0.168223
 Sum of Mulliken charges =   0.00000
 Mulliken charges with hydrogens summed into heavy atoms:
               1
     1  C    0.012989
     4  C   -0.012989
 Electronic spatial extent (au):  <R**2>=             83.9284
 Charge=              0.0000 electrons
 Dipole moment (field-independent basis, Debye):
    X=              0.0134    Y=              0.0357    Z=             -0.0945  Tot=              0.1019
 Quadrupole moment (field-independent basis, Debye-Ang):
   XX=            -12.2004   YY=            -12.2395   ZZ=            -15.6960
   XY=             -0.0052   XZ=             -0.0001   YZ=             -0.0044
 Traceless Quadrupole moment (field-independent basis, Debye-Ang):
   XX=              1.1782   YY=              1.1391   ZZ=             -2.3174
   XY=             -0.0052   XZ=             -0.0001   YZ=             -0.0044
 Octapole moment (field-independent basis, Debye-Ang**2):
  XXX=             -0.4694  YYY=             -0.0148  ZZZ=             -0.0639  XYY=              0.3539
  XXY=             -0.0222  XXZ=             -0.1284  XZZ=             -0.0975  YZZ=             -0.1058
  YYZ=             -0.1686  XYZ=             -0.0347
 Hexadecapole moment (field-independent basis, Debye-Ang**3):
 XXXX=            -34.3912 YYYY=            -55.4459 ZZZZ=            -17.8591 XXXY=             -7.2760
 XXXZ=              0.0257 YYYX=            -10.7503 YYYZ=              0.0319 ZZZX=              0.0290
 ZZZY=              0.0562 XXYY=            -16.2536 XXZZ=             -9.9644 YYZZ=            -13.7027
 XXYZ=              0.0126 YYXZ=             -0.0006 ZZXY=             -3.2113
 N-N= 3.300164414745D+01 E-N=-2.476958113862D+02  KE= 7.813134439726D+01
 Orbital energies and kinetic energies (alpha):
                                 1                 2
   1         O               -10.291093         15.978513
   2         O               -10.289260         15.980609
   3         O                -0.863228          1.535115
   4         O                -0.671576          1.269875
   5         O                -0.559732          0.940522
   6         O                -0.507764          1.282474
   7         O                -0.436075          1.040846
   8         O                -0.356451          1.037719
   9         V                 0.079154          1.183009
  10         V                 0.140270          0.592822
  11         V                 0.164312          0.595629
  12         V                 0.169537          0.684520
  13         V                 0.240268          0.585756
  14         V                 0.366764          0.843736
  15         V                 0.393835          0.934422
  16         V                 0.402681          0.798345
  17         V                 0.463411          1.197872
  18         V                 0.487958          1.409247
  19         V                 0.493973          1.303465
  20         V                 0.590551          1.650673
  21         V                 0.665260          1.572416
  22         V                 0.689961          2.145450
  23         V                 0.771629          2.386698
  24         V                 0.774210          2.357022
  25         V                 0.843082          1.085638
  26         V                 0.949280          3.407921
  27         V                 2.231023          3.929891
  28         V                 2.292354          4.017389
  29         V                 2.331231          4.307907
  30         V                 2.405560          4.508686
  31         V                 2.670256          6.299698
  32         V                 2.817700          6.306403
  33         V                 2.876723          6.143423
  34         V                 2.952070          6.226129
  35         V                 3.138878          6.818082
  36         V                 3.318369          6.404420
  37         V                23.351312         60.075122
  38         V                23.702771         60.201802
 Total kinetic energy from orbitals= 7.813134439726D+01
 Calling FoFJK, ICntrl=      2127 FMM=F ISym2X=0 I1Cent= 0 IOpClX= 0 NMat=1 NMatS=1 NMatT=0.
 -------------------------------------------------------------------
 Center     Atomic                   Forces (Hartrees/Bohr)
 Number     Number              X              Y              Z
 -------------------------------------------------------------------
      1        6           0.016754284    0.015394864   -0.003828389
      2        1          -0.013035655    0.004936456    0.001884062
      3        1           0.004183951   -0.008085293    0.001739587
      4        6           0.009209758    0.012801206   -0.004143529
      5        1           0.000521200   -0.016644050    0.002151034
      6        1          -0.017633538   -0.008403184    0.002197235
 -------------------------------------------------------------------
 Cartesian Forces:  Max     0.017633538 RMS     0.009860922

 GradGradGradGradGradGradGradGradGradGradGradGradGradGradGradGradGradGrad
 Berny optimization.
 Search for a local minimum.
 Step number   1 out of a maximum of    2
 All quantities printed in internal units (Hartrees-Bohrs-Radians)
 Second derivative matrix not updated -- first step.
 The second derivative matrix:
                          X1        Y1        Z1        X2        Y2
           X1           0.75901
           Y1           0.08734   0.84688
           Z1           0.00540   0.00811   0.16647
           X2          -0.16971   0.09894   0.00199   0.14675
           Y2           0.10371  -0.27705  -0.00709  -0.11786   0.26545
           Z2           0.00319  -0.00893  -0.05351  -0.00293   0.00725
           X3          -0.35026   0.00444  -0.00780   0.00054   0.00034
           Y3          -0.00022  -0.11064  -0.00185   0.03186   0.01958
           Z3          -0.01001  -0.00177  -0.05460   0.00150   0.00062
           X4          -0.26460  -0.17596  -0.00056   0.02242   0.01380
           Y4          -0.17623  -0.46762  -0.00087  -0.01295  -0.00797
           Z4           0.00139   0.00254  -0.09304  -0.00056  -0.00079
           X5           0.02351  -0.01358   0.00060  -0.00001   0.00000
           Y5           0.01128  -0.00651   0.00081   0.00000  -0.00000
           Z5          -0.00047   0.00031   0.01757   0.00024  -0.00012
           X6           0.00204  -0.00118   0.00036  -0.00001   0.00000
           Y6          -0.02588   0.01495   0.00089   0.00000  -0.00000
           Z6           0.00050  -0.00026   0.01710  -0.00024   0.00012
                          Z2        X3        Y3        Z3        X4
           Z2           0.02780
           X3          -0.00025   0.35020
           Y3           0.00164  -0.00507   0.07572
           Z3           0.01053   0.00847   0.00114   0.02858
           X4           0.00047  -0.00048  -0.02658  -0.00044   0.70326
           Y4          -0.00024   0.00027   0.01536   0.00029   0.12581
           Z4           0.01517  -0.00042  -0.00093   0.01552  -0.00506
           X5          -0.00023  -0.00001   0.00000   0.00024  -0.14130
           Y5           0.00015   0.00000  -0.00000  -0.00016   0.08903
           Z5           0.00905   0.00024  -0.00016  -0.00920  -0.00292
           X6          -0.00024  -0.00001   0.00000   0.00024  -0.31931
           Y6           0.00012   0.00000  -0.00000  -0.00012  -0.02609
           Z6          -0.00903  -0.00024   0.00016   0.00917   0.00851
                          Y4        Z4        X5        Y5        Z5
           Y4           0.85252
           Z4          -0.00972   0.17629
           X5           0.08012  -0.00192   0.12038
           Y5          -0.28809   0.00704  -0.09909   0.27901
           Z5           0.00870  -0.05716   0.00256  -0.00754   0.02957
           X6          -0.01702   0.00657  -0.00259  -0.00123   0.00035
           Y6          -0.10419   0.00186   0.03254   0.01560  -0.00119
           Z6           0.00184  -0.05678  -0.00125  -0.00030   0.01017
                          X6        Y6        Z6
           X6           0.31987
           Y6           0.01942   0.07365
           Z6          -0.00729  -0.00156   0.02936
 ITU=  0
     Eigenvalues ---    0.03652   0.04350   0.09160   0.09935   0.13414
     Eigenvalues ---    0.17375   0.26061   0.28912   0.52268   0.69388
     Eigenvalues ---    0.97113   1.54463
 Angle between quadratic step and forces=  32.89 degrees.
 Linear search not attempted -- first point.
 B after Tr=     0.008743    0.011934   -0.009810
         Rot=    1.000000   -0.000072    0.000040   -0.000119 Ang=  -0.02 deg.
 Variable       Old X    -DE/DX   Delta X   Delta X   Delta X     New X
                                 (Linear)    (Quad)   (Total)
    X1       -0.63902   0.01675   0.00000   0.02655   0.03555  -0.60347
    Y1       -1.10597   0.01539   0.00000   0.03459   0.04638  -1.05959
    Z1        0.01297  -0.00383   0.00000  -0.02125  -0.03126  -0.01829
    X2        0.44946  -0.01304   0.00000  -0.05732  -0.04790   0.40156
    Y2       -2.87329   0.00494   0.00000   0.02004   0.03207  -2.84122
    Z2       -0.03861   0.00188   0.00000   0.02593   0.01574  -0.02287
    X3       -2.69387   0.00418   0.00000   0.03652   0.04553  -2.64834
    Y3       -1.06829  -0.00809   0.00000  -0.03612  -0.02481  -1.09311
    Z3       -0.04094   0.00174   0.00000   0.02531   0.01513  -0.02581
    X4        0.62881   0.00921   0.00000   0.00961   0.01809   0.64690
    Y4        1.08864   0.01280   0.00000   0.01485   0.02694   1.11557
    Z4        0.00838  -0.00414   0.00000  -0.01933  -0.02893  -0.02055
    X5       -0.27844   0.00052   0.00000  -0.02666  -0.01862  -0.29706
    Y5        2.97742  -0.01664   0.00000  -0.05317  -0.04131   2.93612
    Z5       -0.04736   0.00215   0.00000   0.02443   0.01501  -0.03235
    X6        2.72725  -0.01763   0.00000  -0.04112  -0.03266   2.69458
    Y6        1.25335  -0.00840   0.00000  -0.05184  -0.03926   1.21408
    Z6       -0.04482   0.00220   0.00000   0.02373   0.01431  -0.03051
         Item               Value     Threshold  Converged?
 Maximum Force            0.017634     0.000450     NO 
 RMS     Force            0.009861     0.000300     NO 
 Maximum Displacement     0.047896     0.001800     NO 
 RMS     Displacement     0.031501     0.001200     NO 
 Predicted change in Energy=-2.468841D-03
 GradGradGradGradGradGradGradGradGradGradGradGradGradGradGradGradGradGrad

 Unable to Open any file for archive entry.
 1\1\GINC-BHD0011\Force\RwB97XD\6-311G\C2H4\BWEIGHT\11-Jan-2023\0\\# WB
 97XD/6-311G SCF=XQC FORCE nosym pop=full guess=read\\MD Step 1000\\0,1
 \C,-0.3381554,-0.58525211,0.0068627\H,0.23784442,-1.52048029,-0.020432
 36\H,-1.42553709,-0.56531615,-0.02166521\C,0.33275065,0.57608122,0.004
 43598\H,-0.14734549,1.57558528,-0.02506253\H,1.44319753,0.66324242,-0.
 02371833\\Version=ES64L-G16RevC.01\HF=-78.5544679\RMSD=6.015e-09\RMSF=
 9.861e-03\Dipole=0.0052785,0.0140544,-0.0371599\Quadrupole=0.8759824,0
 .8469215,-1.7229039,-0.0038867,-0.0000893,-0.0032655\PG=C01 [X(C2H4)]\
 \@
 The archive entry for this job was punched.


 IF AT FIRST YOU DON'T SUCCEED, TRY, TRY AGAIN.
 THEN GIVE UP;
 THERE'S NO USE BEING A DAMN FOOL ABOUT IT.

                                 -- W. C. FIELDS
 Job cpu time:       0 days  0 hours  0 minutes 33.2 seconds.
 Elapsed time:       0 days  0 hours  0 minutes 12.0 seconds.
 File lengths (MBytes):  RWF=    272 Int=      0 D2E=      0 Chk=     32 Scr=     32
 Normal termination of Gaussian 16 at Wed Jan 11 18:44:46 2023.
