 Entering Gaussian System, Link 0=g16
 Initial command:
 /software/gaussian/g16-c01/avx2/g16/l1.exe "/gpfs/fs2/scratch/bweight/software/many_molecule_many_mode_NAMD/src/NAMD/TEST_NVT/TRAJ/traj-18/G16/GS_NEW/Gau-31094.inp" -scrdir="/gpfs/fs2/scratch/bweight/software/many_molecule_many_mode_NAMD/src/NAMD/TEST_NVT/TRAJ/traj-18/G16/GS_NEW/"
 Entering Link 1 = /software/gaussian/g16-c01/avx2/g16/l1.exe PID=     31095.
  
 Copyright (c) 1988-2019, Gaussian, Inc.  All Rights Reserved.
  
 This is part of the Gaussian(R) 16 program.  It is based on
 the Gaussian(R) 09 system (copyright 2009, Gaussian, Inc.),
 the Gaussian(R) 03 system (copyright 2003, Gaussian, Inc.),
 the Gaussian(R) 98 system (copyright 1998, Gaussian, Inc.),
 the Gaussian(R) 94 system (copyright 1995, Gaussian, Inc.),
 the Gaussian 92(TM) system (copyright 1992, Gaussian, Inc.),
 the Gaussian 90(TM) system (copyright 1990, Gaussian, Inc.),
 the Gaussian 88(TM) system (copyright 1988, Gaussian, Inc.),
 the Gaussian 86(TM) system (copyright 1986, Carnegie Mellon
 University), and the Gaussian 82(TM) system (copyright 1983,
 Carnegie Mellon University). Gaussian is a federally registered
 trademark of Gaussian, Inc.
  
 This software contains proprietary and confidential information,
 including trade secrets, belonging to Gaussian, Inc.
  
 This software is provided under written license and may be
 used, copied, transmitted, or stored only in accord with that
 written license.
  
 The following legend is applicable only to US Government
 contracts under FAR:
  
                    RESTRICTED RIGHTS LEGEND
  
 Use, reproduction and disclosure by the US Government is
 subject to restrictions as set forth in subparagraphs (a)
 and (c) of the Commercial Computer Software - Restricted
 Rights clause in FAR 52.227-19.
  
 Gaussian, Inc.
 340 Quinnipiac St., Bldg. 40, Wallingford CT 06492
  
  
 ---------------------------------------------------------------
 Warning -- This program may not be used in any manner that
 competes with the business of Gaussian, Inc. or will provide
 assistance to any competitor of Gaussian, Inc.  The licensee
 of this program is prohibited from giving any competitor of
 Gaussian, Inc. access to this program.  By using this program,
 the user acknowledges that Gaussian, Inc. is engaged in the
 business of creating and licensing software in the field of
 computational chemistry and represents and warrants to the
 licensee that it is not a competitor of Gaussian, Inc. and that
 it will not use this program in any manner prohibited above.
 ---------------------------------------------------------------
  

 Cite this work as:
 Gaussian 16, Revision C.01,
 M. J. Frisch, G. W. Trucks, H. B. Schlegel, G. E. Scuseria, 
 M. A. Robb, J. R. Cheeseman, G. Scalmani, V. Barone, 
 G. A. Petersson, H. Nakatsuji, X. Li, M. Caricato, A. V. Marenich, 
 J. Bloino, B. G. Janesko, R. Gomperts, B. Mennucci, H. P. Hratchian, 
 J. V. Ortiz, A. F. Izmaylov, J. L. Sonnenberg, D. Williams-Young, 
 F. Ding, F. Lipparini, F. Egidi, J. Goings, B. Peng, A. Petrone, 
 T. Henderson, D. Ranasinghe, V. G. Zakrzewski, J. Gao, N. Rega, 
 G. Zheng, W. Liang, M. Hada, M. Ehara, K. Toyota, R. Fukuda, 
 J. Hasegawa, M. Ishida, T. Nakajima, Y. Honda, O. Kitao, H. Nakai, 
 T. Vreven, K. Throssell, J. A. Montgomery, Jr., J. E. Peralta, 
 F. Ogliaro, M. J. Bearpark, J. J. Heyd, E. N. Brothers, K. N. Kudin, 
 V. N. Staroverov, T. A. Keith, R. Kobayashi, J. Normand, 
 K. Raghavachari, A. P. Rendell, J. C. Burant, S. S. Iyengar, 
 J. Tomasi, M. Cossi, J. M. Millam, M. Klene, C. Adamo, R. Cammi, 
 J. W. Ochterski, R. L. Martin, K. Morokuma, O. Farkas, 
 J. B. Foresman, and D. J. Fox, Gaussian, Inc., Wallingford CT, 2019.
 
 ******************************************
 Gaussian 16:  ES64L-G16RevC.01  3-Jul-2019
                11-Jan-2023 
 ******************************************
 %oldchk=../GS_OLD/geometry.chk
 %chk=geometry.chk
 %nprocshared=4
 Will use up to    4 processors via shared memory.
 %mem=5GB
 Copying data from "../GS_OLD/geometry.chk" to current chk file "geometry.chk"
 IOpt=  2 FromEx=T IUOpen= 4 IOptOp= 5 NList=   0 IFRang= 0 IUIn= 4 IUOut= 2.
 -------------------------------------------------------
 # WB97XD/6-311G SCF=XQC FORCE nosym pop=full guess=read
 -------------------------------------------------------
 1/10=7,30=1,38=1/1,3;
 2/12=2,15=1,17=6,18=5,40=1/2;
 3/5=4,6=6,11=2,25=1,30=1,71=1,74=-58,116=-2/1,2,3;
 4/5=1/1;
 5/5=2,8=3,13=1,38=6/2,8;
 6/7=3,28=1/1;
 7/29=1,30=1/1,2,3,16;
 1/10=7,30=1/3;
 99//99;
 ------------
 MD Step 1000
 ------------
 Symbolic Z-matrix:
 Charge =  0 Multiplicity = 1
 C                    -0.3358   -0.58113   0.00816 
 H                     0.21253  -1.53137  -0.03162 
 H                    -1.42172  -0.59327  -0.03283 
 C                     0.3335    0.57814   0.00647 
 H                    -0.16413   1.56134  -0.0349 
 H                     1.44228   0.64065  -0.03337 
 

 GradGradGradGradGradGradGradGradGradGradGradGradGradGradGradGradGradGrad
 Berny optimization.
 Initialization pass.
 Trust Radius=3.00D-01 FncErr=1.00D-07 GrdErr=1.00D-07 EigMax=2.50D+02 EigMin=1.00D-04
 Number of steps in this run=      2 maximum allowed number of steps=      2.
 GradGradGradGradGradGradGradGradGradGradGradGradGradGradGradGradGradGrad

                          Input orientation:                          
 ---------------------------------------------------------------------
 Center     Atomic      Atomic             Coordinates (Angstroms)
 Number     Number       Type             X           Y           Z
 ---------------------------------------------------------------------
      1          6           0       -0.335798   -0.581133    0.008162
      2          1           0        0.212531   -1.531374   -0.031622
      3          1           0       -1.421723   -0.593274   -0.032826
      4          6           0        0.333504    0.578135    0.006469
      5          1           0       -0.164132    1.561343   -0.034905
      6          1           0        1.442276    0.640650   -0.033367
 ---------------------------------------------------------------------
                    Distance matrix (angstroms):
                    1          2          3          4          5
     1  C    0.000000
     2  H    1.097819   0.000000
     3  H    1.086766   1.884362   0.000000
     4  C    1.338608   2.113319   2.110584   0.000000
     5  H    2.149774   3.115572   2.494777   1.102747   0.000000
     6  H    2.157782   2.495989   3.118503   1.111248   1.851547
                    6
     6  H    0.000000
 Symmetry turned off by external request.
 Stoichiometry    C2H4
 Framework group  C1[X(C2H4)]
 Deg. of freedom    12
 Full point group                 C1      NOp   1
 Rotational constants (GHZ):         143.4684689          29.6673628          24.5972957
 Standard basis: 6-311G (5D, 7F)
    38 basis functions,    72 primitive gaussians,    38 cartesian basis functions
     8 alpha electrons        8 beta electrons
       nuclear repulsion energy        33.0670764785 Hartrees.
 NAtoms=    6 NActive=    6 NUniq=    6 SFac= 1.00D+00 NAtFMM=   60 NAOKFM=F Big=F
 Integral buffers will be    131072 words long.
 Raffenetti 2 integral format.
 Two-electron integral symmetry is turned off.
 Nuclear repulsion after empirical dispersion term =       33.0662355486 Hartrees.
 One-electron integrals computed using PRISM.
 NBasis=    38 RedAO= T EigKep=  6.44D-03  NBF=    38
 NBsUse=    38 1.00D-06 EigRej= -1.00D+00 NBFU=    38
 Initial guess from the checkpoint file:  "geometry.chk"
 B after Tr=    -0.000317   -0.000455   -0.000387
         Rot=    1.000000   -0.000001    0.000002    0.000006 Ang=  -0.00 deg.
 Keep R1 ints in memory in canonical form, NReq=4036876.
 Requested convergence on RMS density matrix=1.00D-08 within  32 cycles.
 Requested convergence on MAX density matrix=1.00D-06.
 Requested convergence on             energy=1.00D-06.
 No special actions if energy rises.
 SCF Done:  E(RwB97XD) =  -78.5558367445     A.U. after    8 cycles
            NFock=  8  Conv=0.65D-08     -V/T= 2.0052
 QCSCF skips out because SCF is already converged.

 **********************************************************************

            Population analysis using the SCF Density.

 **********************************************************************

 Alpha  occ. eigenvalues --  -10.29022 -10.28812  -0.86370  -0.67243  -0.55911
 Alpha  occ. eigenvalues --   -0.50952  -0.43673  -0.35676
 Alpha virt. eigenvalues --    0.07949   0.14102   0.16476   0.17026   0.24091
 Alpha virt. eigenvalues --    0.37526   0.39306   0.39779   0.46452   0.48835
 Alpha virt. eigenvalues --    0.49387   0.59102   0.66561   0.69095   0.77296
 Alpha virt. eigenvalues --    0.77557   0.83953   0.95176   2.23179   2.28987
 Alpha virt. eigenvalues --    2.33268   2.40573   2.67122   2.81707   2.87976
 Alpha virt. eigenvalues --    2.95147   3.14006   3.31770  23.35255  23.70558
     Molecular Orbital Coefficients:
                           1         2         3         4         5
                           O         O         O         O         O
     Eigenvalues --   -10.29022 -10.28812  -0.86370  -0.67243  -0.55911
   1 1   C  1S          0.11965   0.55055  -0.08828   0.06691  -0.00034
   2        2S          0.09867   0.45307  -0.13952   0.10717  -0.00056
   3        2PX         0.00016  -0.00002   0.02598   0.03674   0.13660
   4        2PY         0.00028  -0.00003   0.04625   0.06065  -0.07334
   5        2PZ         0.00000  -0.00001  -0.00163   0.00252   0.00027
   6        3S          0.00225   0.01445   0.37419  -0.29248   0.00155
   7        3PX        -0.00059   0.00045   0.03420   0.05887   0.21390
   8        3PY        -0.00101   0.00080   0.06055   0.09819  -0.11565
   9        3PZ        -0.00002  -0.00004  -0.00275   0.00448   0.00040
  10        4S          0.00281  -0.01476   0.19168  -0.22737   0.00100
  11        4PX         0.00144  -0.00159   0.00483   0.02367   0.11124
  12        4PY         0.00247  -0.00273   0.00861   0.04063  -0.06092
  13        4PZ         0.00001   0.00010  -0.00097   0.00224   0.00020
  14 2   H  1S         -0.00005  -0.00006   0.05234  -0.08793   0.10116
  15        2S         -0.00030   0.00012   0.05356  -0.10578   0.12817
  16        3S          0.00087   0.00165  -0.00166  -0.01525   0.04149
  17 3   H  1S         -0.00006  -0.00007   0.05359  -0.09120  -0.10420
  18        2S         -0.00030   0.00010   0.05435  -0.10889  -0.13110
  19        3S          0.00090   0.00168  -0.00170  -0.01607  -0.04238
  20 4   C  1S          0.55053  -0.11984  -0.08695  -0.06830  -0.00017
  21        2S          0.45314  -0.09843  -0.13730  -0.10951  -0.00026
  22        2PX        -0.00003  -0.00016  -0.02749   0.03713   0.11923
  23        2PY        -0.00004  -0.00028  -0.04654   0.06623  -0.07432
  24        2PZ        -0.00000   0.00000  -0.00135  -0.00255   0.00028
  25        3S          0.01394  -0.00394   0.36792   0.29924   0.00071
  26        3PX        -0.00018   0.00073  -0.03464   0.06024   0.18680
  27        3PY        -0.00029   0.00127  -0.05858   0.10684  -0.11546
  28        3PZ        -0.00004  -0.00000  -0.00232  -0.00459   0.00043
  29        4S         -0.01201   0.00877   0.18920   0.23699  -0.00033
  30        4PX         0.00082  -0.00193  -0.00536   0.02612   0.10223
  31        4PY         0.00138  -0.00338  -0.00902   0.04516  -0.06250
  32        4PZ         0.00009  -0.00003  -0.00094  -0.00236   0.00022
  33 5   H  1S         -0.00007  -0.00004   0.05020   0.09334  -0.09107
  34        2S         -0.00003  -0.00031   0.05128   0.11136  -0.11490
  35        3S          0.00182   0.00009  -0.00116   0.01669  -0.03692
  36 6   H  1S         -0.00005  -0.00004   0.04912   0.09145   0.08701
  37        2S         -0.00003  -0.00032   0.05065   0.10966   0.11025
  38        3S          0.00178   0.00008  -0.00121   0.01616   0.03573
                           6         7         8         9        10
                           O         O         O         V         V
     Eigenvalues --    -0.50952  -0.43673  -0.35676   0.07949   0.14102
   1 1   C  1S         -0.00411   0.00018  -0.00127   0.00344  -0.03334
   2        2S         -0.00621   0.00032  -0.00206   0.00571  -0.05348
   3        2PX         0.09417  -0.11215  -0.00431   0.00192  -0.03157
   4        2PY         0.16789   0.06645  -0.00734   0.00320  -0.06427
   5        2PZ         0.00651   0.00001   0.17927  -0.18892  -0.00320
   6        3S          0.02286  -0.00072   0.00603  -0.01726   0.11634
   7        3PX         0.13692  -0.17886  -0.00609   0.00291  -0.03719
   8        3PY         0.24559   0.10642  -0.01035   0.00480  -0.07929
   9        3PZ         0.01031   0.00005   0.28818  -0.27780  -0.00506
  10        4S         -0.05017  -0.00303   0.00872  -0.01960   1.21849
  11        4PX         0.06909  -0.11124  -0.00499   0.01608  -0.19597
  12        4PY         0.12500   0.06682  -0.00851   0.02698  -0.38645
  13        4PZ         0.00588   0.00009   0.26713  -0.69388  -0.01881
  14 2   H  1S         -0.08049  -0.11592   0.00020   0.00537  -0.01643
  15        2S         -0.11122  -0.17924   0.00259   0.00853  -0.04648
  16        3S         -0.04159  -0.08300   0.00152   0.02228  -0.83252
  17 3   H  1S         -0.07882   0.11367   0.00010   0.00537  -0.01285
  18        2S         -0.10828   0.17502   0.00245   0.00861  -0.03792
  19        3S         -0.04017   0.08085   0.00145   0.02193  -0.77321
  20 4   C  1S         -0.00800  -0.00044  -0.00102  -0.00332  -0.03626
  21        2S         -0.01250  -0.00073  -0.00167  -0.00550  -0.05823
  22        2PX        -0.09828   0.12389   0.00415   0.00202   0.04061
  23        2PY        -0.16241  -0.07296   0.00765   0.00376   0.06145
  24        2PZ         0.00672   0.00028   0.17907   0.18930  -0.00372
  25        3S          0.04067   0.00208   0.00493   0.01655   0.12847
  26        3PX        -0.14537   0.19830   0.00579   0.00310   0.04986
  27        3PY        -0.23864  -0.11611   0.01075   0.00578   0.07299
  28        3PZ         0.01063   0.00042   0.28674   0.27766  -0.00568
  29        4S         -0.03114   0.00279   0.00834   0.01850   1.24885
  30        4PX        -0.07571   0.12635   0.00445   0.01602   0.26147
  31        4PY        -0.12302  -0.07326   0.00842   0.02887   0.41010
  32        4PZ         0.00613   0.00025   0.26733   0.69486  -0.02197
  33 5   H  1S         -0.07484  -0.12397   0.00031  -0.00506  -0.01246
  34        2S         -0.10223  -0.19307   0.00271  -0.00837  -0.03800
  35        3S         -0.03813  -0.09055   0.00154  -0.02188  -0.82442
  36 6   H  1S         -0.08017   0.12366   0.00020  -0.00505  -0.01585
  37        2S         -0.10994   0.19349   0.00253  -0.00836  -0.04656
  38        3S         -0.04117   0.09078   0.00142  -0.02213  -0.88461
                          11        12        13        14        15
                           V         V         V         V         V
     Eigenvalues --     0.16476   0.17026   0.24091   0.37526   0.39306
   1 1   C  1S          0.00112  -0.04530   0.00005   0.01110   0.00150
   2        2S          0.00181  -0.07381   0.00007   0.01569   0.00248
   3        2PX         0.09751  -0.01995   0.10004  -0.03742  -0.02488
   4        2PY        -0.05389  -0.03753  -0.05733  -0.06808   0.00873
   5        2PZ         0.00017  -0.00839   0.00003  -0.00602  -0.00022
   6        3S         -0.00388   0.16638   0.00021   0.02824  -0.00343
   7        3PX         0.13956  -0.01157   0.10655  -0.05003  -0.10897
   8        3PY        -0.07818  -0.02489  -0.06195  -0.09572   0.04411
   9        3PZ         0.00023  -0.01163  -0.00003  -0.01207  -0.00013
  10        4S         -0.05081   1.43593  -0.01647  -2.76664  -0.24679
  11        4PX         0.57881  -0.11660   1.16334  -1.58956  -0.54074
  12        4PY        -0.31158  -0.20785  -0.66474  -2.77314   0.14855
  13        4PZ         0.00117  -0.05495   0.00106  -0.05479  -0.00271
  14 2   H  1S         -0.02950  -0.02519   0.01275  -0.05440   0.07736
  15        2S         -0.07952  -0.01765  -0.02395  -0.62760   0.79541
  16        3S         -1.02694  -1.00627  -1.54451  -0.34184  -0.34606
  17 3   H  1S          0.02898  -0.02476  -0.01465  -0.04751  -0.07581
  18        2S          0.07878  -0.02020   0.01880  -0.57291  -0.75197
  19        3S          1.09304  -1.00845   1.56971  -0.41069   0.26035
  20 4   C  1S          0.00114   0.04249  -0.00008  -0.01997   0.00002
  21        2S          0.00181   0.06917  -0.00015  -0.03259   0.00029
  22        2PX         0.10086  -0.02283  -0.10021  -0.04203  -0.03073
  23        2PY        -0.06093  -0.03713   0.05745  -0.07465   0.01281
  24        2PZ         0.00024   0.00811  -0.00006   0.00449   0.00051
  25        3S         -0.00358  -0.15377   0.00030   0.03833  -0.00607
  26        3PX         0.14501  -0.01762  -0.11315  -0.09276  -0.10681
  27        3PY        -0.08660  -0.02650   0.06377  -0.16760   0.05967
  28        3PZ         0.00033   0.01117  -0.00003   0.00572   0.00114
  29        4S         -0.05461  -1.34379   0.01072   3.38500   0.16562
  30        4PX         0.54122  -0.11587  -1.12532  -1.24617  -0.58635
  31        4PY        -0.33228  -0.19657   0.65247  -2.18900   0.04847
  32        4PZ         0.00150   0.05298  -0.00118   0.04588   0.00403
  33 5   H  1S          0.03106   0.02463   0.00692   0.01272  -0.07845
  34        2S          0.06916   0.02155  -0.03222   0.10026  -0.76127
  35        3S          1.08024   0.94310  -1.52693   0.46537   0.46260
  36 6   H  1S         -0.03127   0.02523  -0.00562   0.00794   0.08819
  37        2S         -0.06979   0.01982   0.03358   0.05670   0.90598
  38        3S         -1.00770   0.94662   1.51099   0.47667  -0.43504
                          16        17        18        19        20
                           V         V         V         V         V
     Eigenvalues --     0.39779   0.46452   0.48835   0.49387   0.59102
   1 1   C  1S         -0.01738   0.01148  -0.04710  -0.00021  -0.00071
   2        2S         -0.03082   0.02730  -0.07903  -0.00001  -0.00128
   3        2PX         0.02349  -0.06098   0.01353   0.00158   0.00266
   4        2PY         0.04512  -0.10614   0.01855   0.00232   0.00405
   5        2PZ         0.00000  -0.00081   0.00563  -0.15181  -0.19249
   6        3S          0.07761  -0.33491   0.10364  -0.01210  -0.00043
   7        3PX         0.09473  -0.24184  -0.02640   0.00125   0.00891
   8        3PY         0.18665  -0.41892  -0.05523   0.00076   0.01368
   9        3PZ        -0.00547  -0.00595   0.02582  -0.62822  -0.68473
  10        4S          2.43099   0.14603   3.13361   0.10180   0.08569
  11        4PX         0.10794   0.23488   0.79553   0.03294   0.02657
  12        4PY         0.25917   0.43623   1.37785   0.05908   0.04688
  13        4PZ        -0.00493  -0.00051  -0.10795   0.68457   1.24006
  14 2   H  1S         -0.02618  -0.03628  -0.07584  -0.00291  -0.00212
  15        2S         -0.53818  -0.34787  -0.91191  -0.02710  -0.01495
  16        3S          0.26370   0.08381   0.63702   0.03530   0.02930
  17 3   H  1S         -0.03810  -0.03824  -0.07396  -0.00285  -0.00204
  18        2S         -0.65221  -0.37054  -0.88732  -0.02662  -0.01350
  19        3S          0.29493   0.08389   0.60746   0.03432   0.02879
  20 4   C  1S         -0.00247  -0.00170   0.05074   0.00358   0.00087
  21        2S         -0.00762   0.00487   0.08804   0.00649   0.00163
  22        2PX         0.00532   0.05545   0.02627   0.00001   0.00249
  23        2PY         0.01335   0.09557   0.04790  -0.00018   0.00487
  24        2PZ        -0.00433  -0.00200   0.00581  -0.15263   0.19222
  25        3S          0.08148  -0.29111  -0.22180  -0.02529  -0.00285
  26        3PX        -0.05217   0.23682   0.04897  -0.00008   0.00870
  27        3PY        -0.07212   0.41188   0.08750  -0.00117   0.01686
  28        3PZ        -0.01273  -0.00848   0.02100  -0.63118   0.68237
  29        4S         -0.59199   0.73995  -3.09998  -0.12763  -0.07762
  30        4PX         1.13038  -0.35153   0.63569   0.01778   0.02729
  31        4PY         2.07897  -0.58751   1.08504   0.03038   0.04562
  32        4PZ        -0.03810  -0.01902   0.04910   0.69495  -1.23746
  33 5   H  1S         -0.05143  -0.06200   0.06494   0.00268   0.00198
  34        2S         -0.87246  -0.63145   0.81283   0.04064   0.00856
  35        3S         -0.13704   0.25859  -0.55566  -0.01053  -0.02851
  36 6   H  1S         -0.03891  -0.06096   0.06512   0.00272   0.00203
  37        2S         -0.73532  -0.61699   0.81092   0.04038   0.00916
  38        3S         -0.18385   0.27295  -0.57422  -0.01186  -0.02897
                          21        22        23        24        25
                           V         V         V         V         V
     Eigenvalues --     0.66561   0.69095   0.77296   0.77557   0.83953
   1 1   C  1S          0.00076  -0.00047   0.05152   0.07287   0.00090
   2        2S          0.00158  -0.00105   0.10875   0.15538   0.00206
   3        2PX        -0.13176   0.19830  -0.02599   0.11388  -0.00899
   4        2PY         0.07673  -0.11870  -0.04439   0.18633   0.01338
   5        2PZ        -0.00008   0.00021   0.00079   0.00621   0.00019
   6        3S         -0.01259   0.01392  -0.73438  -1.34386  -0.02236
   7        3PX        -0.61405   0.69432  -0.17681   0.44424  -0.22431
   8        3PY         0.35423  -0.41588  -0.30292   0.71752   0.16219
   9        3PZ        -0.00047   0.00079   0.00293   0.02176   0.00064
  10        4S          0.01988  -0.06170   0.73574   2.46226  -0.00849
  11        4PX         1.10491  -0.77112   0.17502  -0.75357   4.46241
  12        4PY        -0.63857   0.47130   0.21664  -1.01685  -2.55374
  13        4PZ         0.00045   0.00127   0.01166  -0.06991   0.00459
  14 2   H  1S          0.02301  -0.05891   0.01058   0.03239  -0.02572
  15        2S          0.12468  -0.63496   0.07197   0.09301  -1.54444
  16        3S         -1.03789   1.10650  -0.09566  -1.10429  -1.21754
  17 3   H  1S         -0.02231   0.05844   0.01054   0.03303   0.02887
  18        2S         -0.13649   0.66404   0.09821   0.06043   1.58086
  19        3S          1.02975  -1.07178  -0.07696  -1.24058   1.21405
  20 4   C  1S          0.00096  -0.00034   0.08412   0.03096   0.00055
  21        2S          0.00195  -0.00063   0.17908   0.06511   0.00109
  22        2PX        -0.15228  -0.18477  -0.09653   0.05266   0.01249
  23        2PY         0.08728   0.10284  -0.17388   0.09655  -0.00002
  24        2PZ        -0.00013  -0.00025   0.00629  -0.00128  -0.00018
  25        3S         -0.01430  -0.00107  -1.49485  -0.37121  -0.00384
  26        3PX        -0.68525  -0.62380  -0.35080   0.27820   0.24461
  27        3PY         0.39535   0.34483  -0.63749   0.50816  -0.10574
  28        3PZ        -0.00066  -0.00087   0.02223  -0.00482  -0.00047
  29        4S          0.01266   0.03841   2.66821   0.11642  -0.00418
  30        4PX         1.26440   0.71686   0.51413  -0.24271  -4.19799
  31        4PY        -0.72549  -0.39082   1.01765  -0.66558   2.39687
  32        4PZ         0.00120  -0.00084  -0.06470   0.03170  -0.00431
  33 5   H  1S         -0.02595  -0.05520   0.03455   0.00262  -0.02336
  34        2S         -0.15655  -0.57538   0.07501   0.07745  -1.42638
  35        3S          1.11992   0.97029  -1.16551   0.29592  -1.10987
  36 6   H  1S          0.02655   0.05513   0.03414   0.00314   0.02292
  37        2S          0.15021   0.54784   0.08071   0.02120   1.41212
  38        3S         -1.12326  -0.98942  -1.09466   0.22260   1.12081
                          26        27        28        29        30
                           V         V         V         V         V
     Eigenvalues --     0.95176   2.23179   2.28987   2.33268   2.40573
   1 1   C  1S          0.09562  -0.01032  -0.01434   0.00032  -0.00043
   2        2S          0.19866   0.00111  -0.01445   0.00073  -0.00051
   3        2PX        -0.09123  -0.08443  -0.13182   0.34023  -0.40907
   4        2PY        -0.15808  -0.15660  -0.22932  -0.19394   0.23176
   5        2PZ         0.00017  -0.01732  -0.02301   0.00002  -0.00084
   6        3S         -1.53956  -0.18327  -0.03362  -0.00131  -0.00399
   7        3PX        -0.23248   0.08427   0.20884  -0.40833   0.57071
   8        3PY        -0.39600   0.16834   0.37563   0.23502  -0.32513
   9        3PZ        -0.00333   0.01747   0.02873   0.00011   0.00096
  10        4S          5.71617  -0.11834  -0.89102  -0.00080  -0.01624
  11        4PX         1.19641   0.05032  -0.18808  -0.03040   0.95798
  12        4PY         1.98531   0.06607  -0.35414   0.00899  -0.53102
  13        4PZ        -0.02291   0.00428   0.01023  -0.00028   0.00186
  14 2   H  1S          0.01564  -0.71888  -0.78132  -0.70470   0.65859
  15        2S         -0.29237   1.02454   1.17306   1.07832  -1.45792
  16        3S         -0.09424  -0.30812  -0.46730  -0.47254   0.37774
  17 3   H  1S          0.01593  -0.71112  -0.78091   0.69524  -0.67772
  18        2S         -0.26495   1.01478   1.17693  -1.06741   1.49821
  19        3S         -0.07660  -0.28826  -0.45288   0.46178  -0.37011
  20 4   C  1S         -0.09413  -0.01036   0.01245   0.00043   0.00026
  21        2S         -0.19529   0.00025   0.01246   0.00059   0.00048
  22        2PX        -0.09215   0.12928  -0.12599   0.30933   0.41418
  23        2PY        -0.15912   0.22486  -0.21057  -0.17942  -0.23855
  24        2PZ         0.00033  -0.01811   0.02215   0.00050   0.00046
  25        3S          1.51068  -0.16996   0.02018   0.00035  -0.00005
  26        3PX        -0.22644  -0.16304   0.21484  -0.38513  -0.58007
  27        3PY        -0.39626  -0.27908   0.35348   0.22124   0.33439
  28        3PZ         0.00436   0.01930  -0.02821  -0.00055  -0.00063
  29        4S         -5.69654  -0.16334   0.88989   0.01459   0.00304
  30        4PX         1.10817  -0.01697  -0.20088   0.09177  -0.85748
  31        4PY         1.98940  -0.03730  -0.32176  -0.05213   0.50323
  32        4PZ         0.01676   0.00553  -0.00837  -0.00013  -0.00164
  33 5   H  1S         -0.01773  -0.78043   0.68800   0.70832   0.68189
  34        2S          0.28824   1.13143  -1.04972  -1.03580  -1.45435
  35        3S          0.06303  -0.34883   0.40730   0.50760   0.42103
  36 6   H  1S         -0.01771  -0.77473   0.70870  -0.69476  -0.68013
  37        2S          0.31064   1.12117  -1.07525   1.01297   1.44451
  38        3S          0.07282  -0.35014   0.43316  -0.50378  -0.42821
                          31        32        33        34        35
                           V         V         V         V         V
     Eigenvalues --     2.67122   2.81707   2.87976   2.95147   3.14006
   1 1   C  1S          0.00065   0.00313  -0.01316   0.00002  -0.00950
   2        2S          0.00054   0.00909  -0.04403  -0.00023  -0.02903
   3        2PX         0.00708   0.08904  -0.46051  -0.73672   0.45633
   4        2PY         0.01106   0.15694  -0.83258   0.41419   0.79507
   5        2PZ        -0.92382  -0.92451  -0.17294  -0.00137   0.00943
   6        3S         -0.00237  -0.07537   0.38788   0.00381   0.24391
   7        3PX        -0.00567  -0.15507   0.82219   0.88730  -0.44629
   8        3PY        -0.00888  -0.27096   1.45974  -0.48597  -0.77527
   9        3PZ         0.93899   1.12953   0.21722   0.00188  -0.01210
  10        4S          0.01728   0.17398  -0.86666  -0.01125  -0.47429
  11        4PX        -0.00192   0.12507  -0.70845  -0.67081   0.23189
  12        4PY        -0.00262   0.21935  -1.25902   0.35765   0.39866
  13        4PZ        -0.33808  -0.61020  -0.13815  -0.00150   0.00768
  14 2   H  1S          0.01524  -0.02511   0.26703  -0.38016  -0.21823
  15        2S         -0.01759   0.01623  -0.22596   0.39104   0.16540
  16        3S         -0.00349   0.05039  -0.29646   0.27049   0.06498
  17 3   H  1S          0.01542  -0.02432   0.25713   0.38155  -0.21948
  18        2S         -0.01801   0.01438  -0.20888  -0.38847   0.16610
  19        3S         -0.00400   0.05073  -0.29724  -0.28653   0.07325
  20 4   C  1S          0.00063  -0.00307   0.01346   0.00049  -0.00762
  21        2S          0.00058  -0.00946   0.04713   0.00115  -0.02365
  22        2PX        -0.00861   0.08097  -0.41342  -0.79916  -0.49730
  23        2PY        -0.01608   0.14440  -0.73325   0.44254  -0.88208
  24        2PZ        -0.92540   0.92229   0.17527   0.00026   0.01551
  25        3S         -0.00312   0.08085  -0.42300  -0.00868   0.20264
  26        3PX         0.00866  -0.14673   0.77289   0.95322   0.52718
  27        3PY         0.01592  -0.25962   1.36276  -0.52079   0.94348
  28        3PZ         0.94114  -1.12714  -0.22085  -0.00030  -0.01956
  29        4S          0.01883  -0.17669   0.89088   0.02517  -0.38647
  30        4PX        -0.00048   0.12436  -0.70702  -0.69612  -0.31494
  31        4PY        -0.00152   0.21796  -1.23542   0.37578  -0.56903
  32        4PZ        -0.33919   0.60886   0.14128   0.00013   0.01508
  33 5   H  1S          0.01464   0.03277  -0.29050   0.41422  -0.25937
  34        2S         -0.01791  -0.02599   0.26199  -0.42525   0.20300
  35        3S         -0.00201  -0.04772   0.28388  -0.24803   0.12001
  36 6   H  1S          0.01479   0.03294  -0.28769  -0.42490  -0.24765
  37        2S         -0.01848  -0.02703   0.26436   0.43543   0.19333
  38        3S         -0.00149  -0.04557   0.27030   0.24948   0.11223
                          36        37        38
                           V         V         V
     Eigenvalues --     3.31770  23.35255  23.70558
   1 1   C  1S         -0.00033  -1.41709  -1.44926
   2        2S         -0.00046   1.51132   1.56719
   3        2PX         0.77976  -0.00659   0.01212
   4        2PY        -0.43594  -0.01083   0.02126
   5        2PZ         0.00119  -0.00070  -0.00030
   6        3S         -0.00057  -0.29675  -0.39855
   7        3PX        -1.11449   0.02407  -0.05554
   8        3PY         0.61908   0.04009  -0.09668
   9        3PZ        -0.00183   0.00199   0.00088
  10        4S         -0.00572   0.27465   0.76771
  11        4PX         1.94464  -0.02601   0.13289
  12        4PY        -1.08042  -0.04411   0.22879
  13        4PZ         0.00307  -0.00332  -0.00377
  14 2   H  1S          0.55238   0.01323   0.00693
  15        2S         -0.85596   0.00760  -0.01484
  16        3S         -0.45734  -0.08402  -0.03950
  17 3   H  1S         -0.56301   0.01484   0.00798
  18        2S          0.87107   0.00728  -0.01482
  19        3S          0.48084  -0.08601  -0.03957
  20 4   C  1S          0.00010  -1.44448   1.42182
  21        2S         -0.00013   1.54062  -1.53760
  22        2PX        -0.71685   0.00606   0.01263
  23        2PY         0.41163   0.01091   0.02151
  24        2PZ        -0.00105  -0.00069   0.00018
  25        3S          0.00398  -0.30250   0.39119
  26        3PX         1.01985  -0.02227  -0.05641
  27        3PY        -0.59383  -0.03969  -0.09699
  28        3PZ         0.00160   0.00197  -0.00048
  29        4S         -0.01478   0.27966  -0.76043
  30        4PX        -1.78380   0.02341   0.13094
  31        4PY         1.04635   0.04279   0.22705
  32        4PZ        -0.00273  -0.00321   0.00290
  33 5   H  1S          0.49277   0.01341  -0.00499
  34        2S         -0.76500   0.00798   0.01378
  35        3S         -0.43235  -0.08340   0.03758
  36 6   H  1S         -0.48790   0.01214  -0.00398
  37        2S          0.75934   0.00896   0.01347
  38        3S          0.42152  -0.08166   0.03716
     Density Matrix:
                           1         2         3         4         5
   1 1   C  1S          0.65941
   2        2S          0.56152   0.49201
   3        2PX        -0.00055  -0.00074   0.08430
   4        2PY        -0.00130  -0.00181   0.00360   0.08770
   5        2PZ         0.00011   0.00017  -0.00015  -0.00033   0.06438
   6        3S         -0.08896  -0.15388   0.00279   0.00640  -0.00024
   7        3PX         0.00087   0.00133   0.13050   0.00122  -0.00010
   8        3PY         0.00121   0.00186   0.00124   0.13123  -0.00028
   9        3PZ         0.00022   0.00037  -0.00026  -0.00053   0.10349
  10        4S         -0.07945  -0.11445  -0.01532  -0.02737   0.00070
  11        4PX         0.00024   0.00154   0.07039  -0.00451  -0.00073
  12        4PY         0.00056   0.00291  -0.00458   0.06564  -0.00128
  13        4PZ        -0.00014  -0.00033  -0.00105  -0.00178   0.09587
  14 2   H  1S         -0.02053  -0.03270   0.03474  -0.06310  -0.00154
  15        2S         -0.02280  -0.03645   0.04926  -0.08788  -0.00116
  16        3S          0.00056  -0.00073   0.02090  -0.03311  -0.00005
  17 3   H  1S         -0.02099  -0.03341  -0.07273  -0.00218  -0.00168
  18        2S         -0.02309  -0.03688  -0.10066  -0.00209  -0.00133
  19        3S          0.00060  -0.00068  -0.03856   0.00135  -0.00010
  20 4   C  1S          0.00607   0.00978  -0.01080  -0.01872  -0.00053
  21        2S          0.00975   0.01523  -0.01728  -0.02996  -0.00086
  22        2PX         0.01040   0.01663  -0.01246  -0.03212   0.00055
  23        2PY         0.01810   0.02894  -0.03215  -0.04971   0.00107
  24        2PZ        -0.00061  -0.00099  -0.00052  -0.00081   0.06429
  25        3S         -0.02626  -0.03987   0.04845   0.08409   0.00260
  26        3PX         0.01606   0.02490  -0.01825  -0.04584   0.00071
  27        3PY         0.02793   0.04331  -0.04573  -0.07124   0.00141
  28        3PZ        -0.00103  -0.00166  -0.00090  -0.00142   0.10293
  29        4S          0.00532   0.00393   0.02058   0.03608   0.00316
  30        4PX         0.00310   0.00639  -0.01307  -0.02102   0.00082
  31        4PY         0.00526   0.01093  -0.02104  -0.03736   0.00164
  32        4PZ        -0.00088  -0.00143  -0.00137  -0.00224   0.09592
  33 5   H  1S          0.00420   0.00691  -0.00171  -0.01228  -0.00061
  34        2S          0.00634   0.01054   0.00349  -0.02492  -0.00003
  35        3S          0.00328   0.00479   0.00420  -0.01752   0.00012
  36 6   H  1S          0.00416   0.00683  -0.00980  -0.00761  -0.00062
  37        2S          0.00626   0.01043  -0.02332  -0.00942  -0.00008
  38        3S          0.00324   0.00475  -0.01724  -0.00517   0.00008
                           6         7         8         9        10
   6        3S          0.45268
   7        3PX        -0.00172   0.20233
   8        3PY        -0.00151  -0.00446   0.19686
   9        3PZ        -0.00073  -0.00019  -0.00044   0.16637
  10        4S          0.27385  -0.02601  -0.04717   0.00090   0.18253
  11        4PX        -0.00667   0.10947  -0.01013  -0.00119  -0.01498
  12        4PY        -0.01206  -0.01026   0.09890  -0.00205  -0.02830
  13        4PZ         0.00145  -0.00139  -0.00235   0.15411   0.00267
  14 2   H  1S          0.08741   0.05593  -0.09854  -0.00255   0.06904
  15        2S          0.09756   0.07967  -0.13676  -0.00196   0.08118
  16        3S          0.00609   0.03412  -0.05092  -0.00008   0.01104
  17 3   H  1S          0.08936  -0.11389  -0.00184  -0.00276   0.06903
  18        2S          0.09880  -0.15747  -0.00047  -0.00219   0.07993
  19        3S          0.00612  -0.06008   0.00389  -0.00016   0.01009
  20 4   C  1S         -0.02649  -0.01684  -0.02921  -0.00090   0.00514
  21        2S         -0.04010  -0.02617  -0.04541  -0.00146   0.00384
  22        2PX        -0.04656  -0.01778  -0.04561   0.00096  -0.01800
  23        2PY        -0.08104  -0.04565  -0.07090   0.00184  -0.03122
  24        2PZ         0.00294  -0.00071  -0.00108   0.10334   0.00309
  25        3S          0.10218   0.07102   0.12344   0.00434   0.00116
  26        3PX        -0.06743  -0.02617  -0.06489   0.00124  -0.02684
  27        3PY        -0.11728  -0.06477  -0.10156   0.00245  -0.04647
  28        3PZ         0.00489  -0.00125  -0.00191   0.16546   0.00513
  29        4S          0.00184   0.03110   0.05469   0.00525  -0.03231
  30        4PX        -0.02262  -0.01954  -0.02956   0.00136  -0.00676
  31        4PY        -0.03887  -0.02963  -0.05397   0.00271  -0.01108
  32        4PZ         0.00418  -0.00191  -0.00310   0.15419   0.00476
  33 5   H  1S         -0.02056  -0.00069  -0.01767  -0.00089  -0.01512
  34        2S         -0.03149   0.00850  -0.03671   0.00006  -0.01972
  35        3S         -0.01233   0.00802  -0.02636   0.00022  -0.00370
  36 6   H  1S         -0.02031  -0.01484  -0.00928  -0.00091  -0.01528
  37        2S         -0.03119  -0.03581  -0.01071   0.00000  -0.02032
  38        3S         -0.01223  -0.02666  -0.00617   0.00016  -0.00412
                          11        12        13        14        15
  11        4PX         0.06027
  12        4PY        -0.00904   0.05122
  13        4PZ        -0.00173  -0.00292   0.14280
  14 2   H  1S          0.03351  -0.05419  -0.00132   0.08124
  15        2S          0.04850  -0.07509  -0.00048   0.10960   0.14998
  16        3S          0.02119  -0.02784   0.00026   0.03684   0.05270
  17 3   H  1S         -0.06316   0.00169  -0.00141  -0.01310  -0.02489
  18        2S         -0.08772   0.00433  -0.00058  -0.02483  -0.04339
  19        3S         -0.03376   0.00456   0.00023  -0.01820  -0.02769
  20 4   C  1S         -0.00314  -0.00569  -0.00079   0.00422   0.00667
  21        2S         -0.00650  -0.01165  -0.00128   0.00698   0.01113
  22        2PX        -0.01317  -0.02007   0.00135   0.00182  -0.00277
  23        2PY        -0.02014  -0.03685   0.00253   0.01151   0.02427
  24        2PZ        -0.00099  -0.00160   0.09574  -0.00071  -0.00020
  25        3S          0.02304   0.04102   0.00374  -0.02099  -0.03349
  26        3PX        -0.02019  -0.02841   0.00183   0.00101  -0.00729
  27        3PY        -0.02845  -0.05363   0.00347   0.01706   0.03629
  28        3PZ        -0.00163  -0.00263   0.15331  -0.00104  -0.00019
  29        4S          0.00791   0.01490   0.00479  -0.01757  -0.02398
  30        4PX        -0.01468  -0.01253   0.00168  -0.00157  -0.00832
  31        4PY        -0.01263  -0.02953   0.00323   0.01526   0.02713
  32        4PZ        -0.00195  -0.00322   0.14289  -0.00058   0.00039
  33 5   H  1S          0.00188  -0.01573  -0.00045   0.01120   0.02337
  34        2S          0.00901  -0.02747   0.00056   0.02376   0.04445
  35        3S          0.00743  -0.01582   0.00042   0.01661   0.02783
  36 6   H  1S         -0.01443  -0.00584  -0.00047  -0.00910  -0.01828
  37        2S         -0.02805  -0.00532   0.00053  -0.01883  -0.03440
  38        3S         -0.01719  -0.00124   0.00038  -0.01016  -0.01776
                          16        17        18        19        20
  16        3S          0.02116
  17 3   H  1S         -0.01836   0.08236
  18        2S         -0.02778   0.10986   0.14872
  19        3S         -0.01309   0.03629   0.05144   0.02043
  20 4   C  1S          0.00366   0.00429   0.00669   0.00366   0.65947
  21        2S          0.00540   0.00708   0.01115   0.00537   0.56156
  22        2PX        -0.00353   0.00909   0.02233   0.01674   0.00113
  23        2PY         0.01761   0.00744   0.00967   0.00560   0.00174
  24        2PZ         0.00005  -0.00070  -0.00015   0.00009   0.00011
  25        3S         -0.01400  -0.02123  -0.03343  -0.01383  -0.08922
  26        3PX        -0.00703   0.01437   0.03506   0.02611  -0.00051
  27        3PY         0.02652   0.00952   0.01173   0.00698  -0.00110
  28        3PZ         0.00010  -0.00103  -0.00012   0.00016   0.00023
  29        4S         -0.00573  -0.01733  -0.02319  -0.00525  -0.08011
  30        4PX        -0.00696   0.01402   0.02757   0.01704  -0.00021
  31        4PY         0.01588   0.00656   0.00661   0.00193  -0.00023
  32        4PZ         0.00036  -0.00058   0.00042   0.00038  -0.00006
  33 5   H  1S          0.01623  -0.00905  -0.01818  -0.00948  -0.02021
  34        2S          0.02746  -0.01865  -0.03398  -0.01702  -0.02225
  35        3S          0.01464  -0.01005  -0.01752  -0.00898   0.00060
  36 6   H  1S         -0.00959   0.01120   0.02326   0.01596  -0.01994
  37        2S         -0.01733   0.02377   0.04426   0.02709  -0.02220
  38        3S         -0.00916   0.01661   0.02768   0.01445   0.00050
                          21        22        23        24        25
  21        2S          0.49205
  22        2PX         0.00163   0.08275
  23        2PY         0.00247   0.00366   0.08767
  24        2PZ         0.00016   0.00019   0.00026   0.06424
  25        3S         -0.15420  -0.00527  -0.00815  -0.00021   0.45361
  26        3PX        -0.00076   0.12868   0.00181   0.00013  -0.00012
  27        3PY        -0.00167   0.00185   0.13139   0.00013   0.00086
  28        3PZ         0.00038   0.00028   0.00042   0.10287  -0.00076
  29        4S         -0.11572   0.01400   0.02366   0.00085   0.27821
  30        4PX        -0.00149   0.07284  -0.00501   0.00059   0.00628
  31        4PY        -0.00231  -0.00495   0.06689   0.00108   0.01014
  32        4PZ        -0.00019   0.00100   0.00181   0.09584   0.00103
  33 5   H  1S         -0.03218  -0.03355   0.06363  -0.00163   0.08607
  34        2S         -0.03555  -0.04967   0.08848  -0.00128   0.09513
  35        3S         -0.00061  -0.02243   0.03343  -0.00012   0.00567
  36 6   H  1S         -0.03178   0.07124   0.00261  -0.00149   0.08499
  37        2S         -0.03549   0.10122   0.00094  -0.00110   0.09495
  38        3S         -0.00074   0.04038  -0.00291  -0.00005   0.00592
                          26        27        28        29        30
  26        3PX         0.20042
  27        3PY        -0.00275   0.19746
  28        3PZ         0.00017   0.00019   0.16472
  29        4S          0.02560   0.04297   0.00107   0.18645
  30        4PX         0.11388  -0.01052   0.00092   0.01572   0.06577
  31        4PY        -0.01048   0.10104   0.00173   0.02533  -0.01012
  32        4PZ         0.00128   0.00232   0.15347   0.00260   0.00145
  33 5   H  1S         -0.05366   0.09961  -0.00269   0.06727  -0.03428
  34        2S         -0.07988   0.13801  -0.00214   0.07759  -0.05151
  35        3S         -0.03651   0.05149  -0.00019   0.00935  -0.02376
  36 6   H  1S          0.11247   0.00325  -0.00248   0.06756   0.06543
  37        2S          0.15962  -0.00037  -0.00187   0.07903   0.09329
  38        3S          0.06337  -0.00606  -0.00010   0.01023   0.03735
                          31        32        33        34        35
  31        4PY         0.05323
  32        4PZ         0.00273   0.14302
  33 5   H  1S          0.05549  -0.00139   0.08099
  34        2S          0.07698  -0.00057   0.11004   0.15194
  35        3S          0.02882   0.00022   0.03788   0.05485   0.02260
  36 6   H  1S         -0.00189  -0.00130  -0.01250  -0.02594  -0.01977
  37        2S         -0.00605  -0.00047  -0.02604  -0.04794  -0.03125
  38        3S         -0.00613   0.00024  -0.01996  -0.03136  -0.01539
                          36        37        38
  36 6   H  1S          0.08013
  37        2S          0.10970   0.15255
  38        3S          0.03811   0.05549   0.02296
    Full Mulliken population analysis:
                           1         2         3         4         5
   1 1   C  1S          0.65941
   2        2S          0.49326   0.49201
   3        2PX         0.00000   0.00000   0.08430
   4        2PY         0.00000   0.00000   0.00000   0.08770
   5        2PZ         0.00000   0.00000   0.00000   0.00000   0.06438
   6        3S         -0.02928  -0.06444   0.00000   0.00000   0.00000
   7        3PX         0.00000   0.00000   0.08210   0.00000   0.00000
   8        3PY         0.00000   0.00000   0.00000   0.08256   0.00000
   9        3PZ         0.00000   0.00000   0.00000   0.00000   0.06511
  10        4S         -0.01222  -0.02142   0.00000   0.00000   0.00000
  11        4PX         0.00000   0.00000   0.01550   0.00000   0.00000
  12        4PY         0.00000   0.00000   0.00000   0.01446   0.00000
  13        4PZ         0.00000   0.00000   0.00000   0.00000   0.02111
  14 2   H  1S         -0.00023  -0.00033   0.00179   0.00562   0.00001
  15        2S         -0.00166  -0.00318   0.00428   0.01324   0.00001
  16        3S          0.00004  -0.00007   0.00070   0.00191   0.00000
  17 3   H  1S         -0.00025  -0.00036   0.00785   0.00000   0.00001
  18        2S         -0.00172  -0.00330   0.01773   0.00000   0.00001
  19        3S          0.00005  -0.00006   0.00257  -0.00000   0.00000
  20 4   C  1S          0.00000   0.00000  -0.00002  -0.00006   0.00000
  21        2S          0.00000  -0.00000  -0.00002  -0.00005   0.00000
  22        2PX        -0.00002  -0.00002   0.00011   0.00085   0.00000
  23        2PY        -0.00006  -0.00005   0.00085   0.00196   0.00000
  24        2PZ        -0.00000  -0.00000  -0.00000  -0.00000   0.00041
  25        3S         -0.00059  -0.00099   0.00252   0.00759  -0.00000
  26        3PX        -0.00054  -0.00099   0.00019   0.00554   0.00000
  27        3PY        -0.00163  -0.00300   0.00552   0.01068   0.00000
  28        3PZ        -0.00000  -0.00000  -0.00000  -0.00000   0.00610
  29        4S          0.00034   0.00030   0.00093   0.00284  -0.00000
  30        4PX        -0.00018  -0.00045  -0.00071   0.00146   0.00000
  31        4PY        -0.00053  -0.00134   0.00146   0.00097   0.00000
  32        4PZ        -0.00000  -0.00000  -0.00000  -0.00000   0.00902
  33 5   H  1S          0.00000   0.00000  -0.00000  -0.00000   0.00000
  34        2S          0.00001   0.00002   0.00000  -0.00032   0.00000
  35        3S          0.00008   0.00013   0.00001  -0.00071  -0.00000
  36 6   H  1S          0.00000   0.00000  -0.00000  -0.00000   0.00000
  37        2S          0.00001   0.00002  -0.00024  -0.00007   0.00000
  38        3S          0.00007   0.00013  -0.00057  -0.00012  -0.00000
                           6         7         8         9        10
   6        3S          0.45268
   7        3PX         0.00000   0.20233
   8        3PY         0.00000   0.00000   0.19686
   9        3PZ         0.00000   0.00000   0.00000   0.16637
  10        4S          0.21215   0.00000   0.00000   0.00000   0.18253
  11        4PX         0.00000   0.07154   0.00000   0.00000   0.00000
  12        4PY         0.00000   0.00000   0.06462   0.00000   0.00000
  13        4PZ         0.00000   0.00000   0.00000   0.10071   0.00000
  14 2   H  1S          0.01601   0.01063   0.03245   0.00004   0.01824
  15        2S          0.04101   0.01943   0.05779   0.00003   0.04676
  16        3S          0.00281   0.00397   0.01026   0.00000   0.00833
  17 3   H  1S          0.01687   0.04418   0.00001   0.00004   0.01845
  18        2S          0.04223   0.07734   0.00000   0.00004   0.04644
  19        3S          0.00284   0.01394  -0.00001   0.00000   0.00765
  20 4   C  1S         -0.00059  -0.00057  -0.00171   0.00000   0.00032
  21        2S         -0.00100  -0.00105  -0.00314   0.00000   0.00029
  22        2PX         0.00243   0.00019   0.00551   0.00000   0.00082
  23        2PY         0.00731   0.00551   0.01063   0.00000   0.00245
  24        2PZ         0.00000  -0.00000  -0.00000   0.00612   0.00000
  25        3S          0.02176   0.01330   0.04004  -0.00000   0.00044
  26        3PX         0.01263  -0.00126   0.01851   0.00000   0.00414
  27        3PY         0.03804   0.01847   0.02855   0.00000   0.01241
  28        3PZ         0.00000  -0.00000  -0.00000   0.03523   0.00000
  29        4S          0.00070   0.00479   0.01460  -0.00000  -0.02028
  30        4PX         0.00635  -0.00401   0.00585   0.00000   0.00205
  31        4PY         0.01891   0.00587   0.00127   0.00000   0.00581
  32        4PZ         0.00000  -0.00000  -0.00000   0.04924   0.00000
  33 5   H  1S         -0.00006  -0.00000  -0.00019   0.00000  -0.00082
  34        2S         -0.00123   0.00006  -0.00325  -0.00000  -0.00333
  35        3S         -0.00202   0.00010  -0.00426  -0.00000  -0.00134
  36 6   H  1S         -0.00005  -0.00013  -0.00006   0.00000  -0.00081
  37        2S         -0.00119  -0.00257  -0.00053  -0.00000  -0.00339
  38        3S         -0.00198  -0.00354  -0.00056  -0.00000  -0.00148
                          11        12        13        14        15
  11        4PX         0.06027
  12        4PY         0.00000   0.05122
  13        4PZ         0.00000   0.00000   0.14280
  14 2   H  1S          0.00627   0.01756   0.00002   0.08124
  15        2S          0.01527   0.04097   0.00001   0.07742   0.14998
  16        3S          0.00523   0.01191  -0.00000   0.01377   0.04158
  17 3   H  1S          0.02365  -0.00001   0.00002  -0.00001  -0.00067
  18        2S          0.05517  -0.00003   0.00001  -0.00067  -0.00550
  19        3S          0.01659  -0.00003  -0.00000  -0.00204  -0.00811
  20 4   C  1S         -0.00018  -0.00057   0.00000   0.00000   0.00002
  21        2S         -0.00046  -0.00143   0.00000   0.00000   0.00003
  22        2PX        -0.00071   0.00139   0.00000  -0.00000   0.00000
  23        2PY         0.00140   0.00096   0.00000  -0.00000  -0.00035
  24        2PZ        -0.00000  -0.00000   0.00900   0.00000   0.00000
  25        3S          0.00647   0.01995  -0.00000  -0.00007  -0.00146
  26        3PX        -0.00414   0.00562   0.00000  -0.00000   0.00004
  27        3PY         0.00563   0.00127   0.00000  -0.00022  -0.00353
  28        3PZ        -0.00000  -0.00000   0.04896   0.00000   0.00000
  29        4S          0.00239   0.00782  -0.00000  -0.00102  -0.00428
  30        4PX        -0.00707   0.00317   0.00000   0.00001   0.00018
  31        4PY         0.00320  -0.00559   0.00000  -0.00241  -0.01018
  32        4PZ        -0.00000  -0.00000   0.08968   0.00000  -0.00000
  33 5   H  1S          0.00002  -0.00235   0.00000   0.00000   0.00000
  34        2S          0.00026  -0.00990  -0.00000   0.00000   0.00016
  35        3S          0.00028  -0.00731  -0.00000   0.00023   0.00146
  36 6   H  1S         -0.00176  -0.00049   0.00000  -0.00000  -0.00004
  37        2S         -0.00829  -0.00108  -0.00000  -0.00004  -0.00092
  38        3S         -0.00655  -0.00032  -0.00000  -0.00046  -0.00247
                          16        17        18        19        20
  16        3S          0.02116
  17 3   H  1S         -0.00206   0.08236
  18        2S         -0.00814   0.07761   0.14872
  19        3S         -0.00682   0.01356   0.04058   0.02043
  20 4   C  1S          0.00009   0.00000   0.00002   0.00009   0.65947
  21        2S          0.00016   0.00000   0.00003   0.00016   0.49330
  22        2PX         0.00001  -0.00000  -0.00027  -0.00058   0.00000
  23        2PY        -0.00074  -0.00000  -0.00008  -0.00013   0.00000
  24        2PZ        -0.00000   0.00000   0.00000  -0.00000   0.00000
  25        3S         -0.00240  -0.00007  -0.00147  -0.00238  -0.02937
  26        3PX         0.00007  -0.00016  -0.00286  -0.00364   0.00000
  27        3PY        -0.00442  -0.00007  -0.00064  -0.00065   0.00000
  28        3PZ        -0.00000   0.00000   0.00000  -0.00000   0.00000
  29        4S         -0.00214  -0.00101  -0.00416  -0.00197  -0.01232
  30        4PX         0.00019  -0.00185  -0.00864  -0.00669   0.00000
  31        4PY        -0.00748  -0.00058  -0.00138  -0.00051   0.00000
  32        4PZ        -0.00000   0.00000  -0.00000  -0.00000   0.00000
  33 5   H  1S          0.00023  -0.00000  -0.00004  -0.00043  -0.00022
  34        2S          0.00144  -0.00004  -0.00091  -0.00237  -0.00160
  35        3S          0.00247  -0.00046  -0.00243  -0.00287   0.00005
  36 6   H  1S         -0.00043   0.00000   0.00000   0.00022  -0.00021
  37        2S         -0.00241   0.00000   0.00015   0.00142  -0.00157
  38        3S         -0.00292   0.00023   0.00145   0.00243   0.00004
                          21        22        23        24        25
  21        2S          0.49205
  22        2PX         0.00000   0.08275
  23        2PY         0.00000   0.00000   0.08767
  24        2PZ         0.00000   0.00000   0.00000   0.06424
  25        3S         -0.06458   0.00000   0.00000   0.00000   0.45361
  26        3PX         0.00000   0.08095   0.00000   0.00000   0.00000
  27        3PY         0.00000   0.00000   0.08266   0.00000   0.00000
  28        3PZ         0.00000   0.00000   0.00000   0.06472   0.00000
  29        4S         -0.02166   0.00000   0.00000   0.00000   0.21553
  30        4PX         0.00000   0.01604   0.00000   0.00000   0.00000
  31        4PY         0.00000   0.00000   0.01473   0.00000   0.00000
  32        4PZ         0.00000   0.00000   0.00000   0.02111   0.00000
  33 5   H  1S         -0.00031   0.00152   0.00571   0.00001   0.01556
  34        2S         -0.00306   0.00388   0.01364   0.00001   0.03968
  35        3S         -0.00006   0.00068   0.00199   0.00000   0.00260
  36 6   H  1S         -0.00029   0.00689   0.00001   0.00001   0.01501
  37        2S         -0.00299   0.01729   0.00001   0.00001   0.03909
  38        3S         -0.00007   0.00269  -0.00001   0.00000   0.00270
                          26        27        28        29        30
  26        3PX         0.20042
  27        3PY         0.00000   0.19746
  28        3PZ         0.00000   0.00000   0.16472
  29        4S          0.00000   0.00000   0.00000   0.18645
  30        4PX         0.07442   0.00000   0.00000   0.00000   0.06577
  31        4PY         0.00000   0.06603   0.00000   0.00000   0.00000
  32        4PZ         0.00000   0.00000   0.10029   0.00000   0.00000
  33 5   H  1S          0.00913   0.03348   0.00004   0.01769   0.00579
  34        2S          0.01754   0.05989   0.00004   0.04452   0.01466
  35        3S          0.00384   0.01070   0.00000   0.00704   0.00531
  36 6   H  1S          0.04165   0.00007   0.00003   0.01761   0.02440
  37        2S          0.07710  -0.00001   0.00003   0.04504   0.05876
  38        3S          0.01477  -0.00008   0.00000   0.00767   0.01852
                          31        32        33        34        35
  31        4PY         0.05323
  32        4PZ         0.00000   0.14302
  33 5   H  1S          0.01851   0.00002   0.08099
  34        2S          0.04329   0.00001   0.07773   0.15194
  35        3S          0.01272  -0.00000   0.01416   0.04328   0.02260
  36 6   H  1S         -0.00004   0.00002  -0.00001  -0.00078  -0.00231
  37        2S         -0.00021   0.00001  -0.00078  -0.00652  -0.00947
  38        3S         -0.00017  -0.00000  -0.00233  -0.00951  -0.00820
                          36        37        38
  36 6   H  1S          0.08013
  37        2S          0.07749   0.15255
  38        3S          0.01424   0.04378   0.02296
     Gross orbital populations:
                           1
   1 1   C  1S          1.10436
   2        2S          0.88586
   3        2PX         0.22687
   4        2PY         0.23605
   5        2PZ         0.16616
   6        3S          0.79286
   7        3PX         0.56061
   8        3PY         0.55581
   9        3PZ         0.42293
  10        4S          0.50421
  11        4PX         0.25997
  12        4PY         0.21181
  13        4PZ         0.41231
  14 2   H  1S          0.27381
  15        2S          0.46732
  16        3S          0.08628
  17 3   H  1S          0.27724
  18        2S          0.46528
  19        3S          0.08322
  20 4   C  1S          1.10440
  21        2S          0.88584
  22        2PX         0.22239
  23        2PY         0.23609
  24        2PZ         0.16563
  25        3S          0.79246
  26        3PX         0.55296
  27        3PY         0.55661
  28        3PZ         0.42016
  29        4S          0.50741
  30        4PX         0.27333
  31        4PY         0.21559
  32        4PZ         0.41240
  33 5   H  1S          0.27305
  34        2S          0.46924
  35        3S          0.08828
  36 6   H  1S          0.27037
  37        2S          0.47049
  38        3S          0.09032
          Condensed to atoms (all electrons):
               1          2          3          4          5          6
     1  C    5.034375   0.387109   0.387897   0.602071  -0.036102  -0.035537
     2  H    0.387109   0.517918  -0.034017  -0.039908   0.005997  -0.009690
     3  H    0.387897  -0.034017   0.515003  -0.039496  -0.009548   0.005905
     4  C    0.602071  -0.039908  -0.039496   5.054538   0.384300   0.383777
     5  H   -0.036102   0.005997  -0.009548   0.384300   0.525848  -0.039927
     6  H   -0.035537  -0.009690   0.005905   0.383777  -0.039927   0.526657
 Mulliken charges:
               1
     1  C   -0.339812
     2  H    0.172591
     3  H    0.174255
     4  C   -0.345282
     5  H    0.169432
     6  H    0.168815
 Sum of Mulliken charges =  -0.00000
 Mulliken charges with hydrogens summed into heavy atoms:
               1
     1  C    0.007034
     4  C   -0.007034
 Electronic spatial extent (au):  <R**2>=             83.7284
 Charge=             -0.0000 electrons
 Dipole moment (field-independent basis, Debye):
    X=              0.0003    Y=              0.0169    Z=             -0.1342  Tot=              0.1353
 Quadrupole moment (field-independent basis, Debye-Ang):
   XX=            -12.2071   YY=            -12.2174   ZZ=            -15.6666
   XY=              0.0158   XZ=              0.0009   YZ=             -0.0026
 Traceless Quadrupole moment (field-independent basis, Debye-Ang):
   XX=              1.1566   YY=              1.1464   ZZ=             -2.3029
   XY=              0.0158   XZ=              0.0009   YZ=             -0.0026
 Octapole moment (field-independent basis, Debye-Ang**2):
  XXX=             -0.2930  YYY=             -0.0406  ZZZ=             -0.0565  XYY=              0.1417
  XXY=             -0.0327  XXZ=             -0.1729  XZZ=             -0.0829  YZZ=             -0.0704
  YYZ=             -0.2307  XYZ=             -0.0494
 Hexadecapole moment (field-independent basis, Debye-Ang**3):
 XXXX=            -34.2858 YYYY=            -55.2144 ZZZZ=            -17.8194 XXXY=             -7.2528
 XXXZ=              0.0179 YYYX=            -10.7124 YYYZ=              0.0212 ZZZX=              0.0203
 ZZZY=              0.0387 XXYY=            -16.1984 XXZZ=             -9.9225 YYZZ=            -13.6406
 XXYZ=              0.0090 YYXZ=             -0.0006 ZZXY=             -3.2058
 N-N= 3.306623554865D+01 E-N=-2.478432581198D+02  KE= 7.815265757453D+01
 Orbital energies and kinetic energies (alpha):
                                 1                 2
   1         O               -10.290223         15.978217
   2         O               -10.288116         15.980165
   3         O                -0.863695          1.537905
   4         O                -0.672431          1.271729
   5         O                -0.559112          0.941786
   6         O                -0.509517          1.283845
   7         O                -0.436726          1.044085
   8         O                -0.356761          1.038596
   9         V                 0.079494          1.182200
  10         V                 0.141023          0.588487
  11         V                 0.164765          0.594658
  12         V                 0.170258          0.678913
  13         V                 0.240905          0.582889
  14         V                 0.375258          0.857737
  15         V                 0.393059          0.932453
  16         V                 0.397790          0.776960
  17         V                 0.464516          1.191533
  18         V                 0.488348          1.424573
  19         V                 0.493871          1.302110
  20         V                 0.591019          1.652775
  21         V                 0.665610          1.572425
  22         V                 0.690949          2.147262
  23         V                 0.772964          2.428895
  24         V                 0.775566          2.314928
  25         V                 0.839530          1.081753
  26         V                 0.951765          3.421669
  27         V                 2.231787          3.925140
  28         V                 2.289873          4.031245
  29         V                 2.332676          4.302806
  30         V                 2.405731          4.515920
  31         V                 2.671223          6.300664
  32         V                 2.817074          6.303534
  33         V                 2.879764          6.139398
  34         V                 2.951474          6.225699
  35         V                 3.140056          6.821809
  36         V                 3.317698          6.402841
  37         V                23.352553         60.074689
  38         V                23.705581         60.203534
 Total kinetic energy from orbitals= 7.815265757453D+01
 Calling FoFJK, ICntrl=      2127 FMM=F ISym2X=0 I1Cent= 0 IOpClX= 0 NMat=1 NMatS=1 NMatT=0.
 -------------------------------------------------------------------
 Center     Atomic                   Forces (Hartrees/Bohr)
 Number     Number              X              Y              Z
 -------------------------------------------------------------------
      1        6           0.012258992    0.007360704   -0.005478198
      2        1          -0.008570196    0.006487981    0.002771295
      3        1           0.003023872   -0.003598256    0.002536679
      4        6           0.007786424    0.006553386   -0.005794918
      5        1           0.002278356   -0.012166752    0.002919032
      6        1          -0.016777448   -0.004637063    0.003046111
 -------------------------------------------------------------------
 Cartesian Forces:  Max     0.016777448 RMS     0.007443802

 GradGradGradGradGradGradGradGradGradGradGradGradGradGradGradGradGradGrad
 Berny optimization.
 Search for a local minimum.
 Step number   1 out of a maximum of    2
 All quantities printed in internal units (Hartrees-Bohrs-Radians)
 Second derivative matrix not updated -- first step.
 The second derivative matrix:
                          X1        Y1        Z1        X2        Y2
           X1           0.75588
           Y1           0.09960   0.85757
           Z1           0.00798   0.01234   0.17150
           X2          -0.16277   0.09535   0.00288   0.14036
           Y2           0.10164  -0.28368  -0.01023  -0.11459   0.27267
           Z2           0.00454  -0.01284  -0.05515  -0.00412   0.01062
           X3          -0.35125  -0.00261  -0.01112  -0.00044  -0.00024
           Y3          -0.00880  -0.10976  -0.00271   0.03244   0.01863
           Z3          -0.01423  -0.00262  -0.05639   0.00206   0.00075
           X4          -0.26681  -0.17794  -0.00111   0.02288   0.01317
           Y4          -0.17825  -0.47232  -0.00183  -0.01321  -0.00761
           Z4           0.00169   0.00308  -0.09386  -0.00083  -0.00114
           X5           0.02346  -0.01355   0.00085  -0.00001   0.00001
           Y5           0.01185  -0.00684   0.00116   0.00001  -0.00000
           Z5          -0.00071   0.00044   0.01725   0.00035  -0.00019
           X6           0.00149  -0.00086   0.00053  -0.00001   0.00001
           Y6          -0.02604   0.01504   0.00127   0.00001  -0.00000
           Z6           0.00073  -0.00040   0.01665  -0.00034   0.00019
                          Z2        X3        Y3        Z3        X4
           Z2           0.02881
           X3          -0.00042   0.35140
           Y3           0.00219   0.00302   0.07575
           Z3           0.01052   0.01214   0.00186   0.02968
           X4           0.00068   0.00032  -0.02667  -0.00067   0.71483
           Y4          -0.00037  -0.00019   0.01540   0.00041   0.11822
           Z4           0.01576  -0.00060  -0.00134   0.01626  -0.00690
           X5          -0.00035  -0.00001   0.00001   0.00035  -0.14813
           Y5           0.00021   0.00001  -0.00001  -0.00022   0.09379
           Z5           0.00923   0.00036  -0.00022  -0.00939  -0.00432
           X6          -0.00034  -0.00001   0.00001   0.00035  -0.32308
           Y6           0.00018   0.00001  -0.00000  -0.00019  -0.02057
           Z6          -0.00917  -0.00035   0.00022   0.00932   0.01232
                          Y4        Z4        X5        Y5        Z5
           Y4           0.85905
           Z4          -0.01340   0.17537
           X5           0.08574  -0.00286   0.12660
           Y5          -0.28987   0.01019  -0.10471   0.28035
           Z5           0.01262  -0.05714   0.00386  -0.01084   0.02981
           X6          -0.01231   0.00949  -0.00190  -0.00094   0.00047
           Y6          -0.10464   0.00261   0.03250   0.01637  -0.00181
           Z6           0.00257  -0.05639  -0.00185  -0.00051   0.01023
                          X6        Y6        Z6
           X6           0.32351
           Y6           0.01410   0.07324
           Z6          -0.01049  -0.00207   0.02935
 ITU=  0
     Eigenvalues ---    0.03719   0.04384   0.09081   0.10177   0.13517
     Eigenvalues ---    0.17465   0.26286   0.29021   0.52992   0.70216
     Eigenvalues ---    0.97377   1.56102
 Angle between quadratic step and forces=  35.89 degrees.
 Linear search not attempted -- first point.
 B after Tr=     0.005642    0.005812   -0.013793
         Rot=    1.000000   -0.000052    0.000029   -0.000101 Ang=  -0.01 deg.
 Variable       Old X    -DE/DX   Delta X   Delta X   Delta X     New X
                                 (Linear)    (Quad)   (Total)
    X1       -0.63457   0.01226   0.00000   0.01876   0.02463  -0.60994
    Y1       -1.09818   0.00736   0.00000   0.02022   0.02591  -1.07227
    Z1        0.01542  -0.00548   0.00000  -0.02926  -0.04320  -0.02777
    X2        0.40163  -0.00857   0.00000  -0.03092  -0.02470   0.37693
    Y2       -2.89388   0.00649   0.00000   0.02286   0.02875  -2.86513
    Z2       -0.05976   0.00277   0.00000   0.03600   0.02193  -0.03782
    X3       -2.68667   0.00302   0.00000   0.02545   0.03132  -2.65535
    Y3       -1.12113  -0.00360   0.00000  -0.01202  -0.00675  -1.12787
    Z3       -0.06203   0.00254   0.00000   0.03503   0.02097  -0.04107
    X4        0.63023   0.00779   0.00000   0.00458   0.01000   0.64023
    Y4        1.09252   0.00655   0.00000   0.00386   0.00980   1.10231
    Z4        0.01222  -0.00579   0.00000  -0.02783  -0.04147  -0.02924
    X5       -0.31016   0.00228   0.00000  -0.00759  -0.00254  -0.31270
    Y5        2.95051  -0.01217   0.00000  -0.03994  -0.03419   2.91632
    Z5       -0.06596   0.00292   0.00000   0.03490   0.02140  -0.04456
    X6        2.72551  -0.01678   0.00000  -0.04412  -0.03871   2.68679
    Y6        1.21065  -0.00464   0.00000  -0.02989  -0.02353   1.18712
    Z6       -0.06305   0.00305   0.00000   0.03389   0.02037  -0.04268
         Item               Value     Threshold  Converged?
 Maximum Force            0.016777     0.000450     NO 
 RMS     Force            0.007444     0.000300     NO 
 Maximum Displacement     0.043198     0.001800     NO 
 RMS     Displacement     0.026398     0.001200     NO 
 Predicted change in Energy=-1.517996D-03
 GradGradGradGradGradGradGradGradGradGradGradGradGradGradGradGradGradGrad

 Unable to Open any file for archive entry.
 1\1\GINC-BHD0004\Force\RwB97XD\6-311G\C2H4\BWEIGHT\11-Jan-2023\0\\# WB
 97XD/6-311G SCF=XQC FORCE nosym pop=full guess=read\\MD Step 1000\\0,1
 \C,-0.33579806,-0.58113315,0.00816161\H,0.21253131,-1.53137446,-0.0316
 2177\H,-1.4217232,-0.59327424,-0.0328259\C,0.33350367,0.57813529,0.006
 46907\H,-0.16413224,1.56134297,-0.03490459\H,1.44227609,0.64064951,-0.
 03336692\\Version=ES64L-G16RevC.01\HF=-78.5558367\RMSD=6.504e-09\RMSF=
 7.444e-03\Dipole=0.0001072,0.0066378,-0.0528089\Quadrupole=0.8598819,0
 .8522883,-1.7121702,0.0117715,0.0006471,-0.0019579\PG=C01 [X(C2H4)]\\@
 The archive entry for this job was punched.


 DO NOT LET SELFISH MEN OR GREEDY INTERESTS SKIN YOUR COUNTRY OF ITS
 BEAUTY, ITS RICHES, OR ITS ROMANCE. -- THEODORE ROOSEVELT
 Job cpu time:       0 days  0 hours  0 minutes 39.7 seconds.
 Elapsed time:       0 days  0 hours  0 minutes 13.8 seconds.
 File lengths (MBytes):  RWF=    272 Int=      0 D2E=      0 Chk=     32 Scr=     32
 Normal termination of Gaussian 16 at Wed Jan 11 18:44:20 2023.
