 Entering Gaussian System, Link 0=g16
 Initial command:
 /software/gaussian/g16-c01/avx2/g16/l1.exe "/gpfs/fs2/scratch/bweight/software/many_molecule_many_mode_NAMD/src/NAMD/TEST_NVT/TRAJ/traj-34/G16/GS_NEW/Gau-14316.inp" -scrdir="/gpfs/fs2/scratch/bweight/software/many_molecule_many_mode_NAMD/src/NAMD/TEST_NVT/TRAJ/traj-34/G16/GS_NEW/"
 Entering Link 1 = /software/gaussian/g16-c01/avx2/g16/l1.exe PID=     14317.
  
 Copyright (c) 1988-2019, Gaussian, Inc.  All Rights Reserved.
  
 This is part of the Gaussian(R) 16 program.  It is based on
 the Gaussian(R) 09 system (copyright 2009, Gaussian, Inc.),
 the Gaussian(R) 03 system (copyright 2003, Gaussian, Inc.),
 the Gaussian(R) 98 system (copyright 1998, Gaussian, Inc.),
 the Gaussian(R) 94 system (copyright 1995, Gaussian, Inc.),
 the Gaussian 92(TM) system (copyright 1992, Gaussian, Inc.),
 the Gaussian 90(TM) system (copyright 1990, Gaussian, Inc.),
 the Gaussian 88(TM) system (copyright 1988, Gaussian, Inc.),
 the Gaussian 86(TM) system (copyright 1986, Carnegie Mellon
 University), and the Gaussian 82(TM) system (copyright 1983,
 Carnegie Mellon University). Gaussian is a federally registered
 trademark of Gaussian, Inc.
  
 This software contains proprietary and confidential information,
 including trade secrets, belonging to Gaussian, Inc.
  
 This software is provided under written license and may be
 used, copied, transmitted, or stored only in accord with that
 written license.
  
 The following legend is applicable only to US Government
 contracts under FAR:
  
                    RESTRICTED RIGHTS LEGEND
  
 Use, reproduction and disclosure by the US Government is
 subject to restrictions as set forth in subparagraphs (a)
 and (c) of the Commercial Computer Software - Restricted
 Rights clause in FAR 52.227-19.
  
 Gaussian, Inc.
 340 Quinnipiac St., Bldg. 40, Wallingford CT 06492
  
  
 ---------------------------------------------------------------
 Warning -- This program may not be used in any manner that
 competes with the business of Gaussian, Inc. or will provide
 assistance to any competitor of Gaussian, Inc.  The licensee
 of this program is prohibited from giving any competitor of
 Gaussian, Inc. access to this program.  By using this program,
 the user acknowledges that Gaussian, Inc. is engaged in the
 business of creating and licensing software in the field of
 computational chemistry and represents and warrants to the
 licensee that it is not a competitor of Gaussian, Inc. and that
 it will not use this program in any manner prohibited above.
 ---------------------------------------------------------------
  

 Cite this work as:
 Gaussian 16, Revision C.01,
 M. J. Frisch, G. W. Trucks, H. B. Schlegel, G. E. Scuseria, 
 M. A. Robb, J. R. Cheeseman, G. Scalmani, V. Barone, 
 G. A. Petersson, H. Nakatsuji, X. Li, M. Caricato, A. V. Marenich, 
 J. Bloino, B. G. Janesko, R. Gomperts, B. Mennucci, H. P. Hratchian, 
 J. V. Ortiz, A. F. Izmaylov, J. L. Sonnenberg, D. Williams-Young, 
 F. Ding, F. Lipparini, F. Egidi, J. Goings, B. Peng, A. Petrone, 
 T. Henderson, D. Ranasinghe, V. G. Zakrzewski, J. Gao, N. Rega, 
 G. Zheng, W. Liang, M. Hada, M. Ehara, K. Toyota, R. Fukuda, 
 J. Hasegawa, M. Ishida, T. Nakajima, Y. Honda, O. Kitao, H. Nakai, 
 T. Vreven, K. Throssell, J. A. Montgomery, Jr., J. E. Peralta, 
 F. Ogliaro, M. J. Bearpark, J. J. Heyd, E. N. Brothers, K. N. Kudin, 
 V. N. Staroverov, T. A. Keith, R. Kobayashi, J. Normand, 
 K. Raghavachari, A. P. Rendell, J. C. Burant, S. S. Iyengar, 
 J. Tomasi, M. Cossi, J. M. Millam, M. Klene, C. Adamo, R. Cammi, 
 J. W. Ochterski, R. L. Martin, K. Morokuma, O. Farkas, 
 J. B. Foresman, and D. J. Fox, Gaussian, Inc., Wallingford CT, 2019.
 
 ******************************************
 Gaussian 16:  ES64L-G16RevC.01  3-Jul-2019
                11-Jan-2023 
 ******************************************
 %oldchk=../GS_OLD/geometry.chk
 %chk=geometry.chk
 %nprocshared=4
 Will use up to    4 processors via shared memory.
 %mem=5GB
 Copying data from "../GS_OLD/geometry.chk" to current chk file "geometry.chk"
 IOpt=  2 FromEx=T IUOpen= 4 IOptOp= 5 NList=   0 IFRang= 0 IUIn= 4 IUOut= 2.
 -------------------------------------------------------
 # WB97XD/6-311G SCF=XQC FORCE nosym pop=full guess=read
 -------------------------------------------------------
 1/10=7,30=1,38=1/1,3;
 2/12=2,15=1,17=6,18=5,40=1/2;
 3/5=4,6=6,11=2,25=1,30=1,71=1,74=-58,116=-2/1,2,3;
 4/5=1/1;
 5/5=2,8=3,13=1,38=6/2,8;
 6/7=3,28=1/1;
 7/29=1,30=1/1,2,3,16;
 1/10=7,30=1/3;
 99//99;
 -----------
 MD Step 999
 -----------
 Symbolic Z-matrix:
 Charge =  0 Multiplicity = 1
 C                    -0.33607  -0.58134   0.00784 
 H                     0.22256  -1.53153  -0.02708 
 H                    -1.42277  -0.58191  -0.02764 
 C                     0.33303   0.57693   0.00619 
 H                    -0.15617   1.5638   -0.03145 
 H                     1.44302   0.65248  -0.03071 
 

 GradGradGradGradGradGradGradGradGradGradGradGradGradGradGradGradGradGrad
 Berny optimization.
 Initialization pass.
 Trust Radius=3.00D-01 FncErr=1.00D-07 GrdErr=1.00D-07 EigMax=2.50D+02 EigMin=1.00D-04
 Number of steps in this run=      2 maximum allowed number of steps=      2.
 GradGradGradGradGradGradGradGradGradGradGradGradGradGradGradGradGradGrad

                          Input orientation:                          
 ---------------------------------------------------------------------
 Center     Atomic      Atomic             Coordinates (Angstroms)
 Number     Number       Type             X           Y           Z
 ---------------------------------------------------------------------
      1          6           0       -0.336072   -0.581339    0.007841
      2          1           0        0.222560   -1.531532   -0.027080
      3          1           0       -1.422770   -0.581912   -0.027640
      4          6           0        0.333026    0.576935    0.006192
      5          1           0       -0.156170    1.563798   -0.031452
      6          1           0        1.443022    0.652476   -0.030706
 ---------------------------------------------------------------------
                    Distance matrix (angstroms):
                    1          2          3          4          5
     1  C    0.000000
     2  H    1.102794   0.000000
     3  H    1.087278   1.899707   0.000000
     4  C    1.337644   2.111620   2.104018   0.000000
     5  H    2.153026   3.118417   2.491659   1.102102   0.000000
     6  H    2.165400   2.501885   3.120335   1.113176   1.840632
                    6
     6  H    0.000000
 Symmetry turned off by external request.
 Stoichiometry    C2H4
 Framework group  C1[X(C2H4)]
 Deg. of freedom    12
 Full point group                 C1      NOp   1
 Rotational constants (GHZ):         143.1503481          29.6819255          24.5952163
 Standard basis: 6-311G (5D, 7F)
    38 basis functions,    72 primitive gaussians,    38 cartesian basis functions
     8 alpha electrons        8 beta electrons
       nuclear repulsion energy        33.0570776072 Hartrees.
 NAtoms=    6 NActive=    6 NUniq=    6 SFac= 1.00D+00 NAtFMM=   60 NAOKFM=F Big=F
 Integral buffers will be    131072 words long.
 Raffenetti 2 integral format.
 Two-electron integral symmetry is turned off.
 Nuclear repulsion after empirical dispersion term =       33.0562357665 Hartrees.
 One-electron integrals computed using PRISM.
 NBasis=    38 RedAO= T EigKep=  6.42D-03  NBF=    38
 NBsUse=    38 1.00D-06 EigRej= -1.00D+00 NBFU=    38
 Initial guess from the checkpoint file:  "geometry.chk"
 B after Tr=    -0.000235   -0.000404   -0.000540
         Rot=    1.000000    0.000003   -0.000001    0.000003 Ang=   0.00 deg.
 Keep R1 ints in memory in canonical form, NReq=4036876.
 Requested convergence on RMS density matrix=1.00D-08 within  32 cycles.
 Requested convergence on MAX density matrix=1.00D-06.
 Requested convergence on             energy=1.00D-06.
 No special actions if energy rises.
 SCF Done:  E(RwB97XD) =  -78.5554082476     A.U. after    8 cycles
            NFock=  8  Conv=0.62D-08     -V/T= 2.0052
 QCSCF skips out because SCF is already converged.

 **********************************************************************

            Population analysis using the SCF Density.

 **********************************************************************

 Alpha  occ. eigenvalues --  -10.29015 -10.28873  -0.86383  -0.67199  -0.55900
 Alpha  occ. eigenvalues --   -0.50943  -0.43598  -0.35699
 Alpha virt. eigenvalues --    0.07977   0.14077   0.16439   0.16984   0.24077
 Alpha virt. eigenvalues --    0.37267   0.39278   0.40015   0.46380   0.48806
 Alpha virt. eigenvalues --    0.49368   0.59103   0.66520   0.69019   0.77280
 Alpha virt. eigenvalues --    0.77499   0.84064   0.95245   2.23172   2.29027
 Alpha virt. eigenvalues --    2.33237   2.40551   2.67120   2.81717   2.87876
 Alpha virt. eigenvalues --    2.95134   3.14111   3.31696  23.35153  23.70594
     Molecular Orbital Coefficients:
                           1         2         3         4         5
                           O         O         O         O         O
     Eigenvalues --   -10.29015 -10.28873  -0.86383  -0.67199  -0.55900
   1 1   C  1S          0.18562   0.53195  -0.08826   0.06691  -0.00056
   2        2S          0.15296   0.43774  -0.13950   0.10716  -0.00092
   3        2PX         0.00016  -0.00004   0.02595   0.03615   0.13823
   4        2PY         0.00027  -0.00005   0.04691   0.05827  -0.07309
   5        2PZ        -0.00000  -0.00001  -0.00143   0.00211   0.00024
   6        3S          0.00398   0.01406   0.37425  -0.29242   0.00256
   7        3PX        -0.00053   0.00052   0.03434   0.05803   0.21673
   8        3PY        -0.00090   0.00093   0.06176   0.09489  -0.11569
   9        3PZ        -0.00002  -0.00003  -0.00240   0.00379   0.00035
  10        4S          0.00098  -0.01499   0.19187  -0.22686   0.00209
  11        4PX         0.00123  -0.00176   0.00484   0.02299   0.11225
  12        4PY         0.00211  -0.00305   0.00878   0.03948  -0.06102
  13        4PZ         0.00002   0.00009  -0.00085   0.00192   0.00016
  14 2   H  1S         -0.00005  -0.00005   0.05182  -0.08622   0.10208
  15        2S         -0.00028   0.00015   0.05336  -0.10447   0.12975
  16        3S          0.00107   0.00151  -0.00184  -0.01487   0.04199
  17 3   H  1S         -0.00006  -0.00006   0.05375  -0.09056  -0.10584
  18        2S         -0.00028   0.00013   0.05459  -0.10867  -0.13331
  19        3S          0.00110   0.00156  -0.00181  -0.01604  -0.04307
  20 4   C  1S          0.53190  -0.18580  -0.08701  -0.06815  -0.00030
  21        2S          0.43783  -0.15273  -0.13739  -0.10930  -0.00048
  22        2PX        -0.00004  -0.00016  -0.02780   0.03807   0.11719
  23        2PY        -0.00007  -0.00028  -0.04654   0.06832  -0.07454
  24        2PZ        -0.00000   0.00000  -0.00122  -0.00241   0.00026
  25        3S          0.01336  -0.00560   0.36804   0.29869   0.00136
  26        3PX        -0.00010   0.00075  -0.03480   0.06170   0.18350
  27        3PY        -0.00013   0.00130  -0.05807   0.10997  -0.11557
  28        3PZ        -0.00004   0.00000  -0.00211  -0.00432   0.00039
  29        4S         -0.01082   0.01019   0.18888   0.23764  -0.00001
  30        4PX         0.00058  -0.00202  -0.00550   0.02718   0.10121
  31        4PY         0.00094  -0.00352  -0.00888   0.04660  -0.06257
  32        4PZ         0.00008  -0.00003  -0.00086  -0.00221   0.00019
  33 5   H  1S         -0.00007  -0.00003   0.05019   0.09445  -0.08993
  34        2S         -0.00007  -0.00031   0.05115   0.11243  -0.11333
  35        3S          0.00181  -0.00013  -0.00106   0.01703  -0.03647
  36 6   H  1S         -0.00006  -0.00003   0.04867   0.09217   0.08478
  37        2S         -0.00008  -0.00032   0.05031   0.11030   0.10738
  38        3S          0.00176  -0.00013  -0.00111   0.01630   0.03487
                           6         7         8         9        10
                           O         O         O         V         V
     Eigenvalues --    -0.50943  -0.43598  -0.35699   0.07977   0.14077
   1 1   C  1S         -0.00303   0.00024  -0.00110   0.00308  -0.03385
   2        2S         -0.00446   0.00041  -0.00179   0.00512  -0.05431
   3        2PX         0.09424  -0.11004  -0.00380   0.00158  -0.03105
   4        2PY         0.16868   0.06576  -0.00652   0.00276  -0.06563
   5        2PZ         0.00574   0.00003   0.17944  -0.18901  -0.00292
   6        3S          0.01800  -0.00088   0.00520  -0.01550   0.11838
   7        3PX         0.13656  -0.17584  -0.00536   0.00238  -0.03622
   8        3PY         0.24646   0.10582  -0.00919   0.00410  -0.08114
   9        3PZ         0.00911   0.00010   0.28842  -0.27779  -0.00465
  10        4S         -0.05687  -0.00405   0.00795  -0.01755   1.23257
  11        4PX         0.06849  -0.11007  -0.00432   0.01396  -0.18933
  12        4PY         0.12513   0.06671  -0.00747   0.02408  -0.38539
  13        4PZ         0.00516   0.00012   0.26685  -0.69493  -0.01654
  14 2   H  1S         -0.08152  -0.11470   0.00019   0.00476  -0.01827
  15        2S         -0.11337  -0.17775   0.00225   0.00757  -0.04952
  16        3S         -0.04240  -0.08242   0.00137   0.02052  -0.84461
  17 3   H  1S         -0.07923   0.11206   0.00011   0.00477  -0.01377
  18        2S         -0.10941   0.17247   0.00214   0.00758  -0.03892
  19        3S         -0.04055   0.07957   0.00132   0.01992  -0.77040
  20 4   C  1S         -0.00896  -0.00053  -0.00095  -0.00300  -0.03580
  21        2S         -0.01406  -0.00088  -0.00154  -0.00497  -0.05748
  22        2PX        -0.09849   0.12515   0.00377   0.00197   0.04123
  23        2PY        -0.16118  -0.07389   0.00687   0.00350   0.06065
  24        2PZ         0.00607   0.00022   0.17910   0.18932  -0.00329
  25        3S          0.04501   0.00247   0.00458   0.01487   0.12675
  26        3PX        -0.14601   0.20037   0.00528   0.00301   0.05089
  27        3PY        -0.23703  -0.11727   0.00965   0.00538   0.07195
  28        3PZ         0.00959   0.00032   0.28673   0.27770  -0.00499
  29        4S         -0.02585   0.00360   0.00730   0.01719   1.23106
  30        4PX        -0.07648   0.12869   0.00411   0.01491   0.26772
  31        4PY        -0.12270  -0.07467   0.00763   0.02613   0.41278
  32        4PZ         0.00558   0.00018   0.26730   0.69594  -0.01991
  33 5   H  1S         -0.07338  -0.12507   0.00026  -0.00458  -0.01113
  34        2S         -0.09988  -0.19480   0.00247  -0.00766  -0.03628
  35        3S         -0.03727  -0.09163   0.00135  -0.01963  -0.80988
  36 6   H  1S         -0.08005   0.12462   0.00017  -0.00458  -0.01543
  37        2S         -0.10953   0.19532   0.00234  -0.00773  -0.04698
  38        3S         -0.04109   0.09201   0.00125  -0.02006  -0.88398
                          11        12        13        14        15
                           V         V         V         V         V
     Eigenvalues --     0.16439   0.16984   0.24077   0.37267   0.39278
   1 1   C  1S          0.00083  -0.04534   0.00016   0.00901   0.00104
   2        2S          0.00133  -0.07390   0.00024   0.01213   0.00155
   3        2PX         0.09756  -0.02009   0.09982  -0.03548  -0.02360
   4        2PY        -0.05433  -0.03649  -0.05715  -0.06479   0.01027
   5        2PZ         0.00004  -0.00749  -0.00001  -0.00517  -0.00023
   6        3S         -0.00269   0.16756   0.00018   0.03428   0.00164
   7        3PX         0.13982  -0.01186   0.10551  -0.04273  -0.10408
   8        3PY        -0.07876  -0.02355  -0.06167  -0.08373   0.05208
   9        3PZ         0.00005  -0.01037  -0.00008  -0.01053  -0.00029
  10        4S         -0.04755   1.42067  -0.03266  -2.52490  -0.20181
  11        4PX         0.58517  -0.11765   1.16243  -1.54319  -0.54684
  12        4PY        -0.31587  -0.20142  -0.66832  -2.68146   0.10908
  13        4PZ         0.00044  -0.04891   0.00064  -0.04791  -0.00321
  14 2   H  1S         -0.02995  -0.02565   0.01316  -0.06067   0.07516
  15        2S         -0.08221  -0.01834  -0.02409  -0.68686   0.76116
  16        3S         -1.03322  -0.98617  -1.52593  -0.27303  -0.33628
  17 3   H  1S          0.02846  -0.02579  -0.01576  -0.05264  -0.07627
  18        2S          0.08018  -0.02256   0.01679  -0.62167  -0.76572
  19        3S          1.09230  -1.00990   1.56687  -0.36401   0.25139
  20 4   C  1S          0.00192   0.04263  -0.00018  -0.01991  -0.00031
  21        2S          0.00309   0.06939  -0.00030  -0.03279  -0.00042
  22        2PX         0.10044  -0.02528  -0.10078  -0.03971  -0.03215
  23        2PY        -0.06165  -0.03716   0.05780  -0.07150   0.01179
  24        2PZ         0.00030   0.00745  -0.00000   0.00373   0.00044
  25        3S         -0.00636  -0.15392   0.00034   0.04475  -0.00099
  26        3PX         0.14477  -0.02112  -0.11496  -0.09124  -0.11148
  27        3PY        -0.08724  -0.02669   0.06440  -0.16721   0.05243
  28        3PZ         0.00041   0.01030   0.00004   0.00451   0.00090
  29        4S         -0.08224  -1.35068   0.02390   3.25709   0.19050
  30        4PX         0.52989  -0.13053  -1.12420  -1.12367  -0.56711
  31        4PY        -0.33348  -0.19805   0.64824  -1.98713   0.09350
  32        4PZ         0.00197   0.04833  -0.00069   0.03751   0.00316
  33 5   H  1S          0.03171   0.02421   0.00602   0.00813  -0.08055
  34        2S          0.06884   0.02127  -0.03254   0.03816  -0.79349
  35        3S          1.09135   0.93210  -1.53646   0.44482   0.48008
  36 6   H  1S         -0.03151   0.02566  -0.00443   0.00189   0.08821
  37        2S         -0.06919   0.02128   0.03453  -0.01704   0.89377
  38        3S         -0.97955   0.96846   1.50922   0.46084  -0.45591
                          16        17        18        19        20
                           V         V         V         V         V
     Eigenvalues --     0.40015   0.46380   0.48806   0.49368   0.59103
   1 1   C  1S         -0.01914   0.01149   0.04675  -0.00023  -0.00064
   2        2S         -0.03348   0.02731   0.07830  -0.00008  -0.00114
   3        2PX         0.02863  -0.06119  -0.01373   0.00132   0.00236
   4        2PY         0.05215  -0.10567  -0.01646   0.00187   0.00349
   5        2PZ         0.00049  -0.00054  -0.00517  -0.15191  -0.19250
   6        3S          0.07565  -0.33470  -0.09982  -0.01037  -0.00045
   7        3PX         0.10558  -0.24185   0.02906   0.00060   0.00785
   8        3PY         0.19851  -0.41481   0.06459  -0.00011   0.01183
   9        3PZ        -0.00407  -0.00497  -0.02389  -0.62831  -0.68459
  10        4S          2.80889   0.20292  -3.07708   0.08559   0.07746
  11        4PX         0.30964   0.25250  -0.81160   0.02846   0.02508
  12        4PY         0.57318   0.48141  -1.42259   0.05142   0.04188
  13        4PZ         0.00104   0.00151   0.09570   0.68549   1.24040
  14 2   H  1S         -0.02495  -0.03447   0.07561  -0.00267  -0.00190
  15        2S         -0.51791  -0.32876   0.89390  -0.02440  -0.01426
  16        3S          0.33278   0.08630  -0.65541   0.03147   0.02633
  17 3   H  1S         -0.03215  -0.03774   0.07283  -0.00260  -0.00176
  18        2S         -0.58314  -0.36879   0.86673  -0.02400  -0.01170
  19        3S          0.34512   0.08657  -0.60927   0.03014   0.02546
  20 4   C  1S          0.00032  -0.00185  -0.05091   0.00326   0.00075
  21        2S         -0.00309   0.00453  -0.08847   0.00591   0.00140
  22        2PX         0.00970   0.05502  -0.02558  -0.00017   0.00224
  23        2PY         0.01917   0.09570  -0.04864  -0.00027   0.00440
  24        2PZ        -0.00445  -0.00212  -0.00541  -0.15250   0.19236
  25        3S          0.07849  -0.28909   0.22657  -0.02319  -0.00248
  26        3PX        -0.04172   0.23408  -0.05063  -0.00055   0.00794
  27        3PY        -0.06131   0.41097  -0.09441  -0.00127   0.01526
  28        3PZ        -0.01246  -0.00852  -0.01976  -0.63087   0.68281
  29        4S         -1.02297   0.69617   3.12681  -0.11281  -0.06869
  30        4PX         1.30511  -0.32455  -0.61487   0.01326   0.02359
  31        4PY         2.35953  -0.52184  -1.03706   0.02166   0.04197
  32        4PZ        -0.03874  -0.01883  -0.04349   0.69408  -1.23821
  33 5   H  1S         -0.04630  -0.06403  -0.06463   0.00250   0.00174
  34        2S         -0.83976  -0.65870  -0.82316   0.03837   0.00610
  35        3S         -0.22941   0.25512   0.54048  -0.00817  -0.02556
  36 6   H  1S         -0.03857  -0.06163  -0.06580   0.00260   0.00183
  37        2S         -0.75119  -0.62556  -0.82609   0.03848   0.00767
  38        3S         -0.24543   0.26923   0.57236  -0.01004  -0.02603
                          21        22        23        24        25
                           V         V         V         V         V
     Eigenvalues --     0.66520   0.69019   0.77280   0.77499   0.84064
   1 1   C  1S          0.00100  -0.00054   0.06096   0.06480   0.00105
   2        2S          0.00205  -0.00125   0.12889   0.13827   0.00237
   3        2PX        -0.13734   0.19393  -0.00891   0.11740  -0.01001
   4        2PY         0.08067  -0.11747  -0.01737   0.18901   0.01481
   5        2PZ        -0.00004   0.00019   0.00147   0.00521   0.00024
   6        3S         -0.01633   0.01847  -0.91156  -1.22654  -0.02373
   7        3PX        -0.63086   0.67342  -0.10858   0.46899  -0.23230
   8        3PY         0.36625  -0.40775  -0.19697   0.74664   0.17090
   9        3PZ        -0.00029   0.00077   0.00539   0.01816   0.00100
  10        4S          0.03106  -0.09766   1.06533   2.34007  -0.06451
  11        4PX         1.08803  -0.73187   0.05329  -0.77921   4.49678
  12        4PY        -0.63327   0.44194   0.06088  -1.00531  -2.60256
  13        4PZ        -0.00002   0.00158   0.00157  -0.06190   0.00262
  14 2   H  1S          0.02521  -0.05846   0.01499   0.03085  -0.02619
  15        2S          0.15262  -0.62851   0.08298   0.07464  -1.56113
  16        3S         -1.06128   1.06809  -0.25083  -1.05645  -1.22343
  17 3   H  1S         -0.02449   0.05797   0.01497   0.03191   0.02969
  18        2S         -0.16979   0.67271   0.10556   0.03981   1.60702
  19        3S          1.05009  -1.03237  -0.26022  -1.22360   1.22512
  20 4   C  1S          0.00125  -0.00063   0.08794   0.01880   0.00079
  21        2S          0.00252  -0.00119   0.18707   0.03921   0.00161
  22        2PX        -0.14662  -0.18936  -0.08766   0.06535   0.01153
  23        2PY         0.08385   0.10457  -0.15872   0.12075   0.00104
  24        2PZ        -0.00003  -0.00023   0.00554  -0.00199  -0.00023
  25        3S         -0.01756   0.00036  -1.53586  -0.15620  -0.00900
  26        3PX        -0.66793  -0.64445  -0.30683   0.32491   0.23910
  27        3PY         0.38505   0.35296  -0.56106   0.59740  -0.09961
  28        3PZ        -0.00025  -0.00082   0.01950  -0.00740  -0.00081
  29        4S          0.01181   0.06455   2.67539  -0.28757   0.04729
  30        4PX         1.28010   0.75537   0.47444  -0.30351  -4.16158
  31        4PY        -0.72922  -0.42010   0.91442  -0.81325   2.34404
  32        4PZ         0.00055  -0.00109  -0.05445   0.03699  -0.00207
  33 5   H  1S         -0.02362  -0.05610   0.03461  -0.00208  -0.02282
  34        2S         -0.12508  -0.57911   0.08803   0.06859  -1.40398
  35        3S          1.09413   1.00759  -1.11477   0.46791  -1.09500
  36 6   H  1S          0.02439   0.05569   0.03428  -0.00107   0.02269
  37        2S          0.11933   0.53905   0.08065   0.00930   1.38565
  38        3S         -1.09898  -1.02234  -1.04757   0.37266   1.10383
                          26        27        28        29        30
                           V         V         V         V         V
     Eigenvalues --     0.95245   2.23172   2.29027   2.33237   2.40551
   1 1   C  1S          0.09586  -0.00970  -0.01430   0.00049  -0.00055
   2        2S          0.19924   0.00227  -0.01391   0.00107  -0.00060
   3        2PX        -0.09144  -0.07604  -0.13330   0.35142  -0.40246
   4        2PY        -0.15858  -0.14227  -0.23263  -0.20035   0.23029
   5        2PZ         0.00014  -0.01459  -0.02048  -0.00012  -0.00069
   6        3S         -1.54427  -0.18759  -0.03951  -0.00217  -0.00533
   7        3PX        -0.23480   0.07073   0.20933  -0.42409   0.56247
   8        3PY        -0.39800   0.14868   0.38192   0.24469  -0.32490
   9        3PZ        -0.00286   0.01461   0.02566   0.00028   0.00077
  10        4S          5.71349  -0.09370  -0.87945   0.00451  -0.03278
  11        4PX         1.20875   0.05736  -0.18999  -0.06135   0.96498
  12        4PY         1.98973   0.06736  -0.36091   0.02614  -0.53824
  13        4PZ        -0.02035   0.00278   0.00890  -0.00040   0.00155
  14 2   H  1S          0.01568  -0.69893  -0.80350  -0.71588   0.64135
  15        2S         -0.29253   0.99029   1.20150   1.10931  -1.43586
  16        3S         -0.09246  -0.30166  -0.48311  -0.47601   0.36631
  17 3   H  1S          0.01582  -0.69284  -0.79889   0.70641  -0.66489
  18        2S         -0.25785   0.98490   1.19892  -1.10093   1.48631
  19        3S         -0.07550  -0.27718  -0.46266   0.46301  -0.35712
  20 4   C  1S         -0.09387  -0.01064   0.01219   0.00048   0.00036
  21        2S         -0.19469  -0.00028   0.01246   0.00074   0.00056
  22        2PX        -0.09271   0.13710  -0.12215   0.29863   0.41951
  23        2PY        -0.15975   0.23850  -0.20564  -0.17271  -0.23923
  24        2PZ         0.00030  -0.01717   0.01974   0.00023   0.00032
  25        3S          1.50435  -0.16724   0.01540  -0.00032   0.00054
  26        3PX        -0.22755  -0.17578   0.21161  -0.37158  -0.58829
  27        3PY        -0.39906  -0.29990   0.34761   0.21185   0.33446
  28        3PZ         0.00399   0.01847  -0.02520  -0.00021  -0.00043
  29        4S         -5.69240  -0.18289   0.88997   0.01425   0.01654
  30        4PX         1.10128  -0.01346  -0.19736   0.12170  -0.84534
  31        4PY         1.98770  -0.03413  -0.31641  -0.06826   0.49223
  32        4PZ         0.01494   0.00580  -0.00736  -0.00016  -0.00129
  33 5   H  1S         -0.01791  -0.79730   0.66470   0.69464   0.69851
  34        2S          0.28902   1.16077  -1.01734  -1.00218  -1.47239
  35        3S          0.05906  -0.35746   0.39455   0.50413   0.43650
  36 6   H  1S         -0.01785  -0.78922   0.68774  -0.68428  -0.69388
  37        2S          0.31585   1.14644  -1.04696   0.98329   1.45640
  38        3S          0.06768  -0.35956   0.42263  -0.50248  -0.44412
                          31        32        33        34        35
                           V         V         V         V         V
     Eigenvalues --     2.67120   2.81717   2.87876   2.95134   3.14111
   1 1   C  1S          0.00054   0.00284  -0.01339   0.00014  -0.00960
   2        2S          0.00038   0.00820  -0.04405   0.00002  -0.02969
   3        2PX         0.00521   0.08152  -0.47319  -0.72662   0.44397
   4        2PY         0.00854   0.14342  -0.85199   0.40601   0.77807
   5        2PZ        -0.92499  -0.92662  -0.15491  -0.00105   0.00691
   6        3S         -0.00131  -0.06782   0.38608   0.00224   0.25069
   7        3PX        -0.00339  -0.14134   0.83642   0.87319  -0.42406
   8        3PY        -0.00577  -0.24623   1.47782  -0.47430  -0.74156
   9        3PZ         0.94028   1.13283   0.19464   0.00152  -0.00872
  10        4S          0.01373   0.15775  -0.87415  -0.00903  -0.49257
  11        4PX        -0.00269   0.11334  -0.71101  -0.66751   0.20989
  12        4PY        -0.00357   0.19817  -1.26251   0.35320   0.36571
  13        4PZ        -0.33865  -0.61288  -0.12357  -0.00128   0.00495
  14 2   H  1S          0.01367  -0.02245   0.26386  -0.37465  -0.21236
  15        2S         -0.01564   0.01435  -0.22224   0.38996   0.16166
  16        3S         -0.00315   0.04510  -0.29357   0.26800   0.05474
  17 3   H  1S          0.01377  -0.02126   0.25070   0.37597  -0.21151
  18        2S         -0.01586   0.01180  -0.19781  -0.38612   0.15975
  19        3S         -0.00389   0.04644  -0.29995  -0.28803   0.06147
  20 4   C  1S          0.00059  -0.00276   0.01343   0.00061  -0.00725
  21        2S          0.00061  -0.00859   0.04769   0.00141  -0.02256
  22        2PX        -0.00878   0.07200  -0.40102  -0.80866  -0.50634
  23        2PY        -0.01559   0.12865  -0.71627   0.44921  -0.89799
  24        2PZ        -0.92435   0.92623   0.15982   0.00060   0.01553
  25        3S         -0.00355   0.07393  -0.43039  -0.01071   0.19393
  26        3PX         0.00937  -0.13139   0.76024   0.96495   0.54552
  27        3PY         0.01633  -0.23301   1.34815  -0.52852   0.97669
  28        3PZ         0.93965  -1.13219  -0.20120  -0.00068  -0.01976
  29        4S          0.01839  -0.16028   0.89715   0.02996  -0.36795
  30        4PX        -0.00134   0.11212  -0.70523  -0.69808  -0.33496
  31        4PY        -0.00260   0.19700  -1.23386   0.37554  -0.60550
  32        4PZ        -0.33833   0.61208   0.12856   0.00040   0.01561
  33 5   H  1S          0.01296   0.03027  -0.29341   0.41848  -0.26777
  34        2S         -0.01608  -0.02443   0.26685  -0.42679   0.21092
  35        3S         -0.00163  -0.04308   0.28331  -0.24617   0.13013
  36 6   H  1S          0.01312   0.03089  -0.29334  -0.42888  -0.25595
  37        2S         -0.01664  -0.02610   0.27494   0.43726   0.20130
  38        3S         -0.00105  -0.04025   0.26486   0.24607   0.12247
                          36        37        38
                           V         V         V
     Eigenvalues --     3.31696  23.35153  23.70594
   1 1   C  1S         -0.00057  -1.41695  -1.44940
   2        2S         -0.00083   1.51116   1.56741
   3        2PX         0.78884  -0.00652   0.01205
   4        2PY        -0.44044  -0.01043   0.02137
   5        2PZ         0.00092  -0.00060  -0.00026
   6        3S          0.00108  -0.29680  -0.39911
   7        3PX        -1.12535   0.02392  -0.05564
   8        3PY         0.62422   0.03909  -0.09733
   9        3PZ        -0.00145   0.00171   0.00078
  10        4S         -0.02122   0.27621   0.76856
  11        4PX         1.96314  -0.02548   0.13315
  12        4PY        -1.09417  -0.04218   0.23057
  13        4PZ         0.00236  -0.00285  -0.00333
  14 2   H  1S          0.55888   0.01240   0.00644
  15        2S         -0.86915   0.00801  -0.01424
  16        3S         -0.45561  -0.08354  -0.03886
  17 3   H  1S         -0.57328   0.01464   0.00817
  18        2S          0.88903   0.00728  -0.01484
  19        3S          0.48402  -0.08628  -0.03969
  20 4   C  1S          0.00021  -1.44459   1.42171
  21        2S          0.00001   1.54066  -1.53749
  22        2PX        -0.70793   0.00604   0.01270
  23        2PY         0.40403   0.01100   0.02144
  24        2PZ        -0.00074  -0.00063   0.00016
  25        3S          0.00360  -0.30199   0.39125
  26        3PX         1.00759  -0.02243  -0.05677
  27        3PY        -0.58423  -0.04027  -0.09715
  28        3PZ         0.00115   0.00181  -0.00042
  29        4S         -0.00566   0.27693  -0.76167
  30        4PX        -1.76818   0.02391   0.13162
  31        4PY         1.03080   0.04427   0.22671
  32        4PZ        -0.00190  -0.00296   0.00260
  33 5   H  1S          0.48346   0.01362  -0.00493
  34        2S         -0.75133   0.00793   0.01396
  35        3S         -0.42913  -0.08332   0.03770
  36 6   H  1S         -0.47715   0.01196  -0.00352
  37        2S          0.74402   0.00932   0.01320
  38        3S          0.41716  -0.08130   0.03659
     Density Matrix:
                           1         2         3         4         5
   1 1   C  1S          0.65940
   2        2S          0.56149   0.49196
   3        2PX        -0.00049  -0.00065   0.08419
   4        2PY        -0.00133  -0.00185   0.00381   0.08751
   5        2PZ         0.00010   0.00015  -0.00014  -0.00032   0.06447
   6        3S         -0.08888  -0.15375   0.00253   0.00655  -0.00023
   7        3PX         0.00091   0.00140   0.13038   0.00132  -0.00012
   8        3PY         0.00116   0.00178   0.00131   0.13095  -0.00030
   9        3PZ         0.00020   0.00033  -0.00025  -0.00051   0.10363
  10        4S         -0.07949  -0.11451  -0.01575  -0.02856   0.00069
  11        4PX         0.00022   0.00152   0.07012  -0.00459  -0.00063
  12        4PY         0.00063   0.00306  -0.00460   0.06543  -0.00113
  13        4PZ        -0.00011  -0.00027  -0.00094  -0.00160   0.09584
  14 2   H  1S         -0.02043  -0.03255   0.03455  -0.06270  -0.00134
  15        2S         -0.02289  -0.03662   0.04882  -0.08779  -0.00104
  16        3S          0.00051  -0.00079   0.02057  -0.03320  -0.00004
  17 3   H  1S         -0.02104  -0.03349  -0.07262  -0.00203  -0.00145
  18        2S         -0.02325  -0.03714  -0.10048  -0.00231  -0.00116
  19        3S          0.00057  -0.00073  -0.03833   0.00102  -0.00007
  20 4   C  1S          0.00608   0.00981  -0.01091  -0.01883  -0.00048
  21        2S          0.00977   0.01527  -0.01746  -0.03014  -0.00078
  22        2PX         0.01033   0.01651  -0.01243  -0.03212   0.00053
  23        2PY         0.01805   0.02885  -0.03225  -0.04969   0.00099
  24        2PZ        -0.00054  -0.00087  -0.00043  -0.00069   0.06434
  25        3S         -0.02628  -0.03991   0.04898   0.08460   0.00236
  26        3PX         0.01593   0.02467  -0.01827  -0.04587   0.00068
  27        3PY         0.02779   0.04306  -0.04595  -0.07125   0.00131
  28        3PZ        -0.00091  -0.00146  -0.00076  -0.00122   0.10300
  29        4S          0.00543   0.00405   0.02126   0.03707   0.00278
  30        4PX         0.00307   0.00635  -0.01311  -0.02107   0.00078
  31        4PY         0.00517   0.01079  -0.02114  -0.03757   0.00152
  32        4PZ        -0.00077  -0.00124  -0.00117  -0.00195   0.09598
  33 5   H  1S          0.00421   0.00691  -0.00173  -0.01234  -0.00055
  34        2S          0.00630   0.01047   0.00348  -0.02488  -0.00000
  35        3S          0.00322   0.00470   0.00423  -0.01743   0.00011
  36 6   H  1S          0.00414   0.00679  -0.00989  -0.00770  -0.00056
  37        2S          0.00615   0.01023  -0.02338  -0.00941  -0.00003
  38        3S          0.00314   0.00460  -0.01724  -0.00508   0.00007
                           6         7         8         9        10
   6        3S          0.45230
   7        3PX        -0.00194   0.20223
   8        3PY        -0.00125  -0.00470   0.19646
   9        3PZ        -0.00068  -0.00021  -0.00045   0.16657
  10        4S          0.27393  -0.02645  -0.04890   0.00091   0.18365
  11        4PX        -0.00667   0.10912  -0.01047  -0.00104  -0.01502
  12        4PY        -0.01259  -0.01048   0.09862  -0.00180  -0.02959
  13        4PZ         0.00120  -0.00126  -0.00212   0.15404   0.00245
  14 2   H  1S          0.08700   0.05587  -0.09804  -0.00223   0.06964
  15        2S          0.09796   0.07931  -0.13680  -0.00176   0.08279
  16        3S          0.00622   0.03374  -0.05113  -0.00007   0.01169
  17 3   H  1S          0.08960  -0.11374  -0.00140  -0.00238   0.06938
  18        2S          0.09951  -0.15721  -0.00050  -0.00190   0.08077
  19        3S          0.00627  -0.05973   0.00353  -0.00010   0.01035
  20 4   C  1S         -0.02660  -0.01702  -0.02942  -0.00082   0.00515
  21        2S         -0.04025  -0.02647  -0.04576  -0.00132   0.00389
  22        2PX        -0.04621  -0.01765  -0.04546   0.00091  -0.01720
  23        2PY        -0.08079  -0.04569  -0.07075   0.00170  -0.03012
  24        2PZ         0.00258  -0.00059  -0.00092   0.10341   0.00278
  25        3S          0.10242   0.07189   0.12443   0.00396   0.00084
  26        3PX        -0.06673  -0.02609  -0.06471   0.00119  -0.02554
  27        3PY        -0.11657  -0.06492  -0.10139   0.00225  -0.04464
  28        3PZ         0.00428  -0.00104  -0.00164   0.16555   0.00462
  29        4S          0.00174   0.03216   0.05636   0.00463  -0.03264
  30        4PX        -0.02248  -0.01955  -0.02948   0.00130  -0.00624
  31        4PY        -0.03851  -0.02966  -0.05420   0.00250  -0.01002
  32        4PZ         0.00364  -0.00164  -0.00270   0.15427   0.00429
  33 5   H  1S         -0.02055  -0.00063  -0.01771  -0.00080  -0.01461
  34        2S         -0.03128   0.00864  -0.03663   0.00010  -0.01887
  35        3S         -0.01210   0.00813  -0.02625   0.00019  -0.00328
  36 6   H  1S         -0.02014  -0.01491  -0.00920  -0.00081  -0.01469
  37        2S         -0.03057  -0.03583  -0.01039   0.00006  -0.01937
  38        3S         -0.01180  -0.02667  -0.00592   0.00015  -0.00372
                          11        12        13        14        15
  11        4PX         0.05997
  12        4PY        -0.00926   0.05107
  13        4PZ        -0.00151  -0.00256   0.14248
  14 2   H  1S          0.03353  -0.05406  -0.00115   0.08068
  15        2S          0.04842  -0.07527  -0.00046   0.10930   0.15010
  16        3S          0.02105  -0.02796   0.00024   0.03677   0.05273
  17 3   H  1S         -0.06293   0.00183  -0.00121  -0.01321  -0.02468
  18        2S         -0.08737   0.00424  -0.00050  -0.02454  -0.04256
  19        3S         -0.03351   0.00440   0.00023  -0.01786  -0.02711
  20 4   C  1S         -0.00318  -0.00579  -0.00072   0.00422   0.00674
  21        2S         -0.00657  -0.01181  -0.00117   0.00697   0.01125
  22        2PX        -0.01328  -0.01979   0.00126   0.00183  -0.00265
  23        2PY        -0.01991  -0.03662   0.00230   0.01141   0.02426
  24        2PZ        -0.00083  -0.00137   0.09564  -0.00063  -0.00021
  25        3S          0.02324   0.04149   0.00343  -0.02099  -0.03385
  26        3PX        -0.02046  -0.02802   0.00171   0.00106  -0.00709
  27        3PY        -0.02819  -0.05335   0.00316   0.01698   0.03632
  28        3PZ        -0.00137  -0.00226   0.15311  -0.00092  -0.00022
  29        4S          0.00830   0.01587   0.00422  -0.01801  -0.02487
  30        4PX        -0.01492  -0.01232   0.00158  -0.00164  -0.00839
  31        4PY        -0.01241  -0.02960   0.00296   0.01541   0.02748
  32        4PZ        -0.00165  -0.00279   0.14271  -0.00052   0.00029
  33 5   H  1S          0.00212  -0.01574  -0.00040   0.01121   0.02339
  34        2S          0.00941  -0.02742   0.00055   0.02375   0.04447
  35        3S          0.00765  -0.01579   0.00037   0.01661   0.02790
  36 6   H  1S         -0.01466  -0.00562  -0.00041  -0.00908  -0.01822
  37        2S         -0.02836  -0.00490   0.00053  -0.01883  -0.03441
  38        3S         -0.01732  -0.00101   0.00034  -0.01021  -0.01786
                          16        17        18        19        20
  16        3S          0.02117
  17 3   H  1S         -0.01815   0.08225
  18        2S         -0.02731   0.10976   0.14856
  19        3S         -0.01280   0.03609   0.05110   0.02019
  20 4   C  1S          0.00374   0.00431   0.00682   0.00376   0.65948
  21        2S          0.00552   0.00712   0.01136   0.00553   0.56158
  22        2PX        -0.00346   0.00897   0.02218   0.01670   0.00121
  23        2PY         0.01775   0.00738   0.00976   0.00573   0.00182
  24        2PZ         0.00004  -0.00062  -0.00016   0.00008   0.00009
  25        3S         -0.01432  -0.02140  -0.03409  -0.01426  -0.08929
  26        3PX        -0.00692   0.01428   0.03495   0.02608  -0.00045
  27        3PY         0.02670   0.00958   0.01203   0.00723  -0.00108
  28        3PZ         0.00009  -0.00091  -0.00016   0.00014   0.00020
  29        4S         -0.00613  -0.01783  -0.02408  -0.00561  -0.08011
  30        4PX        -0.00701   0.01403   0.02765   0.01712  -0.00022
  31        4PY         0.01612   0.00656   0.00671   0.00201  -0.00020
  32        4PZ         0.00032  -0.00052   0.00032   0.00034  -0.00006
  33 5   H  1S          0.01629  -0.00908  -0.01815  -0.00942  -0.02017
  34        2S          0.02754  -0.01871  -0.03396  -0.01693  -0.02212
  35        3S          0.01471  -0.01011  -0.01754  -0.00895   0.00063
  36 6   H  1S         -0.00955   0.01121   0.02318   0.01589  -0.01983
  37        2S         -0.01735   0.02383   0.04424   0.02700  -0.02207
  38        3S         -0.00923   0.01668   0.02777   0.01446   0.00051
                          21        22        23        24        25
  21        2S          0.49209
  22        2PX         0.00175   0.08267
  23        2PY         0.00259   0.00363   0.08775
  24        2PZ         0.00013   0.00016   0.00022   0.06424
  25        3S         -0.15430  -0.00562  -0.00846  -0.00015   0.45387
  26        3PX        -0.00068   0.12860   0.00184   0.00009  -0.00038
  27        3PY        -0.00164   0.00192   0.13154   0.00008   0.00078
  28        3PZ         0.00033   0.00023   0.00035   0.10285  -0.00064
  29        4S         -0.11574   0.01363   0.02279   0.00070   0.27835
  30        4PX        -0.00149   0.07341  -0.00517   0.00053   0.00629
  31        4PY        -0.00223  -0.00509   0.06722   0.00098   0.00985
  32        4PZ        -0.00019   0.00089   0.00159   0.09582   0.00100
  33 5   H  1S         -0.03212  -0.03353   0.06378  -0.00148   0.08590
  34        2S         -0.03534  -0.04991   0.08852  -0.00114   0.09458
  35        3S         -0.00056  -0.02278   0.03344  -0.00011   0.00555
  36 6   H  1S         -0.03161   0.07115   0.00282  -0.00138   0.08452
  37        2S         -0.03528   0.10125   0.00086  -0.00101   0.09435
  38        3S         -0.00072   0.04061  -0.00320  -0.00007   0.00583
                          26        27        28        29        30
  26        3PX         0.20037
  27        3PY        -0.00248   0.19771
  28        3PZ         0.00011   0.00011   0.16465
  29        4S          0.02526   0.04191   0.00084   0.18621
  30        4PX         0.11482  -0.01063   0.00084   0.01573   0.06689
  31        4PY        -0.01061   0.10156   0.00156   0.02462  -0.01041
  32        4PZ         0.00112   0.00204   0.15341   0.00223   0.00132
  33 5   H  1S         -0.05353   0.09985  -0.00244   0.06675  -0.03459
  34        2S         -0.08015   0.13807  -0.00190   0.07655  -0.05223
  35        3S         -0.03703   0.05148  -0.00017   0.00894  -0.02431
  36 6   H  1S          0.11242   0.00374  -0.00230   0.06723   0.06596
  37        2S          0.15980  -0.00025  -0.00172   0.07853   0.09422
  38        3S          0.06377  -0.00642  -0.00012   0.01009   0.03794
                          31        32        33        34        35
  31        4PY         0.05373
  32        4PZ         0.00247   0.14297
  33 5   H  1S          0.05585  -0.00127   0.08111
  34        2S          0.07739  -0.00049   0.11014   0.15206
  35        3S          0.02902   0.00018   0.03806   0.05514   0.02282
  36 6   H  1S         -0.00185  -0.00122  -0.01238  -0.02607  -0.02002
  37        2S         -0.00630  -0.00044  -0.02621  -0.04859  -0.03181
  38        3S         -0.00646   0.00019  -0.02029  -0.03199  -0.01578
                          36        37        38
  36 6   H  1S          0.07998
  37        2S          0.10966   0.15276
  38        3S          0.03832   0.05593   0.02329
    Full Mulliken population analysis:
                           1         2         3         4         5
   1 1   C  1S          0.65940
   2        2S          0.49323   0.49196
   3        2PX         0.00000   0.00000   0.08419
   4        2PY         0.00000   0.00000   0.00000   0.08751
   5        2PZ         0.00000   0.00000   0.00000   0.00000   0.06447
   6        3S         -0.02926  -0.06439   0.00000   0.00000   0.00000
   7        3PX         0.00000   0.00000   0.08202   0.00000   0.00000
   8        3PY         0.00000   0.00000   0.00000   0.08238   0.00000
   9        3PZ         0.00000   0.00000   0.00000   0.00000   0.06520
  10        4S         -0.01222  -0.02143   0.00000   0.00000   0.00000
  11        4PX         0.00000   0.00000   0.01544   0.00000   0.00000
  12        4PY         0.00000   0.00000   0.00000   0.01441   0.00000
  13        4PZ         0.00000   0.00000   0.00000   0.00000   0.02111
  14 2   H  1S         -0.00022  -0.00031   0.00176   0.00544   0.00000
  15        2S         -0.00165  -0.00315   0.00428   0.01308   0.00001
  16        3S          0.00004  -0.00007   0.00070   0.00191   0.00000
  17 3   H  1S         -0.00025  -0.00036   0.00782   0.00000   0.00001
  18        2S         -0.00173  -0.00332   0.01769   0.00000   0.00001
  19        3S          0.00005  -0.00007   0.00255  -0.00000   0.00000
  20 4   C  1S          0.00000   0.00000  -0.00002  -0.00006   0.00000
  21        2S          0.00000  -0.00000  -0.00002  -0.00005   0.00000
  22        2PX        -0.00002  -0.00002   0.00011   0.00086   0.00000
  23        2PY        -0.00006  -0.00005   0.00086   0.00197   0.00000
  24        2PZ        -0.00000  -0.00000  -0.00000  -0.00000   0.00042
  25        3S         -0.00059  -0.00100   0.00256   0.00765  -0.00000
  26        3PX        -0.00054  -0.00099   0.00019   0.00555   0.00000
  27        3PY        -0.00163  -0.00299   0.00556   0.01070   0.00000
  28        3PZ        -0.00000  -0.00000  -0.00000  -0.00000   0.00612
  29        4S          0.00034   0.00031   0.00097   0.00291  -0.00000
  30        4PX        -0.00018  -0.00045  -0.00071   0.00146   0.00000
  31        4PY        -0.00052  -0.00133   0.00146   0.00097   0.00000
  32        4PZ        -0.00000  -0.00000  -0.00000  -0.00000   0.00903
  33 5   H  1S          0.00000   0.00000  -0.00000  -0.00000   0.00000
  34        2S          0.00001   0.00002   0.00000  -0.00031   0.00000
  35        3S          0.00008   0.00013   0.00001  -0.00070  -0.00000
  36 6   H  1S          0.00000   0.00000  -0.00000  -0.00000   0.00000
  37        2S          0.00001   0.00002  -0.00023  -0.00007   0.00000
  38        3S          0.00007   0.00012  -0.00056  -0.00011  -0.00000
                           6         7         8         9        10
   6        3S          0.45230
   7        3PX         0.00000   0.20223
   8        3PY         0.00000   0.00000   0.19646
   9        3PZ         0.00000   0.00000   0.00000   0.16657
  10        4S          0.21221   0.00000   0.00000   0.00000   0.18365
  11        4PX         0.00000   0.07131   0.00000   0.00000   0.00000
  12        4PY         0.00000   0.00000   0.06444   0.00000   0.00000
  13        4PZ         0.00000   0.00000   0.00000   0.10066   0.00000
  14 2   H  1S          0.01572   0.01067   0.03185   0.00003   0.01831
  15        2S          0.04086   0.01955   0.05737   0.00003   0.04750
  16        3S          0.00285   0.00398   0.01027   0.00000   0.00879
  17 3   H  1S          0.01689   0.04409   0.00000   0.00003   0.01853
  18        2S          0.04250   0.07720   0.00000   0.00003   0.04691
  19        3S          0.00291   0.01386  -0.00000   0.00000   0.00784
  20 4   C  1S         -0.00060  -0.00058  -0.00173   0.00000   0.00033
  21        2S         -0.00101  -0.00106  -0.00318   0.00000   0.00029
  22        2PX         0.00241   0.00019   0.00550   0.00000   0.00078
  23        2PY         0.00731   0.00553   0.01062   0.00000   0.00237
  24        2PZ         0.00000  -0.00000  -0.00000   0.00615   0.00000
  25        3S          0.02186   0.01349   0.04041  -0.00000   0.00032
  26        3PX         0.01252  -0.00126   0.01848   0.00000   0.00394
  27        3PY         0.03786   0.01854   0.02848   0.00000   0.01192
  28        3PZ         0.00000  -0.00000  -0.00000   0.03533   0.00000
  29        4S          0.00066   0.00496   0.01505  -0.00000  -0.02050
  30        4PX         0.00632  -0.00401   0.00584   0.00000   0.00189
  31        4PY         0.01874   0.00587   0.00125   0.00000   0.00526
  32        4PZ         0.00000  -0.00000  -0.00000   0.04932   0.00000
  33 5   H  1S         -0.00005  -0.00000  -0.00019   0.00000  -0.00078
  34        2S         -0.00121   0.00006  -0.00322  -0.00000  -0.00317
  35        3S         -0.00197   0.00011  -0.00423  -0.00000  -0.00118
  36 6   H  1S         -0.00005  -0.00012  -0.00005   0.00000  -0.00077
  37        2S         -0.00114  -0.00252  -0.00051  -0.00000  -0.00319
  38        3S         -0.00189  -0.00351  -0.00054  -0.00000  -0.00133
                          11        12        13        14        15
  11        4PX         0.05997
  12        4PY         0.00000   0.05107
  13        4PZ         0.00000   0.00000   0.14248
  14 2   H  1S          0.00636   0.01743   0.00001   0.08068
  15        2S          0.01547   0.04090   0.00001   0.07720   0.15010
  16        3S          0.00528   0.01193  -0.00000   0.01374   0.04160
  17 3   H  1S          0.02357  -0.00000   0.00001  -0.00001  -0.00063
  18        2S          0.05497  -0.00000   0.00001  -0.00062  -0.00521
  19        3S          0.01647  -0.00000  -0.00000  -0.00197  -0.00782
  20 4   C  1S         -0.00019  -0.00058   0.00000   0.00000   0.00002
  21        2S         -0.00047  -0.00145   0.00000   0.00000   0.00003
  22        2PX        -0.00072   0.00137   0.00000  -0.00000   0.00000
  23        2PY         0.00138   0.00095   0.00000  -0.00000  -0.00036
  24        2PZ        -0.00000  -0.00000   0.00900   0.00000   0.00000
  25        3S          0.00653   0.02019  -0.00000  -0.00007  -0.00148
  26        3PX        -0.00420   0.00555   0.00000  -0.00000   0.00004
  27        3PY         0.00558   0.00123   0.00000  -0.00022  -0.00355
  28        3PZ        -0.00000  -0.00000   0.04895   0.00000   0.00000
  29        4S          0.00251   0.00833  -0.00000  -0.00105  -0.00445
  30        4PX        -0.00719   0.00312   0.00000   0.00001   0.00017
  31        4PY         0.00314  -0.00562   0.00000  -0.00244  -0.01033
  32        4PZ        -0.00000  -0.00000   0.08963   0.00000  -0.00000
  33 5   H  1S          0.00003  -0.00233   0.00000   0.00000   0.00000
  34        2S          0.00028  -0.00984  -0.00000   0.00000   0.00016
  35        3S          0.00030  -0.00729  -0.00000   0.00023   0.00146
  36 6   H  1S         -0.00176  -0.00047   0.00000  -0.00000  -0.00004
  37        2S         -0.00828  -0.00099  -0.00000  -0.00004  -0.00090
  38        3S         -0.00656  -0.00026  -0.00000  -0.00046  -0.00246
                          16        17        18        19        20
  16        3S          0.02117
  17 3   H  1S         -0.00200   0.08225
  18        2S         -0.00787   0.07753   0.14856
  19        3S         -0.00660   0.01348   0.04032   0.02019
  20 4   C  1S          0.00009   0.00000   0.00002   0.00009   0.65948
  21        2S          0.00016   0.00000   0.00003   0.00016   0.49332
  22        2PX         0.00001  -0.00000  -0.00028  -0.00059   0.00000
  23        2PY        -0.00074  -0.00000  -0.00008  -0.00013   0.00000
  24        2PZ        -0.00000   0.00000   0.00000  -0.00000   0.00000
  25        3S         -0.00246  -0.00007  -0.00153  -0.00248  -0.02939
  26        3PX         0.00006  -0.00016  -0.00291  -0.00366   0.00000
  27        3PY        -0.00446  -0.00007  -0.00066  -0.00067   0.00000
  28        3PZ        -0.00000   0.00000   0.00000  -0.00000   0.00000
  29        4S         -0.00230  -0.00105  -0.00436  -0.00212  -0.01232
  30        4PX         0.00017  -0.00188  -0.00876  -0.00677   0.00000
  31        4PY        -0.00760  -0.00058  -0.00140  -0.00052   0.00000
  32        4PZ        -0.00000   0.00000  -0.00000  -0.00000   0.00000
  33 5   H  1S          0.00023  -0.00000  -0.00004  -0.00043  -0.00022
  34        2S          0.00144  -0.00004  -0.00092  -0.00236  -0.00159
  35        3S          0.00247  -0.00046  -0.00245  -0.00287   0.00005
  36 6   H  1S         -0.00043   0.00000   0.00000   0.00022  -0.00020
  37        2S         -0.00239   0.00000   0.00015   0.00141  -0.00155
  38        3S         -0.00293   0.00023   0.00145   0.00242   0.00004
                          21        22        23        24        25
  21        2S          0.49209
  22        2PX         0.00000   0.08267
  23        2PY         0.00000   0.00000   0.08775
  24        2PZ         0.00000   0.00000   0.00000   0.06424
  25        3S         -0.06462   0.00000   0.00000   0.00000   0.45387
  26        3PX         0.00000   0.08090   0.00000   0.00000   0.00000
  27        3PY         0.00000   0.00000   0.08275   0.00000   0.00000
  28        3PZ         0.00000   0.00000   0.00000   0.06470   0.00000
  29        4S         -0.02166   0.00000   0.00000   0.00000   0.21564
  30        4PX         0.00000   0.01617   0.00000   0.00000   0.00000
  31        4PY         0.00000   0.00000   0.01480   0.00000   0.00000
  32        4PZ         0.00000   0.00000   0.00000   0.02110   0.00000
  33 5   H  1S         -0.00031   0.00150   0.00577   0.00001   0.01555
  34        2S         -0.00305   0.00384   0.01372   0.00001   0.03949
  35        3S         -0.00005   0.00068   0.00200   0.00000   0.00255
  36 6   H  1S         -0.00028   0.00682   0.00002   0.00000   0.01485
  37        2S         -0.00296   0.01724   0.00001   0.00001   0.03873
  38        3S         -0.00007   0.00271  -0.00001   0.00000   0.00266
                          26        27        28        29        30
  26        3PX         0.20037
  27        3PY         0.00000   0.19771
  28        3PZ         0.00000   0.00000   0.16465
  29        4S          0.00000   0.00000   0.00000   0.18621
  30        4PX         0.07503   0.00000   0.00000   0.00000   0.06689
  31        4PY         0.00000   0.06636   0.00000   0.00000   0.00000
  32        4PZ         0.00000   0.00000   0.10025   0.00000   0.00000
  33 5   H  1S          0.00897   0.03375   0.00003   0.01756   0.00574
  34        2S          0.01732   0.06020   0.00003   0.04395   0.01462
  35        3S          0.00383   0.01074   0.00000   0.00673   0.00534
  36 6   H  1S          0.04145   0.00009   0.00003   0.01749   0.02457
  37        2S          0.07704  -0.00001   0.00003   0.04469   0.05932
  38        3S          0.01486  -0.00010   0.00000   0.00756   0.01882
                          31        32        33        34        35
  31        4PY         0.05373
  32        4PZ         0.00000   0.14297
  33 5   H  1S          0.01871   0.00002   0.08111
  34        2S          0.04370   0.00001   0.07780   0.15206
  35        3S          0.01287  -0.00000   0.01422   0.04350   0.02282
  36 6   H  1S         -0.00005   0.00002  -0.00001  -0.00081  -0.00237
  37        2S         -0.00027   0.00001  -0.00082  -0.00677  -0.00975
  38        3S         -0.00022  -0.00000  -0.00241  -0.00981  -0.00847
                          36        37        38
  36 6   H  1S          0.07998
  37        2S          0.07746   0.15276
  38        3S          0.01432   0.04412   0.02329
     Gross orbital populations:
                           1
   1 1   C  1S          1.10436
   2        2S          0.88586
   3        2PX         0.22664
   4        2PY         0.23550
   5        2PZ         0.16637
   6        3S          0.79236
   7        3PX         0.56060
   8        3PY         0.55476
   9        3PZ         0.42334
  10        4S          0.50627
  11        4PX         0.25922
  12        4PY         0.21206
  13        4PZ         0.41186
  14 2   H  1S          0.27204
  15        2S          0.46780
  16        3S          0.08704
  17 3   H  1S          0.27689
  18        2S          0.46523
  19        3S          0.08293
  20 4   C  1S          1.10441
  21        2S          0.88584
  22        2PX         0.22213
  23        2PY         0.23637
  24        2PZ         0.16563
  25        3S          0.79264
  26        3PX         0.55238
  27        3PY         0.55713
  28        3PZ         0.42012
  29        4S          0.50604
  30        4PX         0.27554
  31        4PY         0.21600
  32        4PZ         0.41234
  33 5   H  1S          0.27340
  34        2S          0.46912
  35        3S          0.08831
  36 6   H  1S          0.26990
  37        2S          0.47062
  38        3S          0.09096
          Condensed to atoms (all electrons):
               1          2          3          4          5          6
     1  C    5.032494   0.386980   0.388216   0.601660  -0.035462  -0.034692
     2  H    0.386980   0.517037  -0.032725  -0.040754   0.005989  -0.009645
     3  H    0.388216  -0.032725   0.513676  -0.040427  -0.009575   0.005890
     4  C    0.601660  -0.040754  -0.040427   5.058705   0.384056   0.383317
     5  H   -0.035462   0.005989  -0.009575   0.384056   0.527043  -0.041223
     6  H   -0.034692  -0.009645   0.005890   0.383317  -0.041223   0.527833
 Mulliken charges:
               1
     1  C   -0.339196
     2  H    0.173117
     3  H    0.174945
     4  C   -0.346557
     5  H    0.169171
     6  H    0.168520
 Sum of Mulliken charges =   0.00000
 Mulliken charges with hydrogens summed into heavy atoms:
               1
     1  C    0.008866
     4  C   -0.008866
 Electronic spatial extent (au):  <R**2>=             83.7674
 Charge=             -0.0000 electrons
 Dipole moment (field-independent basis, Debye):
    X=              0.0022    Y=              0.0286    Z=             -0.1201  Tot=              0.1234
 Quadrupole moment (field-independent basis, Debye-Ang):
   XX=            -12.2088   YY=            -12.2217   ZZ=            -15.6732
   XY=              0.0153   XZ=             -0.0022   YZ=             -0.0056
 Traceless Quadrupole moment (field-independent basis, Debye-Ang):
   XX=              1.1591   YY=              1.1462   ZZ=             -2.3053
   XY=              0.0153   XZ=             -0.0022   YZ=             -0.0056
 Octapole moment (field-independent basis, Debye-Ang**2):
  XXX=             -0.3805  YYY=             -0.0261  ZZZ=             -0.0720  XYY=              0.2288
  XXY=             -0.0151  XXZ=             -0.1606  XZZ=             -0.0967  YZZ=             -0.0734
  YYZ=             -0.2124  XYZ=             -0.0445
 Hexadecapole moment (field-independent basis, Debye-Ang**3):
 XXXX=            -34.3284 YYYY=            -55.2620 ZZZZ=            -17.8203 XXXY=             -7.2410
 XXXZ=              0.0182 YYYX=            -10.7051 YYYZ=              0.0230 ZZZX=              0.0276
 ZZZY=              0.0457 XXYY=            -16.2070 XXZZ=             -9.9349 YYZZ=            -13.6573
 XXYZ=              0.0074 YYXZ=             -0.0013 ZZXY=             -3.2037
 N-N= 3.305623576647D+01 E-N=-2.478182171248D+02  KE= 7.814656543246D+01
 Orbital energies and kinetic energies (alpha):
                                 1                 2
   1         O               -10.290149         15.977389
   2         O               -10.288733         15.981118
   3         O                -0.863832          1.539197
   4         O                -0.671990          1.270137
   5         O                -0.559004          0.941173
   6         O                -0.509428          1.283083
   7         O                -0.435979          1.042268
   8         O                -0.356993          1.038918
   9         V                 0.079765          1.182030
  10         V                 0.140769          0.590090
  11         V                 0.164389          0.596086
  12         V                 0.169842          0.681252
  13         V                 0.240775          0.584335
  14         V                 0.372670          0.848530
  15         V                 0.392780          0.932781
  16         V                 0.400148          0.786427
  17         V                 0.463797          1.191521
  18         V                 0.488056          1.420674
  19         V                 0.493679          1.301510
  20         V                 0.591028          1.653205
  21         V                 0.665197          1.570273
  22         V                 0.690191          2.147490
  23         V                 0.772804          2.484679
  24         V                 0.774994          2.254957
  25         V                 0.840642          1.083453
  26         V                 0.952449          3.426868
  27         V                 2.231723          3.927123
  28         V                 2.290273          4.028007
  29         V                 2.332367          4.303047
  30         V                 2.405505          4.511563
  31         V                 2.671199          6.300937
  32         V                 2.817174          6.304206
  33         V                 2.878760          6.139293
  34         V                 2.951338          6.226819
  35         V                 3.141111          6.820779
  36         V                 3.316960          6.402997
  37         V                23.351526         60.074186
  38         V                23.705941         60.204062
 Total kinetic energy from orbitals= 7.814656543246D+01
 Calling FoFJK, ICntrl=      2127 FMM=F ISym2X=0 I1Cent= 0 IOpClX= 0 NMat=1 NMatS=1 NMatT=0.
 -------------------------------------------------------------------
 Center     Atomic                   Forces (Hartrees/Bohr)
 Number     Number              X              Y              Z
 -------------------------------------------------------------------
      1        6           0.014198960    0.005985981   -0.004795655
      2        1          -0.011482059    0.008532463    0.002485425
      3        1           0.003506276   -0.005226031    0.002205703
      4        6           0.010681040    0.009484219   -0.005402567
      5        1           0.000597413   -0.012244135    0.002665541
      6        1          -0.017501629   -0.006532497    0.002841554
 -------------------------------------------------------------------
 Cartesian Forces:  Max     0.017501629 RMS     0.008377840

 GradGradGradGradGradGradGradGradGradGradGradGradGradGradGradGradGradGrad
 Berny optimization.
 Search for a local minimum.
 Step number   1 out of a maximum of    2
 All quantities printed in internal units (Hartrees-Bohrs-Radians)
 Second derivative matrix not updated -- first step.
 The second derivative matrix:
                          X1        Y1        Z1        X2        Y2
           X1           0.75598
           Y1           0.09894   0.85332
           Z1           0.00690   0.01057   0.17025
           X2          -0.16294   0.09451   0.00246   0.14036
           Y2           0.10028  -0.27778  -0.00881  -0.11357   0.26665
           Z2           0.00390  -0.01107  -0.05454  -0.00357   0.00912
           X3          -0.35089  -0.00005  -0.00964  -0.00008  -0.00003
           Y3          -0.00558  -0.10990  -0.00234   0.03214   0.01883
           Z3          -0.01233  -0.00227  -0.05588   0.00182   0.00069
           X4          -0.26753  -0.17874  -0.00099   0.02268   0.01331
           Y4          -0.17931  -0.47392  -0.00165  -0.01310  -0.00769
           Z4           0.00152   0.00273  -0.09435  -0.00071  -0.00099
           X5           0.02359  -0.01362   0.00078  -0.00001   0.00001
           Y5           0.01167  -0.00674   0.00105   0.00001  -0.00000
           Z5          -0.00060   0.00037   0.01754   0.00030  -0.00016
           X6           0.00179  -0.00103   0.00048  -0.00001   0.00001
           Y6          -0.02599   0.01502   0.00117   0.00001  -0.00000
           Z6           0.00062  -0.00033   0.01698  -0.00030   0.00016
                          Z2        X3        Y3        Z3        X4
           Z2           0.02837
           X3          -0.00034   0.35095
           Y3           0.00194   0.00009   0.07568
           Z3           0.01048   0.01051   0.00156   0.02940
           X4           0.00065   0.00004  -0.02668  -0.00064   0.71189
           Y4          -0.00036  -0.00002   0.01541   0.00039   0.12251
           Z4           0.01562  -0.00052  -0.00116   0.01606  -0.00637
           X5          -0.00032  -0.00001   0.00001   0.00032  -0.14639
           Y5           0.00020   0.00001  -0.00000  -0.00020   0.09310
           Z5           0.00925   0.00031  -0.00019  -0.00943  -0.00392
           X6          -0.00032  -0.00001   0.00001   0.00032  -0.32069
           Y6           0.00017   0.00001  -0.00000  -0.00017  -0.02351
           Z6          -0.00919  -0.00031   0.00019   0.00936   0.01126
                          Y4        Z4        X5        Y5        Z5
           Y4           0.86274
           Z4          -0.01227   0.17727
           X5           0.08470  -0.00258   0.12509
           Y5          -0.29208   0.00928  -0.10368   0.28274
           Z5           0.01150  -0.05765   0.00346  -0.00990   0.03007
           X6          -0.01477   0.00867  -0.00227  -0.00111   0.00045
           Y6          -0.10447   0.00241   0.03259   0.01609  -0.00162
           Z6           0.00238  -0.05696  -0.00166  -0.00043   0.01023
                          X6        Y6        Z6
           X6           0.32119
           Y6           0.01690   0.07336
           Z6          -0.00961  -0.00196   0.02958
 ITU=  0
     Eigenvalues ---    0.03730   0.04370   0.09129   0.10113   0.13504
     Eigenvalues ---    0.17392   0.26393   0.28911   0.52687   0.69799
     Eigenvalues ---    0.97033   1.56348
 Angle between quadratic step and forces=  35.52 degrees.
 Linear search not attempted -- first point.
 B after Tr=     0.007080    0.007643   -0.012333
         Rot=    1.000000   -0.000037    0.000018   -0.000121 Ang=  -0.01 deg.
 Variable       Old X    -DE/DX   Delta X   Delta X   Delta X     New X
                                 (Linear)    (Quad)   (Total)
    X1       -0.63508   0.01420   0.00000   0.02158   0.02893  -0.60616
    Y1       -1.09857   0.00599   0.00000   0.02298   0.03048  -1.06809
    Z1        0.01482  -0.00480   0.00000  -0.02595  -0.03838  -0.02356
    X2        0.42058  -0.01148   0.00000  -0.04253  -0.03475   0.38582
    Y2       -2.89418   0.00853   0.00000   0.02922   0.03696  -2.85722
    Z2       -0.05117   0.00249   0.00000   0.03207   0.01954  -0.03163
    X3       -2.68865   0.00351   0.00000   0.02992   0.03727  -2.65137
    Y3       -1.09965  -0.00523   0.00000  -0.02504  -0.01803  -1.11769
    Z3       -0.05223   0.00221   0.00000   0.03120   0.01869  -0.03354
    X4        0.62933   0.01068   0.00000   0.00770   0.01452   0.64384
    Y4        1.09025   0.00948   0.00000   0.00868   0.01648   1.10673
    Z4        0.01170  -0.00540   0.00000  -0.02509  -0.03732  -0.02562
    X5       -0.29512   0.00060   0.00000  -0.01627  -0.00990  -0.30502
    Y5        2.95515  -0.01224   0.00000  -0.03885  -0.03128   2.92387
    Z5       -0.05944   0.00267   0.00000   0.03130   0.01917  -0.04027
    X6        2.72692  -0.01750   0.00000  -0.04286  -0.03606   2.69085
    Y6        1.23300  -0.00653   0.00000  -0.04290  -0.03460   1.19840
    Z6       -0.05803   0.00284   0.00000   0.03045   0.01830  -0.03972
         Item               Value     Threshold  Converged?
 Maximum Force            0.017502     0.000450     NO 
 RMS     Force            0.008378     0.000300     NO 
 Maximum Displacement     0.038381     0.001800     NO 
 RMS     Displacement     0.028294     0.001200     NO 
 Predicted change in Energy=-1.828314D-03
 GradGradGradGradGradGradGradGradGradGradGradGradGradGradGradGradGradGrad

 Unable to Open any file for archive entry.
 1\1\GINC-BHD0006\Force\RwB97XD\6-311G\C2H4\BWEIGHT\11-Jan-2023\0\\# WB
 97XD/6-311G SCF=XQC FORCE nosym pop=full guess=read\\MD Step 999\\0,1\
 C,-0.33607158,-0.5813385,0.00784124\H,0.2225595,-1.53153172,-0.0270798
 8\H,-1.42277024,-0.58191215,-0.02763992\C,0.33302609,0.57693472,0.0061
 9194\H,-0.1561697,1.56379841,-0.03145215\H,1.44302242,0.6524756,-0.030
 70628\\Version=ES64L-G16RevC.01\HF=-78.5554082\RMSD=6.211e-09\RMSF=8.3
 78e-03\Dipole=0.0008657,0.0112563,-0.0472325\Quadrupole=0.8617481,0.85
 21902,-1.7139383,0.0113848,-0.0016657,-0.0041479\PG=C01 [X(C2H4)]\\@
 The archive entry for this job was punched.


 STEINBACH'S GUIDELINES FOR SYSTEMS PROGRAMMING:
 NEVER TEST FOR AN ERROR CONDITION YOU DON'T KNOW HOW
 TO HANDLE.
 Job cpu time:       0 days  0 hours  0 minutes 52.5 seconds.
 Elapsed time:       0 days  0 hours  0 minutes 17.3 seconds.
 File lengths (MBytes):  RWF=    272 Int=      0 D2E=      0 Chk=     32 Scr=     32
 Normal termination of Gaussian 16 at Wed Jan 11 18:38:22 2023.
