6
MD Step 0
C  -0.33763715 -0.58748864 0.00000000
H  0.19552659 -1.51519357 0.00000000
H  -1.40763715 -0.58748864 0.00000000
C  0.33763715 0.58748865 0.00000000
H  -0.19552659 1.51519357 0.00000000
H  1.40763715 0.58748865 0.00000000
6
MD Step 1
C  -0.33800516 -0.58783643 -0.00039496
H  0.19788567 -1.51298778 0.00235094
H  -1.40541808 -0.58520284 0.00235291
C  0.33721601 0.58704670 -0.00039401
H  -0.19318675 1.51769075 0.00234777
H  1.41012273 0.58991038 0.00234975
6
MD Step 2
C  -0.33831957 -0.58809017 -0.00079250
H  0.20028341 -1.51107525 0.00471726
H  -1.40350374 -0.58305063 0.00472127
C  0.33674480 0.58651036 -0.00079058
H  -0.19084775 1.52047093 0.00471082
H  1.41283307 0.59247999 0.00471467
6
MD Step 3
C  -0.33857317 -0.58824534 -0.00118892
H  0.20269653 -1.50948852 0.00707679
H  -1.40196105 -0.58106109 0.00708319
C  0.33623233 0.58588737 -0.00118591
H  -0.18852431 1.52348173 0.00706661
H  1.41568244 0.59516545 0.00707196
6
MD Step 4
C  -0.33875911 -0.58829812 -0.00158009
H  0.20509597 -1.50825546 0.00940484
H  -1.40085005 -0.57926489 0.00941441
C  0.33568810 0.58518687 -0.00157575
H  -0.18623154 1.52666282 0.00938988
H  1.41857986 0.59793125 0.00939595
6
MD Step 5
C  -0.33887820 -0.58825261 -0.00196867
H  0.20748981 -1.50735615 0.01171709
H  -1.40017906 -0.57765124 0.01173119
C  0.33511500 0.58441207 -0.00196259
H  -0.18394252 1.52998992 0.01169557
H  1.42147427 0.60078149 0.01170105
6
MD Step 6
C  -0.33892781 -0.58810956 -0.00235288
H  0.20985664 -1.50679008 0.01400282
H  -1.39997110 -0.57623476 0.01402352
C  0.33452038 0.58357138 -0.00234444
H  -0.18165555 1.53340887 0.01397206
H  1.42428900 0.60369309 0.01397504
6
MD Step 7
C  -0.33891170 -0.58787616 -0.00273637
H  0.21220446 -1.50651786 0.01628348
H  -1.40020448 -0.57499683 0.01631356
C  0.33390618 0.58266846 -0.00272472
H  -0.17933609 1.53689524 0.01623973
H  1.42698205 0.60667455 0.01623773
6
MD Step 8
C  -0.33883080 -0.58755668 -0.00311886
H  0.21451568 -1.50651736 0.01855727
H  -1.40086871 -0.57394105 0.01860026
C  0.33327812 0.58171143 -0.00310292
H  -0.17697262 1.54039993 0.01849569
H  1.42949158 0.60971059 0.01848565
6
MD Step 9
C  -0.33867676 -0.58714598 -0.00348976
H  0.21670944 -1.50682254 0.02076102
H  -1.40200288 -0.57313129 0.02082134
C  0.33265208 0.58071915 -0.00346826
H  -0.17461522 1.54381203 0.02067572
H  1.43169899 0.61272416 0.02065380
6
MD Step 10
C  -0.33845795 -0.58665540 -0.00385411
H  0.21879656 -1.50736939 0.02292471
H  -1.40354054 -0.57253710 0.02300731
C  0.33202797 0.57969506 -0.00382557
H  -0.17222175 1.54711485 0.02280863
H  1.43358558 0.61573127 0.02277063
6
MD Step 11
C  -0.33817656 -0.58608983 -0.00420977
H  0.22074426 -1.50813286 0.02503555
H  -1.40544736 -0.57216955 0.02514587
C  0.33141259 0.57864997 -0.00417255
H  -0.16979401 1.55025084 0.02488062
H  1.43509686 0.61870513 0.02482188
6
MD Step 12
C  -0.33784250 -0.58546160 -0.00456141
H  0.22256006 -1.50904450 0.02712139
H  -1.40763908 -0.57199792 0.02726493
C  0.33080553 0.57758791 -0.00451369
H  -0.16729486 1.55320578 0.02691849
H  1.43622667 0.62165973 0.02683431
6
MD Step 13
C  -0.33745988 -0.58477695 -0.00490709
H  0.22421274 -1.51007321 0.02917097
H  -1.41006347 -0.57202935 0.02935334
C  0.33021262 0.57651939 -0.00484701
H  -0.16472809 1.55592974 0.02891020
H  1.43693745 0.62457008 0.02879569
6
MD Step 14
C  -0.33703409 -0.58404315 -0.00524554
H  0.22567578 -1.51118328 0.03117691
H  -1.41265908 -0.57226593 0.03140356
C  0.32963863 0.57545414 -0.00517119
H  -0.16209584 1.55838075 0.03084765
H  1.43720367 0.62741534 0.03069795
6
MD Step 15
C  -0.33657133 -0.58326805 -0.00557575
H  0.22692578 -1.51233735 0.03313363
H  -1.41535903 -0.57270675 0.03340963
C  0.32908764 0.57440133 -0.00548524
H  -0.15940090 1.56052333 0.03272474
H  1.43701001 0.63017685 0.03253512
6
MD Step 16
C  -0.33607789 -0.58245936 -0.00589642
H  0.22793952 -1.51350065 0.03503392
H  -1.41809628 -0.57335133 0.03536380
C  0.32856355 0.57337004 -0.00578797
H  -0.15665028 1.56232566 0.03453391
H  1.43634819 0.63283484 0.03429994
6
MD Step 17
C  -0.33556202 -0.58162653 -0.00620800
H  0.22870621 -1.51462995 0.03688087
H  -1.42079346 -0.57418787 0.03726815
C  0.32806808 0.57236721 -0.00607989
H  -0.15384356 1.56377178 0.03627797
H  1.43522883 0.63538036 0.03599584
6
MD Step 18
C  -0.33502349 -0.58077033 -0.00650213
H  0.22916620 -1.51573590 0.03862594
H  -1.42342630 -0.57525469 0.03907413
C  0.32761117 0.57140785 -0.00635310
H  -0.15103432 1.56480038 0.03790882
H  1.43361979 0.63775371 0.03757441
6
MD Step 19
C  -0.33447752 -0.57990692 -0.00678628
H  0.22935526 -1.51673952 0.04031363
H  -1.42588038 -0.57649666 0.04082399
C  0.32718661 0.57049088 -0.00661499
H  -0.14818676 1.56544919 0.03947066
H  1.43159057 0.63998882 0.03908165
6
MD Step 20
C  -0.33392730 -0.57904023 -0.00705573
H  0.22924098 -1.51763676 0.04191686
H  -1.42811723 -0.57792878 0.04248995
C  0.32679972 0.56962647 -0.00686127
H  -0.14533892 1.56569106 0.04093708
H  1.42914763 0.64204911 0.04049150
6
MD Step 21
C  -0.33337705 -0.57817507 -0.00730704
H  0.22880169 -1.51842011 0.04341616
H  -1.43009629 -0.57955759 0.04405168
C  0.32645406 0.56882281 -0.00708895
H  -0.14252404 1.56551295 0.04228937
H  1.42631320 0.64390651 0.04178579
6
MD Step 22
C  -0.33283602 -0.57732127 -0.00754228
H  0.22805128 -1.51905427 0.04482443
H  -1.43175105 -0.58135677 0.04552025
C  0.32614724 0.56808196 -0.00730036
H  -0.13974606 1.56494060 0.04354107
H  1.42314961 0.64556632 0.04297958
6
MD Step 23
C  -0.33231192 -0.57648700 -0.00776243
H  0.22700031 -1.51951547 0.04614786
H  -1.43302916 -0.58330605 0.04690003
C  0.32587751 0.56740628 -0.00749672
H  -0.13701818 1.56399946 0.04469915
H  1.41971969 0.64702814 0.04408140
6
MD Step 24
C  -0.33180407 -0.57567189 -0.00796025
H  0.22561553 -1.51983218 0.04734512
H  -1.43393365 -0.58543166 0.04814969
C  0.32565064 0.56680523 -0.00767166
H  -0.13440290 1.56267392 0.04572398
H  1.41604548 0.64824537 0.04505155
6
MD Step 25
C  -0.33131990 -0.57488369 -0.00813751
H  0.22391894 -1.51998608 0.04842706
H  -1.43442388 -0.58770770 0.04927832
C  0.32546320 0.56627871 -0.00782726
H  -0.13191331 1.56100632 0.04662752
H  1.41220690 0.64922457 0.04590372
6
MD Step 26
C  -0.33086691 -0.57413016 -0.00829673
H  0.22194007 -1.51995979 0.04940879
H  -1.43446383 -0.59010379 0.05029902
C  0.32531062 0.56582514 -0.00796625
H  -0.12956024 1.55904879 0.04742609
H  1.40829291 0.64997773 0.04665622
6
MD Step 27
C  -0.33044440 -0.57341075 -0.00843254
H  0.21966634 -1.51978648 0.05025986
H  -1.43407207 -0.59263451 0.05118134
C  0.32519568 0.56544964 -0.00808412
H  -0.12740106 1.55681320 0.04809117
H  1.40435071 0.65047253 0.04728073
6
MD Step 28
C  -0.33005409 -0.57272728 -0.00854283
H  0.21710688 -1.51948571 0.05096852
H  -1.43325764 -0.59529574 0.05191308
C  0.32511771 0.56515347 -0.00817940
H  -0.12547573 1.55433459 0.04861287
H  1.40044855 0.65069655 0.04776809
6
MD Step 29
C  -0.32970455 -0.57208851 -0.00863345
H  0.21431915 -1.51903635 0.05156886
H  -1.43199311 -0.59803808 0.05252588
C  0.32506815 0.56492950 -0.00825787
H  -0.12377981 1.55169728 0.04902649
H  1.39670120 0.65068406 0.04815620
6
MD Step 30
C  -0.32939870 -0.57149749 -0.00870515
H  0.21133383 -1.51845143 0.05206536
H  -1.43028997 -0.60084162 0.05302322
C  0.32504336 0.56477489 -0.00832059
H  -0.12233823 1.54895891 0.04933820
H  1.39319278 0.65044086 0.04845250
6
MD Step 31
C  -0.32913396 -0.57095175 -0.00875369
H  0.20815555 -1.51777684 0.05243390
H  -1.42819754 -0.60371511 0.05338160
C  0.32504452 0.56469098 -0.00836409
H  -0.12120381 1.54615031 0.04952587
H  1.38997571 0.64994513 0.04863463
6
MD Step 32
C  -0.32890888 -0.57045007 -0.00877687
H  0.20480260 -1.51705071 0.05266206
H  -1.42576234 -0.60665608 0.05358894
C  0.32507097 0.56467672 -0.00838672
H  -0.12041687 1.54331459 0.04957887
H  1.38710928 0.64918758 0.04869202
6
MD Step 33
C  -0.32871967 -0.56998890 -0.00877073
H  0.20128503 -1.51632432 0.05272747
H  -1.42304889 -0.60967236 0.05362401
C  0.32512396 0.56473230 -0.00838527
H  -0.12002601 1.54048457 0.04947661
H  1.38463649 0.64814985 0.04860326
6
MD Step 34
C  -0.32857086 -0.56957325 -0.00874094
H  0.19766836 -1.51559720 0.05266227
H  -1.42007466 -0.61271803 0.05351773
C  0.32519583 0.56484857 -0.00836504
H  -0.12002363 1.53774588 0.04925235
H  1.38264681 0.64686880 0.04840300
6
MD Step 35
C  -0.32846299 -0.56920425 -0.00868969
H  0.19399907 -1.51489072 0.05247861
H  -1.41688396 -0.61576757 0.05328221
C  0.32528275 0.56501956 -0.00832813
H  -0.12041899 1.53516122 0.04891937
H  1.38119968 0.64536202 0.04810469
6
MD Step 36
C  -0.32839565 -0.56888228 -0.00861890
H  0.19032234 -1.51422913 0.05218699
H  -1.41352899 -0.61879772 0.05292830
C  0.32538165 0.56523959 -0.00827633
H  -0.12121929 1.53278716 0.04848914
H  1.38034090 0.64364613 0.04771956
6
MD Step 37
C  -0.32836604 -0.56860554 -0.00852861
H  0.18667254 -1.51364785 0.05178717
H  -1.41007809 -0.62179663 0.05245686
C  0.32549188 0.56550494 -0.00820963
H  -0.12243810 1.53066378 0.04796218
H  1.38009213 0.64172749 0.04724713
6
MD Step 38
C  -0.32836886 -0.56837000 -0.00841686
H  0.18307211 -1.51319318 0.05126759
H  -1.40661497 -0.62476447 0.05185827
C  0.32561531 0.56581404 -0.00812622
H  -0.12409535 1.52881286 0.04732740
H  1.38044951 0.63960176 0.04667450
6
MD Step 39
C  -0.32840337 -0.56817647 -0.00828699
H  0.17957197 -1.51288024 0.05064650
H  -1.40319608 -0.62767236 0.05115159
C  0.32574943 0.56616065 -0.00802889
H  -0.12617596 1.52727820 0.04660318
H  1.38142460 0.63729496 0.04601922
6
MD Step 40
C  -0.32846857 -0.56802569 -0.00814253
H  0.17622192 -1.51272124 0.04994271
H  -1.39987840 -0.63049153 0.05035665
C  0.32589219 0.56653886 -0.00792044
H  -0.12865842 1.52609553 0.04580828
H  1.38301513 0.63483435 0.04529909
6
MD Step 41
C  -0.32855799 -0.56791328 -0.00798150
H  0.17303892 -1.51275606 0.04914441
H  -1.39674938 -0.63322466 0.04946398
C  0.32604730 0.56694845 -0.00779879
H  -0.13154585 1.52526053 0.04493042
H  1.38517378 0.63221718 0.04449964
6
MD Step 42
C  -0.32866169 -0.56783161 -0.00779843
H  0.17001766 -1.51304022 0.04822031
H  -1.39391369 -0.63589474 0.04844538
C  0.32622213 0.56739297 -0.00765880
H  -0.13485490 1.52473992 0.04393733
H  1.38782081 0.62942185 0.04358575
6
MD Step 43
C  -0.32877561 -0.56777902 -0.00759401
H  0.16718413 -1.51358968 0.04717362
H  -1.39143649 -0.63849062 0.04730588
C  0.32641859 0.56787064 -0.00750069
H  -0.13856174 1.52452614 0.04283133
H  1.39090052 0.62646237 0.04255810
6
MD Step 44
C  -0.32889961 -0.56775787 -0.00737297
H  0.16458296 -1.51439240 0.04602977
H  -1.38935374 -0.64097905 0.04607193
C  0.32663496 0.56837635 -0.00732820
H  -0.14261441 1.52462553 0.04163719
H  1.39437083 0.62337608 0.04144073
6
MD Step 45
C  -0.32902572 -0.56776276 -0.00713144
H  0.16220713 -1.51547840 0.04476656
H  -1.38774116 -0.64337530 0.04472360
C  0.32687765 0.56891347 -0.00713753
H  -0.14700372 1.52498838 0.04033128
H  1.39813420 0.62015345 0.04020807
6
MD Step 46
C  -0.32914788 -0.56779015 -0.00686710
H  0.16005435 -1.51686243 0.04337071
H  -1.38665531 -0.64568595 0.04324940
C  0.32715146 0.56948421 -0.00692635
H  -0.15170683 1.52556698 0.03889893
H  1.40209715 0.61679494 0.03884402
6
MD Step 47
C  -0.32926952 -0.56784573 -0.00658708
H  0.15817068 -1.51849973 0.04188134
H  -1.38608798 -0.64786460 0.04168872
C  0.32745217 0.57008210 -0.00670062
H  -0.15664378 1.52636085 0.03737905
H  1.40621672 0.61335482 0.03738751
6
MD Step 48
C  -0.32939155 -0.56793240 -0.00629522
H  0.15657947 -1.52035784 0.04031921
H  -1.38603737 -0.64988360 0.04006280
C  0.32777841 0.57070392 -0.00646346
H  -0.16174980 1.52734611 0.03579204
H  1.41043001 0.60986976 0.03585874
6
MD Step 49
C  -0.32951126 -0.56804930 -0.00599091
H  0.15527536 -1.52242321 0.03868081
H  -1.38651420 -0.65174040 0.03836881
C  0.32813258 0.57135079 -0.00621417
H  -0.16698223 1.52847042 0.03413355
H  1.41464950 0.60635254 0.03425290
6
MD Step 50
C  -0.32962777 -0.56819699 -0.00567480
H  0.15425602 -1.52466985 0.03696971
H  -1.38750965 -0.65342557 0.03661053
C  0.32851554 0.57202257 -0.00595322
H  -0.17228959 1.52968610 0.03240662
H  1.41879665 0.60282358 0.03257293
6
MD Step 51
C  -0.32974157 -0.56837702 -0.00534833
H  0.15351966 -1.52706268 0.03519387
H  -1.38899848 -0.65492567 0.03479582
C  0.32892696 0.57271837 -0.00568181
H  -0.17761510 1.53094873 0.03061900
H  1.42280076 0.59930806 0.03082672
6
MD Step 52
C  -0.32985189 -0.56858928 -0.00501099
H  0.15305040 -1.52957345 0.03335083
H  -1.39095482 -0.65623847 0.03292196
C  0.32936785 0.57343888 -0.00539953
H  -0.18291273 1.53220321 0.02876778
H  1.42658502 0.59582070 0.02901155
6
MD Step 53
C  -0.32996099 -0.56883614 -0.00466488
H  0.15284362 -1.53215629 0.03145245
H  -1.39332797 -0.65734775 0.03100020
C  0.32983629 0.57418215 -0.00510831
H  -0.18812274 1.53341015 0.02686502
H  1.43009304 0.59239067 0.02713993
6
MD Step 54
C  -0.33007008 -0.56911854 -0.00431056
H  0.15288343 -1.53477180 0.02950224
H  -1.39606697 -0.65824665 0.02903334
C  0.33033129 0.57494735 -0.00480873
H  -0.19319555 1.53452379 0.02491425
H  1.43326645 0.58903839 0.02521585
6
MD Step 55
C  -0.33017962 -0.56943621 -0.00394741
H  0.15314520 -1.53738589 0.02749736
H  -1.39912006 -0.65893573 0.02701775
C  0.33085246 0.57573439 -0.00450041
H  -0.19809048 1.53549495 0.02291255
H  1.43604773 0.58577740 0.02323690
6
MD Step 56
C  -0.33029046 -0.56978884 -0.00357495
H  0.15360314 -1.53996344 0.02543576
H  -1.40242903 -0.65941591 0.02495052
C  0.33139878 0.57654267 -0.00418314
H  -0.20276907 1.53627906 0.02085778
H  1.43838814 0.58262142 0.02120148
6
MD Step 57
C  -0.33041039 -0.57018247 -0.00319980
H  0.15426965 -1.54243001 0.02335459
H  -1.40589176 -0.65964908 0.02286773
C  0.33196215 0.57736438 -0.00386293
H  -0.20715624 1.53687616 0.01878853
H  1.44028755 0.57962305 0.01914891
6
MD Step 58
C  -0.33053270 -0.57060858 -0.00281342
H  0.15507145 -1.54479808 0.02120718
H  -1.40948960 -0.65968438 0.02072199
C  0.33254816 0.57820570 -0.00353242
H  -0.21126672 1.53720581 0.01665660
H  1.44166861 0.57674911 0.01703137
6
MD Step 59
C  -0.33066272 -0.57107009 -0.00241987
H  0.15600523 -1.54701118 0.01901666
H  -1.41313201 -0.65950087 0.01853552
C  0.33315016 0.57906030 -0.00319540
H  -0.21504824 1.53726440 0.01448600
H  1.44253459 0.57403602 0.01487348
6
MD Step 60
C  -0.33080027 -0.57156417 -0.00201756
H  0.15703593 -1.54904753 0.01677489
H  -1.41676109 -0.65911110 0.01629945
C  0.33376639 0.57992675 -0.00285066
H  -0.21848528 1.53702239 0.01226829
H  1.44286609 0.57148741 0.01266726
6
MD Step 61
C  -0.33095157 -0.57209399 -0.00161182
H  0.15816740 -1.55084980 0.01451193
H  -1.42028225 -0.65848994 0.01404316
C  0.33438819 0.58079655 -0.00250314
H  -0.22152817 1.53649547 0.01003455
H  1.44269217 0.56914433 0.01044426
6
MD Step 62
C  -0.33111514 -0.57265493 -0.00120024
H  0.15936081 -1.55240834 0.01221499
H  -1.42364833 -0.65765774 0.01175336
C  0.33501381 0.58166809 -0.00215081
H  -0.22417623 1.53566194 0.00777144
H  1.44200718 0.56700310 0.00819146
6
MD Step 63
C  -0.33129020 -0.57324284 -0.00078150
H  0.16058423 -1.55371184 0.00987714
H  -1.42681083 -0.65663037 0.00942276
C  0.33564015 0.58253831 -0.00179261
H  -0.22642810 1.53451259 0.00547157
H  1.44082058 0.56506455 0.00590171
6
MD Step 64
C  -0.33148229 -0.57385960 -0.00036122
H  0.16184614 -1.55471422 0.00753020
H  -1.42968735 -0.65538553 0.00708290
C  0.33625728 0.58339704 -0.00143369
H  -0.22824815 1.53308417 0.00316743
H  1.43919042 0.56336727 0.00360767
6
MD Step 65
C  -0.33168747 -0.57449765 0.00006438
H  0.16310330 -1.55542788 0.00515323
H  -1.43225553 -0.65395621 0.00471277
C  0.33686392 0.58424275 -0.00107063
H  -0.22965994 1.53136624 0.00083708
H  1.43712941 0.56189498 0.00128745
6
MD Step 66
C  -0.33190047 -0.57514804 0.00050000
H  0.16430899 -1.55587548 0.00272012
H  -1.43450504 -0.65238202 0.00228626
C  0.33745942 0.58507445 -0.00069914
H  -0.23069771 1.52934945 -0.00154696
H  1.43465324 0.56062465 -0.00108649
6
MD Step 67
C  -0.33212816 -0.57581365 0.00093749
H  0.16549139 -1.55601106 0.00027713
H  -1.43635895 -0.65062991 -0.00015021
C  0.33803074 0.58587839 -0.00032667
H  -0.23132719 1.52710432 -0.00393793
H  1.43185946 0.55960489 -0.00346758
6
MD Step 68
C  -0.33237446 -0.57649446 0.00137126
H  0.16666624 -1.55580835 -0.00214392
H  -1.43776272 -0.64868262 -0.00256454
C  0.33856719 0.58664299 0.00004170
H  -0.23153385 1.52469259 -0.00630405
H  1.42883767 0.55886817 -0.00582438
6
MD Step 69
C  -0.33263236 -0.57717970 0.00180649
H  0.16778982 -1.55530828 -0.00457239
H  -1.43873218 -0.64658627 -0.00498579
C  0.33906840 0.58736696 0.00041094
H  -0.23137028 1.52211921 -0.00867645
H  1.42562063 0.55838365 -0.00818837
6
MD Step 70
C  -0.33290136 -0.57786510 0.00224127
H  0.16886143 -1.55451565 -0.00699726
H  -1.43925033 -0.64434675 -0.00740250
C  0.33952727 0.58804194 0.00077943
H  -0.23085250 1.51943509 -0.01104504
H  1.42228679 0.55815976 -0.01054995
6
MD Step 71
C  -0.33318170 -0.57854723 0.00267250
H  0.16988942 -1.55343311 -0.00940078
H  -1.43930158 -0.64196388 -0.00979643
C  0.33993575 0.58865835 0.00114448
H  -0.22999385 1.51670226 -0.01339304
H  1.41892463 0.55821025 -0.01289297
6
MD Step 72
C  -0.33347274 -0.57922189 0.00309765
H  0.17088139 -1.55207084 -0.01176831
H  -1.43888179 -0.63944123 -0.01215238
C  0.34028658 0.58920714 0.00150391
H  -0.22881441 1.51398311 -0.01570701
H  1.41562095 0.55854440 -0.01520466
6
MD Step 73
C  -0.33377341 -0.57988472 0.00351420
H  0.17184710 -1.55044330 -0.01408534
H  -1.43799530 -0.63678300 -0.01445525
C  0.34057297 0.58967940 0.00185561
H  -0.22733741 1.51134249 -0.01797371
H  1.41246192 0.55917007 -0.01747249
6
MD Step 74
C  -0.33407679 -0.58052579 0.00392518
H  0.17276626 -1.54860110 -0.01636944
H  -1.43668719 -0.63402631 -0.01672228
C  0.34079405 0.59007189 0.00220278
H  -0.22562087 1.50881433 -0.02021269
H  1.40949863 0.56006158 -0.01971648
6
MD Step 75
C  -0.33437852 -0.58113805 0.00433069
H  0.17363762 -1.54658098 -0.01862134
H  -1.43499311 -0.63119138 -0.01895383
C  0.34094678 0.59037881 0.00254586
H  -0.22370732 1.50645006 -0.02242640
H  1.40679523 0.56120920 -0.02193955
6
MD Step 76
C  -0.33467679 -0.58171726 0.00472805
H  0.17447827 -1.54440562 -0.02082533
H  -1.43293925 -0.62828181 -0.02113375
C  0.34102604 0.59059200 0.00288251
H  -0.22162339 1.50431699 -0.02460059
H  1.40442656 0.56261876 -0.02412798
6
MD Step 77
C  -0.33496845 -0.58225827 0.00511566
H  0.17530056 -1.54210613 -0.02297205
H  -1.43056499 -0.62530753 -0.02325241
C  0.34102863 0.59070496 0.00321146
H  -0.21940197 1.50247385 -0.02672745
H  1.40245311 0.56428887 -0.02627426
6
MD Step 78
C  -0.33525380 -0.58275979 0.00548833
H  0.17613978 -1.53969339 -0.02503070
H  -1.42789427 -0.62225662 -0.02527844
C  0.34094869 0.59070822 0.00352773
H  -0.21705315 1.50099745 -0.02877727
H  1.40094721 0.56623889 -0.02834921
6
MD Step 79
C  -0.33552262 -0.58321059 0.00585108
H  0.17697137 -1.53724027 -0.02703110
H  -1.42501799 -0.61917818 -0.02724233
C  0.34079153 0.59060346 0.00383660
H  -0.21464613 1.49989829 -0.03078167
H  1.39990819 0.56842647 -0.03038365
6
MD Step 80
C  -0.33576929 -0.58360450 0.00620431
H  0.17779923 -1.53479174 -0.02897546
H  -1.42200359 -0.61609296 -0.02914671
C  0.34055886 0.59038864 0.00413861
H  -0.21221931 1.49920840 -0.03274399
H  1.39935102 0.57083634 -0.03238032
6
MD Step 81
C  -0.33599229 -0.58393994 0.00654438
H  0.17865170 -1.53236762 -0.03084183
H  -1.41889735 -0.61299684 -0.03096975
C  0.34024928 0.59005869 0.00443008
H  -0.20978305 1.49897655 -0.03464288
H  1.39930222 0.57347677 -0.03431749
6
MD Step 82
C  -0.33618873 -0.58421450 0.00686910
H  0.17954869 -1.52999456 -0.03261654
H  -1.41575604 -0.60989345 -0.03269811
C  0.33986381 0.58961115 0.00470864
H  -0.20735159 1.49923440 -0.03646492
H  1.39976654 0.57634698 -0.03618112
6
MD Step 83
C  -0.33634652 -0.58441713 0.00718527
H  0.18045451 -1.52775241 -0.03434088
H  -1.41269271 -0.60684127 -0.03437538
C  0.33941364 0.58905416 0.00498141
H  -0.20498957 1.49994851 -0.03825188
H  1.40067993 0.57939018 -0.03801038
6
MD Step 84
C  -0.33646838 -0.58455199 0.00748573
H  0.18141832 -1.52563166 -0.03597043
H  -1.40973288 -0.60381166 -0.03595692
C  0.33889637 0.58838271 0.00524046
H  -0.20267015 1.50116160 -0.03995844
H  1.40205276 0.58263480 -0.03975985
6
MD Step 85
C  -0.33654641 -0.58461314 0.00777377
H  0.18242335 -1.52368418 -0.03752521
H  -1.40696468 -0.60084023 -0.03746491
C  0.33832119 0.58760407 0.00548908
H  -0.20042593 1.50284086 -0.04160391
H  1.40381891 0.58604360 -0.04144649
6
MD Step 86
C  -0.33658160 -0.58460385 0.00804471
H  0.18350086 -1.52190771 -0.03897555
H  -1.40442211 -0.59791189 -0.03887009
C  0.33768960 0.58671851 0.00572170
H  -0.19823427 1.50499295 -0.04315697
H  1.40595245 0.58962819 -0.04303839
6
MD Step 87
C  -0.33656938 -0.58452219 0.00829963
H  0.18464423 -1.52033157 -0.04032758
H  -1.40216980 -0.59504693 -0.04018039
C  0.33700966 0.58573376 0.00593900
H  -0.19610351 1.50757823 -0.04462191
H  1.40838280 0.59336315 -0.04453802
6
MD Step 88
C  -0.33650348 -0.58436475 0.00854182
H  0.18583032 -1.51899451 -0.04160171
H  -1.40027970 -0.59227932 -0.04141876
C  0.33629222 0.58466124 0.00614415
H  -0.19405176 1.51053324 -0.04601691
H  1.41101852 0.59720762 -0.04596108
6
MD Step 89
C  -0.33638348 -0.58413412 0.00876977
H  0.18706390 -1.51789959 -0.04278792
H  -1.39878432 -0.58961183 -0.04257643
C  0.33554333 0.58350846 0.00633488
H  -0.19206280 1.51381656 -0.04732926
H  1.41379450 0.60115016 -0.04729383
6
MD Step 90
C  -0.33620955 -0.58383348 0.00898224
H  0.18834543 -1.51704631 -0.04387798
H  -1.39770802 -0.58704840 -0.04364624
C  0.33476949 0.58228435 0.00650918
H  -0.19011912 1.51737779 -0.04854774
H  1.41664146 0.60517646 -0.04852426
6
MD Step 91
C  -0.33597759 -0.58346174 0.00918272
H  0.18964205 -1.51645980 -0.04489447
H  -1.39709518 -0.58462322 -0.04465329
C  0.33398246 0.58100393 0.00667064
H  -0.18823168 1.52112985 -0.04969179
H  1.41945880 0.60924045 -0.04966961
6
MD Step 92
C  -0.33569448 -0.58302863 0.00936551
H  0.19097795 -1.51610033 -0.04580032
H  -1.39691877 -0.58231026 -0.04555985
C  0.33318393 0.57967304 0.00681203
H  -0.18635054 1.52504110 -0.05072118
H  1.42220711 0.61335487 -0.05069078
6
MD Step 93
C  -0.33536283 -0.58253946 0.00952972
H  0.19234394 -1.51595461 -0.04658964
H  -1.39717161 -0.58011413 -0.04636048
C  0.33238074 0.57830333 0.00693177
H  -0.18445621 1.52904596 -0.05162688
H  1.42481848 0.61750056 -0.05157863
6
MD Step 94
C  -0.33498232 -0.58199632 0.00967788
H  0.19370584 -1.51602819 -0.04727968
H  -1.39785859 -0.57806197 -0.04707393
C  0.33158346 0.57691081 0.00703260
H  -0.18255236 1.53305451 -0.05242293
H  1.42720598 0.62163472 -0.05234604
6
MD Step 95
C  -0.33456264 -0.58141114 0.00980430
H  0.19508226 -1.51626818 -0.04783304
H  -1.39891929 -0.57612596 -0.04766098
C  0.33079323 0.57550260 0.00710724
H  -0.18058922 1.53703172 -0.05306937
H  1.42934267 0.62576875 -0.05295513
6
MD Step 96
C  -0.33410489 -0.58078689 0.00991176
H  0.19643432 -1.51667480 -0.04826880
H  -1.40034026 -0.57433389 -0.04814156
C  0.33002038 0.57409533 0.00715888
H  -0.17857451 1.54088798 -0.05358246
H  1.43115159 0.62985758 -0.05342149
6
MD Step 97
C  -0.33361398 -0.58013012 0.01000022
H  0.19774068 -1.51722723 -0.04858766
H  -1.40208109 -0.57269457 -0.04851591
C  0.32927181 0.57270248 0.00718739
H  -0.17649966 1.54455515 -0.05396057
H  1.43258150 0.63387464 -0.05374394
6
MD Step 98
C  -0.33309685 -0.57944912 0.01006842
H  0.19898798 -1.51789414 -0.04878184
H  -1.40408567 -0.57120777 -0.04877502
C  0.32855256 0.57133584 0.00719112
H  -0.17435014 1.54797780 -0.05419416
H  1.43359770 0.63780216 -0.05391412
6
MD Step 99
C  -0.33255523 -0.57874663 0.01012015
H  0.20012843 -1.51867720 -0.04887841
H  -1.40632660 -0.56990676 -0.04894627
C  0.32787303 0.57001252 0.00717498
H  -0.17214839 1.55107144 -0.05430817
H  1.43413981 0.64158844 -0.05395646
6
MD Step 100
C  -0.33199884 -0.57803325 0.01015246
H  0.20116012 -1.51953167 -0.04885863
H  -1.40872635 -0.56877871 -0.04900878
C  0.32723539 0.56874146 0.00713551
H  -0.16987470 1.55380338 -0.05428318
H  1.43420231 0.64522827 -0.05385343
6
MD Step 101
C  -0.33143750 -0.57731946 0.01016257
H  0.20208125 -1.52041341 -0.04870461
H  -1.41120545 -0.56781072 -0.04894240
C  0.32664137 0.56753099 0.00706944
H  -0.16751333 1.55614712 -0.05410115
H  1.43378839 0.64871674 -0.05358891
6
MD Step 102
C  -0.33087827 -0.57661275 0.01015027
H  0.20287390 -1.52129616 -0.04841612
H  -1.41370105 -0.56700626 -0.04874535
C  0.32609502 0.56639150 0.00697683
H  -0.16506903 1.55806641 -0.05376175
H  1.43289347 0.65203276 -0.05316375
6
MD Step 103
C  -0.33032674 -0.57591899 0.01011665
H  0.20351321 -1.52216332 -0.04800177
H  -1.41615960 -0.56637638 -0.04842499
C  0.32560123 0.56533385 0.00685945
H  -0.16255827 1.55952444 -0.05327357
H  1.43151406 0.65514807 -0.05258742
6
MD Step 104
C  -0.32978761 -0.57524295 0.01006353
H  0.20397143 -1.52300463 -0.04747524
H  -1.41853427 -0.56593587 -0.04799399
C  0.32516498 0.56436863 0.00672009
H  -0.16000553 1.56048805 -0.05265049
H  1.42965169 0.65803122 -0.05187446
6
MD Step 105
C  -0.32927046 -0.57459436 0.00998820
H  0.20425446 -1.52378043 -0.04681850
H  -1.42074983 -0.56566742 -0.04743202
C  0.32478524 0.56350003 0.00655569
H  -0.15740752 1.56096415 -0.05187630
H  1.42734893 0.66068407 -0.05101070
6
MD Step 106
C  -0.32877584 -0.57397354 0.00989570
H  0.20431759 -1.52450632 -0.04606757
H  -1.42278828 -0.56560510 -0.04677492
C  0.32446918 0.56273979 0.00637327
H  -0.15481628 1.56091580 -0.05098699
H  1.42460534 0.66305730 -0.05003203
6
MD Step 107
C  -0.32831506 -0.57339179 0.00978118
H  0.20418691 -1.52513257 -0.04518948
H  -1.42456833 -0.56571454 -0.04598721
C  0.32421163 0.56208704 0.00616712
H  -0.15221971 1.56038289 -0.04995277
H  1.42149770 0.66517201 -0.04891102
6
MD Step 108
C  -0.32789156 -0.57285228 0.00964639
H  0.20384652 -1.52565706 -0.04419689
H  -1.42605942 -0.56600459 -0.04508074
C  0.32401427 0.56154694 0.00594003
H  -0.14965256 1.55936979 -0.04878789
H  1.41806731 0.66700664 -0.04766269
6
MD Step 109
C  -0.32751183 -0.57236129 0.00948986
H  0.20330575 -1.52605868 -0.04307999
H  -1.42721532 -0.56646103 -0.04404432
C  0.32387420 0.56111960 0.00569063
H  -0.14713024 1.55791185 -0.04748544
H  1.41438595 0.66856422 -0.04628145
6
MD Step 110
C  -0.32717754 -0.57192006 0.00931397
H  0.20255126 -1.52634524 -0.04185524
H  -1.42802258 -0.56709399 -0.04289395
C  0.32379214 0.56080791 0.00542242
H  -0.14469568 1.55602753 -0.04606377
H  1.41050754 0.66982441 -0.04478621
6
MD Step 111
C  -0.32689204 -0.57153157 0.00911897
H  0.20158727 -1.52651350 -0.04052445
H  -1.42846067 -0.56789820 -0.04163079
C  0.32376564 0.56061098 0.00513620
H  -0.14237949 1.55375800 -0.04452745
H  1.40650717 0.67078374 -0.04318232
6
MD Step 112
C  -0.32665857 -0.57119866 0.00890465
H  0.20042450 -1.52656012 -0.03908604
H  -1.42851321 -0.56886401 -0.04025272
C  0.32379100 0.56052596 0.00483219
H  -0.14021047 1.55115572 -0.04287789
H  1.40246912 0.67144464 -0.04147189
6
MD Step 113
C  -0.32648173 -0.57092563 0.00866891
H  0.19908978 -1.52647215 -0.03752514
H  -1.42815868 -0.56996797 -0.03874428
C  0.32386173 0.56054651 0.00450815
H  -0.13820577 1.54829317 -0.04110412
H  1.39849471 0.67182487 -0.03964471
6
MD Step 114
C  -0.32635379 -0.57070402 0.00842030
H  0.19754146 -1.52631089 -0.03589946
H  -1.42745477 -0.57125589 -0.03716405
C  0.32398299 0.56067681 0.00417498
H  -0.13645323 1.54517830 -0.03926412
H  1.39461710 0.67187300 -0.03775807
6
MD Step 115
C  -0.32628205 -0.57054099 0.00815292
H  0.19583736 -1.52604436 -0.03416849
H  -1.42637017 -0.57267752 -0.03547098
C  0.32414310 0.56090397 0.00382581
H  -0.13494581 1.54192037 -0.03732229
H  1.39096640 0.67163653 -0.03577707
6
MD Step 116
C  -0.32626476 -0.57043438 0.00786855
H  0.19398673 -1.52569430 -0.03234363
H  -1.42493233 -0.57423211 -0.03367693
C  0.32433886 0.56122249 0.00346309
H  -0.13372614 1.53858188 -0.03529242
H  1.38762075 0.67111368 -0.03371516
6
MD Step 117
C  -0.32630116 -0.57038323 0.00756740
H  0.19201181 -1.52527441 -0.03042544
H  -1.42316563 -0.57590775 -0.03178290
C  0.32456517 0.56162434 0.00308727
H  -0.13282517 1.53523835 -0.03317783
H  1.38466518 0.67031502 -0.03157527
6
MD Step 118
C  -0.32638686 -0.57038291 0.00725246
H  0.18991874 -1.52481872 -0.02843290
H  -1.42111978 -0.57770977 -0.02980867
C  0.32482005 0.56210381 0.00270203
H  -0.13228962 1.53194810 -0.03099912
H  1.38216081 0.66923439 -0.02937724
6
MD Step 119
C  -0.32652127 -0.57043291 0.00692252
H  0.18774270 -1.52433582 -0.02635724
H  -1.41882379 -0.57961605 -0.02774612
C  0.32509713 0.56265028 0.00230603
H  -0.13213651 1.52879567 -0.02875016
H  1.38018772 0.66789426 -0.02711422
6
MD Step 120
C  -0.32669758 -0.57052651 0.00658167
H  0.18548606 -1.52386968 -0.02422434
H  -1.41634684 -0.58163770 -0.02562212
C  0.32539613 0.56325854 0.00190403
H  -0.13241279 1.52582880 -0.02645759
H  1.37878170 0.66628388 -0.02481178
6
MD Step 121
C  -0.32691563 -0.57066399 0.00622719
H  0.18319589 -1.52342145 -0.02201573
H  -1.41371954 -0.58374231 -0.02341901
C  0.32570983 0.56391615 0.00149288
H  -0.13311774 1.52313400 -0.02410512
H  1.37800980 0.66443716 -0.02245275
6
MD Step 122
C  -0.32717256 -0.57084308 0.00585846
H  0.18090637 -1.52300606 -0.01972661
H  -1.41099041 -0.58591051 -0.02113288
C  0.32603385 0.56461313 0.00107180
H  -0.13425850 1.52077763 -0.02168917
H  1.37791147 0.66237513 -0.02003254
6
MD Step 123
C  -0.32746240 -0.57105859 0.00547738
H  0.17863570 -1.52265432 -0.01736843
H  -1.40822769 -0.58813878 -0.01877614
C  0.32636719 0.56534263 0.00064278
H  -0.13585188 1.51880143 -0.01922154
H  1.37849445 0.66010320 -0.01756190
6
MD Step 124
C  -0.32777230 -0.57129853 0.00509217
H  0.17636204 -1.52243580 -0.01499277
H  -1.40554152 -0.59046291 -0.01640140
C  0.32671624 0.56610501 0.00021472
H  -0.13794716 1.51719743 -0.01675262
H  1.37971076 0.65758741 -0.01509021
6
MD Step 125
C  -0.32810186 -0.57156372 0.00469889
H  0.17413915 -1.52234217 -0.01257412
H  -1.40296575 -0.59284295 -0.01398382
C  0.32707503 0.56688865 -0.00021689
H  -0.14051073 1.51602269 -0.01425767
H  1.38157308 0.65487079 -0.01259208
6