6
MD Step 0
C  -0.33763715 -0.58748864 0.00000000
H  0.19552659 -1.51519357 0.00000000
H  -1.40763715 -0.58748864 0.00000000
C  0.33763715 0.58748865 0.00000000
H  -0.19552659 1.51519357 0.00000000
H  1.40763715 0.58748865 0.00000000
6
MD Step 1
C  -0.33800633 -0.58783570 -0.00039423
H  0.19789028 -1.51298463 0.00234950
H  -1.40541568 -0.58520991 0.00234938
C  0.33721662 0.58704675 -0.00039469
H  -0.19318456 1.51768715 0.00235104
H  1.41012018 0.58990850 0.00235091
6
MD Step 2
C  -0.33832109 -0.58808790 -0.00079024
H  0.20028782 -1.51107373 0.00470959
H  -1.40350379 -0.58306954 0.00470944
C  0.33674682 0.58651127 -0.00079114
H  -0.19084822 1.52045902 0.00471255
H  1.41282324 0.59247143 0.00471220
6
MD Step 3
C  -0.33857865 -0.58824515 -0.00118874
H  0.20272219 -1.50946709 0.00708439
H  -1.40194211 -0.58107030 0.00708455
C  0.33623213 0.58588551 -0.00118995
H  -0.18850601 1.52348321 0.00708829
H  1.41568707 0.59517172 0.00708735
6
MD Step 4
C  -0.33877470 -0.58830623 -0.00158821
H  0.20517990 -1.50817717 0.00946474
H  -1.40077560 -0.57922736 0.00946601
C  0.33567949 0.58517602 -0.00158948
H  -0.18615754 1.52671483 0.00946852
H  1.41863589 0.59798934 0.00946622
6
MD Step 5
C  -0.33890208 -0.58826730 -0.00198343
H  0.20762213 -1.50723143 0.01181942
H  -1.40006091 -0.57757701 0.01182320
C  0.33509972 0.58439394 -0.00198434
H  -0.18382276 1.53008229 0.01182123
H  1.42157060 0.60088124 0.01181626
6
MD Step 6
C  -0.33895649 -0.58812753 -0.00237109
H  0.21001825 -1.50663895 0.01412843
H  -1.39983142 -0.57614324 0.01413688
C  0.33450181 0.58354928 -0.00237098
H  -0.18150921 1.53352179 0.01412549
H  1.42440443 0.60381491 0.01411594
6
MD Step 7
C  -0.33893480 -0.58788720 -0.00274793
H  0.21233528 -1.50640148 0.01637223
H  -1.40010695 -0.57494848 0.01638830
C  0.33389461 0.58265261 -0.00274595
H  -0.17922332 1.53696782 0.01636072
H  1.42705404 0.60675775 0.01634400
6
MD Step 8
C  -0.33885215 -0.58756480 -0.00312786
H  0.21463986 -1.50641223 0.01863339
H  -1.40079166 -0.57391187 0.01866065
C  0.33326961 0.58169784 -0.00312286
H  -0.17686936 1.54045597 0.01860833
H  1.42954287 0.60977899 0.01858141
6
MD Step 9
C  -0.33870269 -0.58715768 -0.00350277
H  0.21686592 -1.50669019 0.02086358
H  -1.40190933 -0.57308241 0.02090641
C  0.33264014 0.58070132 -0.00349343
H  -0.17448265 1.54389035 0.02081887
H  1.43176759 0.61281642 0.02077805
6
MD Step 10
C  -0.33848514 -0.58666751 -0.00386803
H  0.21896667 -1.50722904 0.02303516
H  -1.40345142 -0.57248724 0.02309869
C  0.33201584 0.57967620 -0.00385284
H  -0.17207859 1.54719659 0.02296363
H  1.43365165 0.61582839 0.02290463
6
MD Step 11
C  -0.33820587 -0.58610338 -0.00422572
H  0.22093435 -1.50797868 0.02516045
H  -1.40535843 -0.57211240 0.02525020
C  0.33139927 0.57862906 -0.00420297
H  -0.16963397 1.55034216 0.02505383
H  1.43516568 0.61881317 0.02497204
6
MD Step 12
C  -0.33786851 -0.58547133 -0.00457418
H  0.22273896 -1.50890815 0.02722974
H  -1.40758351 -0.57196463 0.02735156
C  0.33079633 0.57757023 -0.00454207
H  -0.16714911 1.55327534 0.02707884
H  1.43626604 0.62174717 0.02696933
6
MD Step 13
C  -0.33747930 -0.58477967 -0.00491354
H  0.22436144 -1.50997393 0.02924402
H  -1.41006141 -0.57203880 0.02940379
C  0.33021074 0.57650815 -0.00487018
H  -0.16461564 1.55595868 0.02903880
H  1.43692799 0.62461774 0.02889657
6
MD Step 14
C  -0.33704205 -0.58403407 -0.00524084
H  0.22576524 -1.51114989 0.03118596
H  -1.41273934 -0.57234672 0.03138953
C  0.32964887 0.57545416 -0.00518436
H  -0.16204566 1.55834069 0.03091579
H  1.43711704 0.62739430 0.03073571
6
MD Step 15
C  -0.33656636 -0.58324568 -0.00555836
H  0.22694641 -1.51237862 0.03306952
H  -1.41552909 -0.57286780 0.03332211
C  0.32911140 0.57441407 -0.00548688
H  -0.15942256 1.56040607 0.03272319
H  1.43683885 0.63007800 0.03250054
6
MD Step 16
C  -0.33605643 -0.58242000 -0.00586250
H  0.22786805 -1.51363839 0.03487384
H  -1.41837529 -0.57361486 0.03518028
C  0.32860438 0.57339915 -0.00577428
H  -0.15676700 1.56211012 0.03443998
H  1.43607316 0.63263583 0.03417011
6
MD Step 17
C  -0.33551854 -0.58156444 -0.00615150
H  0.22850651 -1.51489800 0.03658917
H  -1.42121109 -0.57458843 0.03695357
C  0.32813152 0.57241834 -0.00604502
H  -0.15409134 1.56342509 0.03605635
H  1.43481983 0.63504655 0.03573503
6
MD Step 18
C  -0.33496033 -0.58068759 -0.00642485
H  0.22884806 -1.51612129 0.03821310
H  -1.42396360 -0.57578056 0.03863854
C  0.32769481 0.57147882 -0.00629880
H  -0.15140345 1.56433675 0.03757005
H  1.43309516 0.63729707 0.03719366
6
MD Step 19
C  -0.33438874 -0.57979715 -0.00668130
H  0.22887746 -1.51727941 0.03973892
H  -1.42656707 -0.57718647 0.04022740
C  0.32729643 0.57058787 -0.00653464
H  -0.14871835 1.56483299 0.03897473
H  1.43092009 0.63937088 0.03854037
6
MD Step 20
C  -0.33381194 -0.57890196 -0.00692099
H  0.22859092 -1.51833872 0.04116830
H  -1.42895173 -0.57879199 0.04172044
C  0.32693664 0.56975069 -0.00675300
H  -0.14604560 1.56491665 0.04027260
H  1.42833259 0.64126081 0.03977835
6
MD Step 21
C  -0.33324019 -0.57801289 -0.00714652
H  0.22800188 -1.51925567 0.04251700
H  -1.43103944 -0.58056812 0.04313152
C  0.32661284 0.56896944 -0.00695666
H  -0.14338361 1.56461108 0.04147995
H  1.42539285 0.64297471 0.04092547
6
MD Step 22
C  -0.33267938 -0.57713629 -0.00735635
H  0.22710313 -1.52001535 0.04377667
H  -1.43278312 -0.58250905 0.04445097
C  0.32632599 0.56824952 -0.00714449
H  -0.14075734 1.56392201 0.04258939
H  1.42214450 0.64449735 0.04197537
6
MD Step 23
C  -0.33213153 -0.57627457 -0.00754539
H  0.22587048 -1.52062813 0.04491840
H  -1.43416394 -0.58462868 0.04564933
C  0.32608005 0.56759900 -0.00731209
H  -0.13821462 1.56284107 0.04357346
H  1.41861773 0.64579409 0.04290101
6
MD Step 24
C  -0.33160356 -0.57543504 -0.00771419
H  0.22431570 -1.52107685 0.04594603
H  -1.43513858 -0.58690790 0.04672890
C  0.32587299 0.56701966 -0.00746041
H  -0.13577324 1.56139862 0.04443719
H  1.41488177 0.64686403 0.04370885
6
MD Step 25
C  -0.33110349 -0.57462602 -0.00786504
H  0.22246392 -1.52133965 0.04687335
H  -1.43566260 -0.58931733 0.04770154
C  0.32570073 0.56651080 -0.00759197
H  -0.13344328 1.55964080 0.04519556
H  1.41102132 0.64771731 0.04441577
6
MD Step 26
C  -0.33063433 -0.57385079 -0.00799572
H  0.22031765 -1.52142595 0.04768809
H  -1.43572688 -0.59185316 0.04855415
C  0.32556319 0.56607527 -0.00770517
H  -0.13126241 1.55759321 0.04583796
H  1.40709942 0.64833922 0.04501211
6
MD Step 27
C  -0.33020000 -0.57311348 -0.00810567
H  0.21789216 -1.52134100 0.04838749
H  -1.43532238 -0.59450201 0.04928296
C  0.32545840 0.56571351 -0.00779994
H  -0.12926036 1.55529574 0.04636328
H  1.40319158 0.64872557 0.04549794
6
MD Step 28
C  -0.32980706 -0.57242092 -0.00819790
H  0.21522610 -1.52107500 0.04898926
H  -1.43442948 -0.59723026 0.04990388
C  0.32538074 0.56542185 -0.00787944
H  -0.12744776 1.55281276 0.04679065
H  1.39939520 0.64889360 0.04589436
6
MD Step 29
C  -0.32945675 -0.57177453 -0.00827068
H  0.21233380 -1.52065056 0.04948368
H  -1.43306585 -0.60003160 0.05040674
C  0.32532912 0.56520048 -0.00794250
H  -0.12586293 1.55018468 0.04711216
H  1.39578003 0.64883413 0.04619421
6
MD Step 30
C  -0.32914794 -0.57117339 -0.00832059
H  0.20922264 -1.52010479 0.04985137
H  -1.43126864 -0.60290959 0.05077242
C  0.32530401 0.56505058 -0.00798637
H  -0.12455385 1.54744469 0.04731034
H  1.39240421 0.64852924 0.04638013
6
MD Step 31
C  -0.32888005 -0.57061717 -0.00834564
H  0.20591054 -1.51947110 0.05008114
H  -1.42907626 -0.60585998 0.05098985
C  0.32530463 0.56497145 -0.00800961
H  -0.12356000 1.54463567 0.04737574
H  1.38933045 0.64797005 0.04644291
6
MD Step 32
C  -0.32865094 -0.57010407 -0.00834301
H  0.20241276 -1.51879154 0.05015704
H  -1.42654073 -0.60888359 0.05104374
C  0.32533112 0.56496267 -0.00801000
H  -0.12292453 1.54179637 0.04729417
H  1.38661163 0.64714378 0.04636800
6
MD Step 33
C  -0.32846358 -0.56963748 -0.00831605
H  0.19878115 -1.51807652 0.05009821
H  -1.42368735 -0.61194687 0.05095249
C  0.32537796 0.56501766 -0.00799084
H  -0.12265424 1.53899989 0.04708600
H  1.38432881 0.64607348 0.04617672
6
MD Step 34
C  -0.32832026 -0.56922030 -0.00826826
H  0.19506934 -1.51733872 0.04992431
H  -1.42054881 -0.61501625 0.05073522
C  0.32543993 0.56512947 -0.00795544
H  -0.12275311 1.53631798 0.04677200
H  1.38255468 0.64478338 0.04589051
6
MD Step 35
C  -0.32821954 -0.56885180 -0.00819994
H  0.19131384 -1.51661099 0.04963688
H  -1.41718328 -0.61807680 0.05039408
C  0.32551532 0.56529412 -0.00790419
H  -0.12323999 1.53380094 0.04635477
H  1.38133294 0.64328025 0.04551147
6
MD Step 36
C  -0.32816235 -0.56853387 -0.00811469
H  0.18756983 -1.51590924 0.04925583
H  -1.41363724 -0.62109603 0.04994903
C  0.32559992 0.56550458 -0.00784030
H  -0.12411177 1.53151270 0.04585499
H  1.38071313 0.64158972 0.04506028
6
MD Step 37
C  -0.32814438 -0.56826339 -0.00801131
H  0.18386518 -1.51527731 0.04877376
H  -1.40999025 -0.62406951 0.04939417
C  0.32569471 0.56575857 -0.00776261
H  -0.12538814 1.52948382 0.04526583
H  1.38070362 0.63971058 0.04452869
6
MD Step 38
C  -0.32815931 -0.56803545 -0.00788700
H  0.18021837 -1.51476744 0.04817459
H  -1.40633492 -0.62700232 0.04871558
C  0.32580277 0.56605554 -0.00766855
H  -0.12709260 1.52772908 0.04457145
H  1.38128973 0.63763339 0.04389875
6
MD Step 39
C  -0.32820753 -0.56785217 -0.00774670
H  0.17668962 -1.51438746 0.04748526
H  -1.40272345 -0.62985730 0.04794071
C  0.32592056 0.56638808 -0.00756222
H  -0.12920039 1.52629848 0.04379875
H  1.38248572 0.63539236 0.04319686
6
MD Step 40
C  -0.32828043 -0.56770690 -0.00758619
H  0.17328621 -1.51419430 0.04668144
H  -1.39926056 -0.63264944 0.04704797
C  0.32605371 0.56675781 -0.00743963
H  -0.13173229 1.52518202 0.04292300
H  1.38424033 0.63297104 0.04239563
6
MD Step 41
C  -0.32837463 -0.56759844 -0.00740704
H  0.17004539 -1.51420925 0.04577119
H  -1.39601756 -0.63536198 0.04604698
C  0.32620287 0.56716137 -0.00730179
H  -0.13467087 1.52439327 0.04195165
H  1.38652186 0.63038608 0.04150108
6
MD Step 42
C  -0.32848446 -0.56752352 -0.00720853
H  0.16698885 -1.51446221 0.04474982
H  -1.39307559 -0.63799162 0.04493515
C  0.32637118 0.56759801 -0.00714775
H  -0.13800556 1.52392399 0.04087912
H  1.38927412 0.62764224 0.04050572
6
MD Step 43
C  -0.32860954 -0.56748426 -0.00699555
H  0.16416612 -1.51494690 0.04364371
H  -1.39047948 -0.64050428 0.04373991
C  0.32655683 0.56806217 -0.00698136
H  -0.14168875 1.52378843 0.03973118
H  1.39246219 0.62477639 0.03943451
6
MD Step 44
C  -0.32874065 -0.56747409 -0.00676345
H  0.16156990 -1.51570492 0.04242625
H  -1.38832079 -0.64291988 0.04243713
C  0.32676705 0.56855774 -0.00679814
H  -0.14572068 1.52393889 0.03847974
H  1.39598901 0.62177306 0.03825721
6
MD Step 45
C  -0.32887247 -0.56749030 -0.00651134
H  0.15921009 -1.51675044 0.04109207
H  -1.38666069 -0.64523735 0.04102314
C  0.32700550 0.56908540 -0.00659698
H  -0.15007517 1.52434145 0.03711816
H  1.39977270 0.61863909 0.03696582
6
MD Step 46
C  -0.32900601 -0.56753633 -0.00624455
H  0.15712675 -1.51805646 0.03967008
H  -1.38551486 -0.64742113 0.03952750
C  0.32726993 0.56964026 -0.00638221
H  -0.15468683 1.52499018 0.03567481
H  1.40376214 0.61541686 0.03558842
6
MD Step 47
C  -0.32913458 -0.56760786 -0.00595968
H  0.15530728 -1.51963808 0.03814118
H  -1.38493562 -0.64948461 0.03793254
C  0.32756597 0.57022589 -0.00615058
H  -0.15953503 1.52582488 0.03412916
H  1.40785502 0.61210129 0.03410335
6
MD Step 48
C  -0.32925947 -0.56770818 -0.00566106
H  0.15377753 -1.52146069 0.03652902
H  -1.38491896 -0.65139797 0.03626224
C  0.32789174 0.57083870 -0.00590568
H  -0.16455272 1.52682413 0.03250450
H  1.41199212 0.60873122 0.03253387
6
MD Step 49
C  -0.32937962 -0.56783794 -0.00534979
H  0.15254134 -1.52350139 0.03483972
H  -1.38546528 -0.65314947 0.03452305
C  0.32824793 0.57147816 -0.00564838
H  -0.16968831 1.52794544 0.03080635
H  1.41609752 0.60532849 0.03088536
6
MD Step 50
C  -0.32949521 -0.56799861 -0.00502757
H  0.15160155 -1.52572847 0.03308268
H  -1.38655838 -0.65472435 0.03272437
C  0.32863428 0.57214317 -0.00538008
H  -0.17488543 1.52914746 0.02904379
H  1.42010118 0.60191869 0.02916698
6
MD Step 51
C  -0.32960516 -0.56819002 -0.00469406
H  0.15094572 -1.52811673 0.03125611
H  -1.38818057 -0.65611963 0.03086424
C  0.32905194 0.57283447 -0.00510044
H  -0.18009851 1.53037654 0.02721455
H  1.42392559 0.59851643 0.02737660
6
MD Step 52
C  -0.32970822 -0.56841137 -0.00434805
H  0.15055305 -1.53064158 0.02935365
H  -1.39030677 -0.65733755 0.02893591
C  0.32950236 0.57355342 -0.00480844
H  -0.18528690 1.53157462 0.02531175
H  1.42749369 0.59513178 0.02550767
6
MD Step 53
C  -0.32980402 -0.56866226 -0.00398862
H  0.15040118 -1.53327332 0.02737074
H  -1.39289889 -0.65837911 0.02693417
C  0.32998615 0.57430079 -0.00450339
H  -0.19040924 1.53268687 0.02333047
H  1.43073660 0.59177660 0.02355567
6
MD Step 54
C  -0.32989933 -0.56894877 -0.00362181
H  0.15050357 -1.53594086 0.02534115
H  -1.39587010 -0.65920678 0.02489181
C  0.33049695 0.57507047 -0.00419075
H  -0.19538668 1.53369999 0.02130555
H  1.43363191 0.58850129 0.02155615
6
MD Step 55
C  -0.32999052 -0.56926636 -0.00324237
H  0.15080836 -1.53863508 0.02323643
H  -1.39918926 -0.65984758 0.02277959
C  0.33103837 0.57586665 -0.00386602
H  -0.20020649 1.53454046 0.01920761
H  1.43610115 0.58529290 0.01948022
6
MD Step 56
C  -0.33008085 -0.56961679 -0.00285195
H  0.15130031 -1.54130755 0.02106634
H  -1.40278019 -0.66029051 0.02060629
C  0.33160707 0.57668657 -0.00353088
H  -0.20481993 1.53517774 0.01704673
H  1.43811328 0.58217651 0.01733861
6
MD Step 57
C  -0.33017885 -0.57000654 -0.00245748
H  0.15199244 -1.54388028 0.01887013
H  -1.40653257 -0.66049554 0.01841015
C  0.33219425 0.57752192 -0.00319176
H  -0.20915166 1.53561602 0.01486357
H  1.43967613 0.57920631 0.01517259
6
MD Step 58
C  -0.33028566 -0.57043453 -0.00205824
H  0.15285372 -1.54632029 0.01664432
H  -1.41037785 -0.66046773 0.01618685
C  0.33279789 0.57837130 -0.00284818
H  -0.21317399 1.53582098 0.01265459
H  1.44076232 0.57639232 0.01297920
6
MD Step 59
C  -0.33040195 -0.57089887 -0.00165312
H  0.15385039 -1.54859908 0.01438330
H  -1.41424973 -0.66021583 0.01393003
C  0.33341588 0.57923320 -0.00249932
H  -0.21686577 1.53576153 0.01041405
H  1.44135101 0.57374128 0.01075315
6
MD Step 60
C  -0.33052708 -0.57139609 -0.00123984
H  0.15494208 -1.55069776 0.01207496
H  -1.41809003 -0.65975681 0.01162694
C  0.33404684 0.58010676 -0.00214329
H  -0.22021722 1.53540580 0.00812932
H  1.44142360 0.57125219 0.00848226
6
MD Step 61
C  -0.33066799 -0.57192991 -0.00082421
H  0.15613429 -1.55255504 0.00975228
H  -1.42179750 -0.65906304 0.00931006
C  0.33468140 0.58098290 -0.00178551
H  -0.22317733 1.53477400 0.00583433
H  1.44101670 0.56896843 0.00620075
6
MD Step 62
C  -0.33082508 -0.57249741 -0.00040564
H  0.15739709 -1.55415017 0.00741241
H  -1.42531172 -0.65814515 0.00697618
C  0.33531586 0.58185821 -0.00142552
H  -0.22573675 1.53385605 0.00352589
H  1.44013906 0.56689580 0.00390566
6
MD Step 63
C  -0.33099803 -0.57309482 0.00001678
H  0.15869979 -1.55546882 0.00505072
H  -1.42857964 -0.65701721 0.00462045
C  0.33594657 0.58272915 -0.00106259
H  -0.22789319 1.53264630 0.00119880
H  1.43880609 0.56503682 0.00159193
6
MD Step 64
C  -0.33119401 -0.57372555 0.00043583
H  0.16005911 -1.55645518 0.00270810
H  -1.43150821 -0.65564827 0.00228375
C  0.33656191 0.58358396 -0.00070335
H  -0.22960305 1.53119180 -0.00110526
H  1.43708806 0.56343864 -0.00069882
6
MD Step 65
C  -0.33140511 -0.57437813 0.00085929
H  0.16140816 -1.55714443 0.00034098
H  -1.43409762 -0.65409517 -0.00007750
C  0.33716432 0.58442496 -0.00034063
H  -0.23091413 1.52945982 -0.00343175
H  1.43497662 0.56206147 -0.00301210
6
MD Step 66
C  -0.33163656 -0.57505392 0.00128100
H  0.16276136 -1.55749705 -0.00201552
H  -1.43627562 -0.65233577 -0.00242792
C  0.33774282 0.58524065 0.00001991
H  -0.23179921 1.52750381 -0.00574534
H  1.43255117 0.56094357 -0.00531286
6
MD Step 67
C  -0.33188612 -0.57574688 0.00170195
H  0.16409420 -1.55752006 -0.00436693
H  -1.43801938 -0.65039069 -0.00477277
C  0.33829316 0.58602617 0.00037930
H  -0.23227752 1.52534179 -0.00805258
H  1.42985624 0.56008059 -0.00760799
6
MD Step 68
C  -0.33215205 -0.57645149 0.00212216
H  0.16539008 -1.55722007 -0.00671321
H  -1.43930876 -0.64827595 -0.00711166
C  0.33881016 0.58677545 0.00073770
H  -0.23236748 1.52300311 -0.01035444
H  1.42694790 0.55947236 -0.00989887
6
MD Step 69
C  -0.33243156 -0.57716124 0.00254221
H  0.16663130 -1.55661227 -0.00905769
H  -1.44013551 -0.64601200 -0.00944750
C  0.33928923 0.58748276 0.00109586
H  -0.23209561 1.52051889 -0.01265549
H  1.42388363 0.55911381 -0.01219058
6
MD Step 70
C  -0.33272566 -0.57787342 0.00295842
H  0.16782725 -1.55569202 -0.01137926
H  -1.44047506 -0.64359524 -0.01175862
C  0.33972179 0.58813810 0.00145050
H  -0.23146788 1.51794984 -0.01493544
H  1.42074958 0.55902319 -0.01446350
6
MD Step 71
C  -0.33303491 -0.57858499 0.00336716
H  0.16898967 -1.55445956 -0.01365686
H  -1.44031164 -0.64102291 -0.01402339
C  0.34009954 0.58873138 0.00179839
H  -0.23049431 1.51536058 -0.01717428
H  1.41763391 0.55921725 -0.01669835
6
MD Step 72
C  -0.33335915 -0.57929241 0.00376507
H  0.17013113 -1.55292147 -0.01587114
H  -1.43964007 -0.63829454 -0.01622179
C  0.34041481 0.58925286 0.00213659
H  -0.22918991 1.51281726 -0.01935377
H  1.41462338 0.55970979 -0.01887765
6
MD Step 73
C  -0.33368753 -0.57998176 0.00415917
H  0.17120609 -1.55114947 -0.01806295
H  -1.43852488 -0.63547117 -0.01839454
C  0.34067057 0.58970316 0.00247218
H  -0.22763345 1.51032743 -0.02151704
H  1.41174213 0.56045275 -0.02104482
6
MD Step 74
C  -0.33402143 -0.58065148 0.00454383
H  0.17224541 -1.54914448 -0.02019944
H  -1.43696426 -0.63253944 -0.02050811
C  0.34085792 0.59007058 0.00279995
H  -0.22583121 1.50797454 -0.02363230
H  1.40908624 0.56147118 -0.02316885
6
MD Step 75
C  -0.33435063 -0.58128884 0.00492473
H  0.17321558 -1.54697752 -0.02231399
H  -1.43503116 -0.62955310 -0.02259597
C  0.34097980 0.59035501 0.00312580
H  -0.22385776 1.50577538 -0.02573507
H  1.40667999 0.56272253 -0.02528525
6
MD Step 76
C  -0.33467721 -0.58189362 0.00529498
H  0.17415913 -1.54464767 -0.02436621
H  -1.43273118 -0.62649120 -0.02461706
C  0.34102743 0.59054423 0.00344321
H  -0.22171363 1.50382035 -0.02778592
H  1.40461623 0.56423756 -0.02735531
6
MD Step 77
C  -0.33499555 -0.58245840 0.00565515
H  0.17507643 -1.54220012 -0.02635940
H  -1.43012091 -0.62337681 -0.02657469
C  0.34100025 0.59063405 0.00375298
H  -0.21944315 1.50215340 -0.02978970
H  1.40293547 0.56600232 -0.02938382
6
MD Step 78
C  -0.33529883 -0.58297499 0.00600681
H  0.17596322 -1.53968748 -0.02830288
H  -1.42726910 -0.62023879 -0.02847852
C  0.34089958 0.59062196 0.00405692
H  -0.21709541 1.50080873 -0.03175719
H  1.40166250 0.56799602 -0.03138112
6
MD Step 79
C  -0.33558558 -0.58344100 0.00634611
H  0.17684879 -1.53713032 -0.03017360
H  -1.42421696 -0.61707286 -0.03030539
C  0.34072225 0.59050084 0.00435126
H  -0.21468471 1.49984818 -0.03366620
H  1.40084422 0.57022973 -0.03332495
6
MD Step 80
C  -0.33585045 -0.58385065 0.00667301
H  0.17774051 -1.53457179 -0.03197104
H  -1.42103268 -0.61389699 -0.03205528
C  0.34046979 0.59026832 0.00463597
H  -0.21224506 1.49930446 -0.03551702
H  1.40049297 0.57269119 -0.03521487
6
MD Step 81
C  -0.33608439 -0.58419504 0.00699101
H  0.17862438 -1.53207596 -0.03371628
H  -1.41780925 -0.61075035 -0.03375063
C  0.34014835 0.58992679 0.00491476
H  -0.20982845 1.49918092 -0.03733150
H  1.40058709 0.57534571 -0.03707104
6
MD Step 82
C  -0.33628769 -0.58447502 0.00729470
H  0.17954061 -1.52965049 -0.03537612
H  -1.41458635 -0.60761670 -0.03535836
C  0.33975579 0.58947063 0.00518180
H  -0.20742789 1.49952698 -0.03907622
H  1.40114765 0.57821238 -0.03885965
6
MD Step 83
C  -0.33645671 -0.58468804 0.00758269
H  0.18050462 -1.52732501 -0.03694149
H  -1.41142829 -0.60450343 -0.03687023
C  0.33929491 0.58889959 0.00543536
H  -0.20505581 1.50035827 -0.04074169
H  1.40215931 0.58128524 -0.04057008
6
MD Step 84
C  -0.33658263 -0.58482688 0.00785878
H  0.18149873 -1.52515840 -0.03843538
H  -1.40843039 -0.60144951 -0.03831141
C  0.33877467 0.58822018 0.00567923
H  -0.20275168 1.50164802 -0.04235030
H  1.40356290 0.58452527 -0.04222228
6
MD Step 85
C  -0.33666122 -0.58488926 0.00812277
H  0.18252842 -1.52318099 -0.03985615
H  -1.40565996 -0.59846837 -0.03968177
C  0.33820053 0.58743609 0.00591284
H  -0.20052507 1.50338400 -0.04389910
H  1.40531407 0.58791718 -0.04381164
6
MD Step 86
C  -0.33668791 -0.58487291 0.00837528
H  0.18359223 -1.52142385 -0.04120729
H  -1.40318427 -0.59557779 -0.04098660
C  0.33757938 0.58655328 0.00613642
H  -0.19838559 1.50553871 -0.04538983
H  1.40735482 0.59143962 -0.04533801
6
MD Step 87
C  -0.33665825 -0.58477596 0.00861740
H  0.18468338 -1.51991622 -0.04249537
H  -1.40106679 -0.59279793 -0.04223453
C  0.33691903 0.58557951 0.00635073
H  -0.19634124 1.50807186 -0.04682693
H  1.40961721 0.59506709 -0.04680385
6
MD Step 88
C  -0.33657267 -0.58460151 0.00884641
H  0.18581688 -1.51865772 -0.04370274
H  -1.39933798 -0.59012385 -0.04340887
C  0.33622355 0.58451975 0.00655216
H  -0.19437152 1.51095856 -0.04819009
H  1.41205267 0.59879736 -0.04818808
6
MD Step 89
C  -0.33643155 -0.58435279 0.00906037
H  0.18700017 -1.51764758 -0.04481672
H  -1.39802362 -0.58755500 -0.04449794
C  0.33549808 0.58338095 0.00673791
H  -0.19245737 1.51416084 -0.04946376
H  1.41460409 0.60262220 -0.04947444
6
MD Step 90
C  -0.33623327 -0.58403094 0.00926007
H  0.18822054 -1.51689713 -0.04584215
H  -1.39715642 -0.58510776 -0.04550831
C  0.33475084 0.58217409 0.00690836
H  -0.19059429 1.51761633 -0.05064970
H  1.41719488 0.60651483 -0.05066331
6
MD Step 91
C  -0.33598304 -0.58364395 0.00944085
H  0.18949783 -1.51637706 -0.04674864
H  -1.39672247 -0.58276272 -0.04640930
C  0.33398419 0.58090516 0.00705744
H  -0.18874057 1.52129240 -0.05171431
H  1.41978354 0.61048281 -0.05172184
6
MD Step 92
C  -0.33568083 -0.58319438 0.00960374
H  0.19081254 -1.51609003 -0.04754273
H  -1.39673353 -0.58053692 -0.04720864
C  0.33320671 0.57958712 0.00718581
H  -0.18689000 1.52511529 -0.05266085
H  1.42229259 0.61449589 -0.05265250
6
MD Step 93
C  -0.33532524 -0.58268325 0.00975181
H  0.19212900 -1.51604787 -0.04824499
H  -1.39720388 -0.57846081 -0.04792862
C  0.33242925 0.57823586 0.00729676
H  -0.18504976 1.52899477 -0.05350652
H  1.42463332 0.61850917 -0.05347116
6
MD Step 94
C  -0.33492086 -0.58211734 0.00988357
H  0.19343935 -1.51622797 -0.04884604
H  -1.39810623 -0.57653439 -0.04855970
C  0.33165745 0.57686269 0.00738816
H  -0.18319746 1.53286960 -0.05423886
H  1.42675122 0.62250726 -0.05416582
6
MD Step 95
C  -0.33447416 -0.58150506 0.00999661
H  0.19474013 -1.51659765 -0.04933034
H  -1.39939649 -0.57475103 -0.04908545
C  0.33089568 0.57547813 0.00745676
H  -0.18130559 1.53668520 -0.05483964
H  1.42860325 0.62648059 -0.05471943
6
MD Step 96
C  -0.33398604 -0.58084893 0.01009426
H  0.19598817 -1.51715939 -0.04972114
H  -1.40105957 -0.57314189 -0.04952995
C  0.33015453 0.57409919 0.00750655
H  -0.17938643 1.54035040 -0.05532917
H  1.43011418 0.63038097 -0.05515152
6
MD Step 97
C  -0.33346630 -0.58016019 0.01017247
H  0.19718847 -1.51786373 -0.04999231
H  -1.40302264 -0.57168849 -0.04986508
C  0.32943597 0.57273459 0.00753251
H  -0.17740544 1.54382636 -0.05567948
H  1.43126514 0.63420963 -0.05543615
6
MD Step 98
C  -0.33292352 -0.57944863 0.01022885
H  0.19833493 -1.51866998 -0.05012858
H  -1.40521703 -0.57038242 -0.05007378
C  0.32874338 0.57139455 0.00753164
H  -0.17534127 1.54706774 -0.05587384
H  1.43203411 0.63795736 -0.05555828
6
MD Step 99
C  -0.33236058 -0.57871801 0.01026651
H  0.19938443 -1.51957329 -0.05015220
H  -1.40760639 -0.56925145 -0.05017815
C  0.32808598 0.57009508 0.00750796
H  -0.17321203 1.54999741 -0.05593259
H  1.43237019 0.64157839 -0.05553817
6
MD Step 100
C  -0.33178413 -0.57797576 0.01028545
H  0.20031519 -1.52054725 -0.05006452
H  -1.41012998 -0.56830177 -0.05017819
C  0.32746901 0.56884815 0.00746174
H  -0.17101812 1.55256522 -0.05585608
H  1.43225193 0.64504864 -0.05537724
6
MD Step 101
C  -0.33120213 -0.57723044 0.01028471
H  0.20111288 -1.52155883 -0.04986043
H  -1.41271856 -0.56753215 -0.05006707
C  0.32689606 0.56766390 0.00739212
H  -0.16875657 1.55473447 -0.05563877
H  1.43167352 0.64835166 -0.05507137
6
MD Step 102
C  -0.33062514 -0.57649315 0.01026112
H  0.20178002 -1.52256011 -0.04951927
H  -1.41528716 -0.56692510 -0.04982163
C  0.32636749 0.56654907 0.00729541
H  -0.16641228 1.55649133 -0.05526060
H  1.43065370 0.65148779 -0.05460265
6
MD Step 103
C  -0.33006019 -0.57577128 0.01021461
H  0.20229998 -1.52352531 -0.04904166
H  -1.41777328 -0.56648288 -0.04944089
C  0.32588664 0.56551295 0.00717192
H  -0.16399401 1.55780906 -0.05472258
H  1.42919946 0.65443781 -0.05397336
6
MD Step 104
C  -0.32951251 -0.57507035 0.01014655
H  0.20264870 -1.52443989 -0.04843801
H  -1.42012680 -0.56621615 -0.04893411
C  0.32545778 0.56456532 0.00702384
H  -0.16152305 1.55865965 -0.05403556
H  1.42731741 0.65717459 -0.05319522
6
MD Step 105
C  -0.32898821 -0.57439664 0.01005733
H  0.20281149 -1.52528453 -0.04771181
H  -1.42229452 -0.56612762 -0.04830334
C  0.32508337 0.56371370 0.00685209
H  -0.15901684 1.55903061 -0.05320412
H  1.42503015 0.65967976 -0.05227398
6
MD Step 106
C  -0.32849030 -0.57375323 0.00994979
H  0.20275971 -1.52605885 -0.04688348
H  -1.42424454 -0.56623516 -0.04756834
C  0.32476791 0.56296708 0.00666081
H  -0.15651207 1.55890178 -0.05224936
H  1.42235294 0.66192035 -0.05123128
6
MD Step 107
C  -0.32802727 -0.57314881 0.00982149
H  0.20250385 -1.52672904 -0.04593675
H  -1.42591408 -0.56651968 -0.04671097
C  0.32450904 0.56232715 0.00644739
H  -0.15401243 1.55829803 -0.05115755
H  1.41934599 0.66390189 -0.05005512
6
MD Step 108
C  -0.32760355 -0.57258778 0.00967322
H  0.20203561 -1.52728606 -0.04487752
H  -1.42726840 -0.56698242 -0.04573618
C  0.32430733 0.56179784 0.00621332
H  -0.15154567 1.55723140 -0.04993656
H  1.41605627 0.66561033 -0.04875429
6
MD Step 109
C  -0.32722321 -0.57207421 0.00950559
H  0.20135144 -1.52772243 -0.04371010
H  -1.42827794 -0.56762184 -0.04464743
C  0.32416234 0.56138142 0.00595986
H  -0.14914026 1.55572436 -0.04859294
H  1.41254019 0.66703560 -0.04733622
6
MD Step 110
C  -0.32689063 -0.57161244 0.00931837
H  0.20045660 -1.52802846 -0.04243317
H  -1.42891478 -0.56842976 -0.04344260
C  0.32407196 0.56107782 0.00568721
H  -0.14682121 1.55381343 -0.04712807
H  1.40886682 0.66817557 -0.04580319
6
MD Step 111
C  -0.32661075 -0.57120733 0.00911028
H  0.19936704 -1.52819051 -0.04103784
H  -1.42915116 -0.56938947 -0.04211204
C  0.32403215 0.56088437 0.00539426
H  -0.14460792 1.55155068 -0.04553628
H  1.40511868 0.66903799 -0.04415039
6
MD Step 112
C  -0.32638939 -0.57086471 0.00887854
H  0.19811201 -1.52818851 -0.03950497
H  -1.42895737 -0.57047344 -0.04063589
C  0.32403657 0.56079536 0.00507801
H  -0.14251134 1.54900560 -0.04380231
H  1.40139288 0.66964297 -0.04236342
6
MD Step 113
C  -0.32622580 -0.57058364 0.00862574
H  0.19668822 -1.52804155 -0.03785166
H  -1.42834776 -0.57168832 -0.03903144
C  0.32408447 0.56080974 0.00474199
H  -0.14057838 1.54621895 -0.04194553
H  1.39775411 0.66997702 -0.04046159
6
MD Step 114
C  -0.32611777 -0.57036169 0.00835515
H  0.19509108 -1.52777655 -0.03609944
H  -1.42734938 -0.57304417 -0.03732061
C  0.32417541 0.56092594 0.00439051
H  -0.13886071 1.54323298 -0.03998945
H  1.39426415 0.67002437 -0.03846816
6
MD Step 115
C  -0.32606368 -0.57019711 0.00806882
H  0.19332709 -1.52741537 -0.03426136
H  -1.42598891 -0.57454207 -0.03551687
C  0.32430727 0.56113997 0.00402630
H  -0.13740173 1.54010303 -0.03794947
H  1.39099306 0.66977953 -0.03639816
6
MD Step 116
C  -0.32606383 -0.57009014 0.00776640
H  0.19142129 -1.52696695 -0.03233433
H  -1.42428483 -0.57616663 -0.03361750
C  0.32447499 0.56144422 0.00364918
H  -0.13622855 1.53690391 -0.03582543
H  1.38802485 0.66925477 -0.03425110
6
MD Step 117
C  -0.32611746 -0.57004007 0.00744784
H  0.18939904 -1.52644483 -0.03031723
H  -1.42226498 -0.57790375 -0.03162192
C  0.32467378 0.56183062 0.00325924
H  -0.13536880 1.53371061 -0.03361881
H  1.38543772 0.66846200 -0.03202790
6
MD Step 118
C  -0.32622447 -0.57004694 0.00711184
H  0.18729597 -1.52585673 -0.02820061
H  -1.41995617 -0.57973070 -0.02952129
C  0.32489755 0.56228916 0.00285508
H  -0.13483997 1.53060674 -0.03132294
H  1.38331175 0.66742271 -0.02972120
6
MD Step 119
C  -0.32637843 -0.57010449 0.00676242
H  0.18511491 -1.52524666 -0.02600988
H  -1.41742638 -0.58165835 -0.02734204
C  0.32514627 0.56281512 0.00244136
H  -0.13469053 1.52764033 -0.02896429
H  1.38168440 0.66612506 -0.02735636
6
MD Step 120
C  -0.32657080 -0.57020442 0.00640505
H  0.18285078 -1.52466915 -0.02377978
H  -1.41475855 -0.58370631 -0.02512003
C  0.32542176 0.56340511 0.00202436
H  -0.13497431 1.52484719 -0.02657800
H  1.38057402 0.66454900 -0.02496727
6
MD Step 121
C  -0.32680131 -0.57034706 0.00603691
H  0.18055260 -1.52412628 -0.02149113
H  -1.41198678 -0.58584121 -0.02283683
C  0.32571718 0.56404692 0.00160076
H  -0.13568812 1.52231138 -0.02414688
H  1.38004077 0.66272871 -0.02253584
6
MD Step 122
C  -0.32706829 -0.57053148 0.00565603
H  0.17826408 -1.52362603 -0.01913053
H  -1.40915459 -0.58803515 -0.02047989
C  0.32602711 0.56472948 0.00116827
H  -0.13682906 1.52010465 -0.02165895
H  1.38012631 0.66069338 -0.02004916
6
MD Step 123
C  -0.32736665 -0.57075344 0.00526336
H  0.17601044 -1.52319442 -0.01670325
H  -1.40632679 -0.59027843 -0.01805537
C  0.32634979 0.56544519 0.00072777
H  -0.13840642 1.51827185 -0.01911990
H  1.38083969 0.65845426 -0.01751198
6
MD Step 124
C  -0.32768744 -0.57100497 0.00486325
H  0.17379497 -1.52287796 -0.01423623
H  -1.40359117 -0.59258271 -0.01559110
C  0.32668764 0.56619066 0.00028388
H  -0.14044404 1.51682652 -0.01655619
H  1.38215386 0.65600162 -0.01494986
6
MD Step 125
C  -0.32802372 -0.57128021 0.00445798
H  0.17163289 -1.52270851 -0.01174339
H  -1.40102221 -0.59494686 -0.01310169
C  0.32704141 0.56696099 -0.00016107
H  -0.14294589 1.51578412 -0.01398138
H  1.38404037 0.65333915 -0.01237574