 Entering Gaussian System, Link 0=g16
 Initial command:
 /software/gaussian/g16-c01/avx2/g16/l1.exe "/gpfs/fs2/scratch/bweight/software/many_molecule_many_mode_NAMD/src/NAMD/TEST_NVT/TRAJ/traj-78/G16/GS_NEW/Gau-10526.inp" -scrdir="/gpfs/fs2/scratch/bweight/software/many_molecule_many_mode_NAMD/src/NAMD/TEST_NVT/TRAJ/traj-78/G16/GS_NEW/"
 Entering Link 1 = /software/gaussian/g16-c01/avx2/g16/l1.exe PID=     10527.
  
 Copyright (c) 1988-2019, Gaussian, Inc.  All Rights Reserved.
  
 This is part of the Gaussian(R) 16 program.  It is based on
 the Gaussian(R) 09 system (copyright 2009, Gaussian, Inc.),
 the Gaussian(R) 03 system (copyright 2003, Gaussian, Inc.),
 the Gaussian(R) 98 system (copyright 1998, Gaussian, Inc.),
 the Gaussian(R) 94 system (copyright 1995, Gaussian, Inc.),
 the Gaussian 92(TM) system (copyright 1992, Gaussian, Inc.),
 the Gaussian 90(TM) system (copyright 1990, Gaussian, Inc.),
 the Gaussian 88(TM) system (copyright 1988, Gaussian, Inc.),
 the Gaussian 86(TM) system (copyright 1986, Carnegie Mellon
 University), and the Gaussian 82(TM) system (copyright 1983,
 Carnegie Mellon University). Gaussian is a federally registered
 trademark of Gaussian, Inc.
  
 This software contains proprietary and confidential information,
 including trade secrets, belonging to Gaussian, Inc.
  
 This software is provided under written license and may be
 used, copied, transmitted, or stored only in accord with that
 written license.
  
 The following legend is applicable only to US Government
 contracts under FAR:
  
                    RESTRICTED RIGHTS LEGEND
  
 Use, reproduction and disclosure by the US Government is
 subject to restrictions as set forth in subparagraphs (a)
 and (c) of the Commercial Computer Software - Restricted
 Rights clause in FAR 52.227-19.
  
 Gaussian, Inc.
 340 Quinnipiac St., Bldg. 40, Wallingford CT 06492
  
  
 ---------------------------------------------------------------
 Warning -- This program may not be used in any manner that
 competes with the business of Gaussian, Inc. or will provide
 assistance to any competitor of Gaussian, Inc.  The licensee
 of this program is prohibited from giving any competitor of
 Gaussian, Inc. access to this program.  By using this program,
 the user acknowledges that Gaussian, Inc. is engaged in the
 business of creating and licensing software in the field of
 computational chemistry and represents and warrants to the
 licensee that it is not a competitor of Gaussian, Inc. and that
 it will not use this program in any manner prohibited above.
 ---------------------------------------------------------------
  

 Cite this work as:
 Gaussian 16, Revision C.01,
 M. J. Frisch, G. W. Trucks, H. B. Schlegel, G. E. Scuseria, 
 M. A. Robb, J. R. Cheeseman, G. Scalmani, V. Barone, 
 G. A. Petersson, H. Nakatsuji, X. Li, M. Caricato, A. V. Marenich, 
 J. Bloino, B. G. Janesko, R. Gomperts, B. Mennucci, H. P. Hratchian, 
 J. V. Ortiz, A. F. Izmaylov, J. L. Sonnenberg, D. Williams-Young, 
 F. Ding, F. Lipparini, F. Egidi, J. Goings, B. Peng, A. Petrone, 
 T. Henderson, D. Ranasinghe, V. G. Zakrzewski, J. Gao, N. Rega, 
 G. Zheng, W. Liang, M. Hada, M. Ehara, K. Toyota, R. Fukuda, 
 J. Hasegawa, M. Ishida, T. Nakajima, Y. Honda, O. Kitao, H. Nakai, 
 T. Vreven, K. Throssell, J. A. Montgomery, Jr., J. E. Peralta, 
 F. Ogliaro, M. J. Bearpark, J. J. Heyd, E. N. Brothers, K. N. Kudin, 
 V. N. Staroverov, T. A. Keith, R. Kobayashi, J. Normand, 
 K. Raghavachari, A. P. Rendell, J. C. Burant, S. S. Iyengar, 
 J. Tomasi, M. Cossi, J. M. Millam, M. Klene, C. Adamo, R. Cammi, 
 J. W. Ochterski, R. L. Martin, K. Morokuma, O. Farkas, 
 J. B. Foresman, and D. J. Fox, Gaussian, Inc., Wallingford CT, 2019.
 
 ******************************************
 Gaussian 16:  ES64L-G16RevC.01  3-Jul-2019
                11-Jan-2023 
 ******************************************
 %oldchk=../GS_OLD/geometry.chk
 %chk=geometry.chk
 %nprocshared=4
 Will use up to    4 processors via shared memory.
 %mem=5GB
 Copying data from "../GS_OLD/geometry.chk" to current chk file "geometry.chk"
 IOpt=  2 FromEx=T IUOpen= 4 IOptOp= 5 NList=   0 IFRang= 0 IUIn= 4 IUOut= 2.
 -------------------------------------------------------
 # WB97XD/6-311G SCF=XQC FORCE nosym pop=full guess=read
 -------------------------------------------------------
 1/10=7,30=1,38=1/1,3;
 2/12=2,15=1,17=6,18=5,40=1/2;
 3/5=4,6=6,11=2,25=1,30=1,71=1,74=-58,116=-2/1,2,3;
 4/5=1/1;
 5/5=2,8=3,13=1,38=6/2,8;
 6/7=3,28=1/1;
 7/29=1,30=1/1,2,3,16;
 1/10=7,30=1/3;
 99//99;
 ------------
 MD Step 1000
 ------------
 Symbolic Z-matrix:
 Charge =  0 Multiplicity = 1
 C                    -0.33616  -0.58157   0.00412 
 H                     0.21415  -1.53587  -0.01124 
 H                    -1.42211  -0.58735  -0.01111 
 C                     0.33355   0.57816   0.00351 
 H                    -0.16559   1.55915  -0.01351 
 H                     1.44598   0.64596  -0.01373 
 

 GradGradGradGradGradGradGradGradGradGradGradGradGradGradGradGradGradGrad
 Berny optimization.
 Initialization pass.
 Trust Radius=3.00D-01 FncErr=1.00D-07 GrdErr=1.00D-07 EigMax=2.50D+02 EigMin=1.00D-04
 Number of steps in this run=      2 maximum allowed number of steps=      2.
 GradGradGradGradGradGradGradGradGradGradGradGradGradGradGradGradGradGrad

                          Input orientation:                          
 ---------------------------------------------------------------------
 Center     Atomic      Atomic             Coordinates (Angstroms)
 Number     Number       Type             X           Y           Z
 ---------------------------------------------------------------------
      1          6           0       -0.336163   -0.581566    0.004123
      2          1           0        0.214149   -1.535875   -0.011239
      3          1           0       -1.422108   -0.587352   -0.011107
      4          6           0        0.333550    0.578161    0.003506
      5          1           0       -0.165588    1.559146   -0.013513
      6          1           0        1.445978    0.645958   -0.013731
 ---------------------------------------------------------------------
                    Distance matrix (angstroms):
                    1          2          3          4          5
     1  C    0.000000
     2  H    1.101719   0.000000
     3  H    1.086067   1.891304   0.000000
     4  C    1.339210   2.117457   2.107361   0.000000
     5  H    2.147570   3.118230   2.487228   1.100799   0.000000
     6  H    2.164061   2.505554   3.122015   1.114625   1.852311
                    6
     6  H    0.000000
 Symmetry turned off by external request.
 Stoichiometry    C2H4
 Framework group  C1[X(C2H4)]
 Deg. of freedom    12
 Full point group                 C1      NOp   1
 Rotational constants (GHZ):         143.0701569          29.6494525          24.5619207
 Standard basis: 6-311G (5D, 7F)
    38 basis functions,    72 primitive gaussians,    38 cartesian basis functions
     8 alpha electrons        8 beta electrons
       nuclear repulsion energy        33.0437192259 Hartrees.
 NAtoms=    6 NActive=    6 NUniq=    6 SFac= 1.00D+00 NAtFMM=   60 NAOKFM=F Big=F
 Integral buffers will be    131072 words long.
 Raffenetti 2 integral format.
 Two-electron integral symmetry is turned off.
 Nuclear repulsion after empirical dispersion term =       33.0428765449 Hartrees.
 One-electron integrals computed using PRISM.
 NBasis=    38 RedAO= T EigKep=  6.46D-03  NBF=    38
 NBsUse=    38 1.00D-06 EigRej= -1.00D+00 NBFU=    38
 Initial guess from the checkpoint file:  "geometry.chk"
 B after Tr=    -0.000283   -0.000400   -0.000371
         Rot=    1.000000    0.000001    0.000000    0.000008 Ang=   0.00 deg.
 Keep R1 ints in memory in canonical form, NReq=4036876.
 Requested convergence on RMS density matrix=1.00D-08 within  32 cycles.
 Requested convergence on MAX density matrix=1.00D-06.
 Requested convergence on             energy=1.00D-06.
 No special actions if energy rises.
 SCF Done:  E(RwB97XD) =  -78.5559150743     A.U. after    8 cycles
            NFock=  8  Conv=0.46D-08     -V/T= 2.0053
 QCSCF skips out because SCF is already converged.

 **********************************************************************

            Population analysis using the SCF Density.

 **********************************************************************

 Alpha  occ. eigenvalues --  -10.29040 -10.28854  -0.86343  -0.67204  -0.55909
 Alpha  occ. eigenvalues --   -0.50901  -0.43678  -0.35667
 Alpha virt. eigenvalues --    0.07975   0.14082   0.16461   0.16996   0.24067
 Alpha virt. eigenvalues --    0.37411   0.39322   0.39773   0.46423   0.48730
 Alpha virt. eigenvalues --    0.49388   0.59088   0.66561   0.69048   0.77275
 Alpha virt. eigenvalues --    0.77510   0.84514   0.95122   2.23192   2.29021
 Alpha virt. eigenvalues --    2.33213   2.40743   2.67081   2.81827   2.87786
 Alpha virt. eigenvalues --    2.95236   3.13925   3.31957  23.35209  23.70482
     Molecular Orbital Coefficients:
                           1         2         3         4         5
                           O         O         O         O         O
     Eigenvalues --   -10.29040 -10.28854  -0.86343  -0.67204  -0.55909
   1 1   C  1S          0.13607   0.54672  -0.08824   0.06694  -0.00060
   2        2S          0.11218   0.44992  -0.13946   0.10723  -0.00098
   3        2PX         0.00016  -0.00003   0.02561   0.03695   0.13723
   4        2PY         0.00028  -0.00004   0.04659   0.05985  -0.07249
   5        2PZ         0.00000  -0.00000  -0.00062   0.00091   0.00008
   6        3S          0.00267   0.01436   0.37412  -0.29269   0.00275
   7        3PX        -0.00058   0.00046   0.03374   0.05911   0.21492
   8        3PY        -0.00098   0.00083   0.06115   0.09708  -0.11458
   9        3PZ        -0.00001  -0.00002  -0.00104   0.00164   0.00011
  10        4S          0.00235  -0.01480   0.19184  -0.22752   0.00234
  11        4PX         0.00139  -0.00161   0.00467   0.02331   0.11169
  12        4PY         0.00239  -0.00282   0.00879   0.04053  -0.06080
  13        4PZ         0.00000   0.00004  -0.00038   0.00084   0.00005
  14 2   H  1S         -0.00005  -0.00005   0.05179  -0.08717   0.10089
  15        2S         -0.00029   0.00012   0.05334  -0.10525   0.12798
  16        3S          0.00092   0.00160  -0.00172  -0.01502   0.04137
  17 3   H  1S         -0.00006  -0.00007   0.05390  -0.09128  -0.10486
  18        2S         -0.00029   0.00011   0.05461  -0.10929  -0.13190
  19        3S          0.00095   0.00166  -0.00170  -0.01623  -0.04258
  20 4   C  1S          0.54670  -0.13625  -0.08696  -0.06827  -0.00050
  21        2S          0.44999  -0.11194  -0.13732  -0.10947  -0.00080
  22        2PX        -0.00003  -0.00016  -0.02792   0.03674   0.11840
  23        2PY        -0.00004  -0.00028  -0.04627   0.06702  -0.07503
  24        2PZ        -0.00000   0.00000  -0.00056  -0.00111   0.00008
  25        3S          0.01381  -0.00435   0.36800   0.29917   0.00224
  26        3PX        -0.00017   0.00074  -0.03525   0.05973   0.18559
  27        3PY        -0.00025   0.00127  -0.05816   0.10792  -0.11639
  28        3PZ        -0.00002  -0.00000  -0.00098  -0.00198   0.00012
  29        4S         -0.01171   0.00911   0.18929   0.23723   0.00106
  30        4PX         0.00078  -0.00196  -0.00558   0.02645   0.10201
  31        4PY         0.00127  -0.00341  -0.00891   0.04543  -0.06256
  32        4PZ         0.00004  -0.00001  -0.00039  -0.00101   0.00005
  33 5   H  1S         -0.00007  -0.00003   0.05058   0.09400  -0.09117
  34        2S         -0.00004  -0.00031   0.05154   0.11216  -0.11492
  35        3S          0.00183   0.00003  -0.00111   0.01696  -0.03692
  36 6   H  1S         -0.00005  -0.00004   0.04861   0.09105   0.08630
  37        2S         -0.00005  -0.00032   0.05042   0.10937   0.10945
  38        3S          0.00176   0.00004  -0.00121   0.01602   0.03546
                           6         7         8         9        10
                           O         O         O         V         V
     Eigenvalues --    -0.50901  -0.43678  -0.35667   0.07975   0.14082
   1 1   C  1S         -0.00382   0.00024  -0.00045   0.00134  -0.03355
   2        2S         -0.00575   0.00041  -0.00074   0.00223  -0.05382
   3        2PX         0.09393  -0.11163  -0.00167   0.00063  -0.03095
   4        2PY         0.16823   0.06640  -0.00291   0.00118  -0.06510
   5        2PZ         0.00254   0.00002   0.17943  -0.18924  -0.00116
   6        3S          0.02160  -0.00089   0.00214  -0.00678   0.11725
   7        3PX         0.13634  -0.17796  -0.00235   0.00097  -0.03616
   8        3PY         0.24624   0.10683  -0.00410   0.00176  -0.08049
   9        3PZ         0.00403   0.00006   0.28838  -0.27814  -0.00187
  10        4S         -0.05177  -0.00399   0.00351  -0.00713   1.22138
  11        4PX         0.06872  -0.11106  -0.00184   0.00595  -0.19190
  12        4PY         0.12548   0.06695  -0.00325   0.01059  -0.38824
  13        4PZ         0.00228   0.00006   0.26732  -0.69532  -0.00656
  14 2   H  1S         -0.08115  -0.11562   0.00009   0.00205  -0.01750
  15        2S         -0.11256  -0.17909   0.00099   0.00324  -0.04866
  16        3S         -0.04218  -0.08296   0.00062   0.00882  -0.84115
  17 3   H  1S         -0.07836   0.11332   0.00007   0.00207  -0.01292
  18        2S         -0.10792   0.17424   0.00097   0.00325  -0.03770
  19        3S         -0.04009   0.08030   0.00061   0.00860  -0.76657
  20 4   C  1S         -0.00815  -0.00053  -0.00046  -0.00138  -0.03614
  21        2S         -0.01274  -0.00087  -0.00075  -0.00228  -0.05803
  22        2PX        -0.09839   0.12422   0.00175   0.00098   0.04158
  23        2PY        -0.16215  -0.07286   0.00307   0.00160   0.06089
  24        2PZ         0.00275   0.00004   0.17921   0.18958  -0.00162
  25        3S          0.04139   0.00238   0.00224   0.00682   0.12809
  26        3PX        -0.14582   0.19908   0.00246   0.00148   0.05138
  27        3PY        -0.23829  -0.11551   0.00432   0.00245   0.07218
  28        3PZ         0.00435   0.00005   0.28691   0.27799  -0.00245
  29        4S         -0.03015   0.00412   0.00332   0.00848   1.24260
  30        4PX        -0.07627   0.12703   0.00198   0.00705   0.26545
  31        4PY        -0.12298  -0.07322   0.00350   0.01178   0.40834
  32        4PZ         0.00253   0.00002   0.26757   0.69627  -0.00978
  33 5   H  1S         -0.07419  -0.12406   0.00009  -0.00211  -0.01190
  34        2S         -0.10137  -0.19290   0.00108  -0.00353  -0.03717
  35        3S         -0.03787  -0.09030   0.00058  -0.00899  -0.81310
  36 6   H  1S         -0.08036   0.12384   0.00006  -0.00213  -0.01637
  37        2S         -0.11040   0.19409   0.00106  -0.00364  -0.04785
  38        3S         -0.04146   0.09114   0.00055  -0.00939  -0.88843
                          11        12        13        14        15
                           V         V         V         V         V
     Eigenvalues --     0.16461   0.16996   0.24067   0.37411   0.39322
   1 1   C  1S          0.00182  -0.04540   0.00023   0.01043   0.00207
   2        2S          0.00294  -0.07399   0.00035   0.01456   0.00336
   3        2PX         0.09777  -0.01805   0.10005  -0.03727  -0.02499
   4        2PY        -0.05369  -0.03844  -0.05719  -0.06741   0.00871
   5        2PZ         0.00008  -0.00330  -0.00003  -0.00225  -0.00009
   6        3S         -0.00639   0.16730   0.00021   0.02980  -0.00134
   7        3PX         0.13963  -0.00912   0.10612  -0.04858  -0.10921
   8        3PY        -0.07831  -0.02632  -0.06206  -0.09332   0.04357
   9        3PZ         0.00011  -0.00455  -0.00005  -0.00438   0.00009
  10        4S         -0.07734   1.42849  -0.04156  -2.69038  -0.35271
  11        4PX         0.58245  -0.10416   1.16175  -1.57933  -0.55894
  12        4PY        -0.30936  -0.21368  -0.67209  -2.73717   0.10532
  13        4PZ         0.00059  -0.02159  -0.00001  -0.02132  -0.00133
  14 2   H  1S         -0.02937  -0.02604   0.01264  -0.05667   0.07819
  15        2S         -0.08003  -0.01964  -0.02585  -0.64813   0.81008
  16        3S         -1.00882  -1.01749  -1.52919  -0.31201  -0.36098
  17 3   H  1S          0.02893  -0.02509  -0.01511  -0.04917  -0.07396
  18        2S          0.07885  -0.02035   0.01881  -0.58631  -0.72748
  19        3S          1.11042  -0.98817   1.57614  -0.40066   0.24075
  20 4   C  1S          0.00100   0.04272  -0.00027  -0.01977  -0.00002
  21        2S          0.00160   0.06954  -0.00044  -0.03230   0.00024
  22        2PX         0.10104  -0.02307  -0.10037  -0.04099  -0.03262
  23        2PY        -0.06052  -0.03751   0.05757  -0.07400   0.00993
  24        2PZ         0.00001   0.00338   0.00003   0.00185   0.00035
  25        3S         -0.00299  -0.15481   0.00041   0.03857  -0.00481
  26        3PX         0.14522  -0.01793  -0.11373  -0.09127  -0.10981
  27        3PY        -0.08605  -0.02722   0.06343  -0.16763   0.05453
  28        3PZ         0.00002   0.00468   0.00007   0.00255   0.00086
  29        4S         -0.05586  -1.34629   0.03638   3.33659   0.21496
  30        4PX         0.53916  -0.11890  -1.13026  -1.20379  -0.63159
  31        4PY        -0.33153  -0.19868   0.64782  -2.13488  -0.03365
  32        4PZ         0.00020   0.02182   0.00001   0.01742   0.00267
  33 5   H  1S          0.03057   0.02514   0.00710   0.01237  -0.07559
  34        2S          0.06815   0.02230  -0.03230   0.08943  -0.72422
  35        3S          1.07777   0.94969  -1.53829   0.45948   0.46745
  36 6   H  1S         -0.03179   0.02541  -0.00514   0.00617   0.09068
  37        2S         -0.07027   0.02035   0.03556   0.03516   0.94122
  38        3S         -1.00382   0.94452   1.50002   0.46808  -0.43585
                          16        17        18        19        20
                           V         V         V         V         V
     Eigenvalues --     0.39773   0.46423   0.48730   0.49388   0.59088
   1 1   C  1S         -0.01762   0.01169  -0.04705   0.00035  -0.00030
   2        2S         -0.03112   0.02765  -0.07887   0.00073  -0.00054
   3        2PX         0.02362  -0.06193   0.01497   0.00038   0.00105
   4        2PY         0.04678  -0.10585   0.01771   0.00061   0.00159
   5        2PZ         0.00006  -0.00019   0.00084  -0.15205  -0.19246
   6        3S          0.07535  -0.33520   0.10179  -0.00568  -0.00002
   7        3PX         0.09206  -0.24558  -0.02447   0.00027   0.00347
   8        3PY         0.18980  -0.41736  -0.05845   0.00036   0.00539
   9        3PZ        -0.00218  -0.00197   0.00460  -0.62904  -0.68447
  10        4S          2.49787   0.13316   3.12611   0.00805   0.03391
  11        4PX         0.13499   0.22755   0.79969   0.00453   0.01160
  12        4PY         0.34263   0.44941   1.40918   0.00856   0.01814
  13        4PZ         0.00013   0.00056  -0.03586   0.68786   1.24005
  14 2   H  1S         -0.02280  -0.03437  -0.07667  -0.00047  -0.00085
  15        2S         -0.49904  -0.32165  -0.90672  -0.00241  -0.00640
  16        3S          0.26776   0.08037   0.65773   0.00735   0.01164
  17 3   H  1S         -0.03986  -0.03882  -0.07319  -0.00047  -0.00076
  18        2S         -0.66563  -0.37712  -0.87729  -0.00260  -0.00482
  19        3S          0.31858   0.08433   0.60444   0.00720   0.01119
  20 4   C  1S         -0.00184  -0.00186   0.05093   0.00096   0.00032
  21        2S         -0.00655   0.00459   0.08839   0.00178   0.00060
  22        2PX         0.00531   0.05474   0.02525  -0.00037   0.00103
  23        2PY         0.01593   0.09572   0.04966  -0.00058   0.00197
  24        2PZ        -0.00191  -0.00086   0.00093  -0.15278   0.19226
  25        3S          0.07931  -0.29011  -0.22422  -0.00832  -0.00091
  26        3PX        -0.05321   0.23392   0.04783  -0.00092   0.00368
  27        3PY        -0.06497   0.41370   0.09300  -0.00140   0.00678
  28        3PZ        -0.00548  -0.00351   0.00271  -0.63159   0.68247
  29        4S         -0.68189   0.73616  -3.11226  -0.01883  -0.03046
  30        4PX         1.13393  -0.36735   0.64800  -0.00006   0.00980
  31        4PY         2.14437  -0.58204   1.08126  -0.00102   0.01871
  32        4PZ        -0.01702  -0.00865   0.02609   0.69203  -1.23747
  33 5   H  1S         -0.05420  -0.06337   0.06415   0.00045   0.00078
  34        2S         -0.90048  -0.64719   0.80864   0.00874   0.00275
  35        3S         -0.14082   0.26048  -0.54627   0.00204  -0.01146
  36 6   H  1S         -0.03572  -0.06009   0.06588   0.00050   0.00084
  37        2S         -0.70273  -0.60056   0.81207   0.00878   0.00376
  38        3S         -0.20671   0.27633  -0.58854   0.00142  -0.01170
                          21        22        23        24        25
                           V         V         V         V         V
     Eigenvalues --     0.66561   0.69048   0.77275   0.77510   0.84514
   1 1   C  1S          0.00110  -0.00022   0.05292   0.07174   0.00062
   2        2S          0.00224  -0.00062   0.11171   0.15299   0.00141
   3        2PX        -0.13332   0.19654  -0.02400   0.11564  -0.00830
   4        2PY         0.07827  -0.11918  -0.04096   0.18653   0.01272
   5        2PZ         0.00002   0.00006   0.00035   0.00234   0.00011
   6        3S         -0.01651   0.01516  -0.75996  -1.32735  -0.01425
   7        3PX        -0.61857   0.68716  -0.16794   0.45111  -0.22493
   8        3PY         0.35910  -0.41656  -0.28947   0.71994   0.16223
   9        3PZ         0.00004   0.00026   0.00134   0.00821   0.00054
  10        4S          0.02547  -0.10892   0.78790   2.43760  -0.11874
  11        4PX         1.09853  -0.78757   0.16118  -0.75637   4.46986
  12        4PY        -0.64367   0.46295   0.19737  -1.01745  -2.61534
  13        4PZ        -0.00017   0.00078   0.00425  -0.02670  -0.00007
  14 2   H  1S          0.02355  -0.05863   0.01145   0.03215  -0.02717
  15        2S          0.13156  -0.61608   0.07210   0.08461  -1.55609
  16        3S         -1.04540   1.09512  -0.11757  -1.09054  -1.21512
  17 3   H  1S         -0.02277   0.05846   0.01100   0.03330   0.02999
  18        2S         -0.14500   0.66547   0.09844   0.06369   1.60202
  19        3S          1.03333  -1.06870  -0.10064  -1.24379   1.22329
  20 4   C  1S          0.00129  -0.00052   0.08467   0.02954   0.00064
  21        2S          0.00260  -0.00093   0.18023   0.06205   0.00133
  22        2PX        -0.15097  -0.18677  -0.09421   0.05436   0.01108
  23        2PY         0.08570   0.10247  -0.17304   0.10037   0.00098
  24        2PZ         0.00004  -0.00006   0.00263  -0.00059  -0.00013
  25        3S         -0.01855  -0.00325  -1.50068  -0.34517  -0.00885
  26        3PX        -0.68129  -0.63278  -0.34026   0.28509   0.24122
  27        3PY         0.39026   0.34488  -0.63076   0.52120  -0.10255
  28        3PZ         0.00010  -0.00024   0.00927  -0.00226  -0.00056
  29        4S          0.01979   0.08860   2.66363   0.07024   0.10004
  30        4PX         1.27324   0.74149   0.50007  -0.25927  -4.23279
  31        4PY        -0.72167  -0.41982   1.01276  -0.68472   2.35757
  32        4PZ        -0.00028  -0.00074  -0.02682   0.01338   0.00044
  33 5   H  1S         -0.02518  -0.05558   0.03484   0.00182  -0.02407
  34        2S         -0.14794  -0.57893   0.08126   0.07217  -1.43702
  35        3S          1.11073   0.98770  -1.17079   0.31949  -1.11106
  36 6   H  1S          0.02583   0.05525   0.03415   0.00293   0.02399
  37        2S          0.13779   0.53038   0.07793   0.02188   1.41296
  38        3S         -1.11614  -1.00043  -1.07728   0.24238   1.11478
                          26        27        28        29        30
                           V         V         V         V         V
     Eigenvalues --     0.95122   2.23192   2.29021   2.33213   2.40743
   1 1   C  1S          0.09567  -0.01006  -0.01425   0.00045  -0.00056
   2        2S          0.19876   0.00156  -0.01415   0.00108  -0.00056
   3        2PX        -0.09092  -0.08264  -0.13294   0.34265  -0.40804
   4        2PY        -0.15786  -0.15342  -0.22953  -0.19626   0.23580
   5        2PZ         0.00004  -0.00642  -0.00884  -0.00018  -0.00022
   6        3S         -1.54097  -0.18490  -0.03591  -0.00299  -0.00559
   7        3PX        -0.23233   0.08052   0.20868  -0.41182   0.56807
   8        3PY        -0.39349   0.16514   0.37770   0.23885  -0.33245
   9        3PZ        -0.00129   0.00641   0.01110   0.00027   0.00022
  10        4S          5.71134  -0.10893  -0.88380   0.00310  -0.04292
  11        4PX         1.20542   0.05504  -0.19133  -0.03649   0.97318
  12        4PY         1.97916   0.06299  -0.35577   0.01277  -0.54912
  13        4PZ        -0.00885   0.00132   0.00393  -0.00015   0.00042
  14 2   H  1S          0.01579  -0.71245  -0.78797  -0.70827   0.65246
  15        2S         -0.29602   1.01247   1.18173   1.08580  -1.45603
  16        3S         -0.09418  -0.30908  -0.47317  -0.47420   0.37121
  17 3   H  1S          0.01599  -0.70915  -0.78406   0.69443  -0.67694
  18        2S         -0.25868   1.01124   1.17810  -1.07095   1.50787
  19        3S         -0.07824  -0.28563  -0.45547   0.45973  -0.36285
  20 4   C  1S         -0.09409  -0.01036   0.01235   0.00058   0.00043
  21        2S         -0.19517   0.00026   0.01236   0.00095   0.00060
  22        2PX        -0.09221   0.13020  -0.12450   0.30860   0.41813
  23        2PY        -0.15874   0.22773  -0.20967  -0.17802  -0.23612
  24        2PZ         0.00010  -0.00782   0.00913  -0.00001   0.00000
  25        3S          1.50989  -0.17009   0.01975  -0.00110   0.00130
  26        3PX        -0.22447  -0.16638   0.21511  -0.38477  -0.58640
  27        3PY        -0.39482  -0.28282   0.35181   0.21837   0.32908
  28        3PZ         0.00174   0.00841  -0.01161   0.00006  -0.00000
  29        4S         -5.69186  -0.16565   0.88606   0.01672   0.02987
  30        4PX         1.09878  -0.01124  -0.19922   0.09947  -0.87543
  31        4PY         1.99027  -0.03783  -0.32278  -0.05508   0.50479
  32        4PZ         0.00710   0.00251  -0.00333  -0.00016  -0.00035
  33 5   H  1S         -0.01777  -0.78681   0.68091   0.70396   0.68619
  34        2S          0.28403   1.14197  -1.03770  -1.02748  -1.46818
  35        3S          0.06515  -0.35033   0.40380   0.50559   0.41853
  36 6   H  1S         -0.01778  -0.77641   0.70635  -0.69413  -0.68001
  37        2S          0.31443   1.12270  -1.07201   1.00789   1.44792
  38        3S          0.07162  -0.35456   0.43351  -0.50521  -0.42699
                          31        32        33        34        35
                           V         V         V         V         V
     Eigenvalues --     2.67081   2.81827   2.87786   2.95236   3.13925
   1 1   C  1S          0.00023   0.00129  -0.01356   0.00020  -0.00953
   2        2S          0.00015   0.00375  -0.04481   0.00019  -0.02912
   3        2PX         0.00202   0.03680  -0.47390  -0.73471   0.45233
   4        2PY         0.00370   0.06465  -0.84595   0.41075   0.79242
   5        2PZ        -0.92447  -0.93755  -0.07067  -0.00027   0.00322
   6        3S         -0.00040  -0.03118   0.39277   0.00055   0.24458
   7        3PX        -0.00110  -0.06426   0.84233   0.88389  -0.44003
   8        3PY        -0.00229  -0.11179   1.47852  -0.48230  -0.76880
   9        3PZ         0.93977   1.14614   0.08879   0.00045  -0.00407
  10        4S          0.00565   0.07181  -0.88144  -0.00570  -0.47636
  11        4PX        -0.00147   0.05200  -0.71881  -0.67057   0.22697
  12        4PY        -0.00179   0.09064  -1.27157   0.35878   0.39117
  13        4PZ        -0.33806  -0.62153  -0.05623  -0.00040   0.00244
  14 2   H  1S          0.00602  -0.01105   0.26787  -0.37989  -0.21713
  15        2S         -0.00689   0.00750  -0.22813   0.39339   0.16438
  16        3S         -0.00136   0.02045  -0.29444   0.26824   0.06344
  17 3   H  1S          0.00607  -0.01041   0.25367   0.38123  -0.21666
  18        2S         -0.00702   0.00621  -0.20099  -0.38949   0.16424
  19        3S         -0.00174   0.02136  -0.30411  -0.28733   0.06932
  20 4   C  1S          0.00028  -0.00128   0.01378   0.00069  -0.00756
  21        2S          0.00030  -0.00392   0.04800   0.00154  -0.02342
  22        2PX        -0.00429   0.03378  -0.41474  -0.79940  -0.50151
  23        2PY        -0.00707   0.06000  -0.74249   0.44712  -0.88403
  24        2PZ        -0.92506   0.93661   0.07354   0.00050   0.00681
  25        3S         -0.00178   0.03345  -0.42969  -0.01135   0.20042
  26        3PX         0.00468  -0.06089   0.77606   0.95346   0.53307
  27        3PY         0.00756  -0.10774   1.38110  -0.52715   0.94848
  28        3PZ         0.94071  -1.14523  -0.09245  -0.00056  -0.00866
  29        4S          0.00872  -0.07324   0.90466   0.03058  -0.38120
  30        4PX        -0.00083   0.05144  -0.71262  -0.69563  -0.32219
  31        4PY        -0.00139   0.09047  -1.24941   0.37805  -0.57347
  32        4PZ        -0.33857   0.62099   0.05887   0.00036   0.00671
  33 5   H  1S          0.00589   0.01323  -0.28884   0.41692  -0.25876
  34        2S         -0.00725  -0.01028   0.25742  -0.42677   0.20139
  35        3S         -0.00078  -0.02014   0.29036  -0.24986   0.12034
  36 6   H  1S          0.00600   0.01373  -0.29188  -0.42548  -0.25032
  37        2S         -0.00759  -0.01134   0.27094   0.43618   0.19669
  38        3S         -0.00047  -0.01851   0.26763   0.24634   0.11526
                          36        37        38
                           V         V         V
     Eigenvalues --     3.31957  23.35209  23.70482
   1 1   C  1S         -0.00062  -1.41746  -1.44888
   2        2S         -0.00089   1.51171   1.56676
   3        2PX         0.77969  -0.00668   0.01201
   4        2PY        -0.43895  -0.01072   0.02141
   5        2PZ         0.00020  -0.00026  -0.00011
   6        3S          0.00161  -0.29684  -0.39833
   7        3PX        -1.11383   0.02425  -0.05521
   8        3PY         0.62284   0.03967  -0.09685
   9        3PZ        -0.00034   0.00075   0.00033
  10        4S         -0.03006   0.27491   0.76655
  11        4PX         1.96179  -0.02621   0.13177
  12        4PY        -1.10450  -0.04324   0.22950
  13        4PZ         0.00050  -0.00123  -0.00144
  14 2   H  1S          0.55453   0.01263   0.00635
  15        2S         -0.86784   0.00813  -0.01410
  16        3S         -0.45867  -0.08360  -0.03880
  17 3   H  1S         -0.56839   0.01490   0.00823
  18        2S          0.88716   0.00718  -0.01504
  19        3S          0.48528  -0.08624  -0.04013
  20 4   C  1S          0.00040  -1.44411   1.42218
  21        2S          0.00033   1.54021  -1.53796
  22        2PX        -0.71464   0.00596   0.01280
  23        2PY         0.40821   0.01106   0.02146
  24        2PZ        -0.00012  -0.00029   0.00008
  25        3S          0.00160  -0.30228   0.39105
  26        3PX         1.01702  -0.02200  -0.05668
  27        3PY        -0.58893  -0.04005  -0.09668
  28        3PZ         0.00021   0.00083  -0.00021
  29        4S          0.00940   0.27868  -0.75959
  30        4PX        -1.80350   0.02298   0.13200
  31        4PY         1.04400   0.04344   0.22607
  32        4PZ        -0.00031  -0.00137   0.00121
  33 5   H  1S          0.49450   0.01371  -0.00530
  34        2S         -0.77383   0.00778   0.01411
  35        3S         -0.43556  -0.08369   0.03826
  36 6   H  1S         -0.48559   0.01164  -0.00345
  37        2S          0.76359   0.00950   0.01283
  38        3S          0.42188  -0.08125   0.03649
     Density Matrix:
                           1         2         3         4         5
   1 1   C  1S          0.65941
   2        2S          0.56150   0.49199
   3        2PX        -0.00050  -0.00065   0.08428
   4        2PY        -0.00134  -0.00186   0.00370   0.08745
   5        2PZ         0.00005   0.00007  -0.00007  -0.00015   0.06441
   6        3S         -0.08895  -0.15386   0.00254   0.00657  -0.00012
   7        3PX         0.00092   0.00142   0.13043   0.00131  -0.00006
   8        3PY         0.00116   0.00178   0.00128   0.13099  -0.00013
   9        3PZ         0.00009   0.00015  -0.00012  -0.00023   0.10351
  10        4S         -0.07948  -0.11451  -0.01519  -0.02766   0.00034
  11        4PX         0.00020   0.00146   0.07033  -0.00459  -0.00026
  12        4PY         0.00059   0.00298  -0.00460   0.06562  -0.00047
  13        4PZ        -0.00004  -0.00010  -0.00042  -0.00072   0.09595
  14 2   H  1S         -0.02043  -0.03255   0.03447  -0.06290  -0.00059
  15        2S         -0.02284  -0.03651   0.04891  -0.08785  -0.00046
  16        3S          0.00053  -0.00076   0.02075  -0.03317  -0.00002
  17 3   H  1S         -0.02104  -0.03348  -0.07278  -0.00202  -0.00062
  18        2S         -0.02317  -0.03700  -0.10065  -0.00205  -0.00048
  19        3S          0.00060  -0.00069  -0.03843   0.00125  -0.00001
  20 4   C  1S          0.00606   0.00976  -0.01087  -0.01870  -0.00022
  21        2S          0.00973   0.01521  -0.01739  -0.02992  -0.00036
  22        2PX         0.01033   0.01651  -0.01244  -0.03199   0.00025
  23        2PY         0.01811   0.02896  -0.03222  -0.04966   0.00044
  24        2PZ        -0.00023  -0.00038  -0.00018  -0.00031   0.06433
  25        3S         -0.02620  -0.03978   0.04882   0.08401   0.00110
  26        3PX         0.01597   0.02474  -0.01830  -0.04568   0.00033
  27        3PY         0.02794   0.04332  -0.04594  -0.07117   0.00059
  28        3PZ        -0.00039  -0.00063  -0.00032  -0.00054   0.10298
  29        4S          0.00536   0.00399   0.02092   0.03625   0.00124
  30        4PX         0.00311   0.00642  -0.01303  -0.02095   0.00040
  31        4PY         0.00525   0.01092  -0.02104  -0.03744   0.00071
  32        4PZ        -0.00033  -0.00053  -0.00050  -0.00087   0.09603
  33 5   H  1S          0.00422   0.00693  -0.00172  -0.01226  -0.00026
  34        2S          0.00639   0.01062   0.00341  -0.02484  -0.00001
  35        3S          0.00328   0.00481   0.00411  -0.01746   0.00004
  36 6   H  1S          0.00413   0.00678  -0.00984  -0.00768  -0.00026
  37        2S          0.00619   0.01031  -0.02337  -0.00946  -0.00002
  38        3S          0.00320   0.00468  -0.01728  -0.00518   0.00003
                           6         7         8         9        10
   6        3S          0.45265
   7        3PX        -0.00197   0.20217
   8        3PY        -0.00125  -0.00450   0.19672
   9        3PZ        -0.00033  -0.00011  -0.00020   0.16636
  10        4S          0.27411  -0.02568  -0.04766   0.00046   0.18301
  11        4PX        -0.00642   0.10935  -0.01038  -0.00043  -0.01448
  12        4PY        -0.01226  -0.01035   0.09900  -0.00076  -0.02881
  13        4PZ         0.00047  -0.00056  -0.00095   0.15420   0.00112
  14 2   H  1S          0.08703   0.05558  -0.09838  -0.00099   0.06934
  15        2S          0.09768   0.07921  -0.13695  -0.00079   0.08204
  16        3S          0.00611   0.03392  -0.05111  -0.00003   0.01136
  17 3   H  1S          0.08960  -0.11392  -0.00148  -0.00101   0.06893
  18        2S          0.09915  -0.15737  -0.00024  -0.00079   0.07985
  19        3S          0.00617  -0.05985   0.00381  -0.00002   0.01000
  20 4   C  1S         -0.02645  -0.01694  -0.02920  -0.00038   0.00516
  21        2S         -0.04003  -0.02634  -0.04539  -0.00062   0.00388
  22        2PX        -0.04621  -0.01770  -0.04534   0.00043  -0.01766
  23        2PY        -0.08114  -0.04575  -0.07090   0.00076  -0.03120
  24        2PZ         0.00111  -0.00024  -0.00041   0.10338   0.00126
  25        3S          0.10198   0.07157   0.12341   0.00184   0.00097
  26        3PX        -0.06694  -0.02617  -0.06454   0.00058  -0.02633
  27        3PY        -0.11737  -0.06508  -0.10156   0.00101  -0.04638
  28        3PZ         0.00185  -0.00043  -0.00073   0.16551   0.00209
  29        4S          0.00168   0.03159   0.05501   0.00206  -0.03253
  30        4PX        -0.02267  -0.01942  -0.02936   0.00066  -0.00674
  31        4PY        -0.03887  -0.02962  -0.05418   0.00117  -0.01094
  32        4PZ         0.00155  -0.00069  -0.00120   0.15434   0.00193
  33 5   H  1S         -0.02067  -0.00074  -0.01772  -0.00038  -0.01512
  34        2S         -0.03177   0.00835  -0.03673   0.00002  -0.01975
  35        3S         -0.01242   0.00787  -0.02634   0.00007  -0.00366
  36 6   H  1S         -0.02015  -0.01486  -0.00927  -0.00038  -0.01505
  37        2S         -0.03082  -0.03581  -0.01059   0.00002  -0.02002
  38        3S         -0.01203  -0.02670  -0.00611   0.00006  -0.00401
                          11        12        13        14        15
  11        4PX         0.06021
  12        4PY        -0.00921   0.05134
  13        4PZ        -0.00064  -0.00110   0.14294
  14 2   H  1S          0.03349  -0.05427  -0.00051   0.08082
  15        2S          0.04849  -0.07539  -0.00021   0.10938   0.15009
  16        3S          0.02115  -0.02798   0.00011   0.03682   0.05278
  17 3   H  1S         -0.06312   0.00181  -0.00051  -0.01315  -0.02482
  18        2S         -0.08759   0.00438  -0.00019  -0.02468  -0.04304
  19        3S         -0.03363   0.00452   0.00012  -0.01800  -0.02740
  20 4   C  1S         -0.00315  -0.00574  -0.00034   0.00420   0.00664
  21        2S         -0.00651  -0.01172  -0.00055   0.00694   0.01108
  22        2PX        -0.01322  -0.01998   0.00059   0.00184  -0.00275
  23        2PY        -0.02018  -0.03673   0.00104   0.01155   0.02436
  24        2PZ        -0.00033  -0.00058   0.09582  -0.00027  -0.00009
  25        3S          0.02309   0.04123   0.00161  -0.02086  -0.03332
  26        3PX        -0.02036  -0.02831   0.00082   0.00102  -0.00731
  27        3PY        -0.02862  -0.05343   0.00143   0.01706   0.03632
  28        3PZ        -0.00054  -0.00096   0.15341  -0.00040  -0.00009
  29        4S          0.00793   0.01528   0.00189  -0.01760  -0.02414
  30        4PX        -0.01473  -0.01249   0.00078  -0.00160  -0.00838
  31        4PY        -0.01258  -0.02953   0.00138   0.01542   0.02739
  32        4PZ        -0.00068  -0.00120   0.14307  -0.00022   0.00013
  33 5   H  1S          0.00185  -0.01564  -0.00019   0.01118   0.02342
  34        2S          0.00895  -0.02730   0.00023   0.02365   0.04439
  35        3S          0.00739  -0.01575   0.00015   0.01651   0.02773
  36 6   H  1S         -0.01458  -0.00585  -0.00019  -0.00902  -0.01816
  37        2S         -0.02827  -0.00528   0.00024  -0.01872  -0.03429
  38        3S         -0.01728  -0.00123   0.00015  -0.01011  -0.01774
                          16        17        18        19        20
  16        3S          0.02121
  17 3   H  1S         -0.01831   0.08242
  18        2S         -0.02762   0.10990   0.14866
  19        3S         -0.01296   0.03619   0.05123   0.02028
  20 4   C  1S          0.00365   0.00431   0.00678   0.00370   0.65947
  21        2S          0.00538   0.00711   0.01130   0.00545   0.56156
  22        2PX        -0.00352   0.00902   0.02221   0.01666   0.00120
  23        2PY         0.01771   0.00741   0.00971   0.00567   0.00172
  24        2PZ         0.00002  -0.00027  -0.00007   0.00004   0.00004
  25        3S         -0.01394  -0.02136  -0.03389  -0.01407  -0.08925
  26        3PX        -0.00704   0.01434   0.03499   0.02605  -0.00043
  27        3PY         0.02661   0.00960   0.01195   0.00717  -0.00112
  28        3PZ         0.00005  -0.00039  -0.00007   0.00007   0.00009
  29        4S         -0.00582  -0.01746  -0.02349  -0.00534  -0.08012
  30        4PX        -0.00698   0.01392   0.02743   0.01699  -0.00025
  31        4PY         0.01601   0.00654   0.00663   0.00198  -0.00020
  32        4PZ         0.00015  -0.00022   0.00014   0.00016  -0.00004
  33 5   H  1S          0.01630  -0.00908  -0.01819  -0.00944  -0.02027
  34        2S          0.02750  -0.01865  -0.03391  -0.01688  -0.02226
  35        3S          0.01462  -0.01000  -0.01738  -0.00886   0.00062
  36 6   H  1S         -0.00953   0.01118   0.02315   0.01586  -0.01984
  37        2S         -0.01729   0.02380   0.04419   0.02698  -0.02218
  38        3S         -0.00916   0.01666   0.02772   0.01443   0.00048
                          21        22        23        24        25
  21        2S          0.49205
  22        2PX         0.00173   0.08252
  23        2PY         0.00243   0.00356   0.08775
  24        2PZ         0.00006   0.00007   0.00009   0.06425
  25        3S         -0.15423  -0.00558  -0.00805  -0.00005   0.45373
  26        3PX        -0.00065   0.12847   0.00171   0.00004  -0.00049
  27        3PY        -0.00171   0.00182   0.13145   0.00004   0.00098
  28        3PZ         0.00014   0.00010   0.00015   0.10286  -0.00026
  29        4S         -0.11575   0.01408   0.02331   0.00028   0.27840
  30        4PX        -0.00156   0.07299  -0.00501   0.00027   0.00652
  31        4PY        -0.00224  -0.00496   0.06688   0.00047   0.00990
  32        4PZ        -0.00011   0.00040   0.00071   0.09592   0.00052
  33 5   H  1S         -0.03227  -0.03373   0.06374  -0.00067   0.08633
  34        2S         -0.03557  -0.04982   0.08850  -0.00051   0.09522
  35        3S         -0.00059  -0.02242   0.03336  -0.00005   0.00565
  36 6   H  1S         -0.03163   0.07099   0.00277  -0.00065   0.08458
  37        2S         -0.03547   0.10109   0.00109  -0.00049   0.09483
  38        3S         -0.00076   0.04044  -0.00290  -0.00005   0.00591
                          26        27        28        29        30
  26        3PX         0.20032
  27        3PY        -0.00268   0.19745
  28        3PZ         0.00004   0.00005   0.16469
  29        4S          0.02586   0.04242   0.00033   0.18653
  30        4PX         0.11425  -0.01037   0.00042   0.01626   0.06620
  31        4PY        -0.01044   0.10095   0.00075   0.02479  -0.01008
  32        4PZ         0.00051   0.00091   0.15357   0.00100   0.00064
  33 5   H  1S         -0.05394   0.09965  -0.00110   0.06701  -0.03439
  34        2S         -0.08013   0.13785  -0.00085   0.07701  -0.05163
  35        3S         -0.03651   0.05130  -0.00008   0.00905  -0.02378
  36 6   H  1S          0.11223   0.00360  -0.00108   0.06765   0.06560
  37        2S          0.15962   0.00005  -0.00084   0.07947   0.09371
  38        3S          0.06354  -0.00595  -0.00009   0.01043   0.03758
                          31        32        33        34        35
  31        4PY         0.05314
  32        4PZ         0.00116   0.14320
  33 5   H  1S          0.05546  -0.00057   0.08120
  34        2S          0.07684  -0.00022   0.11016   0.15186
  35        3S          0.02873   0.00008   0.03783   0.05469   0.02249
  36 6   H  1S         -0.00176  -0.00058  -0.01250  -0.02588  -0.01967
  37        2S         -0.00592  -0.00023  -0.02607  -0.04792  -0.03117
  38        3S         -0.00610   0.00006  -0.02004  -0.03144  -0.01538
                          36        37        38
  36 6   H  1S          0.07979
  37        2S          0.10953   0.15268
  38        3S          0.03816   0.05568   0.02309
    Full Mulliken population analysis:
                           1         2         3         4         5
   1 1   C  1S          0.65941
   2        2S          0.49325   0.49199
   3        2PX         0.00000   0.00000   0.08428
   4        2PY         0.00000   0.00000   0.00000   0.08745
   5        2PZ         0.00000   0.00000   0.00000   0.00000   0.06441
   6        3S         -0.02928  -0.06443   0.00000   0.00000   0.00000
   7        3PX         0.00000   0.00000   0.08206   0.00000   0.00000
   8        3PY         0.00000   0.00000   0.00000   0.08241   0.00000
   9        3PZ         0.00000   0.00000   0.00000   0.00000   0.06512
  10        4S         -0.01222  -0.02143   0.00000   0.00000   0.00000
  11        4PX         0.00000   0.00000   0.01549   0.00000   0.00000
  12        4PY         0.00000   0.00000   0.00000   0.01445   0.00000
  13        4PZ         0.00000   0.00000   0.00000   0.00000   0.02113
  14 2   H  1S         -0.00022  -0.00032   0.00174   0.00551   0.00000
  15        2S         -0.00165  -0.00315   0.00423   0.01318   0.00000
  16        3S          0.00004  -0.00007   0.00069   0.00192   0.00000
  17 3   H  1S         -0.00025  -0.00037   0.00788   0.00000   0.00000
  18        2S         -0.00173  -0.00332   0.01776   0.00000   0.00000
  19        3S          0.00005  -0.00007   0.00256  -0.00000   0.00000
  20 4   C  1S          0.00000   0.00000  -0.00002  -0.00006   0.00000
  21        2S          0.00000  -0.00000  -0.00002  -0.00005   0.00000
  22        2PX        -0.00002  -0.00002   0.00011   0.00084   0.00000
  23        2PY        -0.00006  -0.00005   0.00085   0.00195   0.00000
  24        2PZ        -0.00000  -0.00000  -0.00000  -0.00000   0.00041
  25        3S         -0.00059  -0.00099   0.00254   0.00757  -0.00000
  26        3PX        -0.00054  -0.00099   0.00019   0.00551   0.00000
  27        3PY        -0.00163  -0.00299   0.00554   0.01066   0.00000
  28        3PZ        -0.00000  -0.00000  -0.00000  -0.00000   0.00609
  29        4S          0.00034   0.00030   0.00095   0.00285  -0.00000
  30        4PX        -0.00018  -0.00046  -0.00070   0.00145   0.00000
  31        4PY        -0.00053  -0.00134   0.00146   0.00098   0.00000
  32        4PZ        -0.00000  -0.00000  -0.00000  -0.00000   0.00902
  33 5   H  1S          0.00000   0.00000  -0.00000  -0.00000   0.00000
  34        2S          0.00001   0.00002   0.00000  -0.00032   0.00000
  35        3S          0.00008   0.00013   0.00001  -0.00070  -0.00000
  36 6   H  1S          0.00000   0.00000  -0.00000  -0.00000   0.00000
  37        2S          0.00001   0.00002  -0.00023  -0.00007   0.00000
  38        3S          0.00007   0.00013  -0.00057  -0.00012  -0.00000
                           6         7         8         9        10
   6        3S          0.45265
   7        3PX         0.00000   0.20217
   8        3PY         0.00000   0.00000   0.19672
   9        3PZ         0.00000   0.00000   0.00000   0.16636
  10        4S          0.21235   0.00000   0.00000   0.00000   0.18301
  11        4PX         0.00000   0.07146   0.00000   0.00000   0.00000
  12        4PY         0.00000   0.00000   0.06469   0.00000   0.00000
  13        4PZ         0.00000   0.00000   0.00000   0.10076   0.00000
  14 2   H  1S          0.01578   0.01049   0.03219   0.00001   0.01825
  15        2S          0.04081   0.01927   0.05777   0.00001   0.04711
  16        3S          0.00281   0.00395   0.01032   0.00000   0.00855
  17 3   H  1S          0.01695   0.04427   0.00000   0.00001   0.01843
  18        2S          0.04242   0.07737   0.00000   0.00001   0.04642
  19        3S          0.00286   0.01389  -0.00000   0.00000   0.00759
  20 4   C  1S         -0.00059  -0.00057  -0.00170   0.00000   0.00033
  21        2S         -0.00099  -0.00105  -0.00313   0.00000   0.00029
  22        2PX         0.00240   0.00019   0.00547   0.00000   0.00080
  23        2PY         0.00731   0.00552   0.01062   0.00000   0.00245
  24        2PZ         0.00000  -0.00000  -0.00000   0.00611   0.00000
  25        3S          0.02168   0.01339   0.03999  -0.00000   0.00037
  26        3PX         0.01253  -0.00126   0.01840   0.00000   0.00406
  27        3PY         0.03803   0.01856   0.02855   0.00000   0.01238
  28        3PZ         0.00000  -0.00000  -0.00000   0.03519   0.00000
  29        4S          0.00064   0.00487   0.01468  -0.00000  -0.02041
  30        4PX         0.00637  -0.00398   0.00582   0.00000   0.00204
  31        4PY         0.01890   0.00587   0.00129   0.00000   0.00574
  32        4PZ         0.00000  -0.00000  -0.00000   0.04926   0.00000
  33 5   H  1S         -0.00006  -0.00000  -0.00019   0.00000  -0.00082
  34        2S         -0.00125   0.00006  -0.00328  -0.00000  -0.00334
  35        3S         -0.00204   0.00010  -0.00426  -0.00000  -0.00133
  36 6   H  1S         -0.00005  -0.00012  -0.00005   0.00000  -0.00079
  37        2S         -0.00115  -0.00253  -0.00052  -0.00000  -0.00330
  38        3S         -0.00193  -0.00352  -0.00056  -0.00000  -0.00143
                          11        12        13        14        15
  11        4PX         0.06021
  12        4PY         0.00000   0.05134
  13        4PZ         0.00000   0.00000   0.14294
  14 2   H  1S          0.00626   0.01759   0.00000   0.08082
  15        2S          0.01527   0.04118   0.00000   0.07726   0.15009
  16        3S          0.00523   0.01200  -0.00000   0.01376   0.04164
  17 3   H  1S          0.02365  -0.00000   0.00000  -0.00001  -0.00065
  18        2S          0.05511  -0.00001   0.00000  -0.00065  -0.00537
  19        3S          0.01653  -0.00001  -0.00000  -0.00200  -0.00797
  20 4   C  1S         -0.00018  -0.00058   0.00000   0.00000   0.00002
  21        2S         -0.00046  -0.00144   0.00000   0.00000   0.00003
  22        2PX        -0.00071   0.00138   0.00000  -0.00000   0.00000
  23        2PY         0.00140   0.00096   0.00000  -0.00000  -0.00035
  24        2PZ        -0.00000  -0.00000   0.00900   0.00000   0.00000
  25        3S          0.00648   0.02005  -0.00000  -0.00007  -0.00143
  26        3PX        -0.00417   0.00561   0.00000  -0.00000   0.00004
  27        3PY         0.00567   0.00128   0.00000  -0.00022  -0.00350
  28        3PZ        -0.00000  -0.00000   0.04896   0.00000   0.00000
  29        4S          0.00240   0.00802  -0.00000  -0.00101  -0.00428
  30        4PX        -0.00708   0.00316   0.00000   0.00001   0.00018
  31        4PY         0.00319  -0.00557   0.00000  -0.00242  -0.01024
  32        4PZ        -0.00000  -0.00000   0.08976   0.00000  -0.00000
  33 5   H  1S          0.00002  -0.00234   0.00000   0.00000   0.00000
  34        2S          0.00026  -0.00986  -0.00000   0.00000   0.00016
  35        3S          0.00027  -0.00729  -0.00000   0.00023   0.00145
  36 6   H  1S         -0.00176  -0.00049   0.00000  -0.00000  -0.00004
  37        2S         -0.00829  -0.00107  -0.00000  -0.00004  -0.00089
  38        3S         -0.00656  -0.00032  -0.00000  -0.00045  -0.00243
                          16        17        18        19        20
  16        3S          0.02121
  17 3   H  1S         -0.00204   0.08242
  18        2S         -0.00804   0.07763   0.14866
  19        3S         -0.00673   0.01352   0.04042   0.02028
  20 4   C  1S          0.00009   0.00000   0.00002   0.00009   0.65947
  21        2S          0.00016   0.00000   0.00003   0.00016   0.49330
  22        2PX         0.00001  -0.00000  -0.00028  -0.00058   0.00000
  23        2PY        -0.00074  -0.00000  -0.00008  -0.00013   0.00000
  24        2PZ        -0.00000   0.00000   0.00000  -0.00000   0.00000
  25        3S         -0.00238  -0.00007  -0.00150  -0.00243  -0.02938
  26        3PX         0.00007  -0.00016  -0.00288  -0.00364   0.00000
  27        3PY        -0.00442  -0.00007  -0.00065  -0.00067   0.00000
  28        3PZ        -0.00000   0.00000   0.00000  -0.00000   0.00000
  29        4S         -0.00217  -0.00102  -0.00423  -0.00201  -0.01232
  30        4PX         0.00019  -0.00185  -0.00864  -0.00669   0.00000
  31        4PY        -0.00753  -0.00058  -0.00139  -0.00052   0.00000
  32        4PZ        -0.00000   0.00000  -0.00000  -0.00000   0.00000
  33 5   H  1S          0.00023  -0.00000  -0.00004  -0.00043  -0.00022
  34        2S          0.00144  -0.00004  -0.00093  -0.00237  -0.00161
  35        3S          0.00246  -0.00046  -0.00244  -0.00285   0.00005
  36 6   H  1S         -0.00042   0.00000   0.00000   0.00022  -0.00020
  37        2S         -0.00237   0.00000   0.00015   0.00140  -0.00155
  38        3S         -0.00290   0.00023   0.00144   0.00241   0.00004
                          21        22        23        24        25
  21        2S          0.49205
  22        2PX         0.00000   0.08252
  23        2PY         0.00000   0.00000   0.08775
  24        2PZ         0.00000   0.00000   0.00000   0.06425
  25        3S         -0.06459   0.00000   0.00000   0.00000   0.45373
  26        3PX         0.00000   0.08082   0.00000   0.00000   0.00000
  27        3PY         0.00000   0.00000   0.08270   0.00000   0.00000
  28        3PZ         0.00000   0.00000   0.00000   0.06471   0.00000
  29        4S         -0.02166   0.00000   0.00000   0.00000   0.21568
  30        4PX         0.00000   0.01607   0.00000   0.00000   0.00000
  31        4PY         0.00000   0.00000   0.01473   0.00000   0.00000
  32        4PZ         0.00000   0.00000   0.00000   0.02112   0.00000
  33 5   H  1S         -0.00032   0.00155   0.00577   0.00000   0.01569
  34        2S         -0.00308   0.00392   0.01367   0.00000   0.03984
  35        3S         -0.00006   0.00068   0.00198   0.00000   0.00260
  36 6   H  1S         -0.00028   0.00677   0.00002   0.00000   0.01480
  37        2S         -0.00297   0.01720   0.00001   0.00000   0.03884
  38        3S         -0.00007   0.00270  -0.00001   0.00000   0.00269
                          26        27        28        29        30
  26        3PX         0.20032
  27        3PY         0.00000   0.19745
  28        3PZ         0.00000   0.00000   0.16469
  29        4S          0.00000   0.00000   0.00000   0.18653
  30        4PX         0.07466   0.00000   0.00000   0.00000   0.06620
  31        4PY         0.00000   0.06597   0.00000   0.00000   0.00000
  32        4PZ         0.00000   0.00000   0.10035   0.00000   0.00000
  33 5   H  1S          0.00925   0.03360   0.00001   0.01765   0.00584
  34        2S          0.01771   0.05986   0.00001   0.04425   0.01476
  35        3S          0.00386   0.01065   0.00000   0.00682   0.00534
  36 6   H  1S          0.04130   0.00008   0.00001   0.01757   0.02446
  37        2S          0.07695   0.00000   0.00001   0.04517   0.05906
  38        3S          0.01482  -0.00008   0.00000   0.00781   0.01866
                          31        32        33        34        35
  31        4PY         0.05314
  32        4PZ         0.00000   0.14320
  33 5   H  1S          0.01850   0.00000   0.08120
  34        2S          0.04318   0.00000   0.07781   0.15186
  35        3S          0.01267  -0.00000   0.01414   0.04315   0.02249
  36 6   H  1S         -0.00004   0.00000  -0.00001  -0.00078  -0.00230
  37        2S         -0.00023   0.00000  -0.00078  -0.00651  -0.00944
  38        3S         -0.00018  -0.00000  -0.00234  -0.00952  -0.00820
                          36        37        38
  36 6   H  1S          0.07979
  37        2S          0.07737   0.15268
  38        3S          0.01426   0.04393   0.02309
     Gross orbital populations:
                           1
   1 1   C  1S          1.10436
   2        2S          0.88585
   3        2PX         0.22681
   4        2PY         0.23542
   5        2PZ         0.16619
   6        3S          0.79271
   7        3PX         0.56044
   8        3PY         0.55522
   9        3PZ         0.42283
  10        4S          0.50510
  11        4PX         0.25969
  12        4PY         0.21271
  13        4PZ         0.41256
  14 2   H  1S          0.27250
  15        2S          0.46776
  16        3S          0.08695
  17 3   H  1S          0.27744
  18        2S          0.46525
  19        3S          0.08286
  20 4   C  1S          1.10441
  21        2S          0.88584
  22        2PX         0.22183
  23        2PY         0.23627
  24        2PZ         0.16562
  25        3S          0.79250
  26        3PX         0.55246
  27        3PY         0.55674
  28        3PZ         0.42002
  29        4S          0.50740
  30        4PX         0.27467
  31        4PY         0.21504
  32        4PZ         0.41272
  33 5   H  1S          0.27371
  34        2S          0.46908
  35        3S          0.08777
  36 6   H  1S          0.26932
  37        2S          0.47086
  38        3S          0.09108
          Condensed to atoms (all electrons):
               1          2          3          4          5          6
     1  C    5.034554   0.386742   0.388005   0.601908  -0.036118  -0.035196
     2  H    0.386742   0.517457  -0.033447  -0.039968   0.005965  -0.009541
     3  H    0.388005  -0.033447   0.514494  -0.039789  -0.009572   0.005865
     4  C    0.601908  -0.039968  -0.039789   5.055612   0.384418   0.383345
     5  H   -0.036118   0.005965  -0.009572   0.384418   0.525748  -0.039883
     6  H   -0.035196  -0.009541   0.005865   0.383345  -0.039883   0.526667
 Mulliken charges:
               1
     1  C   -0.339894
     2  H    0.172791
     3  H    0.174444
     4  C   -0.345527
     5  H    0.169442
     6  H    0.168743
 Sum of Mulliken charges =   0.00000
 Mulliken charges with hydrogens summed into heavy atoms:
               1
     1  C    0.007341
     4  C   -0.007341
 Electronic spatial extent (au):  <R**2>=             83.8052
 Charge=              0.0000 electrons
 Dipole moment (field-independent basis, Debye):
    X=             -0.0043    Y=              0.0221    Z=             -0.0537  Tot=              0.0583
 Quadrupole moment (field-independent basis, Debye-Ang):
   XX=            -12.2003   YY=            -12.2159   ZZ=            -15.6806
   XY=              0.0099   XZ=             -0.0026   YZ=             -0.0036
 Traceless Quadrupole moment (field-independent basis, Debye-Ang):
   XX=              1.1653   YY=              1.1497   ZZ=             -2.3150
   XY=              0.0099   XZ=             -0.0026   YZ=             -0.0036
 Octapole moment (field-independent basis, Debye-Ang**2):
  XXX=             -0.3119  YYY=             -0.0505  ZZZ=             -0.0640  XYY=              0.1607
  XXY=             -0.0067  XXZ=             -0.0804  XZZ=             -0.0925  YZZ=             -0.0642
  YYZ=             -0.1032  XYZ=             -0.0200
 Hexadecapole moment (field-independent basis, Debye-Ang**3):
 XXXX=            -34.3197 YYYY=            -55.2517 ZZZZ=            -17.8188 XXXY=             -7.2466
 XXXZ=              0.0054 YYYX=            -10.7412 YYYZ=              0.0098 ZZZX=              0.0144
 ZZZY=              0.0207 XXYY=            -16.2187 XXZZ=             -9.9450 YYZZ=            -13.6622
 XXYZ=              0.0020 YYXZ=              0.0010 ZZXY=             -3.2100
 N-N= 3.304287654491D+01 E-N=-2.477912070603D+02  KE= 7.814487885371D+01
 Orbital energies and kinetic energies (alpha):
                                 1                 2
   1         O               -10.290398         15.978116
   2         O               -10.288541         15.980517
   3         O                -0.863426          1.537429
   4         O                -0.672038          1.271300
   5         O                -0.559090          0.941148
   6         O                -0.509012          1.282901
   7         O                -0.436779          1.042936
   8         O                -0.356670          1.038092
   9         V                 0.079750          1.182155
  10         V                 0.140815          0.590159
  11         V                 0.164610          0.594859
  12         V                 0.169959          0.681342
  13         V                 0.240675          0.583160
  14         V                 0.374106          0.854864
  15         V                 0.393217          0.932339
  16         V                 0.397725          0.779916
  17         V                 0.464230          1.191066
  18         V                 0.487299          1.424698
  19         V                 0.493879          1.302022
  20         V                 0.590882          1.651700
  21         V                 0.665614          1.572057
  22         V                 0.690477          2.147369
  23         V                 0.772746          2.437141
  24         V                 0.775102          2.306902
  25         V                 0.845136          1.088190
  26         V                 0.951222          3.418510
  27         V                 2.231915          3.923531
  28         V                 2.290212          4.028362
  29         V                 2.332126          4.303761
  30         V                 2.407435          4.519642
  31         V                 2.670810          6.300602
  32         V                 2.818273          6.308090
  33         V                 2.877864          6.135408
  34         V                 2.952362          6.225638
  35         V                 3.139246          6.821624
  36         V                 3.319570          6.402129
  37         V                23.352090         60.074745
  38         V                23.704820         60.203105
 Total kinetic energy from orbitals= 7.814487885371D+01
 Calling FoFJK, ICntrl=      2127 FMM=F ISym2X=0 I1Cent= 0 IOpClX= 0 NMat=1 NMatS=1 NMatT=0.
 -------------------------------------------------------------------
 Center     Atomic                   Forces (Hartrees/Bohr)
 Number     Number              X              Y              Z
 -------------------------------------------------------------------
      1        6           0.014559510    0.006521509   -0.002046853
      2        1          -0.010117514    0.008625114    0.001086150
      3        1           0.002666989   -0.004301034    0.000962273
      4        6           0.009826500    0.005451952   -0.002506784
      5        1           0.001853085   -0.011117598    0.001195282
      6        1          -0.018788569   -0.005179942    0.001309933
 -------------------------------------------------------------------
 Cartesian Forces:  Max     0.018788569 RMS     0.007837810

 GradGradGradGradGradGradGradGradGradGradGradGradGradGradGradGradGradGrad
 Berny optimization.
 Search for a local minimum.
 Step number   1 out of a maximum of    2
 All quantities printed in internal units (Hartrees-Bohrs-Radians)
 Second derivative matrix not updated -- first step.
 The second derivative matrix:
                          X1        Y1        Z1        X2        Y2
           X1           0.75550
           Y1           0.09927   0.85398
           Z1           0.00295   0.00469   0.17045
           X2          -0.16156   0.09371   0.00109   0.13896
           Y2           0.09995  -0.28081  -0.00388  -0.11298   0.26971
           Z2           0.00171  -0.00486  -0.05469  -0.00157   0.00403
           X3          -0.35260  -0.00128  -0.00416  -0.00018  -0.00010
           Y3          -0.00722  -0.11004  -0.00102   0.03242   0.01868
           Z3          -0.00532  -0.00099  -0.05581   0.00079   0.00029
           X4          -0.26639  -0.17723  -0.00047   0.02278   0.01313
           Y4          -0.17799  -0.47122  -0.00082  -0.01316  -0.00758
           Z4           0.00065   0.00115  -0.09403  -0.00032  -0.00044
           X5           0.02346  -0.01355   0.00035  -0.00000   0.00000
           Y5           0.01193  -0.00689   0.00048   0.00000  -0.00000
           Z5          -0.00025   0.00015   0.01725   0.00013  -0.00007
           X6           0.00159  -0.00092   0.00023  -0.00000   0.00000
           Y6          -0.02594   0.01498   0.00054   0.00000  -0.00000
           Z6           0.00026  -0.00014   0.01683  -0.00013   0.00007
                          Z2        X3        Y3        Z3        X4
           Z2           0.02824
           X3          -0.00015   0.35264
           Y3           0.00083   0.00146   0.07595
           Z3           0.01053   0.00453   0.00069   0.02917
           X4           0.00030   0.00015  -0.02668  -0.00030   0.71248
           Y4          -0.00017  -0.00008   0.01540   0.00018   0.11747
           Z4           0.01586  -0.00022  -0.00050   0.01618  -0.00297
           X5          -0.00014  -0.00000   0.00000   0.00014  -0.14927
           Y5           0.00009   0.00000  -0.00000  -0.00009   0.09495
           Z5           0.00920   0.00013  -0.00008  -0.00936  -0.00181
           X6          -0.00015  -0.00000   0.00000   0.00015  -0.31975
           Y6           0.00008   0.00000  -0.00000  -0.00008  -0.02164
           Z6          -0.00913  -0.00013   0.00008   0.00929   0.00525
                          Y4        Z4        X5        Y5        Z5
           Y4           0.85952
           Z4          -0.00555   0.17504
           X5           0.08695  -0.00118   0.12780
           Y5          -0.29161   0.00424  -0.10587   0.28199
           Z5           0.00527  -0.05684   0.00160  -0.00451   0.02949
           X6          -0.01319   0.00404  -0.00199  -0.00101   0.00021
           Y6          -0.10452   0.00111   0.03247   0.01651  -0.00077
           Z6           0.00108  -0.05621  -0.00077  -0.00021   0.01026
                          X6        Y6        Z6
           X6           0.32016
           Y6           0.01511   0.07303
           Z6          -0.00447  -0.00088   0.02896
 ITU=  0
     Eigenvalues ---    0.03700   0.04373   0.09387   0.09858   0.13481
     Eigenvalues ---    0.17458   0.26334   0.28880   0.52703   0.70061
     Eigenvalues ---    0.97208   1.55725
 Angle between quadratic step and forces=  31.11 degrees.
 Linear search not attempted -- first point.
 B after Tr=     0.006063    0.006023   -0.005504
         Rot=    1.000000    0.000004   -0.000004   -0.000112 Ang=   0.01 deg.
 Variable       Old X    -DE/DX   Delta X   Delta X   Delta X     New X
                                 (Linear)    (Quad)   (Total)
    X1       -0.63526   0.01456   0.00000   0.02013   0.02644  -0.60882
    Y1       -1.09900   0.00652   0.00000   0.02112   0.02700  -1.07200
    Z1        0.00779  -0.00205   0.00000  -0.01127  -0.01676  -0.00897
    X2        0.40468  -0.01012   0.00000  -0.03194  -0.02523   0.37945
    Y2       -2.90238   0.00863   0.00000   0.03391   0.04002  -2.86237
    Z2       -0.02124   0.00109   0.00000   0.01400   0.00851  -0.01272
    X3       -2.68739   0.00267   0.00000   0.02753   0.03384  -2.65355
    Y3       -1.10993  -0.00430   0.00000  -0.01890  -0.01347  -1.12341
    Z3       -0.02099   0.00096   0.00000   0.01379   0.00832  -0.01267
    X4        0.63032   0.00983   0.00000   0.00495   0.01077   0.64108
    Y4        1.09257   0.00545   0.00000   0.00383   0.01000   1.10256
    Z4        0.00663  -0.00251   0.00000  -0.01152  -0.01703  -0.01041
    X5       -0.31292   0.00185   0.00000  -0.00544  -0.00003  -0.31294
    Y5        2.94636  -0.01112   0.00000  -0.03697  -0.03102   2.91534
    Z5       -0.02554   0.00120   0.00000   0.01408   0.00856  -0.01698
    X6        2.73250  -0.01879   0.00000  -0.05159  -0.04579   2.68671
    Y6        1.22068  -0.00518   0.00000  -0.03914  -0.03252   1.18817
    Z6       -0.02595   0.00131   0.00000   0.01394   0.00840  -0.01754
         Item               Value     Threshold  Converged?
 Maximum Force            0.018789     0.000450     NO 
 RMS     Force            0.007838     0.000300     NO 
 Maximum Displacement     0.045790     0.001800     NO 
 RMS     Displacement     0.023783     0.001200     NO 
 Predicted change in Energy=-1.479562D-03
 GradGradGradGradGradGradGradGradGradGradGradGradGradGradGradGradGradGrad

 Unable to Open any file for archive entry.
 1\1\GINC-BHD0016\Force\RwB97XD\6-311G\C2H4\BWEIGHT\11-Jan-2023\0\\# WB
 97XD/6-311G SCF=XQC FORCE nosym pop=full guess=read\\MD Step 1000\\0,1
 \C,-0.33616288,-0.58156593,0.00412275\H,0.21414918,-1.53587459,-0.0112
 3901\H,-1.42210788,-0.58735225,-0.01110663\C,0.33355006,0.57816139,0.0
 0350626\H,-0.16558804,1.5591461,-0.01351324\H,1.4459777,0.64595815,-0.
 01373139\\Version=ES64L-G16RevC.01\HF=-78.5559151\RMSD=4.581e-09\RMSF=
 7.838e-03\Dipole=-0.0017062,0.0087032,-0.0211378\Quadrupole=0.8663418,
 0.854794,-1.7211359,0.00739,-0.0019175,-0.0027026\PG=C01 [X(C2H4)]\\@
 The archive entry for this job was punched.


 THAT'S WHAT MAKES US A GREAT COUNTRY.
 THE LITTLE THINGS ARE SERIOUS AND THE BIG ONES ARE NOT.
           WILL ROGERS
 Job cpu time:       0 days  0 hours  0 minutes 43.1 seconds.
 Elapsed time:       0 days  0 hours  0 minutes 16.3 seconds.
 File lengths (MBytes):  RWF=    272 Int=      0 D2E=      0 Chk=     32 Scr=     32
 Normal termination of Gaussian 16 at Wed Jan 11 18:37:09 2023.
