6
MD Step 0
C  -0.33763715 -0.58748864 0.00000000
H  0.19552659 -1.51519357 0.00000000
H  -1.40763715 -0.58748864 0.00000000
C  0.33763715 0.58748865 0.00000000
H  -0.19552659 1.51519357 0.00000000
H  1.40763715 0.58748865 0.00000000
6
MD Step 1
C  -0.33800541 -0.58783520 -0.00039361
H  0.19788639 -1.51299110 0.00234559
H  -1.40542237 -0.58521423 0.00234606
C  0.33721692 0.58704735 -0.00039414
H  -0.19318710 1.51768798 0.00234735
H  1.41011879 0.58990550 0.00234781
6
MD Step 2
C  -0.33831090 -0.58807855 -0.00078063
H  0.20023015 -1.51113646 0.00465191
H  -1.40356688 -0.58312803 0.00465293
C  0.33675579 0.58652083 -0.00078166
H  -0.19090312 1.52041079 0.00465531
H  1.41277062 0.59241559 0.00465614
6
MD Step 3
C  -0.33855770 -0.58822541 -0.00116854
H  0.20260110 -1.50959504 0.00696339
H  -1.40206960 -0.58119231 0.00696530
C  0.33625127 0.58590559 -0.00116995
H  -0.18862287 1.52337674 0.00696797
H  1.41557488 0.59505370 0.00696880
6
MD Step 4
C  -0.33874388 -0.58827686 -0.00155804
H  0.20499893 -1.50836544 0.00928420
H  -1.40096062 -0.57940870 0.00928776
C  0.33570796 0.58520587 -0.00155960
H  -0.18633267 1.52655478 0.00928891
H  1.41847043 0.59781335 0.00928900
6
MD Step 5
C  -0.33886379 -0.58823053 -0.00194536
H  0.20739329 -1.50746611 0.01159159
H  -1.40028664 -0.57780482 0.01159815
C  0.33513517 0.58443132 -0.00194664
H  -0.18404401 1.52988225 0.01159467
H  1.42136777 0.60066024 0.01159276
6
MD Step 6
C  -0.33891079 -0.58808319 -0.00232471
H  0.20973888 -1.50692042 0.01385097
H  -1.40009466 -0.57641914 0.01386257
C  0.33454428 0.58359437 -0.00232509
H  -0.18177907 1.53328109 0.01384973
H  1.42416626 0.60354743 0.01384395
6
MD Step 7
C  -0.33888392 -0.58783728 -0.00269497
H  0.21201534 -1.50671714 0.01605541
H  -1.40039096 -0.57526130 0.01607487
C  0.33394196 0.58270340 -0.00269361
H  -0.17953164 1.53669873 0.01604618
H  1.42679586 0.60645518 0.01603406
6
MD Step 8
C  -0.33878515 -0.58749806 -0.00305678
H  0.21421052 -1.50682814 0.01820862
H  -1.40115806 -0.57432915 0.01823949
C  0.33333289 0.58176554 -0.00305263
H  -0.17728474 1.54009215 0.01818667
H  1.42920150 0.60937401 0.01816514
6
MD Step 9
C  -0.33862172 -0.58707592 -0.00341499
H  0.21633543 -1.50719465 0.02033938
H  -1.40234075 -0.57359430 0.02038579
C  0.33271736 0.58078408 -0.00340678
H  -0.17499667 1.54344333 0.02029887
H  1.43135853 0.61231928 0.02026441
6
MD Step 10
C  -0.33839658 -0.58657671 -0.00376913
H  0.21836797 -1.50778518 0.02244475
H  -1.40390441 -0.57305896 0.02251140
C  0.33210072 0.57976794 -0.00375539
H  -0.17265816 1.54670318 0.02237880
H  1.43321625 0.61527439 0.02232744
6
MD Step 11
C  -0.33810899 -0.58600237 -0.00411405
H  0.22025765 -1.50859226 0.02449413
H  -1.40583207 -0.57275181 0.02458626
C  0.33149271 0.57873085 -0.00409318
H  -0.17028873 1.54979667 0.02439492
H  1.43470285 0.61819500 0.02432222
6
MD Step 12
C  -0.33776165 -0.58535802 -0.00444716
H  0.22196905 -1.50959029 0.02647228
H  -1.40808217 -0.57268491 0.02659549
C  0.33090012 0.57768400 -0.00441748
H  -0.16789414 1.55266685 0.02633116
H  1.43576954 0.62105228 0.02623233
6
MD Step 13
C  -0.33736343 -0.58465463 -0.00477120
H  0.22349869 -1.51072008 0.02839565
H  -1.41057375 -0.57283743 0.02855543
C  0.33032400 0.57663317 -0.00473094
H  -0.16545048 1.55529208 0.02820317
H  1.43640754 0.62384933 0.02807345
6
MD Step 14
C  -0.33692018 -0.58389989 -0.00508525
H  0.22482236 -1.51194323 0.03025906
H  -1.41324195 -0.57320887 0.03046070
C  0.32976867 0.57558762 -0.00503262
H  -0.16295763 1.55763330 0.03000515
H  1.43659478 0.62656800 0.02983984
6
MD Step 15
C  -0.33643691 -0.58310042 -0.00538698
H  0.22590902 -1.51322962 0.03204911
H  -1.41602643 -0.57380564 0.03229766
C  0.32923936 0.57455770 -0.00532028
H  -0.16042604 1.55964808 0.03172338
H  1.43630962 0.62918239 0.03151781
6
MD Step 16
C  -0.33592535 -0.58226933 -0.00568048
H  0.22676735 -1.51451213 0.03379045
H  -1.41882702 -0.57459508 0.03408990
C  0.32873449 0.57354704 -0.00559800
H  -0.15783095 1.56133722 0.03338206
H  1.43557713 0.63170510 0.03313230
6
MD Step 17
C  -0.33539035 -0.58141268 -0.00596264
H  0.22736590 -1.51576794 0.03546520
H  -1.42158636 -0.57558569 0.03581893
C  0.32825917 0.57256594 -0.00586288
H  -0.15519259 1.56266468 0.03496333
H  1.43438843 0.63410689 0.03466579
6
MD Step 18
C  -0.33483556 -0.58053512 -0.00622905
H  0.22766814 -1.51698437 0.03704785
H  -1.42425658 -0.57679249 0.03745871
C  0.32781934 0.57162548 -0.00611079
H  -0.15254158 1.56359277 0.03644200
H  1.43273554 0.63635157 0.03609326
6
MD Step 19
C  -0.33426788 -0.57964444 -0.00647855
H  0.22765981 -1.51813235 0.03853238
H  -1.42677330 -0.57820998 0.03900221
C  0.32741717 0.57073287 -0.00634088
H  -0.14989199 1.56410958 0.03781240
H  1.43063874 0.63842327 0.03740970
6
MD Step 20
C  -0.33369875 -0.57875290 -0.00671483
H  0.22735791 -1.51915829 0.03994106
H  -1.42904836 -0.57980360 0.04046990
C  0.32704957 0.56988996 -0.00655696
H  -0.14723272 1.56423782 0.03909706
H  1.42815494 0.64033521 0.03863909
6
MD Step 21
C  -0.33313668 -0.57786970 -0.00693887
H  0.22676664 -1.52002884 0.04128012
H  -1.43101557 -0.58155392 0.04186640
C  0.32671570 0.56910056 -0.00676023
H  -0.14457135 1.56399055 0.04030278
H  1.42533286 0.64208552 0.03978951
6
MD Step 22
C  -0.33258138 -0.57699508 -0.00714294
H  0.22584320 -1.52076567 0.04250514
H  -1.43266626 -0.58349105 0.04314719
C  0.32642273 0.56837620 -0.00694368
H  -0.14196830 1.56333675 0.04138646
H  1.42217805 0.64362276 0.04081782
6
MD Step 23
C  -0.33203844 -0.57613515 -0.00732584
H  0.22458590 -1.52135752 0.04360962
H  -1.43396133 -0.58560678 0.04430462
C  0.32617099 0.56772131 -0.00710653
H  -0.13944894 1.56228951 0.04234269
H  1.41874101 0.64493438 0.04171959
6
MD Step 24
C  -0.33151441 -0.57529690 -0.00748784
H  0.22300526 -1.52178930 0.04459589
H  -1.43486079 -0.58788363 0.04533962
C  0.32595889 0.56713800 -0.00724946
H  -0.13703232 1.56087696 0.04317495
H  1.41508762 0.64601775 0.04249958
6
MD Step 25
C  -0.33101604 -0.57448747 -0.00763003
H  0.22111966 -1.52204661 0.04547078
H  -1.43532868 -0.59029922 0.04625745
C  0.32578362 0.56662682 -0.00737387
H  -0.13473519 1.55913763 0.04389125
H  1.41129390 0.64687588 0.04316740
6
MD Step 26
C  -0.33054398 -0.57370776 -0.00774780
H  0.21891807 -1.52215302 0.04620818
H  -1.43537082 -0.59286348 0.04703186
C  0.32564752 0.56619297 -0.00747593
H  -0.13260867 1.55708279 0.04446732
H  1.40740770 0.64748013 0.04369905
6
MD Step 27
C  -0.33010561 -0.57296546 -0.00784427
H  0.21643694 -1.52209300 0.04682655
H  -1.43495770 -0.59554207 0.04767945
C  0.32554516 0.56583344 -0.00755894
H  -0.13066142 1.55477305 0.04492287
H  1.40352468 0.64784734 0.04411620
6
MD Step 28
C  -0.32970335 -0.57226318 -0.00791810
H  0.21369014 -1.52188177 0.04731852
H  -1.43409491 -0.59832613 0.04819224
C  0.32547515 0.56554873 -0.00762207
H  -0.12892871 1.55224768 0.04525227
H  1.39971679 0.64796979 0.04441411
6
MD Step 29
C  -0.32933886 -0.57160277 -0.00796791
H  0.21069438 -1.52153957 0.04767670
H  -1.43279744 -0.60120691 0.04856250
C  0.32543599 0.56533863 -0.00766455
H  -0.12744651 1.54954950 0.04544991
H  1.39605633 0.64784073 0.04458777
6
MD Step 30
C  -0.32902434 -0.57099675 -0.00800430
H  0.20753670 -1.52102365 0.04796187
H  -1.43102189 -0.60410838 0.04884758
C  0.32541467 0.56519097 -0.00769633
H  -0.12618366 1.54679164 0.04557740
H  1.39268180 0.64752223 0.04470232
6
MD Step 31
C  -0.32875017 -0.57043564 -0.00801571
H  0.20418059 -1.52042183 0.04810802
H  -1.42886080 -0.60708051 0.04898409
C  0.32541956 0.56511415 -0.00770726
H  -0.12523378 1.54396253 0.04557117
H  1.38960164 0.64695088 0.04469207
6
MD Step 32
C  -0.32851586 -0.56991925 -0.00800099
H  0.20065078 -1.51976665 0.04810881
H  -1.42635624 -0.61011462 0.04896589
C  0.32544921 0.56510619 -0.00769664
H  -0.12463062 1.54111036 0.04542641
H  1.38687835 0.64612341 0.04455229
6
MD Step 33
C  -0.32832500 -0.56945160 -0.00796417
H  0.19700272 -1.51906486 0.04798704
H  -1.42352942 -0.61317351 0.04881480
C  0.32549749 0.56515991 -0.00766830
H  -0.12437741 1.53831182 0.04516709
H  1.38459670 0.64506647 0.04430807
6
MD Step 34
C  -0.32817263 -0.56902823 -0.00790097
H  0.19324629 -1.51837284 0.04771848
H  -1.42045622 -0.61626725 0.04850812
C  0.32556654 0.56527571 -0.00761865
H  -0.12452166 1.53559481 0.04477039
H  1.38278578 0.64376049 0.04393531
6
MD Step 35
C  -0.32806395 -0.56865507 -0.00781867
H  0.18945711 -1.51768391 0.04734409
H  -1.41715442 -0.61934164 0.04808557
C  0.32564798 0.56544301 -0.00755429
H  -0.12504326 1.53304908 0.04427804
H  1.38152939 0.64225158 0.04347699
6
MD Step 36
C  -0.32799400 -0.56832802 -0.00771449
H  0.18565442 -1.51704956 0.04684790
H  -1.41370501 -0.62239991 0.04753278
C  0.32574354 0.56566077 -0.00747279
H  -0.12597499 1.53070293 0.04367492
H  1.38084220 0.64052958 0.04291649
6
MD Step 37
C  -0.32796539 -0.56805079 -0.00759438
H  0.18190624 -1.51647268 0.04626301
H  -1.41014521 -0.62539705 0.04688257
C  0.32584730 0.56591988 -0.00737939
H  -0.12729644 1.52862789 0.04299459
H  1.38077469 0.63863388 0.04228762
6
MD Step 38
C  -0.32797375 -0.56782039 -0.00745751
H  0.17824171 -1.51599412 0.04558427
H  -1.40655485 -0.62832711 0.04613135
C  0.32596041 0.56621793 -0.00727322
H  -0.12902044 1.52685007 0.04223217
H  1.38132459 0.63656608 0.04158394
6
MD Step 39
C  -0.32801584 -0.56763521 -0.00730482
H  0.17469859 -1.51564365 0.04481635
H  -1.40300687 -0.63117518 0.04528515
C  0.32608300 0.56655124 -0.00715491
H  -0.13114465 1.52539737 0.04139229
H  1.38248481 0.63433811 0.04080873
6
MD Step 40
C  -0.32808800 -0.56749345 -0.00713721
H  0.17131242 -1.51544929 0.04396353
H  -1.39957591 -0.63392758 0.04434974
C  0.32621585 0.56691660 -0.00702495
H  -0.13366144 1.52428856 0.04047893
H  1.38423349 0.63196204 0.03996450
6
MD Step 41
C  -0.32818190 -0.56738896 -0.00695097
H  0.16809080 -1.51546172 0.04300445
H  -1.39636186 -0.63659721 0.04330633
C  0.32636456 0.56731566 -0.00687977
H  -0.13658295 1.52350750 0.03946999
H  1.38650946 0.62942490 0.03902675
6
MD Step 42
C  -0.32829723 -0.56732374 -0.00675101
H  0.16508657 -1.51567931 0.04196581
H  -1.39341361 -0.63914939 0.04218251
C  0.32652704 0.56774241 -0.00672333
H  -0.13986724 1.52307724 0.03839159
H  1.38928796 0.62676263 0.03802080
6
MD Step 43
C  -0.32842540 -0.56729172 -0.00653352
H  0.16230046 -1.51614467 0.04082558
H  -1.39082466 -0.64159915 0.04095868
C  0.32670967 0.56819957 -0.00655188
H  -0.14351551 1.52296274 0.03722048
H  1.39248446 0.62396309 0.03692123
6
MD Step 44
C  -0.32856258 -0.56729165 -0.00629954
H  0.15975686 -1.51686751 0.03958905
H  -1.38865433 -0.64393459 0.03964163
C  0.32691438 0.56868571 -0.00636598
H  -0.14749601 1.52314799 0.03596092
H  1.39603348 0.62104244 0.03573106
6
MD Step 45
C  -0.32870664 -0.56732397 -0.00605164
H  0.15748443 -1.51784311 0.03826979
H  -1.38694496 -0.64613582 0.03824611
C  0.32714174 0.56919835 -0.00616750
H  -0.15176348 1.52361764 0.03462562
H  1.39987148 0.61802611 0.03446217
6
MD Step 46
C  -0.32884928 -0.56738294 -0.00578544
H  0.15546897 -1.51909936 0.03684297
H  -1.38576765 -0.64822230 0.03674902
C  0.32739866 0.56974189 -0.00595226
H  -0.15630709 1.52431061 0.03318812
H  1.40389139 0.61490173 0.03308669
6
MD Step 47
C  -0.32898839 -0.56746880 -0.00550244
H  0.15372508 -1.52062415 0.03531694
H  -1.38514803 -0.65018023 0.03515958
C  0.32768628 0.57031534 -0.00572141
H  -0.16107867 1.52519373 0.03165579
H  1.40801759 0.61169123 0.03161141
6
MD Step 48
C  -0.32913680 -0.56759621 -0.00521923
H  0.15234694 -1.52231451 0.03378339
H  -1.38501447 -0.65191114 0.03356890
C  0.32799136 0.57090355 -0.00548940
H  -0.16594214 1.52631394 0.03012174
H  1.41225885 0.60850142 0.03013033
6
MD Step 49
C  -0.32928259 -0.56775521 -0.00492584
H  0.15127593 -1.52421124 0.03218669
H  -1.38543288 -0.65346703 0.03192253
C  0.32832521 0.57151674 -0.00524718
H  -0.17090887 1.52756489 0.02852818
H  1.41647407 0.60529091 0.02858467
6
MD Step 50
C  -0.32942086 -0.56794240 -0.00461897
H  0.15048678 -1.52631198 0.03050860
H  -1.38641850 -0.65486238 0.03020259
C  0.32869244 0.57215875 -0.00499175
H  -0.17595092 1.52887587 0.02685563
H  1.42056253 0.60205635 0.02695472
6
MD Step 51
C  -0.32955423 -0.56816132 -0.00430242
H  0.14999016 -1.52856919 0.02877055
H  -1.38793309 -0.65607160 0.02843021
C  0.32909048 0.57282649 -0.00472648
H  -0.18099941 1.53021575 0.02512560
H  1.42446832 0.59883481 0.02526230
6
MD Step 52
C  -0.32968687 -0.56841657 -0.00398096
H  0.14979828 -1.53092591 0.02699916
H  -1.38992101 -0.65706424 0.02663151
C  0.32951542 0.57351578 -0.00445564
H  -0.18598042 1.53155909 0.02336520
H  1.42814620 0.59566874 0.02353494
6
MD Step 53
C  -0.32981595 -0.56870539 -0.00365146
H  0.14987588 -1.53336655 0.02517734
H  -1.39236034 -0.65785522 0.02478894
C  0.32997018 0.57422973 -0.00417648
H  -0.19086572 1.53283729 0.02155659
H  1.43151236 0.59255627 0.02175511
6
MD Step 54
C  -0.32993786 -0.56902383 -0.00330950
H  0.15017763 -1.53588036 0.02328099
H  -1.39522671 -0.65846746 0.02287776
C  0.33045836 0.57497234 -0.00388515
H  -0.19563618 1.53397699 0.01967469
H  1.43448295 0.58948817 0.01989815
6
MD Step 55
C  -0.33005958 -0.56937775 -0.00296113
H  0.15071467 -1.53839563 0.02134442
H  -1.39842779 -0.65886497 0.02093140
C  0.33097318 0.57573715 -0.00358725
H  -0.20021549 1.53496785 0.01775484
H  1.43704207 0.58651392 0.01800000
6
MD Step 56
C  -0.33018671 -0.56977125 -0.00261073
H  0.15148661 -1.54084980 0.01939245
H  -1.40187466 -0.65902244 0.01897381
C  0.33150893 0.57651891 -0.00328687
H  -0.20454004 1.53579396 0.01582276
H  1.43917247 0.58367286 0.01608690
6
MD Step 57
C  -0.33031549 -0.57019880 -0.00225275
H  0.15243587 -1.54323701 0.01739481
H  -1.40553047 -0.65897223 0.01697389
C  0.33206874 0.57732144 -0.00297919
H  -0.20860625 1.53638787 0.01384714
H  1.44080904 0.58094779 0.01412810
6
MD Step 58
C  -0.33045185 -0.57066401 -0.00189168
H  0.15356023 -1.54549586 0.01537703
H  -1.40929899 -0.65869088 0.01495638
C  0.33264583 0.57813843 -0.00266842
H  -0.21235747 1.53674427 0.01185439
H  1.44195277 0.57837710 0.01215050
6
MD Step 59
C  -0.33059724 -0.57116570 -0.00152735
H  0.15483071 -1.54759346 0.01333869
H  -1.41310971 -0.65818284 0.01292014
C  0.33323736 0.57896756 -0.00235457
H  -0.21576792 1.53683709 0.00984414
H  1.44258724 0.57597197 0.01015419
6
MD Step 60
C  -0.33074709 -0.57169651 -0.00115357
H  0.15618408 -1.54953412 0.01124560
H  -1.41692747 -0.65748864 0.01083031
C  0.33384576 0.57981186 -0.00203216
H  -0.21885115 1.53661179 0.00778102
H  1.44267073 0.57370828 0.00810425
6
MD Step 61
C  -0.33091040 -0.57226208 -0.00077828
H  0.15763754 -1.55124465 0.00914289
H  -1.42063840 -0.65656910 0.00873157
C  0.33445966 0.58066016 -0.00170856
H  -0.22154450 1.53610101 0.00571145
H  1.44225221 0.57164102 0.00604738
6
MD Step 62
C  -0.33108879 -0.57286059 -0.00040217
H  0.15916767 -1.55269741 0.00703480
H  -1.42417401 -0.65542834 0.00662779
C  0.33507423 0.58150786 -0.00138451
H  -0.22383221 1.53530213 0.00363960
H  1.44134801 0.56978259 0.00398800
6
MD Step 63
C  -0.33128318 -0.57348934 -0.00002555
H  0.16074989 -1.55387133 0.00492336
H  -1.42747316 -0.65407427 0.00452075
C  0.33568465 0.58235027 -0.00106034
H  -0.22570588 1.53421671 0.00156731
H  1.43998108 0.56814180 0.00192808
6
MD Step 64
C  -0.33148907 -0.57414015 0.00035644
H  0.16233169 -1.55477957 0.00278151
H  -1.43051013 -0.65254587 0.00238326
C  0.33629076 0.58318725 -0.00073163
H  -0.22719202 1.53282319 -0.00053359
H  1.43815341 0.56669674 -0.00016045
6
MD Step 65
C  -0.33171167 -0.57481427 0.00073828
H  0.16392116 -1.55538068 0.00064070
H  -1.43320623 -0.65082383 0.00024681
C  0.33688223 0.58400821 -0.00040346
H  -0.22826274 1.53116597 -0.00263133
H  1.43593518 0.56548319 -0.00224591
6
MD Step 66
C  -0.33194832 -0.57550515 0.00112205
H  0.16548481 -1.55568192 -0.00151074
H  -1.43553367 -0.64893399 -0.00190014
C  0.33745582 0.58480958 -0.00007386
H  -0.22893925 1.52925199 -0.00473845
H  1.43336057 0.56449202 -0.00434098
6
MD Step 67
C  -0.33220274 -0.57621247 0.00150290
H  0.16703104 -1.55565563 -0.00364495
H  -1.43743233 -0.64686316 -0.00402947
C  0.33800146 0.58558068 0.00025270
H  -0.22920762 1.52713430 -0.00682721
H  1.43051115 0.56375254 -0.00641824
6
MD Step 68
C  -0.33247662 -0.57693391 0.00187758
H  0.16856126 -1.55528860 -0.00574328
H  -1.43885969 -0.64460855 -0.00612214
C  0.33851062 0.58631216 0.00057329
H  -0.22906814 1.52486234 -0.00887938
H  1.42746526 0.56328334 -0.00845988
6
MD Step 69
C  -0.33276534 -0.57766100 0.00224879
H  0.17004500 -1.55460728 -0.00782110
H  -1.43981641 -0.64220293 -0.00819320
C  0.33898051 0.58700024 0.00089059
H  -0.22856020 1.52245626 -0.01091164
H  1.42427145 0.56306729 -0.01048297
6
MD Step 70
C  -0.33306478 -0.57838583 0.00261824
H  0.17145972 -1.55363753 -0.00988836
H  -1.44030626 -0.63967433 -0.01025219
C  0.33940757 0.58764009 0.00120644
H  -0.22772193 1.51994645 -0.01293519
H  1.42098761 0.56309135 -0.01249920
6
MD Step 71
C  -0.33337457 -0.57910432 0.00298347
H  0.17280967 -1.55238544 -0.01193089
H  -1.44031704 -0.63702690 -0.01228443
C  0.33978438 0.58822270 0.00151870
H  -0.22657088 1.51739191 -0.01493677
H  1.41769877 0.56336555 -0.01449592
6
MD Step 72
C  -0.33369271 -0.57981096 0.00334326
H  0.17409439 -1.55086869 -0.01394163
H  -1.43985224 -0.63427250 -0.01428241
C  0.34010502 0.58874027 0.00182645
H  -0.22513515 1.51484778 -0.01691052
H  1.41448362 0.56389149 -0.01646785
6
MD Step 73
C  -0.33401854 -0.58050179 0.00369465
H  0.17532599 -1.54909886 -0.01590346
H  -1.43891366 -0.63141310 -0.01622843
C  0.34036234 0.58918341 0.00212708
H  -0.22343537 1.51238177 -0.01884039
H  1.41143011 0.56467978 -0.01839962
6
MD Step 74
C  -0.33434672 -0.58116848 0.00403906
H  0.17649341 -1.54711688 -0.01782471
H  -1.43753713 -0.62847664 -0.01813050
C  0.34055400 0.58954726 0.00242224
H  -0.22151990 1.51003726 -0.02073620
H  1.40859746 0.56571440 -0.02030152
6
MD Step 75
C  -0.33467056 -0.58180167 0.00437890
H  0.17758171 -1.54497294 -0.01971977
H  -1.43577250 -0.62549718 -0.02000282
C  0.34067938 0.58982835 0.00271459
H  -0.21944443 1.50785171 -0.02261394
H  1.40603404 0.56697226 -0.02218977
6
MD Step 76
C  -0.33498714 -0.58239610 0.00471259
H  0.17860171 -1.54269584 -0.02157933
H  -1.43365294 -0.62248470 -0.02183582
C  0.34073457 0.59001959 0.00300284
H  -0.21724120 1.50588551 -0.02446556
H  1.40380591 0.56845328 -0.02405668
6
MD Step 77
C  -0.33529334 -0.58294675 0.00503849
H  0.17956632 -1.54031598 -0.02339379
H  -1.43121801 -0.61944859 -0.02361970
C  0.34071646 0.59011446 0.00328561
H  -0.21494166 1.50419701 -0.02628266
H  1.40197131 0.57015692 -0.02589404
6
MD Step 78
C  -0.33558584 -0.58344880 0.00535502
H  0.18048966 -1.53786535 -0.02515380
H  -1.42851368 -0.61639815 -0.02534506
C  0.34062291 0.59010717 0.00356150
H  -0.21257616 1.50284049 -0.02805703
H  1.40057833 0.57208168 -0.02769362
6
MD Step 79
C  -0.33586282 -0.58389947 0.00565896
H  0.18139703 -1.53536648 -0.02684000
H  -1.42558131 -0.61333209 -0.02699238
C  0.34045102 0.58999109 0.00382737
H  -0.21016265 1.50187512 -0.02977010
H  1.39967378 0.57423543 -0.02943690
6
MD Step 80
C  -0.33611125 -0.58428530 0.00595803
H  0.18224862 -1.53290812 -0.02849881
H  -1.42253312 -0.61031482 -0.02860944
C  0.34021002 0.58977173 0.00409127
H  -0.20778208 1.50128720 -0.03146951
H  1.39922556 0.57655936 -0.03116998
6
MD Step 81
C  -0.33632991 -0.58460513 0.00624840
H  0.18307480 -1.53050794 -0.03010699
H  -1.41941406 -0.60733990 -0.03017314
C  0.33989832 0.58944385 0.00434925
H  -0.20544145 1.50112552 -0.03313227
H  1.39925944 0.57906395 -0.03286950
6
MD Step 82
C  -0.33651281 -0.58485354 0.00653097
H  0.18387712 -1.52821079 -0.03166996
H  -1.41629969 -0.60442897 -0.03168996
C  0.33952012 0.58900831 0.00460226
H  -0.20317210 1.50140123 -0.03476406
H  1.39975950 0.58173026 -0.03453981
6
MD Step 83
C  -0.33666523 -0.58503687 0.00679597
H  0.18472243 -1.52599317 -0.03312747
H  -1.41319990 -0.60153684 -0.03309898
C  0.33906942 0.58845611 0.00483969
H  -0.20093438 1.50218186 -0.03630396
H  1.40076340 0.58460445 -0.03612044
6
MD Step 84
C  -0.33677604 -0.58514560 0.00704964
H  0.18557834 -1.52392766 -0.03451760
H  -1.41022310 -0.59871647 -0.03444061
C  0.33855765 0.58779625 0.00506801
H  -0.19878203 1.50342573 -0.03778966
H  1.40219712 0.58763329 -0.03764648
6
MD Step 85
C  -0.33684836 -0.58518485 0.00728496
H  0.18649356 -1.52200073 -0.03579612
H  -1.40739277 -0.59593738 -0.03567046
C  0.33798311 0.58702521 0.00527917
H  -0.19668079 1.50516323 -0.03917558
H  1.40405821 0.59084508 -0.03907237
6
MD Step 86
C  -0.33687449 -0.58514937 0.00750555
H  0.18744883 -1.52026167 -0.03698518
H  -1.40479563 -0.59323505 -0.03681288
C  0.33735596 0.58615210 0.00547671
H  -0.19465767 1.50734753 -0.04048242
H  1.40626731 0.59420061 -0.04041655
6
MD Step 87
C  -0.33685020 -0.58503766 0.00771231
H  0.18844028 -1.51873804 -0.03808968
H  -1.40249578 -0.59062692 -0.03787442
C  0.33668393 0.58518443 0.00566106
H  -0.19271744 1.50993907 -0.04171310
H  1.40875418 0.59767693 -0.04168031
6
MD Step 88
C  -0.33676808 -0.58484531 0.00790964
H  0.18943911 -1.51747535 -0.03913729
H  -1.40057294 -0.58815250 -0.03888549
C  0.33597900 0.58413486 0.00583674
H  -0.19088323 1.51286624 -0.04289302
H  1.41141977 0.60122730 -0.04288644
6
MD Step 89
C  -0.33663214 -0.58457939 0.00809206
H  0.19047710 -1.51645071 -0.04009264
H  -1.39903452 -0.58578742 -0.03981076
C  0.33524278 0.58300659 0.00599691
H  -0.18911145 1.51611259 -0.04398410
H  1.41422459 0.60486710 -0.04399710
6
MD Step 90
C  -0.33643896 -0.58423960 0.00826179
H  0.19153439 -1.51568535 -0.04096964
H  -1.39792747 -0.58355597 -0.04066611
C  0.33448531 0.58181214 0.00614359
H  -0.18740478 1.51960543 -0.04499743
H  1.41707763 0.60856150 -0.04502174
6
MD Step 91
C  -0.33618690 -0.58382736 0.00842020
H  0.19259372 -1.51519013 -0.04177716
H  -1.39728266 -0.58147670 -0.04146213
C  0.33371583 0.58056413 0.00627790
H  -0.18575864 1.52327174 -0.04593883
H  1.41989291 0.61227990 -0.04596482
6
MD Step 92
C  -0.33588517 -0.58335483 0.00855962
H  0.19369417 -1.51491190 -0.04246514
H  -1.39706031 -0.57950876 -0.04214737
C  0.33293365 0.57926599 0.00639027
H  -0.18410855 1.52709352 -0.04675546
H  1.42264505 0.61604986 -0.04677533
6
MD Step 93
C  -0.33552958 -0.58282054 0.00868547
H  0.19478721 -1.51487849 -0.04306926
H  -1.39729520 -0.57769624 -0.04275998
C  0.33215236 0.57793614 0.00648676
H  -0.18247476 1.53096469 -0.04747984
H  1.42522577 0.61981268 -0.04748371
6
MD Step 94
C  -0.33512856 -0.58223545 0.00879260
H  0.19589199 -1.51504359 -0.04355535
H  -1.39794086 -0.57601306 -0.04326438
C  0.33137364 0.57658168 0.00656067
H  -0.18080838 1.53484809 -0.04807529
H  1.42760098 0.62357901 -0.04805502
6
MD Step 95
C  -0.33467283 -0.58159239 0.00889267
H  0.19691445 -1.51546867 -0.04400135
H  -1.39905189 -0.57454392 -0.04374240
C  0.33061774 0.57522865 0.00662593
H  -0.17917260 1.53859559 -0.04861629
H  1.42963059 0.62724749 -0.04856002
6
MD Step 96
C  -0.33417439 -0.58090534 0.00897879
H  0.19788125 -1.51608924 -0.04436261
H  -1.40054949 -0.57325092 -0.04414714
C  0.32988394 0.57388264 0.00667413
H  -0.17751060 1.54218359 -0.04905630
H  1.43130404 0.63083919 -0.04895456
6
MD Step 97
C  -0.33364782 -0.58019053 0.00904256
H  0.19882881 -1.51682719 -0.04458364
H  -1.40233502 -0.57208485 -0.04441999
C  0.32916933 0.57254733 0.00669487
H  -0.17575711 1.54560258 -0.04933878
H  1.43262914 0.63438616 -0.04918529
6
MD Step 98
C  -0.33309793 -0.57945413 0.00908495
H  0.19973120 -1.51766455 -0.04467139
H  -1.40436523 -0.57105767 -0.04456731
C  0.32848109 0.57123647 0.00668924
H  -0.17391095 1.54878540 -0.04946905
H  1.43355949 0.63785870 -0.04925801
6
MD Step 99
C  -0.33252346 -0.57869586 0.00911278
H  0.20052294 -1.51862153 -0.04467280
H  -1.40663120 -0.57021991 -0.04463711
C  0.32783261 0.56997003 0.00666579
H  -0.17201294 1.55163074 -0.04949190
H  1.43401750 0.64118801 -0.04921619
6
MD Step 100
C  -0.33193100 -0.57792318 0.00912616
H  0.20118384 -1.51967251 -0.04458971
H  -1.40907449 -0.56957656 -0.04463007
C  0.32722920 0.56875983 0.00662487
H  -0.17006235 1.55408855 -0.04940823
H  1.43397980 0.64435117 -0.04906162
6
MD Step 101
C  -0.33132946 -0.57714565 0.00912337
H  0.20170668 -1.52077925 -0.04441169
H  -1.41162142 -0.56911952 -0.04453391
C  0.32667349 0.56761495 0.00656461
H  -0.16804952 1.55612817 -0.04920748
H  1.43344492 0.64733867 -0.04878527
6
MD Step 102
C  -0.33072592 -0.57637080 0.00910450
H  0.20207357 -1.52191566 -0.04414047
H  -1.41420891 -0.56885149 -0.04434893
C  0.32616952 0.56654554 0.00648547
H  -0.16597985 1.55771478 -0.04889130
H  1.43240942 0.65013038 -0.04838983
6
MD Step 103
C  -0.33012866 -0.57560725 0.00906857
H  0.20227550 -1.52304916 -0.04377043
H  -1.41676689 -0.56876687 -0.04406778
C  0.32571939 0.56555960 0.00638663
H  -0.16385473 1.55882909 -0.04845468
H  1.43088708 0.65271503 -0.04787169
6
MD Step 104
C  -0.32954608 -0.57486363 0.00901441
H  0.20230709 -1.52414689 -0.04329436
H  -1.41922542 -0.56885738 -0.04368141
C  0.32532422 0.56466372 0.00626698
H  -0.16167718 1.55946196 -0.04789149
H  1.42890327 0.65508474 -0.04722621
6
MD Step 105
C  -0.32898033 -0.57414209 0.00894626
H  0.20212856 -1.52521434 -0.04274223
H  -1.42155429 -0.56914979 -0.04321931
C  0.32499062 0.56386943 0.00613233
H  -0.15948943 1.55957662 -0.04723175
H  1.42645675 0.65719678 -0.04648361
6
MD Step 106
C  -0.32844153 -0.57345281 0.00886092
H  0.20175295 -1.52620892 -0.04209307
H  -1.42367690 -0.56961992 -0.04265843
C  0.32471585 0.56317863 0.00597920
H  -0.15728709 1.55919546 -0.04645675
H  1.42360623 0.65906090 -0.04562705
6
MD Step 107
C  -0.32793667 -0.57280279 0.00875766
H  0.20117995 -1.52710667 -0.04134225
H  -1.42553784 -0.57025837 -0.04199267
C  0.32449916 0.56259455 0.00580710
H  -0.15508450 1.55833390 -0.04556389
H  1.42040386 0.66067291 -0.04465522
6
MD Step 108
C  -0.32746957 -0.57219568 0.00863814
H  0.20039575 -1.52790282 -0.04050179
H  -1.42710411 -0.57107078 -0.04123322
C  0.32434175 0.56212178 0.00561865
H  -0.15291482 1.55700004 -0.04456675
H  1.41689437 0.66201440 -0.04358251
6
MD Step 109
C  -0.32704645 -0.57163756 0.00850139
H  0.19940775 -1.52857754 -0.03956524
H  -1.42833114 -0.57204367 -0.04037244
C  0.32424100 0.56176051 0.00541310
H  -0.15079569 1.55522894 -0.04346150
H  1.41314896 0.66308752 -0.04240626
6
MD Step 110
C  -0.32667104 -0.57113195 0.00834811
H  0.19821511 -1.52912558 -0.03853768
H  -1.42919283 -0.57317369 -0.03941469
C  0.32419544 0.56151137 0.00519184
H  -0.14875813 1.55305299 -0.04225548
H  1.40923506 0.66388537 -0.04113461
6
MD Step 111
C  -0.32634919 -0.57068455 0.00817647
H  0.19683739 -1.52952790 -0.03740662
H  -1.42965344 -0.57443943 -0.03834656
C  0.32420002 0.56137078 0.00495306
H  -0.14681801 1.55052988 -0.04093943
H  1.40524366 0.66442066 -0.03975932
6
MD Step 112
C  -0.32608164 -0.57029577 0.00798869
H  0.19527029 -1.52979582 -0.03618694
H  -1.42971223 -0.57584512 -0.03718275
C  0.32425361 0.56133823 0.00469991
H  -0.14501925 1.54769801 -0.03953034
H  1.40124402 0.66468129 -0.03829773
6
MD Step 113
C  -0.32587207 -0.56996908 0.00778357
H  0.19353509 -1.52992168 -0.03487062
H  -1.42935400 -0.57737185 -0.03591485
C  0.32435077 0.56140822 0.00443141
H  -0.14338463 1.54462506 -0.03802325
H  1.39733139 0.66467992 -0.03674541
6
MD Step 114
C  -0.32572708 -0.56971098 0.00755655
H  0.19167862 -1.52987886 -0.03342666
H  -1.42854946 -0.57897772 -0.03451141
C  0.32448179 0.56157035 0.00414244
H  -0.14191531 1.54140686 -0.03639133
H  1.39362500 0.66445374 -0.03507613
6
MD Step 115
C  -0.32564293 -0.56951742 0.00731192
H  0.18969231 -1.52970222 -0.03188306
H  -1.42733621 -0.58067760 -0.03300091
C  0.32464664 0.56182278 0.00383837
H  -0.14066971 1.53808598 -0.03466413
H  1.39018545 0.66398341 -0.03331909
6
MD Step 116
C  -0.32561440 -0.56938290 0.00705462
H  0.18756582 -1.52943413 -0.03027221
H  -1.42576455 -0.58249006 -0.03141639
C  0.32484587 0.56216350 0.00352533
H  -0.13970983 1.53470394 -0.03287519
H  1.38706641 0.66324682 -0.03150723
6
MD Step 117
C  -0.32564894 -0.56931501 0.00677706
H  0.18537299 -1.52903832 -0.02854351
H  -1.42381088 -0.58435241 -0.02970729
C  0.32506615 0.56257619 0.00319466
H  -0.13901573 1.53138548 -0.03097825
H  1.38439821 0.66230522 -0.02959426
6
MD Step 118
C  -0.32574179 -0.56930897 0.00648239
H  0.18312002 -1.52855070 -0.02671694
H  -1.42152939 -0.58627048 -0.02789442
C  0.32530616 0.56305555 0.00285013
H  -0.13863399 1.52818602 -0.02899462
H  1.38223433 0.66115115 -0.02760063
6
MD Step 119
C  -0.32588824 -0.56936024 0.00617304
H  0.18081965 -1.52800468 -0.02480758
H  -1.41897695 -0.58824510 -0.02599369
C  0.32556409 0.56359514 0.00249457
H  -0.13860340 1.52516394 -0.02694055
H  1.38062332 0.65978292 -0.02554163
6
MD Step 120
C  -0.32608653 -0.56946745 0.00584799
H  0.17850788 -1.52741365 -0.02280831
H  -1.41619533 -0.59025531 -0.02399882
C  0.32583484 0.56418479 0.00212685
H  -0.13893730 1.52239578 -0.02481052
H  1.37962391 0.65822146 -0.02341081
6
MD Step 121
C  -0.32633182 -0.56962629 0.00550858
H  0.17620684 -1.52680706 -0.02072693
H  -1.41324719 -0.59229481 -0.02191858
C  0.32611637 0.56481686 0.00174839
H  -0.13965896 1.51993775 -0.02261316
H  1.37926664 0.65647345 -0.02121567
6
MD Step 122
C  -0.32661560 -0.56982894 0.00515914
H  0.17392028 -1.52623391 -0.01859034
H  -1.41021916 -0.59437607 -0.01978090
C  0.32641044 0.56548714 0.00136386
H  -0.14080483 1.51781987 -0.02037519
H  1.37954849 0.65452712 -0.01898180
6
MD Step 123
C  -0.32693368 -0.57007218 0.00479940
H  0.17168084 -1.52571439 -0.01639624
H  -1.40717251 -0.59648306 -0.01758439
C  0.32671450 0.56618711 0.00097280
H  -0.14237664 1.51609207 -0.01809471
H  1.38048005 0.65240000 -0.01670633
6
MD Step 124
C  -0.32727674 -0.57034780 0.00443373
H  0.16949190 -1.52529664 -0.01417138
H  -1.40419951 -0.59862849 -0.01535670
C  0.32703150 0.56691365 0.00057972
H  -0.14439785 1.51476528 -0.01579785
H  1.38202779 0.65008122 -0.01441444
6
MD Step 125
C  -0.32764031 -0.57065263 0.00406159
H  0.16738627 -1.52499702 -0.01191191
H  -1.40136233 -0.60079510 -0.01309473
C  0.32735977 0.56765934 0.00018384
H  -0.14685468 1.51386954 -0.01348058
H  1.38417367 0.64759072 -0.01210148