6
MD Step 0
C  -0.33763715 -0.58748864 0.00000000
H  0.19552659 -1.51519357 0.00000000
H  -1.40763715 -0.58748864 0.00000000
C  0.33763715 0.58748865 0.00000000
H  -0.19552659 1.51519357 0.00000000
H  1.40763715 0.58748865 0.00000000
6
MD Step 1
C  -0.33800559 -0.58783574 -0.00039443
H  0.19788740 -1.51299236 0.00235131
H  -1.40542064 -0.58520780 0.00235020
C  0.33721626 0.58704659 -0.00039498
H  -0.19318381 1.51768974 0.00235314
H  1.41012271 0.58991396 0.00235203
6
MD Step 2
C  -0.33831934 -0.58808771 -0.00079037
H  0.20028036 -1.51109073 0.00471155
H  -1.40351524 -0.58306697 0.00470942
C  0.33674639 0.58651122 -0.00079144
H  -0.19084835 1.52046250 0.00471510
H  1.41282659 0.59248068 0.00471277
6
MD Step 3
C  -0.33857180 -0.58824065 -0.00118469
H  0.20268565 -1.50951757 0.00706206
H  -1.40198419 -0.58109171 0.00705927
C  0.33623573 0.58588969 -0.00118616
H  -0.18853146 1.52346308 0.00706684
H  1.41566672 0.59516030 0.00706295
6
MD Step 4
C  -0.33876062 -0.58829524 -0.00157775
H  0.20510086 -1.50827384 0.00940486
H  -1.40086051 -0.57928589 0.00940219
C  0.33568931 0.58518663 -0.00157938
H  -0.18622158 1.52665797 0.00940981
H  1.41857904 0.59794405 0.00940359
6
MD Step 5
C  -0.33887992 -0.58824893 -0.00196556
H  0.20749439 -1.50737931 0.01171598
H  -1.40019252 -0.57767842 0.01171485
C  0.33511667 0.58441193 -0.00196692
H  -0.18393143 1.52998315 0.01171930
H  1.42147251 0.60079630 0.01170946
6
MD Step 6
C  -0.33893313 -0.58810853 -0.00235244
H  0.20988100 -1.50679717 0.01402091
H  -1.39996695 -0.57624769 0.01402340
C  0.33451911 0.58356792 -0.00235288
H  -0.18162314 1.53342069 0.01401984
H  1.42430669 0.60373016 0.01400455
6
MD Step 7
C  -0.33891648 -0.58787371 -0.00273447
H  0.21222382 -1.50653296 0.01629623
H  -1.40020742 -0.57501997 0.01630520
C  0.33390611 0.58266582 -0.00273314
H  -0.17930701 1.53690116 0.01628699
H  1.42699432 0.60670919 0.01626376
6
MD Step 8
C  -0.33883497 -0.58755284 -0.00311548
H  0.21452955 -1.50654013 0.01856447
H  -1.40087894 -0.57397451 0.01858351
C  0.33327931 0.58170965 -0.00311127
H  -0.17694721 1.54039984 0.01854216
H  1.42949800 0.60974245 0.01850794
6
MD Step 9
C  -0.33868390 -0.58714442 -0.00348852
H  0.21673898 -1.50683092 0.02078413
H  -1.40199880 -0.57315349 0.02081766
C  0.33265094 0.58071463 -0.00348011
H  -0.17457223 1.54382753 0.02074273
H  1.43172091 0.61277453 0.02069383
6
MD Step 10
C  -0.33846259 -0.58665076 -0.00384959
H  0.21880920 -1.50739510 0.02293141
H  -1.40355460 -0.57258019 0.02298460
C  0.33202996 0.57969324 -0.00383550
H  -0.17219359 1.54711371 0.02286384
H  1.43359034 0.61576763 0.02279598
6
MD Step 11
C  -0.33818197 -0.58608548 -0.00420529
H  0.22075930 -1.50815563 0.02504547
H  -1.40545972 -0.57221377 0.02512373
C  0.33141442 0.57864756 -0.00418382
H  -0.16976127 1.55025283 0.02494350
H  1.43510400 0.61874693 0.02485219
6
MD Step 12
C  -0.33784372 -0.58545266 -0.00455201
H  0.22254778 -1.50909309 0.02710504
H  -1.40767897 -0.57207247 0.02721417
C  0.33081215 0.57758985 -0.00452137
H  -0.16728712 1.55318165 0.02695957
H  1.43620669 0.62167732 0.02683996
6
MD Step 13
C  -0.33745363 -0.58476019 -0.00488946
H  0.22415305 -1.51016659 0.02910851
H  -1.41014987 -0.57215373 0.02925435
C  0.33022733 0.57652898 -0.00484777
H  -0.16476534 1.55586009 0.02890959
H  1.43687102 0.62454358 0.02875675
6
MD Step 14
C  -0.33701244 -0.58401065 -0.00521156
H  0.22552036 -1.51136832 0.03102020
H  -1.41283816 -0.57248761 0.03120879
C  0.32966939 0.57547935 -0.00515703
H  -0.16222626 1.55821839 0.03075742
H  1.43704413 0.62729681 0.03056608
6
MD Step 15
C  -0.33653294 -0.58321839 -0.00552380
H  0.22666467 -1.51262196 0.03287298
H  -1.41563661 -0.57303459 0.03310950
C  0.32913581 0.57444357 -0.00545456
H  -0.15963443 1.56026028 0.03253526
H  1.43675083 0.62995717 0.03230077
6
MD Step 16
C  -0.33601862 -0.58238819 -0.00582184
H  0.22754494 -1.51390991 0.03464173
H  -1.41849397 -0.57381161 0.03493110
C  0.32863334 0.57343362 -0.00573623
H  -0.15701471 1.56193700 0.03421790
H  1.43596690 0.63248750 0.03393563
6
MD Step 17
C  -0.33548236 -0.58153410 -0.00611065
H  0.22817705 -1.51516155 0.03635627
H  -1.42130388 -0.57477982 0.03670190
C  0.32815904 0.57245179 -0.00600698
H  -0.15434016 1.56326033 0.03583477
H  1.43473188 0.63490611 0.03550119
6
MD Step 18
C  -0.33492489 -0.58065778 -0.00638272
H  0.22850622 -1.51638198 0.03797291
H  -1.42403515 -0.57597229 0.03837801
C  0.32772181 0.57151217 -0.00625973
H  -0.15165960 1.56417486 0.03734270
H  1.43302067 0.63715872 0.03695417
6
MD Step 19
C  -0.33435166 -0.57976543 -0.00663528
H  0.22850859 -1.51755127 0.03947616
H  -1.42663131 -0.57739293 0.03994310
C  0.32732535 0.57062350 -0.00649207
H  -0.14899672 1.56465964 0.03872667
H  1.43084524 0.63922006 0.03828000
6
MD Step 20
C  -0.33377384 -0.57886895 -0.00687159
H  0.22819849 -1.51861780 0.04088581
H  -1.42900479 -0.57900959 0.04141513
C  0.32696686 0.56978797 -0.00670742
H  -0.14634307 1.56473555 0.04000678
H  1.42826156 0.64110103 0.03950024
6
MD Step 21
C  -0.33319819 -0.57797564 -0.00709064
H  0.22756852 -1.51955909 0.04219656
H  -1.43109871 -0.58081412 0.04278749
C  0.32664728 0.56901122 -0.00690513
H  -0.14371791 1.56440502 0.04117851
H  1.42530885 0.64278855 0.04061137
6
MD Step 22
C  -0.33262649 -0.57708774 -0.00728661
H  0.22658690 -1.52038479 0.04337525
H  -1.43289055 -0.58282513 0.04402664
C  0.32637170 0.56830275 -0.00708007
H  -0.14117068 1.56364934 0.04221008
H  1.42200650 0.64424281 0.04158177
6
MD Step 23
C  -0.33207508 -0.57622209 -0.00746921
H  0.22531515 -1.52101947 0.04447908
H  -1.43427516 -0.58497103 0.04518640
C  0.32612955 0.56765625 -0.00724178
H  -0.13866406 1.56254614 0.04315902
H  1.41847112 0.64551518 0.04247210
6
MD Step 24
C  -0.33154459 -0.57537961 -0.00763243
H  0.22372719 -1.52148388 0.04547372
H  -1.43524716 -0.58727041 0.04623218
C  0.32592519 0.56707981 -0.00738504
H  -0.13625356 1.56108806 0.04399273
H  1.41473441 0.64656688 0.04324998
6
MD Step 25
C  -0.33104175 -0.57456735 -0.00777723
H  0.22184061 -1.52176381 0.04636531
H  -1.43576985 -0.58970140 0.04716852
C  0.32575580 0.56657400 -0.00751116
H  -0.13395680 1.55931369 0.04471864
H  1.41087357 0.64740050 0.04392441
6
MD Step 26
C  -0.33057478 -0.57379386 -0.00790686
H  0.21968933 -1.52183745 0.04717308
H  -1.43580297 -0.59222898 0.04801253
C  0.32561600 0.56613642 -0.00762355
H  -0.13178032 1.55727993 0.04535719
H  1.40698292 0.64803271 0.04451801
6
MD Step 27
C  -0.33014122 -0.57305683 -0.00801412
H  0.21725058 -1.52174836 0.04785593
H  -1.43537619 -0.59487777 0.04872365
C  0.32551031 0.56577392 -0.00771600
H  -0.12979166 1.55498837 0.04586943
H  1.40309941 0.64842113 0.04499155
6
MD Step 28
C  -0.32974472 -0.57236017 -0.00809901
H  0.21454582 -1.52150419 0.04841417
H  -1.43448759 -0.59763136 0.04930117
C  0.32543604 0.56548573 -0.00778891
H  -0.12801856 1.55248598 0.04625729
H  1.39930276 0.64856562 0.04534824
6
MD Step 29
C  -0.32938356 -0.57170229 -0.00815661
H  0.21157149 -1.52114549 0.04882001
H  -1.43317278 -0.60050128 0.04971776
C  0.32539510 0.56527501 -0.00783824
H  -0.12651717 1.54979527 0.04649504
H  1.39564495 0.64843913 0.04556223
6
MD Step 30
C  -0.32906149 -0.57108720 -0.00818860
H  0.20836418 -1.52067993 0.04908338
H  -1.43143898 -0.60346176 0.04998242
C  0.32538300 0.56513802 -0.00786593
H  -0.12530649 1.54697909 0.04659420
H  1.39221428 0.64805321 0.04564627
6
MD Step 31
C  -0.32878521 -0.57052190 -0.00820057
H  0.20498482 -1.52009753 0.04923637
H  -1.42928056 -0.60646539 0.05012537
C  0.32539156 0.56506677 -0.00787741
H  -0.12438326 1.54412393 0.04658811
H  1.38911782 0.64744242 0.04563574
6
MD Step 32
C  -0.32855759 -0.57000959 -0.00819494
H  0.20147842 -1.51941038 0.04929289
H  -1.42671926 -0.60948318 0.05015976
C  0.32541586 0.56505585 -0.00787516
H  -0.12376107 1.54129856 0.04649212
H  1.38643882 0.64662395 0.04554702
6
MD Step 33
C  -0.32837777 -0.56954986 -0.00817110
H  0.19787420 -1.51865176 0.04924928
H  -1.42380351 -0.61250420 0.05008221
C  0.32545428 0.56510247 -0.00785886
H  -0.12346916 1.53855312 0.04630407
H  1.38423487 0.64559804 0.04537786
6
MD Step 34
C  -0.32824496 -0.56914249 -0.00812933
H  0.19420781 -1.51785289 0.04910699
H  -1.42058527 -0.61551311 0.04989455
C  0.32550479 0.56520284 -0.00782892
H  -0.12352927 1.53594047 0.04602663
H  1.38255872 0.64437056 0.04513076
6
MD Step 35
C  -0.32815821 -0.56878734 -0.00807062
H  0.19051952 -1.51704354 0.04887129
H  -1.41712060 -0.61849158 0.04960249
C  0.32556524 0.56535246 -0.00778630
H  -0.12395632 1.53351360 0.04566604
H  1.38145526 0.64295159 0.04481162
6
MD Step 36
C  -0.32811475 -0.56848263 -0.00799482
H  0.18684354 -1.51626152 0.04854091
H  -1.41347911 -0.62142859 0.04920580
C  0.32563520 0.56554801 -0.00773085
H  -0.12476789 1.53131398 0.04522179
H  1.38094986 0.64134514 0.04441896
6
MD Step 37
C  -0.32810948 -0.56822450 -0.00790001
H  0.18320389 -1.51555539 0.04810455
H  -1.40974631 -0.62432403 0.04869488
C  0.32571655 0.56578803 -0.00766077
H  -0.12598728 1.52936697 0.04468305
H  1.38104392 0.63954561 0.04394030
6
MD Step 38
C  -0.32813774 -0.56800982 -0.00778539
H  0.17963015 -1.51496711 0.04755716
H  -1.40600576 -0.62717237 0.04806642
C  0.32581073 0.56607027 -0.00757522
H  -0.12762668 1.52769712 0.04404489
H  1.38173098 0.63755413 0.04336903
6
MD Step 39
C  -0.32820038 -0.56784119 -0.00765652
H  0.17618617 -1.51450169 0.04692925
H  -1.40230809 -0.62993332 0.04735136
C  0.32591381 0.56638686 -0.00747885
H  -0.12965746 1.52635678 0.04333774
H  1.38302619 0.63540803 0.04273509
6
MD Step 40
C  -0.32828926 -0.56771251 -0.00750986
H  0.17288303 -1.51421313 0.04620029
H  -1.39875637 -0.63261853 0.04653181
C  0.32603097 0.56673895 -0.00736821
H  -0.13209636 1.52533847 0.04254056
H  1.38487947 0.63309412 0.04201495
6
MD Step 41
C  -0.32840000 -0.56762167 -0.00734616
H  0.16975330 -1.51412826 0.04537362
H  -1.39542887 -0.63521654 0.04561291
C  0.32616386 0.56712412 -0.00724361
H  -0.13493045 1.52464978 0.04165602
H  1.38725185 0.63062381 0.04120959
6
MD Step 42
C  -0.32852789 -0.56756643 -0.00716593
H  0.16682547 -1.51427103 0.04445137
H  -1.39240214 -0.63771774 0.04459868
C  0.32631466 0.56754062 -0.00710511
H  -0.13814214 1.52428813 0.04068539
H  1.39009178 0.62800814 0.04031861
6
MD Step 43
C  -0.32866710 -0.56754353 -0.00696844
H  0.16411777 -1.51466739 0.04342875
H  -1.38975461 -0.64012009 0.04348641
C  0.32648694 0.56798832 -0.00695165
H  -0.14171514 1.52423527 0.03962276
H  1.39333091 0.62525209 0.03933431
6
MD Step 44
C  -0.32881458 -0.56755258 -0.00675576
H  0.16166016 -1.51532210 0.04231646
H  -1.38754192 -0.64240644 0.04228828
C  0.32668176 0.56846489 -0.00678464
H  -0.14561214 1.52448033 0.03847786
H  1.39690868 0.62237715 0.03826524
6
MD Step 45
C  -0.32896414 -0.56759005 -0.00652626
H  0.15945808 -1.51625433 0.04110482
H  -1.38583116 -0.64458063 0.04099649
C  0.32690360 0.56897182 -0.00660228
H  -0.14981142 1.52498436 0.03723970
H  1.40073799 0.61938532 0.03709895
6
MD Step 46
C  -0.32911249 -0.56765515 -0.00628084
H  0.15752692 -1.51746235 0.03979842
H  -1.38466400 -0.64663238 0.03961692
C  0.32715438 0.56950850 -0.00640503
H  -0.15427248 1.52571626 0.03591180
H  1.40474239 0.61629390 0.03583806
6
MD Step 47
C  -0.32925994 -0.56775048 -0.00602365
H  0.15589546 -1.51891982 0.03841964
H  -1.38405166 -0.64853352 0.03817257
C  0.32743278 0.57007145 -0.00619623
H  -0.15893296 1.52665752 0.03451606
H  1.40886166 0.61313908 0.03450417
6
MD Step 48
C  -0.32939667 -0.56786836 -0.00574740
H  0.15452458 -1.52065770 0.03692792
H  -1.38405591 -0.65032016 0.03662430
C  0.32774775 0.57066813 -0.00596924
H  -0.16379148 1.52772140 0.03301000
H  1.41297136 0.60989437 0.03305368
6
MD Step 49
C  -0.32952468 -0.56801242 -0.00545644
H  0.15343575 -1.52263507 0.03534738
H  -1.38465849 -0.65196277 0.03499630
C  0.32809692 0.57129495 -0.00572781
H  -0.16877885 1.52888385 0.03141753
H  1.41701489 0.60659928 0.03151063
6
MD Step 50
C  -0.32965118 -0.56819093 -0.00515975
H  0.15267180 -1.52477932 0.03372760
H  -1.38580103 -0.65340593 0.03333765
C  0.32847316 0.57194392 -0.00547974
H  -0.17379842 1.53014494 0.02978914
H  1.42096496 0.60331963 0.02992609
6
MD Step 51
C  -0.32976734 -0.56839603 -0.00484879
H  0.15217417 -1.52711099 0.03202165
H  -1.38751017 -0.65469312 0.03160171
C  0.32888514 0.57262347 -0.00521752
H  -0.17885146 1.53140576 0.02807610
H  1.42469977 0.60002407 0.02825103
6
MD Step 52
C  -0.32987924 -0.56863397 -0.00452988
H  0.15196331 -1.52956294 0.03026470
H  -1.38971630 -0.65578441 0.02982285
C  0.32932720 0.57332778 -0.00494677
H  -0.18385575 1.53265135 0.02631444
H  1.42818693 0.59676433 0.02652211
6
MD Step 53
C  -0.32998254 -0.56890029 -0.00419783
H  0.15199219 -1.53212928 0.02842838
H  -1.39240316 -0.65670539 0.02797221
C  0.32980383 0.57406167 -0.00466298
H  -0.18879504 1.53380359 0.02447480
H  1.43133551 0.59352791 0.02471026
6
MD Step 54
C  -0.33007977 -0.56919681 -0.00385407
H  0.15224785 -1.53476432 0.02652100
H  -1.39550706 -0.65744477 0.02605716
C  0.33031283 0.57482331 -0.00436752
H  -0.19361742 1.53482424 0.02256580
H  1.43409950 0.59033923 0.02282471
6
MD Step 55
C  -0.33016768 -0.56951916 -0.00349348
H  0.15267852 -1.53745731 0.02451495
H  -1.39899242 -0.65802884 0.02404922
C  0.33085749 0.57561668 -0.00405607
H  -0.19831021 1.53564194 0.02055899
H  1.43640432 0.58718603 0.02083754
6
MD Step 56
C  -0.33025562 -0.56987490 -0.00312378
H  0.15330210 -1.54012459 0.02245355
H  -1.40274473 -0.65841216 0.02199053
C  0.33142859 0.57643308 -0.00373571
H  -0.20279124 1.53626188 0.01849931
H  1.43825676 0.58412739 0.01879447
6
MD Step 57
C  -0.33034481 -0.57026315 -0.00274399
H  0.15408647 -1.54273177 0.02033207
H  -1.40669413 -0.65859958 0.01987535
C  0.33202452 0.57727163 -0.00340579
H  -0.20703102 1.53664501 0.01638205
H  1.43962327 0.58117308 0.01669143
6
MD Step 58
C  -0.33043942 -0.57068560 -0.00235617
H  0.15501553 -1.54522860 0.01816262
H  -1.41075153 -0.65857997 0.01771482
C  0.33264034 0.57812808 -0.00306838
H  -0.21098677 1.53677464 0.01421993
H  1.44049646 0.57834906 0.01454177
6
MD Step 59
C  -0.33054151 -0.57114155 -0.00196031
H  0.15606098 -1.54757885 0.01594568
H  -1.41483951 -0.65835551 0.01550857
C  0.33327266 0.57899971 -0.00272368
H  -0.21463195 1.53662778 0.01201361
H  1.44086605 0.57566856 0.01234668
6
MD Step 60
C  -0.33065366 -0.57163052 -0.00155708
H  0.15719847 -1.54974515 0.01368570
H  -1.41887831 -0.65792580 0.01326032
C  0.33391696 0.57988260 -0.00237250
H  -0.21794057 1.53619128 0.00976771
H  1.44073481 0.57314766 0.01011127
6
MD Step 61
C  -0.33078249 -0.57215577 -0.00115166
H  0.15842926 -1.55166832 0.01141204
H  -1.42276604 -0.65726651 0.01099885
C  0.33456419 0.58076811 -0.00201967
H  -0.22086597 1.53548348 0.00751254
H  1.44013992 0.57082650 0.00786625
6
MD Step 62
C  -0.33092556 -0.57271149 -0.00074025
H  0.15970475 -1.55334442 0.00910389
H  -1.42645677 -0.65640616 0.00870296
C  0.33521339 0.58165573 -0.00166187
H  -0.22341770 1.53447770 0.00522655
H  1.43907583 0.56869308 0.00559030
6
MD Step 63
C  -0.33108239 -0.57329365 -0.00032147
H  0.16099121 -1.55476022 0.00675401
H  -1.42989655 -0.65536098 0.00636516
C  0.33586104 0.58254221 -0.00129795
H  -0.22559659 1.53316731 0.00290202
H  1.43755939 0.56674778 0.00327586
6
MD Step 64
C  -0.33125918 -0.57390463 0.00009868
H  0.16229795 -1.55586546 0.00439635
H  -1.43299611 -0.65410661 0.00401929
C  0.33649640 0.58341677 -0.00093342
H  -0.22736654 1.53159393 0.00057352
H  1.43565785 0.56503124 0.00095754
6
MD Step 65
C  -0.33145251 -0.57453733 0.00052365
H  0.16358262 -1.55666884 0.00201191
H  -1.43572755 -0.65267414 0.00164642
C  0.33711744 0.58427736 -0.00056515
H  -0.22875061 1.52975143 -0.00177900
H  1.43339204 0.56352908 -0.00138483
6
MD Step 66
C  -0.33166745 -0.57519293 0.00094761
H  0.16485740 -1.55713145 -0.00036620
H  -1.43801818 -0.65104290 -0.00072017
C  0.33771322 0.58511264 -0.00019846
H  -0.22972384 1.52769266 -0.00412227
H  1.43084301 0.56227809 -0.00371819
6
MD Step 67
C  -0.33190125 -0.57586489 0.00137226
H  0.16609380 -1.55726299 -0.00274741
H  -1.43984712 -0.64923683 -0.00308963
C  0.33827990 0.58591827 0.00016829
H  -0.23030952 1.52543297 -0.00646681
H  1.42805458 0.56127058 -0.00605343
6
MD Step 68
C  -0.33215905 -0.57655452 0.00179070
H  0.16731499 -1.55702907 -0.00509224
H  -1.44115297 -0.64723125 -0.00542206
C  0.33880543 0.58668129 0.00052879
H  -0.23048597 1.52304270 -0.00877320
H  1.42512549 0.56054673 -0.00835161
6
MD Step 69
C  -0.33243416 -0.57725149 0.00220757
H  0.16848024 -1.55646752 -0.00742714
H  -1.44195054 -0.64506953 -0.00774347
C  0.33928897 0.58739984 0.00088756
H  -0.23030289 1.52053025 -0.01106957
H  1.42209112 0.56007873 -0.01064139
6
MD Step 70
C  -0.33272312 -0.57794876 0.00262373
H  0.16957301 -1.55559969 -0.00975710
H  -1.44224217 -0.64277412 -0.01005838
C  0.33972630 0.58806829 0.00124564
H  -0.22979236 1.51793017 -0.01336225
H  1.41901142 0.55985899 -0.01292973
6
MD Step 71
C  -0.33302037 -0.57863737 0.00304172
H  0.17056970 -1.55446146 -0.01209669
H  -1.44204883 -0.64037781 -0.01238089
C  0.34011508 0.58868258 0.00160567
H  -0.22899987 1.51527125 -0.01566747
H  1.41593822 0.55986901 -0.01523344
6
MD Step 72
C  -0.33333423 -0.57932225 0.00344958
H  0.17153333 -1.55300881 -0.01437690
H  -1.44131579 -0.63782920 -0.01464123
C  0.34043926 0.58922445 0.00195653
H  -0.22788954 1.51266991 -0.01791650
H  1.41300818 0.56017319 -0.01748475
6
MD Step 73
C  -0.33365677 -0.57999248 0.00385138
H  0.17243642 -1.55129567 -0.01662126
H  -1.44009115 -0.63517109 -0.01686255
C  0.34069894 0.58969153 0.00230238
H  -0.22652174 1.51015101 -0.02013488
H  1.41026173 0.56074158 -0.01970971
6
MD Step 74
C  -0.33399004 -0.58064730 0.00424074
H  0.17331497 -1.54931867 -0.01879263
H  -1.43837061 -0.63238517 -0.01900701
C  0.34088464 0.59007141 0.00263732
H  -0.22489734 1.50780176 -0.02228647
H  1.40779671 0.56160419 -0.02187303
6
MD Step 75
C  -0.33432628 -0.58127659 0.00462073
H  0.17415193 -1.54713369 -0.02090894
H  -1.43621440 -0.62950905 -0.02109235
C  0.34099692 0.59036138 0.00296462
H  -0.22307400 1.50565349 -0.02439112
H  1.40564893 0.56273464 -0.02399482
6
MD Step 76
C  -0.33465900 -0.58187184 0.00499281
H  0.17494183 -1.54479008 -0.02297877
H  -1.43368143 -0.62657090 -0.02312707
C  0.34103560 0.59055765 0.00328598
H  -0.22110019 1.50374563 -0.02645908
H  1.40385608 0.56411503 -0.02608541
6
MD Step 77
C  -0.33498762 -0.58243082 0.00535229
H  0.17571746 -1.54230280 -0.02497434
H  -1.43080137 -0.62356199 -0.02508301
C  0.34099528 0.59065083 0.00359695
H  -0.21898718 1.50215166 -0.02846366
H  1.40248358 0.56576323 -0.02811846
6
MD Step 78
C  -0.33530570 -0.58294595 0.00570007
H  0.17648017 -1.53972168 -0.02690083
H  -1.42764401 -0.62050663 -0.02696555
C  0.34087708 0.59063788 0.00389859
H  -0.21677796 1.50090779 -0.03041139
H  1.40155304 0.56766319 -0.03010013
6
MD Step 79
C  -0.33560854 -0.58341188 0.00603513
H  0.17724392 -1.53708596 -0.02875199
H  -1.42427359 -0.61741723 -0.02876868
C  0.34068115 0.59051468 0.00418994
H  -0.21450173 1.50005640 -0.03229696
H  1.40108606 0.56980963 -0.03202468
6
MD Step 80
C  -0.33588222 -0.58381462 0.00636539
H  0.17796956 -1.53448905 -0.03057532
H  -1.42081318 -0.61435993 -0.03054159
C  0.34041765 0.59028718 0.00447925
H  -0.21223874 1.49957920 -0.03416920
H  1.40103805 0.57214257 -0.03393891
6
MD Step 81
C  -0.33613015 -0.58415789 0.00668187
H  0.17872052 -1.53192072 -0.03231631
H  -1.41728587 -0.61129732 -0.03222938
C  0.34008048 0.58994515 0.00475712
H  -0.20996276 1.49955308 -0.03597342
H  1.40145586 0.57470375 -0.03578824
6
MD Step 82
C  -0.33634897 -0.58443918 0.00698232
H  0.17951965 -1.52940980 -0.03396081
H  -1.41375732 -0.60823201 -0.03381851
C  0.33967121 0.58948637 0.00502101
H  -0.20768379 1.50000565 -0.03769531
H  1.40233359 0.57749364 -0.03755741
6
MD Step 83
C  -0.33652973 -0.58465098 0.00727002
H  0.18035549 -1.52701683 -0.03552833
H  -1.41032765 -0.60519990 -0.03533032
C  0.33919786 0.58891562 0.00527412
H  -0.20544093 1.50092111 -0.03935413
H  1.40361966 0.58047800 -0.03926354
6
MD Step 84
C  -0.33666401 -0.58478669 0.00754799
H  0.18121671 -1.52479805 -0.03703719
H  -1.40709419 -0.60223494 -0.03678534
C  0.33866898 0.58823878 0.00551943
H  -0.20326706 1.50227499 -0.04096750
H  1.40525327 0.58362288 -0.04092178
6
MD Step 85
C  -0.33675228 -0.58484900 0.00781123
H  0.18214052 -1.52275543 -0.03845570
H  -1.40410004 -0.59931995 -0.03815235
C  0.33808528 0.58745462 0.00575103
H  -0.20113979 1.50408318 -0.04250206
H  1.40721527 0.58694354 -0.04249819
6
MD Step 86
C  -0.33678524 -0.58483114 0.00806451
H  0.18310107 -1.52094789 -0.03981321
H  -1.40144431 -0.59649841 -0.03946369
C  0.33745820 0.58657358 0.00597373
H  -0.19909324 1.50629034 -0.04398559
H  1.40941739 0.59039297 -0.04401753
6
MD Step 87
C  -0.33676499 -0.58473793 0.00830249
H  0.18413358 -1.51936565 -0.04107574
H  -1.39915467 -0.59374938 -0.04068577
C  0.33678892 0.58559669 0.00618104
H  -0.19709345 1.50889543 -0.04538163
H  1.41182947 0.59398661 -0.04544311
6
MD Step 88
C  -0.33668867 -0.58456938 0.00852531
H  0.18523657 -1.51802784 -0.04224341
H  -1.39728410 -0.59108553 -0.04182042
C  0.33608458 0.58453198 0.00637249
H  -0.19513676 1.51185447 -0.04668774
H  1.41438271 0.59770460 -0.04677101
6
MD Step 89
C  -0.33655209 -0.58432422 0.00873509
H  0.18639268 -1.51696121 -0.04332946
H  -1.39588823 -0.58853212 -0.04288320
C  0.33535473 0.58339085 0.00654993
H  -0.19322932 1.51510260 -0.04791436
H  1.41699258 0.60151284 -0.04800972
6
MD Step 90
C  -0.33635698 -0.58400705 0.00892937
H  0.18761094 -1.51615736 -0.04431786
H  -1.39498123 -0.58608441 -0.04385874
C  0.33460407 0.58218079 0.00670996
H  -0.19134538 1.51859791 -0.04904232
H  1.41960330 0.60540553 -0.04913984
6
MD Step 91
C  -0.33610272 -0.58361993 0.00910885
H  0.18887722 -1.51562252 -0.04521286
H  -1.39458493 -0.58375748 -0.04475271
C  0.33384071 0.58091360 0.00685283
H  -0.18947771 1.52227308 -0.05007275
H  1.42213957 0.60935561 -0.05016154
6
MD Step 92
C  -0.33578964 -0.58316570 0.00927427
H  0.19017383 -1.51535812 -0.04601952
H  -1.39470864 -0.58156666 -0.04557134
C  0.33307279 0.57960192 0.00697898
H  -0.18761887 1.52605641 -0.05100749
H  1.42452776 0.61333443 -0.05107593
6
MD Step 93
C  -0.33542184 -0.58265065 0.00942393
H  0.19149635 -1.51534442 -0.04672702
H  -1.39533234 -0.57951090 -0.04630381
C  0.33230565 0.57825630 0.00708602
H  -0.18574533 1.52989001 -0.05183267
H  1.42671397 0.61732859 -0.05186951
6
MD Step 94
C  -0.33500536 -0.58208280 0.00955525
H  0.19284357 -1.51555125 -0.04731895
H  -1.39641770 -0.57758311 -0.04693308
C  0.33154347 0.57688675 0.00717055
H  -0.18382858 1.53372091 -0.05252911
H  1.42865477 0.62132976 -0.05252404
6
MD Step 95
C  -0.33454711 -0.58147067 0.00966577
H  0.19421177 -1.51594495 -0.04777955
H  -1.39791546 -0.57577640 -0.04744241
C  0.33079031 0.57550362 0.00722938
H  -0.18184186 1.53749623 -0.05307858
H  1.43031177 0.62532863 -0.05302248
6
MD Step 96
C  -0.33405438 -0.58082292 0.00975343
H  0.19559312 -1.51649097 -0.04809568
H  -1.39976896 -0.57408601 -0.04781731
C  0.33005039 0.57411779 0.00725977
H  -0.17976273 1.54116240 -0.05346589
H  1.43165026 0.62931314 -0.05335099
6
MD Step 97
C  -0.33352598 -0.58013939 0.00982442
H  0.19692370 -1.51720713 -0.04830975
H  -1.40196835 -0.57256159 -0.04810141
C  0.32933690 0.57274924 0.00726937
H  -0.17762568 1.54461394 -0.05373084
H  1.43258751 0.63321606 -0.05354805
6
MD Step 98
C  -0.33296822 -0.57942719 0.00987870
H  0.19817998 -1.51806784 -0.04842294
H  -1.40445516 -0.57121119 -0.04829479
C  0.32865572 0.57141080 0.00725829
H  -0.17542690 1.54779087 -0.05387301
H  1.43308992 0.63701162 -0.05361412
6
MD Step 99
C  -0.33239017 -0.57869602 0.00991422
H  0.19935198 -1.51903211 -0.04842272
H  -1.40715139 -0.57002848 -0.04838290
C  0.32800994 0.57011260 0.00722421
H  -0.17315186 1.55065239 -0.05387898
H  1.43314626 0.64068846 -0.05353750
6
MD Step 100
C  -0.33180066 -0.57795513 0.00992951
H  0.20042650 -1.52006163 -0.04830027
H  -1.40997894 -0.56900991 -0.04835489
C  0.32740277 0.56886475 0.00716555
H  -0.17079263 1.55316032 -0.05373950
H  1.43275056 0.64423241 -0.05331062
6
MD Step 101
C  -0.33120504 -0.57721012 0.00992634
H  0.20136914 -1.52113992 -0.04806912
H  -1.41287999 -0.56817294 -0.04822317
C  0.32684059 0.56768036 0.00708494
H  -0.16836623 1.55526143 -0.05346751
H  1.43188398 0.64760827 -0.05294712
6
MD Step 102
C  -0.33061100 -0.57646884 0.00990447
H  0.20216066 -1.52223703 -0.04772893
H  -1.41578263 -0.56752027 -0.04798561
C  0.32632688 0.56656935 0.00698250
H  -0.16587913 1.55692393 -0.05306284
H  1.43055082 0.65079608 -0.05244821
6
MD Step 103
C  -0.33002719 -0.57574008 0.00986276
H  0.20278980 -1.52331769 -0.04727305
H  -1.41861007 -0.56704734 -0.04763349
C  0.32586339 0.56553963 0.00685725
H  -0.16333474 1.55813027 -0.05251974
H  1.42877107 0.65378366 -0.05180985
6
MD Step 104
C  -0.32945739 -0.57502756 0.00980429
H  0.20321899 -1.52437653 -0.04672373
H  -1.42131681 -0.56677658 -0.04718817
C  0.32545602 0.56460277 0.00671360
H  -0.16076764 1.55884306 -0.05186066
H  1.42654586 0.65653208 -0.05105508
6
MD Step 105
C  -0.32890987 -0.57433960 0.00972783
H  0.20344243 -1.52538078 -0.04607353
H  -1.42383189 -0.56670019 -0.04664023
C  0.32510499 0.56376429 0.00655053
H  -0.15818641 1.55906286 -0.05107987
H  1.42391501 0.65903380 -0.05017989
6
MD Step 106
C  -0.32838736 -0.57367876 0.00963685
H  0.20342528 -1.52633160 -0.04534727
H  -1.42612106 -0.56684039 -0.04601380
C  0.32481514 0.56303367 0.00637302
H  -0.15563369 1.55876762 -0.05020282
H  1.42089612 0.66125163 -0.04921029
6
MD Step 107
C  -0.32790261 -0.57305797 0.00952536
H  0.20319997 -1.52716872 -0.04450454
H  -1.42809159 -0.56715470 -0.04526586
C  0.32457964 0.56240845 0.00617411
H  -0.15309148 1.55800828 -0.04919285
H  1.41757972 0.66321505 -0.04811212
6
MD Step 108
C  -0.32746206 -0.57248361 0.00939259
H  0.20276701 -1.52786997 -0.04354053
H  -1.42969287 -0.56763402 -0.04439029
C  0.32439687 0.56189062 0.00595338
H  -0.15057880 1.55680966 -0.04804775
H  1.41402956 0.66492070 -0.04688451
6
MD Step 109
C  -0.32706812 -0.57195799 0.00924086
H  0.20210967 -1.52843707 -0.04247129
H  -1.43090262 -0.56828834 -0.04340257
C  0.32426801 0.56148417 0.00571423
H  -0.14813707 1.55518483 -0.04678544
H  1.41029626 0.66634698 -0.04554607
6
MD Step 110
C  -0.32672377 -0.57148400 0.00907136
H  0.20122220 -1.52886776 -0.04130523
H  -1.43169906 -0.56911900 -0.04231051
C  0.32419226 0.56119045 0.00545870
H  -0.14580212 1.55316272 -0.04541668
H  1.40644447 0.66748226 -0.04410825
6
MD Step 111
C  -0.32643504 -0.57106768 0.00888185
H  0.20012546 -1.52914036 -0.04002717
H  -1.43204564 -0.57010329 -0.04109810
C  0.32416428 0.56100560 0.00518454
H  -0.14358857 1.55080328 -0.04392980
H  1.40256724 0.66834050 -0.04256042
6
MD Step 112
C  -0.32620834 -0.57071553 0.00866910
H  0.19885070 -1.52923012 -0.03861481
H  -1.43190778 -0.57121071 -0.03974232
C  0.32417698 0.56092329 0.00488819
H  -0.14150544 1.54818058 -0.04230664
H  1.39876832 0.66894487 -0.04088531
6
MD Step 113
C  -0.32604005 -0.57042375 0.00843836
H  0.19737621 -1.52917229 -0.03710305
H  -1.43131639 -0.57246525 -0.03827852
C  0.32423244 0.56094526 0.00457638
H  -0.13961782 1.54531920 -0.04058351
H  1.39509749 0.66926429 -0.03911897
6
MD Step 114
C  -0.32592465 -0.57018661 0.00819591
H  0.19567660 -1.52901264 -0.03553381
H  -1.43031814 -0.57389674 -0.03674927
C  0.32433360 0.56107317 0.00425707
H  -0.13799779 1.54224248 -0.03880330
H  1.39159835 0.66926286 -0.03730376
6
MD Step 115
C  -0.32586628 -0.57000843 0.00793846
H  0.19379335 -1.52873680 -0.03388415
H  -1.42890437 -0.57547124 -0.03513160
C  0.32447223 0.56129711 0.00392653
H  -0.13665445 1.53904180 -0.03694700
H  1.38837703 0.66897054 -0.03542080
6
MD Step 116
C  -0.32586369 -0.56988801 0.00766698
H  0.19174225 -1.52836201 -0.03216009
H  -1.42710324 -0.57718207 -0.03343205
C  0.32464487 0.56161092 0.00358619
H  -0.13562391 1.53578355 -0.03502300
H  1.38550841 0.66839056 -0.03347798
6
MD Step 117
C  -0.32592123 -0.56983009 0.00737657
H  0.18958078 -1.52786964 -0.03032789
H  -1.42491220 -0.57898341 -0.03161718
C  0.32484142 0.56200128 0.00323032
H  -0.13490226 1.53257461 -0.03300166
H  1.38310073 0.66756681 -0.03144533
6
MD Step 118
C  -0.32602485 -0.56982059 0.00707881
H  0.18726091 -1.52735113 -0.02846318
H  -1.42244451 -0.58093511 -0.02976398
C  0.32507029 0.56247208 0.00287256
H  -0.13458918 1.52941472 -0.03095761
H  1.38114738 0.66643658 -0.02939602
6
MD Step 119
C  -0.32617845 -0.56986400 0.00676783
H  0.18485002 -1.52678713 -0.02652655
H  -1.41970708 -0.58298462 -0.02783362
C  0.32532088 0.56300812 0.00250611
H  -0.13466945 1.52641479 -0.02885494
H  1.37974537 0.66505190 -0.02729341
6
MD Step 120
C  -0.32637908 -0.56995801 0.00644358
H  0.18237937 -1.52619754 -0.02451674
H  -1.41675110 -0.58511616 -0.02582579
C  0.32558936 0.56360026 0.00213086
H  -0.13516090 1.52364471 -0.02669397
H  1.37894291 0.66342809 -0.02513673
6
MD Step 121
C  -0.32662173 -0.57009835 0.00610740
H  0.17987248 -1.52561248 -0.02244145
H  -1.41364261 -0.58732252 -0.02374923
C  0.32587393 0.56424092 0.00174819
H  -0.13608526 1.52116001 -0.02448335
H  1.37876619 0.66157230 -0.02293342
6
MD Step 122
C  -0.32689779 -0.57027727 0.00576356
H  0.17733485 -1.52508148 -0.02032738
H  -1.41047126 -0.58961487 -0.02163179
C  0.32617650 0.56492587 0.00136277
H  -0.13747711 1.51899023 -0.02224967
H  1.37920844 0.65947354 -0.02070877
6
MD Step 123
C  -0.32720555 -0.57049429 0.00540936
H  0.17481659 -1.52460974 -0.01815631
H  -1.40728562 -0.59196037 -0.01945615
C  0.32649201 0.56564400 0.00097135
H  -0.13932086 1.51720039 -0.01997570
H  1.38029253 0.65716591 -0.01844461
6
MD Step 124
C  -0.32753890 -0.57074457 0.00504596
H  0.17234287 -1.52422649 -0.01593499
H  -1.40416110 -0.59435063 -0.01723000
C  0.32682013 0.56638886 0.00057501
H  -0.14161841 1.51582061 -0.01766810
H  1.38200159 0.65465933 -0.01614664
6
MD Step 125
C  -0.32789029 -0.57102199 0.00467572
H  0.16993068 -1.52396706 -0.01367766
H  -1.40118109 -0.59678476 -0.01496843
C  0.32716232 0.56715600 0.00017610
H  -0.14437170 1.51486228 -0.01534054
H  1.38429663 0.65195679 -0.01382777
6