6
MD Step 0
C  -0.33763715 -0.58748864 0.00000000
H  0.19552659 -1.51519357 0.00000000
H  -1.40763715 -0.58748864 0.00000000
C  0.33763715 0.58748865 0.00000000
H  -0.19552659 1.51519357 0.00000000
H  1.40763715 0.58748865 0.00000000
6
MD Step 1
C  -0.33800602 -0.58783594 -0.00039503
H  0.19788967 -1.51298490 0.00235230
H  -1.40541917 -0.58521505 0.00235351
C  0.33721614 0.58704657 -0.00039449
H  -0.19317883 1.51769699 0.00235049
H  1.41012058 0.58990913 0.00235172
6
MD Step 2
C  -0.33832055 -0.58808845 -0.00079191
H  0.20028698 -1.51107390 0.00471556
H  -1.40351032 -0.58307942 0.00471807
C  0.33674580 0.58651085 -0.00079080
H  -0.19083633 1.52047896 0.00471184
H  1.41282441 0.59247305 0.00471419
6
MD Step 3
C  -0.33857902 -0.58824713 -0.00119240
H  0.20272791 -1.50946042 0.00710026
H  -1.40194476 -0.58107816 0.00710442
C  0.33622943 0.58588375 -0.00119061
H  -0.18848117 1.52351973 0.00709416
H  1.41569571 0.59518106 0.00709726
6
MD Step 4
C  -0.33876800 -0.58830165 -0.00158587
H  0.20514464 -1.50821132 0.00944292
H  -1.40082189 -0.57928076 0.00944950
C  0.33568311 0.58518094 -0.00158316
H  -0.18616723 1.52671992 0.00943338
H  1.41860422 0.59795873 0.00943644
6
MD Step 5
C  -0.33889364 -0.58826142 -0.00198031
H  0.20757702 -1.50727501 0.01179100
H  -1.40011857 -0.57764467 0.01180139
C  0.33510437 0.58440031 -0.00197625
H  -0.18383580 1.53008688 0.01177621
H  1.42153041 0.60084187 0.01177794
6
MD Step 6
C  -0.33894986 -0.58812380 -0.00237060
H  0.20998371 -1.50667125 0.01411377
H  -1.39987863 -0.57620457 0.01413007
C  0.33450401 0.58355369 -0.00236456
H  -0.18150514 1.53354607 0.01409099
H  1.42437694 0.60378728 0.01408949
6
MD Step 7
C  -0.33893510 -0.58789068 -0.00275509
H  0.21234125 -1.50639236 0.01640121
H  -1.40011263 -0.57497341 0.01642630
C  0.33388927 0.58265006 -0.00274620
H  -0.17917216 1.53704130 0.01636665
H  1.42706972 0.60677180 0.01635937
6
MD Step 8
C  -0.33885328 -0.58756934 -0.00313651
H  0.21465000 -1.50639826 0.01866950
H  -1.40079212 -0.57393679 0.01870699
C  0.33326288 0.58169453 -0.00312369
H  -0.17680740 1.54054134 0.01861823
H  1.42956490 0.60979811 0.01860204
6
MD Step 9
C  -0.33870838 -0.58716697 -0.00351661
H  0.21690236 -1.50664952 0.02092879
H  -1.40188252 -0.57308526 0.02098300
C  0.33262837 0.58069364 -0.00349852
H  -0.17438774 1.54400865 0.02085472
H  1.43181749 0.61286245 0.02082597
6
MD Step 10
C  -0.33849341 -0.58667958 -0.00388512
H  0.21901812 -1.50717348 0.02311797
H  -1.40340942 -0.57247950 0.02319406
C  0.33200102 0.57966619 -0.00386027
H  -0.17196203 1.54733510 0.02301395
H  1.43371692 0.61588955 0.02296828
6
MD Step 11
C  -0.33821469 -0.58611618 -0.00424404
H  0.22098913 -1.50792055 0.02524892
H  -1.40531407 -0.57210596 0.02535247
C  0.33138349 0.57861886 -0.00421075
H  -0.16950746 1.55048758 0.02510672
H  1.43523312 0.61887720 0.02503939
6
MD Step 12
C  -0.33787802 -0.58548500 -0.00459391
H  0.22279844 -1.50884673 0.02732501
H  -1.40753662 -0.57195837 0.02746187
C  0.33077951 0.57755978 -0.00455039
H  -0.16701135 1.55342741 0.02713543
H  1.43633548 0.62181485 0.02704148
6
MD Step 13
C  -0.33748600 -0.58479074 -0.00493123
H  0.22440538 -1.50993008 0.02932560
H  -1.41003341 -0.57205312 0.02950182
C  0.33019643 0.57650102 -0.00487565
H  -0.16448691 1.55609553 0.02907869
H  1.43697767 0.62466822 0.02895288
6
MD Step 14
C  -0.33704931 -0.58404590 -0.00525989
H  0.22581414 -1.51110361 0.03127414
H  -1.41271050 -0.57236134 0.03149533
C  0.32963374 0.57544707 -0.00519034
H  -0.16190569 1.55848133 0.03095919
H  1.43716625 0.62744752 0.03079657
6
MD Step 15
C  -0.33657117 -0.58325522 -0.00557572
H  0.22698247 -1.51234812 0.03314626
H  -1.41551791 -0.57290056 0.03341786
C  0.32909854 0.57441013 -0.00549039
H  -0.15928927 1.56053134 0.03275221
H  1.43686871 0.63011566 0.03254775
6
MD Step 16
C  -0.33606062 -0.58242909 -0.00588002
H  0.22790248 -1.51361271 0.03495018
H  -1.41837086 -0.57365462 0.03527680
C  0.32859200 0.57339661 -0.00577717
H  -0.15662947 1.56223004 0.03446561
H  1.43609412 0.63266869 0.03421481
6
MD Step 17
C  -0.33552068 -0.58157161 -0.00616768
H  0.22853074 -1.51488591 0.03665632
H  -1.42122212 -0.57464375 0.03704217
C  0.32812115 0.57241872 -0.00604585
H  -0.15395841 1.56353007 0.03606995
H  1.43482280 0.63506561 0.03576837
6
MD Step 18
C  -0.33495800 -0.58069034 -0.00643715
H  0.22884744 -1.51613744 0.03825619
H  -1.42400446 -0.57586594 0.03870462
C  0.32768894 0.57148464 -0.00629515
H  -0.15129005 1.56441137 0.03755699
H  1.43306536 0.63728735 0.03720065
6
MD Step 19
C  -0.33438587 -0.57979939 -0.00669363
H  0.22887524 -1.51730034 0.03978114
H  -1.42661369 -0.57727851 0.04029355
C  0.32729115 0.57059526 -0.00653035
H  -0.14860175 1.56490007 0.03895810
H  1.43088118 0.63935548 0.03854455
6
MD Step 20
C  -0.33381277 -0.57890790 -0.00693760
H  0.22861195 -1.51833929 0.04123449
H  -1.42897829 -0.57886566 0.04181074
C  0.32692774 0.56975549 -0.00675214
H  -0.14590153 1.56500075 0.04027710
H  1.42831003 0.64126447 0.03980503
6
MD Step 21
C  -0.33324321 -0.57802095 -0.00716576
H  0.22803687 -1.51924497 0.04259768
H  -1.43105463 -0.58063248 0.04323667
C  0.32660189 0.56897321 -0.00695772
H  -0.14322184 1.56470261 0.04149633
H  1.42537775 0.64298791 0.04096509
6
MD Step 22
C  -0.33268468 -0.57714652 -0.00737822
H  0.22715239 -1.51999289 0.04387202
H  -1.43278625 -0.58256358 0.04457111
C  0.32631297 0.56825222 -0.00714754
H  -0.14057810 1.56402101 0.04261801
H  1.42213743 0.64452016 0.04202818
6
MD Step 23
C  -0.33214587 -0.57629379 -0.00757688
H  0.22597466 -1.52055319 0.04506918
H  -1.43411423 -0.58463274 0.04582375
C  0.32605814 0.56759384 -0.00732374
H  -0.13797809 1.56298781 0.04365465
H  1.41865926 0.64586689 0.04300860
6
MD Step 24
C  -0.33162640 -0.57546268 -0.00775475
H  0.22447190 -1.52095257 0.04614916
H  -1.43503974 -0.58686441 0.04695463
C  0.32584282 0.56700719 -0.00748019
H  -0.13548292 1.56158952 0.04456803
H  1.41496808 0.64698336 0.04386806
6
MD Step 25
C  -0.33113981 -0.57466719 -0.00791999
H  0.22270304 -1.52113568 0.04715983
H  -1.43548544 -0.58919572 0.04800831
C  0.32565729 0.56648598 -0.00762487
H  -0.13306904 1.55990569 0.04540664
H  1.41118128 0.64791335 0.04465821
6
MD Step 26
C  -0.33068435 -0.57390580 -0.00806554
H  0.22064259 -1.52114047 0.04806068
H  -1.43547160 -0.59165109 0.04894449
C  0.32550634 0.56603780 -0.00775161
H  -0.13080198 1.55793323 0.04613197
H  1.40733227 0.64861367 0.04534049
6
MD Step 27
C  -0.33025691 -0.57317560 -0.00818356
H  0.21826424 -1.52101423 0.04880713
H  -1.43503203 -0.59425883 0.04971945
C  0.32539515 0.56567016 -0.00785367
H  -0.12875272 1.55566987 0.04670162
H  1.40345347 0.64903816 0.04587198
6
MD Step 28
C  -0.32986869 -0.57248808 -0.00828202
H  0.21563484 -1.52071925 0.04944529
H  -1.43411958 -0.59695742 0.05037619
C  0.32531341 0.56537470 -0.00793874
H  -0.12690388 1.55320783 0.04716263
H  1.39966951 0.64923207 0.04630288
6
MD Step 29
C  -0.32951510 -0.57183882 -0.00835301
H  0.21273381 -1.52031316 0.04993030
H  -1.43278709 -0.59977543 0.05087116
C  0.32526593 0.56515747 -0.00800006
H  -0.12532846 1.55055256 0.04747248
H  1.39601495 0.64915118 0.04658977
6
MD Step 30
C  -0.32920496 -0.57123692 -0.00840361
H  0.20962820 -1.51977320 0.05030290
H  -1.43101152 -0.60265685 0.05124258
C  0.32524310 0.56500962 -0.00804446
H  -0.12401517 1.54779726 0.04767303
H  1.39260819 0.64883749 0.04677722
6
MD Step 31
C  -0.32893650 -0.57068083 -0.00843053
H  0.20632841 -1.51914013 0.05054438
H  -1.42883834 -0.60560487 0.05147221
C  0.32524532 0.56493165 -0.00806929
H  -0.12301099 1.54497765 0.04774746
H  1.38950512 0.64827470 0.04684829
6
MD Step 32
C  -0.32871021 -0.57017136 -0.00843367
H  0.20286531 -1.51844023 0.05065453
H  -1.42630355 -0.60860468 0.05155988
C  0.32527005 0.56492051 -0.00807487
H  -0.12234356 1.54214837 0.04769719
H  1.38677484 0.64746577 0.04680468
6
MD Step 33
C  -0.32853758 -0.56972052 -0.00842552
H  0.19934189 -1.51763279 0.05070402
H  -1.42338133 -0.61157172 0.05157291
C  0.32530316 0.56496103 -0.00807256
H  -0.12196876 1.53943376 0.04759359
H  1.38454964 0.64648497 0.04672110
6
MD Step 34
C  -0.32840985 -0.56932008 -0.00839795
H  0.19574612 -1.51679668 0.05064650
H  -1.42017126 -0.61453833 0.05146751
C  0.32535060 0.56505737 -0.00805524
H  -0.12195586 1.53683919 0.04739204
H  1.38283512 0.64529040 0.04655073
6
MD Step 35
C  -0.32832245 -0.56896620 -0.00834807
H  0.19209653 -1.51598337 0.05046546
H  -1.41675095 -0.61750794 0.05122871
C  0.32541382 0.56520863 -0.00802049
H  -0.12234156 1.53439619 0.04707715
H  1.38165533 0.64387039 0.04627686
6
MD Step 36
C  -0.32827844 -0.56866294 -0.00828189
H  0.18846165 -1.51519590 0.05019430
H  -1.41315468 -0.62043508 0.05088925
C  0.32548644 0.56540565 -0.00797358
H  -0.12310934 1.53218139 0.04668294
H  1.38107193 0.64226361 0.04593416
6
MD Step 37
C  -0.32826732 -0.56840098 -0.00819167
H  0.18483284 -1.51451516 0.04978908
H  -1.40949962 -0.62335215 0.05040840
C  0.32557568 0.56565233 -0.00790763
H  -0.12431527 1.53018825 0.04616606
H  1.38105575 0.64043197 0.04547624
6
MD Step 38
C  -0.32829041 -0.56818309 -0.00808286
H  0.18127449 -1.51394756 0.04927980
H  -1.40583277 -0.62621850 0.04981637
C  0.32567688 0.56594045 -0.00782731
H  -0.12593700 1.52847741 0.04555669
H  1.38163817 0.63841193 0.04493310
6
MD Step 39
C  -0.32834334 -0.56800660 -0.00795535
H  0.17781852 -1.51352940 0.04866521
H  -1.40223490 -0.62902544 0.04911357
C  0.32579124 0.56626735 -0.00773226
H  -0.12797804 1.52707050 0.04485350
H  1.38280533 0.63620931 0.04430178
6
MD Step 40
C  -0.32841929 -0.56786665 -0.00780682
H  0.17448272 -1.51330706 0.04793167
H  -1.39879997 -0.63177746 0.04828873
C  0.32592253 0.56663286 -0.00762019
H  -0.13044869 1.52596827 0.04404242
H  1.38451740 0.63381819 0.04356597
6
MD Step 41
C  -0.32851686 -0.56776399 -0.00764095
H  0.17131588 -1.51329001 0.04709893
H  -1.39558711 -0.63444619 0.04736279
C  0.32606937 0.56703161 -0.00749398
H  -0.13332000 1.52519630 0.04314271
H  1.38675556 0.63126694 0.04274387
6
MD Step 42
C  -0.32863261 -0.56769752 -0.00745936
H  0.16835254 -1.51349502 0.04617532
H  -1.39266382 -0.63701533 0.04634583
C  0.32623264 0.56746063 -0.00735470
H  -0.13656856 1.52475976 0.04216200
H  1.38947797 0.62857333 0.04184158
6
MD Step 43
C  -0.32876468 -0.56766783 -0.00726533
H  0.16563300 -1.51392489 0.04517822
H  -1.39008365 -0.63946002 0.04525658
C  0.32641198 0.56791589 -0.00720479
H  -0.14015604 1.52466402 0.04111696
H  1.39264153 0.62576507 0.04087465
6
MD Step 44
C  -0.32890358 -0.56766809 -0.00705394
H  0.16314830 -1.51462275 0.04407955
H  -1.38793934 -0.64180189 0.04406967
C  0.32661481 0.56840151 -0.00703956
H  -0.14408438 1.52486007 0.03997802
H  1.39614849 0.62282509 0.03981123
6
MD Step 45
C  -0.32904980 -0.56770126 -0.00683041
H  0.16094214 -1.51556869 0.04290780
H  -1.38625767 -0.64400580 0.04281457
C  0.32683908 0.56891241 -0.00686324
H  -0.14829341 1.52534827 0.03877305
H  1.39995187 0.61979412 0.03867852
6
MD Step 46
C  -0.32920318 -0.56776964 -0.00659894
H  0.15904799 -1.51674256 0.04168545
H  -1.38506130 -0.64604300 0.04151471
C  0.32708366 0.56944484 -0.00667913
H  -0.15272433 1.52611603 0.03752395
H  1.40399386 0.61670778 0.03749785
6
MD Step 47
C  -0.32935300 -0.56786494 -0.00635200
H  0.15742988 -1.51818336 0.04037032
H  -1.38442707 -0.64795079 0.04013002
C  0.32735815 0.57000639 -0.00648032
H  -0.15738004 1.52707927 0.03618658
H  1.40814793 0.61353730 0.03622339
6
MD Step 48
C  -0.32949994 -0.56798986 -0.00609341
H  0.15611078 -1.51985994 0.03898333
H  -1.38435506 -0.64970270 0.03868192
C  0.32766121 0.57059400 -0.00626994
H  -0.16219639 1.52821327 0.03478141
H  1.41235105 0.61031830 0.03487536
6
MD Step 49
C  -0.32964395 -0.56814605 -0.00582549
H  0.15510088 -1.52174350 0.03753706
H  -1.38484042 -0.65128092 0.03718338
C  0.32799256 0.57120614 -0.00604984
H  -0.16711536 1.52948158 0.03332058
H  1.41653287 0.60707869 0.03346578
6
MD Step 50
C  -0.32978194 -0.56833179 -0.00554664
H  0.15438445 -1.52382157 0.03602259
H  -1.38588678 -0.65268989 0.03562585
C  0.32835512 0.57184491 -0.00581850
H  -0.17209936 1.53082380 0.03179434
H  1.42060368 0.60382514 0.03198464
6
MD Step 51
C  -0.32991134 -0.56854545 -0.00525507
H  0.15394066 -1.52607772 0.03443003
H  -1.38748557 -0.65393543 0.03399944
C  0.32875150 0.57251252 -0.00557428
H  -0.17711130 1.53217771 0.03019206
H  1.42447690 0.60056369 0.03042130
6
MD Step 52
C  -0.33003048 -0.56878579 -0.00494915
H  0.15374623 -1.52848996 0.03275073
H  -1.38961417 -0.65502248 0.03229519
C  0.32918357 0.57321073 -0.00531578
H  -0.18211309 1.53348286 0.02850451
H  1.42807286 0.59730188 0.02876676
6
MD Step 53
C  -0.33014124 -0.56905455 -0.00463031
H  0.15379151 -1.53101563 0.03099296
H  -1.39222094 -0.65593920 0.03052065
C  0.32964980 0.57393812 -0.00504435
H  -0.18705049 1.53469770 0.02674006
H  1.43133592 0.59406438 0.02702988
6
MD Step 54
C  -0.33024771 -0.56935515 -0.00430169
H  0.15407367 -1.53359963 0.02917465
H  -1.39523414 -0.65666441 0.02869280
C  0.33014648 0.57469127 -0.00476295
H  -0.19186116 1.53579311 0.02491724
H  1.43422785 0.59088557 0.02522981
6
MD Step 55
C  -0.33035584 -0.56969233 -0.00396794
H  0.15459591 -1.53617685 0.02732210
H  -1.39856541 -0.65716924 0.02683686
C  0.33066796 0.57546492 -0.00447588
H  -0.19647660 1.53675190 0.02306334
H  1.43672686 0.58780789 0.02339459
6
MD Step 56
C  -0.33046478 -0.57006375 -0.00362635
H  0.15531817 -1.53872339 0.02542075
H  -1.40216213 -0.65746763 0.02493733
C  0.33121500 0.57626044 -0.00418091
H  -0.20087311 1.53751916 0.02116356
H  1.43877740 0.58483189 0.02150995
6
MD Step 57
C  -0.33057477 -0.57046772 -0.00327516
H  0.15620450 -1.54121019 0.02346154
H  -1.40596199 -0.65756908 0.02298417
C  0.33178694 0.57707782 -0.00387670
H  -0.20502489 1.53805026 0.01920875
H  1.44033813 0.58196295 0.01956734
6
MD Step 58
C  -0.33068799 -0.57090406 -0.00291456
H  0.15722869 -1.54359857 0.02144610
H  -1.40988931 -0.65747340 0.02097799
C  0.33238084 0.57791469 -0.00356363
H  -0.20889924 1.53831670 0.01720086
H  1.44138772 0.57921640 0.01756932
6
MD Step 59
C  -0.33080583 -0.57137151 -0.00254398
H  0.15835991 -1.54585602 0.01937196
H  -1.41387193 -0.65718593 0.01891544
C  0.33299398 0.57876893 -0.00324143
H  -0.21247199 1.53829153 0.01513753
H  1.44190991 0.57660254 0.01551413
6
MD Step 60
C  -0.33093470 -0.57187339 -0.00216819
H  0.15959711 -1.54792269 0.01726622
H  -1.41780861 -0.65668315 0.01682271
C  0.33361822 0.57963281 -0.00291458
H  -0.21569339 1.53798392 0.01304696
H  1.44192807 0.57416047 0.01343055
6
MD Step 61
C  -0.33107394 -0.57240585 -0.00178489
H  0.16089975 -1.54978225 0.01511655
H  -1.42164115 -0.65598336 0.01468684
C  0.33425167 0.58050489 -0.00258119
H  -0.21855883 1.53736905 0.01091655
H  1.44143437 0.57188826 0.01130640
6
MD Step 62
C  -0.33122525 -0.57296716 -0.00139456
H  0.16224377 -1.55140654 0.01292617
H  -1.42529966 -0.65509048 0.01251049
C  0.33488946 0.58138057 -0.00224186
H  -0.22105288 1.53644423 0.00874965
H  1.44044598 0.56979838 0.00914540
6
MD Step 63
C  -0.33138903 -0.57355414 -0.00099671
H  0.16360059 -1.55277738 0.01069276
H  -1.42872508 -0.65401554 0.01029095
C  0.33552731 0.58225577 -0.00189628
H  -0.22317088 1.53520759 0.00654381
H  1.43898345 0.56789640 0.00694539
6
MD Step 64
C  -0.33156530 -0.57416310 -0.00059090
H  0.16494330 -1.55388096 0.00841423
H  -1.43186420 -0.65277074 0.00802592
C  0.33616060 0.58312590 -0.00154413
H  -0.22491316 1.53366395 0.00429671
H  1.43707636 0.56618678 0.00470417
6
MD Step 65
C  -0.33175875 -0.57479483 -0.00018192
H  0.16627622 -1.55467864 0.00611785
H  -1.43464093 -0.65133972 0.00574250
C  0.33677951 0.58398093 -0.00118984
H  -0.22625536 1.53185433 0.00203602
H  1.43479259 0.56470216 0.00244953
6
MD Step 66
C  -0.33196705 -0.57544319 0.00023217
H  0.16756740 -1.55517538 0.00379296
H  -1.43702541 -0.64974605 0.00343011
C  0.33738042 0.58481700 -0.00083164
H  -0.22721689 1.52978741 -0.00024966
H  1.43216899 0.56343541 0.00016996
6
MD Step 67
C  -0.33219182 -0.57610589 0.00064874
H  0.16881292 -1.55535531 0.00145462
H  -1.43896983 -0.64798833 0.00110397
C  0.33795527 0.58562549 -0.00047193
H  -0.22779604 1.52750390 -0.00254555
H  1.42927555 0.56240391 -0.00211994
6
MD Step 68
C  -0.33243620 -0.57678217 0.00106314
H  0.17002274 -1.55519619 -0.00087062
H  -1.44042336 -0.64605455 -0.00120914
C  0.33849401 0.58639560 -0.00011492
H  -0.22798424 1.52506174 -0.00482524
H  1.42619985 0.56163509 -0.00439404
6
MD Step 69
C  -0.33269250 -0.57746066 0.00148128
H  0.17114873 -1.55474193 -0.00321628
H  -1.44140506 -0.64399480 -0.00354234
C  0.33899678 0.58712657 0.00024502
H  -0.22783854 1.52246304 -0.00712396
H  1.42297296 0.56109435 -0.00668804
6
MD Step 70
C  -0.33296581 -0.57814265 0.00189558
H  0.17222276 -1.55396356 -0.00553892
H  -1.44186492 -0.64178180 -0.00585174
C  0.33945090 0.58780439 0.00060092
H  -0.22734213 1.51979255 -0.00939849
H  1.41970776 0.56082322 -0.00895924
6
MD Step 71
C  -0.33325634 -0.57882482 0.00230291
H  0.17325354 -1.55286297 -0.00782063
H  -1.44178807 -0.63941497 -0.00811894
C  0.33984826 0.58841937 0.00095007
H  -0.22650793 1.51711295 -0.01163182
H  1.41649285 0.56083610 -0.01119125
6
MD Step 72
C  -0.33355654 -0.57949635 0.00270761
H  0.17420935 -1.55149006 -0.01008629
H  -1.44121229 -0.63693770 -0.01036833
C  0.34018838 0.58896914 0.00129680
H  -0.22539543 1.51444671 -0.01385065
H  1.41337321 0.56110300 -0.01341136
6
MD Step 73
C  -0.33386581 -0.58015347 0.00310654
H  0.17510418 -1.54985564 -0.01231778
H  -1.44014090 -0.63435031 -0.01258127
C  0.34046401 0.58944416 0.00163836
H  -0.22402330 1.51186189 -0.01603805
H  1.41043571 0.56163596 -0.01560331
6
MD Step 74
C  -0.33418046 -0.58078970 0.00349928
H  0.17593872 -1.54799024 -0.01451267
H  -1.43860182 -0.63166922 -0.01475484
C  0.34067117 0.58983780 0.00197464
H  -0.22242805 1.50941188 -0.01819305
H  1.40774771 0.56243016 -0.01776676
6
MD Step 75
C  -0.33449452 -0.58139659 0.00388733
H  0.17670462 -1.54593923 -0.01667978
H  -1.43664285 -0.62892243 -0.01689758
C  0.34080849 0.59014569 0.00230738
H  -0.22065877 1.50713865 -0.02032624
H  1.40535960 0.56346846 -0.01991266
6
MD Step 76
C  -0.33481294 -0.58197687 0.00426094
H  0.17746181 -1.54368434 -0.01876203
H  -1.43425319 -0.62607129 -0.01895161
C  0.34086433 0.59035275 0.00262730
H  -0.21869835 1.50514944 -0.02238126
H  1.40338119 0.56479904 -0.02198554
6
MD Step 77
C  -0.33512094 -0.58251420 0.00462978
H  0.17815780 -1.54132456 -0.02081616
H  -1.43154485 -0.62319210 -0.02097411
C  0.34084715 0.59046382 0.00294417
H  -0.21664404 1.50343387 -0.02441716
H  1.40179752 0.56635485 -0.02404397
6
MD Step 78
C  -0.33542026 -0.58300899 0.00498682
H  0.17884026 -1.53886141 -0.02280068
H  -1.42853737 -0.62026169 -0.02292310
C  0.34074982 0.59046782 0.00325123
H  -0.21449257 1.50207670 -0.02639329
H  1.40068250 0.56816678 -0.02604774
6
MD Step 79
C  -0.33570555 -0.58345519 0.00533190
H  0.17951764 -1.53633800 -0.02471441
H  -1.42529706 -0.61729723 -0.02479754
C  0.34057304 0.59036135 0.00354842
H  -0.21227898 1.50111664 -0.02830964
H  1.40005734 0.57022451 -0.02799655
6
MD Step 80
C  -0.33596656 -0.58384237 0.00566954
H  0.18017096 -1.53382605 -0.02658435
H  -1.42192366 -0.61434384 -0.02662536
C  0.34032324 0.59014681 0.00384048
H  -0.21006358 1.50055733 -0.03019448
H  1.39990204 0.57248872 -0.02991749
6
MD Step 81
C  -0.33620330 -0.58417083 0.00599421
H  0.18084244 -1.53133554 -0.02837688
H  -1.41845934 -0.61138495 -0.02837292
C  0.33999765 0.58981740 0.00412168
H  -0.20784176 1.50045567 -0.03201444
H  1.40024508 0.57498021 -0.03177701
6
MD Step 82
C  -0.33640953 -0.58443518 0.00630651
H  0.18153714 -1.52891236 -0.03009541
H  -1.41498587 -0.60844065 -0.03004451
C  0.33960068 0.58937380 0.00439259
H  -0.20564170 1.50082244 -0.03377323
H  1.40106463 0.57768190 -0.03357758
6
MD Step 83
C  -0.33657867 -0.58463021 0.00660752
H  0.18225681 -1.52660309 -0.03174617
H  -1.41158870 -0.60553321 -0.03164765
C  0.33913807 0.58881846 0.00465417
H  -0.20348953 1.50165595 -0.03547698
H  1.40232357 0.58057304 -0.03532377
6
MD Step 84
C  -0.33670820 -0.58475522 0.00689467
H  0.18302476 -1.52442877 -0.03331291
H  -1.40832955 -0.60266157 -0.03316689
C  0.33861255 0.58815138 0.00490339
H  -0.20138362 1.50296700 -0.03710872
H  1.40399611 0.58365451 -0.03699757
6
MD Step 85
C  -0.33679049 -0.58480483 0.00717065
H  0.18383050 -1.52243943 -0.03481176
H  -1.40529994 -0.59985648 -0.03462041
C  0.33803297 0.58737939 0.00514283
H  -0.19934970 1.50472356 -0.03868366
H  1.40601367 0.58689378 -0.03861200
6
MD Step 86
C  -0.33682557 -0.58478164 0.00743134
H  0.18470406 -1.52063834 -0.03621658
H  -1.40254402 -0.59710543 -0.03598269
C  0.33740162 0.58650353 0.00536753
H  -0.19736603 1.50692599 -0.04017396
H  1.40834181 0.59029967 -0.04013852
6
MD Step 87
C  -0.33680691 -0.58468198 0.00767943
H  0.18563082 -1.51906680 -0.03754372
H  -1.40014223 -0.59443796 -0.03727238
C  0.33672835 0.58553338 0.00557999
H  -0.19544886 1.50952219 -0.04159417
H  1.41089642 0.59383731 -0.04158946
6
MD Step 88
C  -0.33673175 -0.58450610 0.00791477
H  0.18661164 -1.51774291 -0.03879161
H  -1.39814853 -0.59186488 -0.03848949
C  0.33602031 0.58447671 0.00577948
H  -0.19359231 1.51246926 -0.04294041
H  1.41360664 0.59748872 -0.04295952
6
MD Step 89
C  -0.33659515 -0.58425214 0.00813997
H  0.18762671 -1.51669737 -0.03997670
H  -1.39662476 -0.58941443 -0.03965288
C  0.33528788 0.58334551 0.00596849
H  -0.19180515 1.51569836 -0.04422664
H  1.41638069 0.60121678 -0.04426055
6
MD Step 90
C  -0.33639863 -0.58392462 0.00835260
H  0.18868569 -1.51592270 -0.04108316
H  -1.39558851 -0.58708175 -0.04074747
C  0.33453605 0.58214736 0.00614369
H  -0.19006110 1.51916660 -0.04543416
H  1.41915855 0.60501578 -0.04547346
6
MD Step 91
C  -0.33614198 -0.58352621 0.00855275
H  0.18977898 -1.51542226 -0.04211163
H  -1.39506122 -0.58487793 -0.04177528
C  0.33377258 0.58089346 0.00630477
H  -0.18834850 1.52280946 -0.04656069
H  1.42186456 0.60886262 -0.04659501
6
MD Step 92
C  -0.33583129 -0.58306568 0.00873569
H  0.19092548 -1.51516256 -0.04303145
H  -1.39501990 -0.58278220 -0.04270512
C  0.33299990 0.57959053 0.00644570
H  -0.18662340 1.52659008 -0.04757268
H  1.42445677 0.61276466 -0.04759260
6
MD Step 93
C  -0.33546605 -0.58254493 0.00890374
H  0.19209585 -1.51515091 -0.04385782
H  -1.39547467 -0.58081914 -0.04355351
C  0.33222799 0.57825355 0.00656880
H  -0.18488727 1.53042345 -0.04848241
H  1.42685089 0.61668277 -0.04847753
6
MD Step 94
C  -0.33504484 -0.58196464 0.00906090
H  0.19324697 -1.51540130 -0.04461753
H  -1.39643439 -0.57902426 -0.04434894
C  0.33146854 0.57689981 0.00667861
H  -0.18315350 1.53421248 -0.04931375
H  1.42895619 0.62056578 -0.04927220
6
MD Step 95
C  -0.33457636 -0.58133532 0.00920287
H  0.19438784 -1.51586905 -0.04528307
H  -1.39784110 -0.57737838 -0.04506250
C  0.33072385 0.57553772 0.00676980
H  -0.18138259 1.53791518 -0.05003685
H  1.43074257 0.62441654 -0.04994836
6
MD Step 96
C  -0.33406693 -0.58066472 0.00932832
H  0.19550620 -1.51652541 -0.04584674
H  -1.39964562 -0.57588142 -0.04568576
C  0.32999918 0.57417906 0.00684076
H  -0.17955645 1.54147204 -0.05064186
H  1.43216735 0.62821810 -0.05049689
6
MD Step 97
C  -0.33352799 -0.57996551 0.00943207
H  0.19661498 -1.51731236 -0.04627437
H  -1.40176316 -0.57450653 -0.04618198
C  0.32929499 0.57283106 0.00688498
H  -0.17763299 1.54485320 -0.05109328
H  1.43322169 0.63198001 -0.05088480
6
MD Step 98
C  -0.33295537 -0.57923430 0.00952345
H  0.19762905 -1.51826714 -0.04663005
H  -1.40419939 -0.57332339 -0.04661734
C  0.32862780 0.57151700 0.00691417
H  -0.17566961 1.54793575 -0.05145258
H  1.43380739 0.63561441 -0.05117119
6
MD Step 99
C  -0.33236170 -0.57848442 0.00959719
H  0.19856057 -1.51932768 -0.04687970
H  -1.40685597 -0.57230375 -0.04695488
C  0.32799718 0.57024340 0.00692206
H  -0.17362963 1.55069978 -0.05168521
H  1.43393272 0.63913184 -0.05132409
6
MD Step 100
C  -0.33175680 -0.57772617 0.00965086
H  0.19940321 -1.52044968 -0.04700823
H  -1.40964934 -0.57143728 -0.04717731
C  0.32740535 0.56901935 0.00690593
H  -0.17149814 1.55311295 -0.05177574
H  1.43359635 0.64252483 -0.05132988
6
MD Step 101
C  -0.33114733 -0.57696650 0.00968509
H  0.20013109 -1.52160907 -0.04702122
H  -1.41251445 -0.57073311 -0.04728881
C  0.32685740 0.56785660 0.00686691
H  -0.16928361 1.55512950 -0.05172938
H  1.43278580 0.64576648 -0.05119472
6
MD Step 102
C  -0.33054010 -0.57621237 0.00970036
H  0.20072028 -1.52278141 -0.04692358
H  -1.41538524 -0.57019866 -0.04729287
C  0.32635776 0.56676595 0.00680614
H  -0.16699699 1.55671197 -0.05155102
H  1.43149883 0.64883191 -0.05092449
6
MD Step 103
C  -0.32994752 -0.57547641 0.00969218
H  0.20118297 -1.52390897 -0.04668548
H  -1.41816270 -0.56980632 -0.04715670
C  0.32590434 0.56575152 0.00671833
H  -0.16461841 1.55786518 -0.05121241
H  1.42977685 0.65173213 -0.05049350
6
MD Step 104
C  -0.32937008 -0.57475898 0.00966650
H  0.20146239 -1.52500651 -0.04634902
H  -1.42082186 -0.56959776 -0.04692229
C  0.32550644 0.56482816 0.00661153
H  -0.16220132 1.55853156 -0.05075515
H  1.42760001 0.65440867 -0.04994309
6
MD Step 105
C  -0.32881583 -0.57406817 0.00962224
H  0.20155197 -1.52604298 -0.04590792
H  -1.42329386 -0.56956615 -0.04658157
C  0.32516455 0.56400160 0.00648497
H  -0.15975491 1.55870992 -0.05017446
H  1.42500559 0.65685282 -0.04926998
6
MD Step 106
C  -0.32829487 -0.57341411 0.00955614
H  0.20146264 -1.52697499 -0.04534092
H  -1.42550006 -0.56968887 -0.04611108
C  0.32487588 0.56327386 0.00633513
H  -0.15727668 1.55842267 -0.04945149
H  1.42205493 0.65907276 -0.04845733
6
MD Step 107
C  -0.32781434 -0.57280394 0.00946718
H  0.20119351 -1.52777669 -0.04464166
H  -1.42738285 -0.56995680 -0.04550293
C  0.32463941 0.56264813 0.00616128
H  -0.15478145 1.55768639 -0.04858214
H  1.41880337 0.66106403 -0.04750246
6
MD Step 108
C  -0.32737696 -0.57224023 0.00935781
H  0.20072342 -1.52844876 -0.04382752
H  -1.42891513 -0.57038276 -0.04477385
C  0.32445737 0.56213010 0.00596705
H  -0.15230951 1.55650319 -0.04758528
H  1.41529117 0.66280091 -0.04642488
6
MD Step 109
C  -0.32698859 -0.57172880 0.00922709
H  0.20005752 -1.52897227 -0.04289248
H  -1.43005433 -0.57095569 -0.04391669
C  0.32432735 0.56172028 0.00575182
H  -0.14988074 1.55490675 -0.04645756
H  1.41158898 0.66428309 -0.04522243
6
MD Step 110
C  -0.32665370 -0.57127406 0.00907475
H  0.19920010 -1.52933606 -0.04183467
H  -1.43077015 -0.57166761 -0.04292878
C  0.32424696 0.56141846 0.00551571
H  -0.14752115 1.55293496 -0.04519990
H  1.40776994 0.66550836 -0.04389698
6
MD Step 111
C  -0.32637136 -0.57087487 0.00890476
H  0.19813020 -1.52956112 -0.04068130
H  -1.43106925 -0.57253766 -0.04183731
C  0.32421806 0.56122781 0.00526414
H  -0.14528650 1.55060523 -0.04384102
H  1.40388435 0.66644819 -0.04247743
6
MD Step 112
C  -0.32614441 -0.57053394 0.00871706
H  0.19685758 -1.52964475 -0.03943169
H  -1.43093923 -0.57355692 -0.04064124
C  0.32423725 0.56114559 0.00499746
H  -0.14320690 1.54796971 -0.04238310
H  1.40001425 0.66710382 -0.04096652
6
MD Step 113
C  -0.32597735 -0.57025580 0.00850930
H  0.19541029 -1.52957291 -0.03806982
H  -1.43036119 -0.57470068 -0.03932413
C  0.32429809 0.56116532 0.00471324
H  -0.14129855 1.54510221 -0.04081373
H  1.39625962 0.66749378 -0.03935249
6
MD Step 114
C  -0.32587049 -0.57004064 0.00828238
H  0.19379848 -1.52935614 -0.03660097
H  -1.42934603 -0.57596412 -0.03789137
C  0.32439732 0.56128280 0.00441284
H  -0.13959868 1.54206133 -0.03914088
H  1.39270060 0.66761758 -0.03764335
6
MD Step 115
C  -0.32581826 -0.56988270 0.00804186
H  0.19200421 -1.52903930 -0.03506191
H  -1.42794424 -0.57737220 -0.03638048
C  0.32453673 0.56149789 0.00410324
H  -0.13817488 1.53887950 -0.03740250
H  1.38938565 0.66744560 -0.03587645
6
MD Step 116
C  -0.32582108 -0.56978243 0.00778707
H  0.19005344 -1.52862942 -0.03344765
H  -1.42617337 -0.57890855 -0.03478683
C  0.32471095 0.56180271 0.00378391
H  -0.13705340 1.53563344 -0.03559636
H  1.38640167 0.66699117 -0.03404932
6
MD Step 117
C  -0.32588413 -0.56974532 0.00751228
H  0.18800815 -1.52810299 -0.03171907
H  -1.42402538 -0.58052311 -0.03307147
C  0.32490890 0.56218308 0.00344816
H  -0.13622596 1.53243515 -0.03368752
H  1.38386413 0.66630282 -0.03212686
6
MD Step 118
C  -0.32599814 -0.56976210 0.00722450
H  0.18584897 -1.52752243 -0.02992177
H  -1.42158372 -0.58224770 -0.03128120
C  0.32513384 0.56263807 0.00310434
H  -0.13576421 1.52931364 -0.03172192
H  1.38179800 0.66534670 -0.03015381
6
MD Step 119
C  -0.32616088 -0.56983092 0.00692353
H  0.18360544 -1.52690539 -0.02805365
H  -1.41889193 -0.58406729 -0.02941477
C  0.32538133 0.56315859 0.00275225
H  -0.13569035 1.52634318 -0.02969937
H  1.38026595 0.66413721 -0.02812906
6
MD Step 120
C  -0.32637286 -0.56995290 0.00660601
H  0.18132925 -1.52625071 -0.02609163
H  -1.41597935 -0.58594613 -0.02744985
C  0.32564378 0.56373199 0.00238791
H  -0.13600227 1.52361508 -0.02759926
H  1.37934005 0.66271037 -0.02603115
6
MD Step 121
C  -0.32661965 -0.57011406 0.00628215
H  0.17898576 -1.52564541 -0.02410101
H  -1.41296840 -0.58793457 -0.02545326
C  0.32592893 0.56436013 0.00202286
H  -0.13677924 1.52112845 -0.02548579
H  1.37899254 0.66101554 -0.02392268
6
MD Step 122
C  -0.32690201 -0.57031612 0.00594729
H  0.17663600 -1.52508217 -0.02205095
H  -1.40989054 -0.58998872 -0.02339496
C  0.32622887 0.56502936 0.00165168
H  -0.13800118 1.51897007 -0.02332993
H  1.37927683 0.65909794 -0.02177372
6
MD Step 123
C  -0.32721704 -0.57055726 0.00559985
H  0.17432150 -1.52457307 -0.01993046
H  -1.40679997 -0.59208401 -0.02126493
C  0.32653958 0.56572971 0.00127239
H  -0.13966111 1.51719856 -0.02112140
H  1.38021221 0.65698378 -0.01957302
6
MD Step 124
C  -0.32756084 -0.57083480 0.00523889
H  0.17207915 -1.52413387 -0.01773295
H  -1.40375737 -0.59420023 -0.01905746
C  0.32685838 0.56645253 0.00088375
H  -0.14174944 1.51585795 -0.01885385
H  1.38179819 0.65469537 -0.01731334
6
MD Step 125
C  -0.32792234 -0.57113897 0.00487012
H  0.16990340 -1.52382064 -0.01549378
H  -1.40086575 -0.59635864 -0.01680899
C  0.32719017 0.56719690 0.00049177
H  -0.14429054 1.51493936 -0.01656160
H  1.38397750 0.65221377 -0.01502808
6