 Entering Gaussian System, Link 0=g16
 Initial command:
 /software/gaussian/g16-c01/avx2/g16/l1.exe "/gpfs/fs2/scratch/bweight/software/many_molecule_many_mode_NAMD/src/NAMD/TEST_NVT/TRAJ/traj-89/G16/GS_NEW/Gau-12719.inp" -scrdir="/gpfs/fs2/scratch/bweight/software/many_molecule_many_mode_NAMD/src/NAMD/TEST_NVT/TRAJ/traj-89/G16/GS_NEW/"
 Entering Link 1 = /software/gaussian/g16-c01/avx2/g16/l1.exe PID=     12720.
  
 Copyright (c) 1988-2019, Gaussian, Inc.  All Rights Reserved.
  
 This is part of the Gaussian(R) 16 program.  It is based on
 the Gaussian(R) 09 system (copyright 2009, Gaussian, Inc.),
 the Gaussian(R) 03 system (copyright 2003, Gaussian, Inc.),
 the Gaussian(R) 98 system (copyright 1998, Gaussian, Inc.),
 the Gaussian(R) 94 system (copyright 1995, Gaussian, Inc.),
 the Gaussian 92(TM) system (copyright 1992, Gaussian, Inc.),
 the Gaussian 90(TM) system (copyright 1990, Gaussian, Inc.),
 the Gaussian 88(TM) system (copyright 1988, Gaussian, Inc.),
 the Gaussian 86(TM) system (copyright 1986, Carnegie Mellon
 University), and the Gaussian 82(TM) system (copyright 1983,
 Carnegie Mellon University). Gaussian is a federally registered
 trademark of Gaussian, Inc.
  
 This software contains proprietary and confidential information,
 including trade secrets, belonging to Gaussian, Inc.
  
 This software is provided under written license and may be
 used, copied, transmitted, or stored only in accord with that
 written license.
  
 The following legend is applicable only to US Government
 contracts under FAR:
  
                    RESTRICTED RIGHTS LEGEND
  
 Use, reproduction and disclosure by the US Government is
 subject to restrictions as set forth in subparagraphs (a)
 and (c) of the Commercial Computer Software - Restricted
 Rights clause in FAR 52.227-19.
  
 Gaussian, Inc.
 340 Quinnipiac St., Bldg. 40, Wallingford CT 06492
  
  
 ---------------------------------------------------------------
 Warning -- This program may not be used in any manner that
 competes with the business of Gaussian, Inc. or will provide
 assistance to any competitor of Gaussian, Inc.  The licensee
 of this program is prohibited from giving any competitor of
 Gaussian, Inc. access to this program.  By using this program,
 the user acknowledges that Gaussian, Inc. is engaged in the
 business of creating and licensing software in the field of
 computational chemistry and represents and warrants to the
 licensee that it is not a competitor of Gaussian, Inc. and that
 it will not use this program in any manner prohibited above.
 ---------------------------------------------------------------
  

 Cite this work as:
 Gaussian 16, Revision C.01,
 M. J. Frisch, G. W. Trucks, H. B. Schlegel, G. E. Scuseria, 
 M. A. Robb, J. R. Cheeseman, G. Scalmani, V. Barone, 
 G. A. Petersson, H. Nakatsuji, X. Li, M. Caricato, A. V. Marenich, 
 J. Bloino, B. G. Janesko, R. Gomperts, B. Mennucci, H. P. Hratchian, 
 J. V. Ortiz, A. F. Izmaylov, J. L. Sonnenberg, D. Williams-Young, 
 F. Ding, F. Lipparini, F. Egidi, J. Goings, B. Peng, A. Petrone, 
 T. Henderson, D. Ranasinghe, V. G. Zakrzewski, J. Gao, N. Rega, 
 G. Zheng, W. Liang, M. Hada, M. Ehara, K. Toyota, R. Fukuda, 
 J. Hasegawa, M. Ishida, T. Nakajima, Y. Honda, O. Kitao, H. Nakai, 
 T. Vreven, K. Throssell, J. A. Montgomery, Jr., J. E. Peralta, 
 F. Ogliaro, M. J. Bearpark, J. J. Heyd, E. N. Brothers, K. N. Kudin, 
 V. N. Staroverov, T. A. Keith, R. Kobayashi, J. Normand, 
 K. Raghavachari, A. P. Rendell, J. C. Burant, S. S. Iyengar, 
 J. Tomasi, M. Cossi, J. M. Millam, M. Klene, C. Adamo, R. Cammi, 
 J. W. Ochterski, R. L. Martin, K. Morokuma, O. Farkas, 
 J. B. Foresman, and D. J. Fox, Gaussian, Inc., Wallingford CT, 2019.
 
 ******************************************
 Gaussian 16:  ES64L-G16RevC.01  3-Jul-2019
                11-Jan-2023 
 ******************************************
 %oldchk=../GS_OLD/geometry.chk
 %chk=geometry.chk
 %nprocshared=4
 Will use up to    4 processors via shared memory.
 %mem=5GB
 Copying data from "../GS_OLD/geometry.chk" to current chk file "geometry.chk"
 IOpt=  2 FromEx=T IUOpen= 4 IOptOp= 5 NList=   0 IFRang= 0 IUIn= 4 IUOut= 2.
 -------------------------------------------------------
 # WB97XD/6-311G SCF=XQC FORCE nosym pop=full guess=read
 -------------------------------------------------------
 1/10=7,30=1,38=1/1,3;
 2/12=2,15=1,17=6,18=5,40=1/2;
 3/5=4,6=6,11=2,25=1,30=1,71=1,74=-58,116=-2/1,2,3;
 4/5=1/1;
 5/5=2,8=3,13=1,38=6/2,8;
 6/7=3,28=1/1;
 7/29=1,30=1/1,2,3,16;
 1/10=7,30=1/3;
 99//99;
 ------------
 MD Step 1000
 ------------
 Symbolic Z-matrix:
 Charge =  0 Multiplicity = 1
 C                    -0.33722  -0.58328   0.0056 
 H                     0.22396  -1.52555  -0.01708 
 H                    -1.42014  -0.57862  -0.01736 
 C                     0.33289   0.57703   0.00397 
 H                    -0.15762   1.56764  -0.01936 
 H                     1.44674   0.65245  -0.01887 
 

 GradGradGradGradGradGradGradGradGradGradGradGradGradGradGradGradGradGrad
 Berny optimization.
 Initialization pass.
 Trust Radius=3.00D-01 FncErr=1.00D-07 GrdErr=1.00D-07 EigMax=2.50D+02 EigMin=1.00D-04
 Number of steps in this run=      2 maximum allowed number of steps=      2.
 GradGradGradGradGradGradGradGradGradGradGradGradGradGradGradGradGradGrad

                          Input orientation:                          
 ---------------------------------------------------------------------
 Center     Atomic      Atomic             Coordinates (Angstroms)
 Number     Number       Type             X           Y           Z
 ---------------------------------------------------------------------
      1          6           0       -0.337220   -0.583280    0.005601
      2          1           0        0.223964   -1.525547   -0.017084
      3          1           0       -1.420140   -0.578618   -0.017361
      4          6           0        0.332894    0.577025    0.003972
      5          1           0       -0.157617    1.567641   -0.019359
      6          1           0        1.446741    0.652451   -0.018869
 ---------------------------------------------------------------------
                    Distance matrix (angstroms):
                    1          2          3          4          5
     1  C    0.000000
     2  H    1.096955   0.000000
     3  H    1.083174   1.897301   0.000000
     4  C    1.339912   2.105498   2.099784   0.000000
     5  H    2.158551   3.116637   2.490060   1.105652   0.000000
     6  H    2.170286   2.497771   3.120022   1.116631   1.847035
                    6
     6  H    0.000000
 Symmetry turned off by external request.
 Stoichiometry    C2H4
 Framework group  C1[X(C2H4)]
 Deg. of freedom    12
 Full point group                 C1      NOp   1
 Rotational constants (GHZ):         142.9648733          29.6456379          24.5583618
 Standard basis: 6-311G (5D, 7F)
    38 basis functions,    72 primitive gaussians,    38 cartesian basis functions
     8 alpha electrons        8 beta electrons
       nuclear repulsion energy        33.0415858009 Hartrees.
 NAtoms=    6 NActive=    6 NUniq=    6 SFac= 1.00D+00 NAtFMM=   60 NAOKFM=F Big=F
 Integral buffers will be    131072 words long.
 Raffenetti 2 integral format.
 Two-electron integral symmetry is turned off.
 Nuclear repulsion after empirical dispersion term =       33.0407418342 Hartrees.
 One-electron integrals computed using PRISM.
 NBasis=    38 RedAO= T EigKep=  6.47D-03  NBF=    38
 NBsUse=    38 1.00D-06 EigRej= -1.00D+00 NBFU=    38
 Initial guess from the checkpoint file:  "geometry.chk"
 B after Tr=    -0.000244   -0.000370   -0.000490
         Rot=    1.000000    0.000003   -0.000000    0.000006 Ang=   0.00 deg.
 Keep R1 ints in memory in canonical form, NReq=4036876.
 Requested convergence on RMS density matrix=1.00D-08 within  32 cycles.
 Requested convergence on MAX density matrix=1.00D-06.
 Requested convergence on             energy=1.00D-06.
 No special actions if energy rises.
 SCF Done:  E(RwB97XD) =  -78.5553452109     A.U. after    8 cycles
            NFock=  8  Conv=0.55D-08     -V/T= 2.0053
 QCSCF skips out because SCF is already converged.

 **********************************************************************

            Population analysis using the SCF Density.

 **********************************************************************

 Alpha  occ. eigenvalues --  -10.29092 -10.28812  -0.86349  -0.67199  -0.55971
 Alpha  occ. eigenvalues --   -0.50855  -0.43665  -0.35658
 Alpha virt. eigenvalues --    0.07953   0.14070   0.16467   0.17002   0.24054
 Alpha virt. eigenvalues --    0.37138   0.39376   0.39964   0.46385   0.48816
 Alpha virt. eigenvalues --    0.49394   0.59081   0.66561   0.69106   0.77202
 Alpha virt. eigenvalues --    0.77552   0.84425   0.95051   2.23128   2.29112
 Alpha virt. eigenvalues --    2.33232   2.40719   2.67070   2.81806   2.87714
 Alpha virt. eigenvalues --    2.95219   3.13910   3.32010  23.35223  23.70440
     Molecular Orbital Coefficients:
                           1         2         3         4         5
                           O         O         O         O         O
     Eigenvalues --   -10.29092 -10.28812  -0.86349  -0.67199  -0.55971
   1 1   C  1S          0.08815   0.55646  -0.08852   0.06661  -0.00047
   2        2S          0.07275   0.45795  -0.13994   0.10667  -0.00077
   3        2PX         0.00016  -0.00001   0.02565   0.03636   0.13961
   4        2PY         0.00028  -0.00000   0.04619   0.05914  -0.07430
   5        2PZ         0.00000  -0.00001  -0.00097   0.00141   0.00014
   6        3S          0.00143   0.01457   0.37545  -0.29111   0.00215
   7        3PX        -0.00061   0.00041   0.03418   0.05813   0.21876
   8        3PY        -0.00105   0.00074   0.06118   0.09579  -0.11741
   9        3PZ        -0.00001  -0.00002  -0.00163   0.00251   0.00020
  10        4S          0.00359  -0.01458   0.19235  -0.22522   0.00172
  11        4PX         0.00152  -0.00151   0.00473   0.02306   0.11272
  12        4PY         0.00262  -0.00261   0.00861   0.03968  -0.06147
  13        4PZ         0.00000   0.00006  -0.00056   0.00125   0.00009
  14 2   H  1S         -0.00004  -0.00006   0.05283  -0.08674   0.10398
  15        2S         -0.00030   0.00010   0.05420  -0.10475   0.13156
  16        3S          0.00079   0.00170  -0.00182  -0.01490   0.04245
  17 3   H  1S         -0.00005  -0.00008   0.05455  -0.09067  -0.10749
  18        2S         -0.00030   0.00008   0.05527  -0.10854  -0.13489
  19        3S          0.00081   0.00175  -0.00182  -0.01597  -0.04347
  20 4   C  1S          0.55646  -0.08834  -0.08660  -0.06862  -0.00029
  21        2S          0.45800  -0.07251  -0.13673  -0.11006  -0.00046
  22        2PX        -0.00001  -0.00017  -0.02777   0.03751   0.11567
  23        2PY        -0.00001  -0.00029  -0.04660   0.06745  -0.07312
  24        2PZ        -0.00000   0.00000  -0.00072  -0.00146   0.00015
  25        3S          0.01410  -0.00313   0.36636   0.30087   0.00127
  26        3PX        -0.00023   0.00072  -0.03476   0.06087   0.18114
  27        3PY        -0.00036   0.00125  -0.05817   0.10869  -0.11342
  28        3PZ        -0.00002  -0.00000  -0.00125  -0.00263   0.00023
  29        4S         -0.01240   0.00807   0.18876   0.23928   0.00004
  30        4PX         0.00093  -0.00188  -0.00558   0.02694   0.10039
  31        4PY         0.00155  -0.00328  -0.00918   0.04638  -0.06180
  32        4PZ         0.00005  -0.00001  -0.00053  -0.00136   0.00011
  33 5   H  1S         -0.00006  -0.00004   0.04960   0.09419  -0.08809
  34        2S         -0.00001  -0.00031   0.05076   0.11249  -0.11096
  35        3S          0.00179   0.00018  -0.00103   0.01696  -0.03551
  36 6   H  1S         -0.00004  -0.00004   0.04815   0.09185   0.08338
  37        2S         -0.00002  -0.00032   0.04993   0.11031   0.10558
  38        3S          0.00174   0.00018  -0.00109   0.01625   0.03411
                           6         7         8         9        10
                           O         O         O         V         V
     Eigenvalues --    -0.50855  -0.43665  -0.35658   0.07953   0.14070
   1 1   C  1S         -0.00306   0.00023  -0.00076   0.00197  -0.03282
   2        2S         -0.00452   0.00039  -0.00123   0.00328  -0.05264
   3        2PX         0.09420  -0.10908  -0.00239   0.00101  -0.03097
   4        2PY         0.16860   0.06496  -0.00413   0.00177  -0.06442
   5        2PZ         0.00364   0.00003   0.17941  -0.18913  -0.00177
   6        3S          0.01816  -0.00087   0.00360  -0.00991   0.11426
   7        3PX         0.13664  -0.17386  -0.00337   0.00152  -0.03650
   8        3PY         0.24646   0.10420  -0.00584   0.00263  -0.07999
   9        3PZ         0.00577   0.00008   0.28861  -0.27817  -0.00283
  10        4S         -0.05506  -0.00365   0.00502  -0.01147   1.21153
  11        4PX         0.06874  -0.10842  -0.00280   0.00882  -0.18692
  12        4PY         0.12527   0.06546  -0.00488   0.01521  -0.37712
  13        4PZ         0.00329   0.00008   0.26740  -0.69419  -0.01036
  14 2   H  1S         -0.08122  -0.11359   0.00010   0.00310  -0.01736
  15        2S         -0.11284  -0.17516   0.00145   0.00494  -0.04841
  16        3S         -0.04234  -0.08081   0.00086   0.01285  -0.82478
  17 3   H  1S         -0.07891   0.11115   0.00003   0.00311  -0.01322
  18        2S         -0.10891   0.17034   0.00136   0.00494  -0.03830
  19        3S         -0.04051   0.07829   0.00082   0.01251  -0.75578
  20 4   C  1S         -0.00892  -0.00052  -0.00055  -0.00187  -0.03689
  21        2S         -0.01399  -0.00085  -0.00089  -0.00309  -0.05925
  22        2PX        -0.09820   0.12641   0.00240   0.00123   0.04156
  23        2PY        -0.16162  -0.07446   0.00437   0.00220   0.06151
  24        2PZ         0.00387   0.00014   0.17912   0.18967  -0.00216
  25        3S          0.04496   0.00239   0.00264   0.00927   0.13124
  26        3PX        -0.14572   0.20246   0.00335   0.00189   0.05105
  27        3PY        -0.23803  -0.11831   0.00614   0.00339   0.07273
  28        3PZ         0.00611   0.00021   0.28651   0.27795  -0.00328
  29        4S         -0.02627   0.00358   0.00468   0.01029   1.25105
  30        4PX        -0.07648   0.13026   0.00256   0.00941   0.26972
  31        4PY        -0.12344  -0.07542   0.00476   0.01655   0.41834
  32        4PZ         0.00354   0.00012   0.26771   0.69562  -0.01277
  33 5   H  1S         -0.07386  -0.12581   0.00019  -0.00282  -0.01228
  34        2S         -0.10093  -0.19619   0.00155  -0.00471  -0.03813
  35        3S         -0.03780  -0.09216   0.00087  -0.01236  -0.82767
  36 6   H  1S         -0.07979   0.12550   0.00012  -0.00282  -0.01632
  37        2S         -0.10957   0.19688   0.00144  -0.00473  -0.04793
  38        3S         -0.04124   0.09264   0.00080  -0.01259  -0.89726
                          11        12        13        14        15
                           V         V         V         V         V
     Eigenvalues --     0.16467   0.17002   0.24054   0.37138   0.39376
   1 1   C  1S          0.00126  -0.04603   0.00012   0.00881   0.00110
   2        2S          0.00203  -0.07502   0.00019   0.01175   0.00172
   3        2PX         0.09630  -0.01931   0.10005  -0.03560  -0.02289
   4        2PY        -0.05314  -0.03745  -0.05727  -0.06458   0.00950
   5        2PZ         0.00007  -0.00482  -0.00001  -0.00336  -0.00013
   6        3S         -0.00435   0.16995   0.00022   0.03530   0.00050
   7        3PX         0.13763  -0.01048   0.10517  -0.04325  -0.10484
   8        3PY        -0.07714  -0.02445  -0.06133  -0.08287   0.04957
   9        3PZ         0.00010  -0.00670  -0.00005  -0.00700  -0.00012
  10        4S         -0.05885   1.45352  -0.02772  -2.45558  -0.20931
  11        4PX         0.58578  -0.11396   1.17170  -1.52811  -0.54883
  12        4PY        -0.31429  -0.20927  -0.67261  -2.65436   0.13587
  13        4PZ         0.00057  -0.03141   0.00036  -0.03008  -0.00162
  14 2   H  1S         -0.02895  -0.02580   0.01423  -0.06094   0.07490
  15        2S         -0.08203  -0.01832  -0.02402  -0.68245   0.76693
  16        3S         -1.02598  -1.01944  -1.54453  -0.27823  -0.30900
  17 3   H  1S          0.02821  -0.02534  -0.01660  -0.05426  -0.07492
  18        2S          0.08086  -0.02091   0.01734  -0.62962  -0.75172
  19        3S          1.10150  -1.01769   1.58077  -0.35688   0.22745
  20 4   C  1S          0.00135   0.04201  -0.00016  -0.01996  -0.00009
  21        2S          0.00215   0.06837  -0.00028  -0.03292  -0.00000
  22        2PX         0.10200  -0.02353  -0.10037  -0.04030  -0.03296
  23        2PY        -0.06181  -0.03725   0.05754  -0.07206   0.01298
  24        2PZ         0.00013   0.00460  -0.00000   0.00232   0.00027
  25        3S         -0.00428  -0.15165   0.00038   0.04665  -0.00281
  26        3PX         0.14649  -0.01902  -0.11486  -0.09284  -0.11120
  27        3PY        -0.08759  -0.02745   0.06440  -0.16809   0.05576
  28        3PZ         0.00018   0.00632   0.00002   0.00263   0.00059
  29        4S         -0.06355  -1.32430   0.02137   3.20452   0.17157
  30        4PX         0.53576  -0.11754  -1.12003  -1.10894  -0.56887
  31        4PY        -0.33234  -0.19289   0.64709  -1.95144   0.08396
  32        4PZ         0.00085   0.02983  -0.00043   0.02503   0.00210
  33 5   H  1S          0.03123   0.02498   0.00525   0.00730  -0.08052
  34        2S          0.06657   0.02252  -0.03624   0.02804  -0.79059
  35        3S          1.08167   0.92669  -1.52165   0.44416   0.49130
  36 6   H  1S         -0.03162   0.02573  -0.00366   0.00241   0.08915
  37        2S         -0.06757   0.02114   0.03830  -0.01421   0.90969
  38        3S         -0.99613   0.93566   1.49600   0.45461  -0.47226
                          16        17        18        19        20
                           V         V         V         V         V
     Eigenvalues --     0.39964   0.46385   0.48816   0.49394   0.59081
   1 1   C  1S         -0.01880   0.01416  -0.04571  -0.00053  -0.00038
   2        2S         -0.03279   0.03172  -0.07603  -0.00068  -0.00067
   3        2PX         0.02828  -0.06217   0.01057   0.00089   0.00146
   4        2PY         0.05223  -0.10723   0.01175   0.00126   0.00220
   5        2PZ         0.00038  -0.00032   0.00463  -0.15179  -0.19248
   6        3S          0.07036  -0.33844   0.07560  -0.00656  -0.00068
   7        3PX         0.10314  -0.24126  -0.04295  -0.00022   0.00480
   8        3PY         0.19709  -0.41416  -0.08727  -0.00113   0.00738
   9        3PZ        -0.00231  -0.00308   0.02047  -0.62812  -0.68492
  10        4S          2.82464   0.01235   3.10438   0.08553   0.04948
  11        4PX         0.31786   0.20238   0.82914   0.02689   0.01584
  12        4PY         0.59923   0.39112   1.44814   0.04783   0.02663
  13        4PZ        -0.00117   0.00227  -0.06790   0.68531   1.24039
  14 2   H  1S         -0.02369  -0.02968  -0.07708  -0.00243  -0.00122
  15        2S         -0.50489  -0.27623  -0.91660  -0.02438  -0.00936
  16        3S          0.32872   0.03910   0.65168   0.02654   0.01672
  17 3   H  1S         -0.03268  -0.03287  -0.07454  -0.00236  -0.00114
  18        2S         -0.58767  -0.31446  -0.88985  -0.02386  -0.00796
  19        3S          0.34769   0.04222   0.61109   0.02539   0.01631
  20 4   C  1S          0.00032  -0.00489   0.05109   0.00252   0.00051
  21        2S         -0.00303  -0.00069   0.08928   0.00455   0.00096
  22        2PX         0.01013   0.05327   0.02907   0.00027   0.00147
  23        2PY         0.02075   0.09228   0.05404   0.00049   0.00286
  24        2PZ        -0.00272  -0.00133   0.00466  -0.15296   0.19213
  25        3S          0.07672  -0.27502  -0.24742  -0.01722  -0.00204
  26        3PX        -0.04080   0.23126   0.06604   0.00064   0.00520
  27        3PY        -0.05675   0.40502   0.11985   0.00092   0.00993
  28        3PZ        -0.00748  -0.00529   0.01758  -0.63214   0.68171
  29        4S         -1.05005   0.86441  -3.06581  -0.09939  -0.04285
  30        4PX         1.30113  -0.37219   0.60082   0.01503   0.01487
  31        4PY         2.36483  -0.60648   1.01368   0.02505   0.02602
  32        4PZ        -0.02439  -0.01254   0.01963   0.69396  -1.23646
  33 5   H  1S         -0.04810  -0.06745   0.06140   0.00205   0.00109
  34        2S         -0.85451  -0.69309   0.78093   0.02985   0.00383
  35        3S         -0.21575   0.29693  -0.53270  -0.01064  -0.01606
  36 6   H  1S         -0.03848  -0.06536   0.06214   0.00210   0.00114
  37        2S         -0.74590  -0.66364   0.78039   0.02984   0.00460
  38        3S         -0.24309   0.31283  -0.55966  -0.01195  -0.01638
                          21        22        23        24        25
                           V         V         V         V         V
     Eigenvalues --     0.66561   0.69106   0.77202   0.77552   0.84425
   1 1   C  1S          0.00094  -0.00052   0.04514   0.07675   0.00085
   2        2S          0.00193  -0.00118   0.09506   0.16358   0.00196
   3        2PX        -0.12785   0.20089  -0.03576   0.11207  -0.00761
   4        2PY         0.07472  -0.12120  -0.06029   0.18106   0.01293
   5        2PZ        -0.00001   0.00010   0.00020   0.00349   0.00014
   6        3S         -0.01483   0.01703  -0.61476  -1.39764  -0.02077
   7        3PX        -0.59902   0.71032  -0.21263   0.42958  -0.22010
   8        3PY         0.34630  -0.42813  -0.36106   0.68371   0.16134
   9        3PZ        -0.00011   0.00041   0.00088   0.01219   0.00057
  10        4S          0.02336  -0.08570   0.51902   2.47772  -0.05635
  11        4PX         1.06365  -0.82184   0.23029  -0.74521   4.53642
  12        4PY        -0.61763   0.49534   0.28899  -0.98633  -2.61685
  13        4PZ        -0.00005   0.00099   0.00963  -0.03851   0.00161
  14 2   H  1S          0.02243  -0.05944   0.00756   0.03336  -0.02779
  15        2S          0.12146  -0.63481   0.06636   0.10040  -1.59208
  16        3S         -1.01896   1.13382  -0.00917  -1.10008  -1.23735
  17 3   H  1S         -0.02166   0.05896   0.00730   0.03425   0.03115
  18        2S         -0.13449   0.67390   0.09528   0.07282   1.63561
  19        3S          1.00899  -1.09846   0.02128  -1.25275   1.24062
  20 4   C  1S          0.00114  -0.00053   0.08100   0.03850   0.00074
  21        2S          0.00232  -0.00099   0.17252   0.08116   0.00151
  22        2PX        -0.15596  -0.18157  -0.10052   0.04458   0.00964
  23        2PY         0.08901   0.10020  -0.18261   0.08244   0.00197
  24        2PZ        -0.00004  -0.00012   0.00365  -0.00048  -0.00013
  25        3S         -0.01694  -0.00040  -1.45484  -0.50689  -0.00824
  26        3PX        -0.69836  -0.61025  -0.37197   0.24909   0.23557
  27        3PY         0.40174   0.33370  -0.68120   0.45624  -0.09869
  28        3PZ        -0.00022  -0.00044   0.01296  -0.00197  -0.00046
  29        4S          0.01610   0.05738   2.65337   0.37545   0.03936
  30        4PX         1.30691   0.73822   0.53294  -0.20975  -4.15476
  31        4PY        -0.74589  -0.40650   1.07753  -0.60327   2.34790
  32        4PZ         0.00037  -0.00069  -0.03815   0.01503  -0.00140
  33 5   H  1S         -0.02629  -0.05440   0.03442   0.00579  -0.02310
  34        2S         -0.15409  -0.54688   0.06655   0.07974  -1.40699
  35        3S          1.13329   0.95831  -1.18524   0.20423  -1.08425
  36 6   H  1S          0.02697   0.05416   0.03382   0.00660   0.02294
  37        2S          0.14555   0.51034   0.07218   0.02409   1.38827
  38        3S         -1.13768  -0.97542  -1.09824   0.13348   1.09171
                          26        27        28        29        30
                           V         V         V         V         V
     Eigenvalues --     0.95051   2.23128   2.29112   2.33232   2.40719
   1 1   C  1S          0.09600  -0.01009  -0.01471   0.00044  -0.00052
   2        2S          0.19951   0.00164  -0.01465   0.00096  -0.00058
   3        2PX        -0.09060  -0.07361  -0.13079   0.34839  -0.40851
   4        2PY        -0.15714  -0.13905  -0.22969  -0.19801   0.23296
   5        2PZ         0.00020  -0.00970  -0.01316  -0.00008  -0.00042
   6        3S         -1.54777  -0.18714  -0.03897  -0.00182  -0.00509
   7        3PX        -0.23086   0.06630   0.20510  -0.41578   0.56908
   8        3PY        -0.39184   0.14113   0.37508   0.23858  -0.32732
   9        3PZ        -0.00165   0.00970   0.01634   0.00017   0.00046
  10        4S          5.71426  -0.10347  -0.88328   0.00391  -0.02874
  11        4PX         1.20622   0.05688  -0.18974  -0.06228   0.99543
  12        4PY         1.98360   0.07144  -0.35863   0.02777  -0.55475
  13        4PZ        -0.01422   0.00216   0.00595  -0.00023   0.00094
  14 2   H  1S          0.01516  -0.70288  -0.80380  -0.70171   0.65300
  15        2S         -0.28986   0.99672   1.20229   1.08801  -1.46800
  16        3S         -0.10248  -0.29907  -0.48067  -0.46096   0.36110
  17 3   H  1S          0.01545  -0.69522  -0.79754   0.69506  -0.67686
  18        2S         -0.25471   0.98751   1.19659  -1.08276   1.51772
  19        3S         -0.08360  -0.27524  -0.46002   0.45039  -0.35273
  20 4   C  1S         -0.09379  -0.01022   0.01203   0.00047   0.00034
  21        2S         -0.19449   0.00026   0.01188   0.00071   0.00055
  22        2PX        -0.09203   0.13787  -0.12075   0.30390   0.41696
  23        2PY        -0.15862   0.24055  -0.20355  -0.17551  -0.23820
  24        2PZ         0.00027  -0.01037   0.01248   0.00016   0.00019
  25        3S          1.50460  -0.16721   0.01885  -0.00012   0.00038
  26        3PX        -0.22319  -0.17852   0.20979  -0.38213  -0.58496
  27        3PY        -0.39152  -0.30555   0.34524   0.21744   0.33360
  28        3PZ         0.00264   0.01122  -0.01598  -0.00015  -0.00026
  29        4S         -5.68532  -0.17070   0.88419   0.01355   0.01334
  30        4PX         1.09487  -0.00985  -0.19723   0.11999  -0.85350
  31        4PY         1.97802  -0.02911  -0.31605  -0.06663   0.49816
  32        4PZ         0.00834   0.00324  -0.00432  -0.00010  -0.00080
  33 5   H  1S         -0.01810  -0.79456   0.66918   0.70647   0.68499
  34        2S          0.28952   1.15576  -1.02229  -1.02260  -1.45491
  35        3S          0.06265  -0.36065   0.39789   0.51470   0.42749
  36 6   H  1S         -0.01804  -0.78684   0.68975  -0.69699  -0.68190
  37        2S          0.31643   1.14129  -1.04807   1.00501   1.44124
  38        3S          0.07195  -0.36262   0.42437  -0.51381  -0.43559
                          31        32        33        34        35
                           V         V         V         V         V
     Eigenvalues --     2.67070   2.81806   2.87714   2.95219   3.13910
   1 1   C  1S          0.00037   0.00185  -0.01345   0.00010  -0.00996
   2        2S          0.00030   0.00527  -0.04389  -0.00001  -0.03020
   3        2PX         0.00340   0.05309  -0.48052  -0.72082   0.44326
   4        2PY         0.00565   0.09367  -0.86307   0.40479   0.77353
   5        2PZ        -0.92390  -0.93530  -0.10093  -0.00047   0.00441
   6        3S         -0.00128  -0.04317   0.38222   0.00212   0.25176
   7        3PX        -0.00243  -0.09162   0.84511   0.86933  -0.42216
   8        3PY        -0.00418  -0.16006   1.49218  -0.47591  -0.73415
   9        3PZ         0.93915   1.14294   0.12644   0.00071  -0.00576
  10        4S          0.00958   0.10137  -0.87084  -0.00862  -0.49277
  11        4PX        -0.00150   0.07323  -0.71531  -0.66586   0.20952
  12        4PY        -0.00194   0.12844  -1.26914   0.35562   0.35775
  13        4PZ        -0.33781  -0.61919  -0.07976  -0.00062   0.00333
  14 2   H  1S          0.00870  -0.01363   0.25755  -0.37143  -0.21013
  15        2S         -0.00989   0.00805  -0.21253   0.38440   0.15841
  16        3S         -0.00217   0.02986  -0.30010   0.27628   0.05222
  17 3   H  1S          0.00879  -0.01292   0.24617   0.37173  -0.21104
  18        2S         -0.01007   0.00651  -0.19078  -0.37992   0.15956
  19        3S         -0.00258   0.03045  -0.30512  -0.29406   0.06049
  20 4   C  1S          0.00035  -0.00180   0.01384   0.00059  -0.00717
  21        2S          0.00033  -0.00559   0.04843   0.00131  -0.02226
  22        2PX        -0.00541   0.04635  -0.40417  -0.81211  -0.50864
  23        2PY        -0.00963   0.08274  -0.71856   0.45216  -0.90023
  24        2PZ        -0.92554   0.93322   0.10314   0.00021   0.00975
  25        3S         -0.00185   0.04791  -0.43403  -0.00965   0.19104
  26        3PX         0.00560  -0.08477   0.76483   0.96734   0.54893
  27        3PY         0.00979  -0.15020   1.35209  -0.53235   0.97999
  28        3PZ         0.94150  -1.14086  -0.12998  -0.00022  -0.01226
  29        4S          0.01076  -0.10366   0.90548   0.02780  -0.36268
  30        4PX        -0.00069   0.07258  -0.70822  -0.70186  -0.33897
  31        4PY        -0.00138   0.12740  -1.23731   0.38078  -0.60694
  32        4PZ        -0.33904   0.61806   0.08282   0.00011   0.00965
  33 5   H  1S          0.00816   0.02018  -0.29316   0.42400  -0.26703
  34        2S         -0.01010  -0.01652   0.26705  -0.43523   0.21020
  35        3S         -0.00092  -0.02765   0.28187  -0.24221   0.12985
  36 6   H  1S          0.00826   0.02049  -0.29324  -0.43352  -0.25623
  37        2S         -0.01045  -0.01747   0.27453   0.44473   0.20254
  38        3S         -0.00055  -0.02594   0.26501   0.24121   0.12300
                          36        37        38
                           V         V         V
     Eigenvalues --     3.32010  23.35223  23.70440
   1 1   C  1S         -0.00048  -1.41096  -1.45524
   2        2S         -0.00069   1.50477   1.57359
   3        2PX         0.79241  -0.00670   0.01204
   4        2PY        -0.44387  -0.01084   0.02130
   5        2PZ         0.00052  -0.00040  -0.00019
   6        3S          0.00036  -0.29551  -0.39977
   7        3PX        -1.13265   0.02432  -0.05518
   8        3PY         0.62984   0.04003  -0.09644
   9        3PZ        -0.00083   0.00112   0.00057
  10        4S         -0.01643   0.27346   0.76731
  11        4PX         1.99228  -0.02631   0.13252
  12        4PY        -1.11054  -0.04393   0.22916
  13        4PZ         0.00139  -0.00189  -0.00228
  14 2   H  1S          0.56894   0.01309   0.00734
  15        2S         -0.88771   0.00772  -0.01473
  16        3S         -0.46955  -0.08425  -0.03975
  17 3   H  1S         -0.58127   0.01509   0.00884
  18        2S          0.90536   0.00712  -0.01512
  19        3S          0.49669  -0.08672  -0.04037
  20 4   C  1S          0.00020  -1.45047   1.41566
  21        2S          0.00001   1.54703  -1.53091
  22        2PX        -0.70129   0.00602   0.01279
  23        2PY         0.40217   0.01097   0.02164
  24        2PZ        -0.00047  -0.00039   0.00009
  25        3S          0.00342  -0.30373   0.38912
  26        3PX         0.99799  -0.02200  -0.05649
  27        3PY        -0.58076  -0.03953  -0.09678
  28        3PZ         0.00072   0.00112  -0.00020
  29        4S         -0.00714   0.28021  -0.75687
  30        4PX        -1.76608   0.02286   0.13086
  31        4PY         1.03235   0.04237   0.22573
  32        4PZ        -0.00120  -0.00180   0.00148
  33 5   H  1S          0.47820   0.01314  -0.00446
  34        2S         -0.74814   0.00824   0.01356
  35        3S         -0.42658  -0.08291   0.03744
  36 6   H  1S         -0.47127   0.01151  -0.00311
  37        2S          0.74027   0.00955   0.01287
  38        3S          0.41436  -0.08088   0.03647
     Density Matrix:
                           1         2         3         4         5
   1 1   C  1S          0.65939
   2        2S          0.56150   0.49198
   3        2PX        -0.00043  -0.00055   0.08450
   4        2PY        -0.00118  -0.00162   0.00354   0.08763
   5        2PZ         0.00006   0.00009  -0.00009  -0.00020   0.06441
   6        3S         -0.08891  -0.15381   0.00229   0.00592  -0.00013
   7        3PX         0.00092   0.00142   0.13075   0.00104  -0.00007
   8        3PY         0.00123   0.00189   0.00105   0.13112  -0.00018
   9        3PZ         0.00012   0.00020  -0.00015  -0.00031   0.10361
  10        4S         -0.07932  -0.11423  -0.01563  -0.02820   0.00039
  11        4PX         0.00025   0.00156   0.07001  -0.00447  -0.00043
  12        4PY         0.00065   0.00307  -0.00449   0.06541  -0.00076
  13        4PZ        -0.00009  -0.00021  -0.00059  -0.00101   0.09598
  14 2   H  1S         -0.02064  -0.03287   0.03491  -0.06298  -0.00088
  15        2S         -0.02301  -0.03679   0.04885  -0.08775  -0.00068
  16        3S          0.00055  -0.00074   0.02032  -0.03302  -0.00003
  17 3   H  1S         -0.02119  -0.03372  -0.07292  -0.00188  -0.00095
  18        2S         -0.02334  -0.03727  -0.10041  -0.00229  -0.00074
  19        3S          0.00060  -0.00069  -0.03811   0.00091  -0.00005
  20 4   C  1S          0.00604   0.00973  -0.01090  -0.01883  -0.00029
  21        2S          0.00969   0.01515  -0.01744  -0.03015  -0.00047
  22        2PX         0.01027   0.01642  -0.01249  -0.03203   0.00035
  23        2PY         0.01793   0.02867  -0.03213  -0.04967   0.00065
  24        2PZ        -0.00036  -0.00058  -0.00026  -0.00042   0.06430
  25        3S         -0.02606  -0.03958   0.04897   0.08470   0.00141
  26        3PX         0.01583   0.02453  -0.01842  -0.04579   0.00045
  27        3PY         0.02760   0.04278  -0.04581  -0.07135   0.00085
  28        3PZ        -0.00061  -0.00098  -0.00046  -0.00074   0.10285
  29        4S          0.00540   0.00403   0.02134   0.03730   0.00180
  30        4PX         0.00308   0.00636  -0.01313  -0.02113   0.00048
  31        4PY         0.00520   0.01083  -0.02118  -0.03764   0.00094
  32        4PZ        -0.00052  -0.00083  -0.00073  -0.00123   0.09609
  33 5   H  1S          0.00419   0.00687  -0.00167  -0.01244  -0.00033
  34        2S          0.00628   0.01043   0.00358  -0.02506  -0.00000
  35        3S          0.00319   0.00466   0.00425  -0.01754   0.00007
  36 6   H  1S          0.00412   0.00676  -0.00998  -0.00768  -0.00034
  37        2S          0.00615   0.01024  -0.02354  -0.00941  -0.00002
  38        3S          0.00313   0.00458  -0.01733  -0.00513   0.00005
                           6         7         8         9        10
   6        3S          0.45255
   7        3PX        -0.00199   0.20263
   8        3PY        -0.00159  -0.00489   0.19669
   9        3PZ        -0.00040  -0.00013  -0.00027   0.16667
  10        4S          0.27320  -0.02611  -0.04800   0.00051   0.18204
  11        4PX        -0.00676   0.10882  -0.01015  -0.00070  -0.01493
  12        4PY        -0.01257  -0.01019   0.09853  -0.00121  -0.02900
  13        4PZ         0.00090  -0.00079  -0.00133   0.15439   0.00154
  14 2   H  1S          0.08786   0.05632  -0.09828  -0.00147   0.06953
  15        2S          0.09847   0.07915  -0.13647  -0.00114   0.08220
  16        3S          0.00615   0.03324  -0.05076  -0.00006   0.01138
  17 3   H  1S          0.09022  -0.11406  -0.00119  -0.00155   0.06933
  18        2S          0.09987  -0.15686  -0.00056  -0.00122   0.08045
  19        3S          0.00620  -0.05930   0.00326  -0.00008   0.01020
  20 4   C  1S         -0.02639  -0.01703  -0.02947  -0.00049   0.00514
  21        2S         -0.03992  -0.02649  -0.04584  -0.00079   0.00391
  22        2PX        -0.04597  -0.01774  -0.04547   0.00060  -0.01726
  23        2PY        -0.08029  -0.04564  -0.07085   0.00111  -0.03016
  24        2PZ         0.00174  -0.00035  -0.00056   0.10343   0.00175
  25        3S          0.10154   0.07199   0.12477   0.00236   0.00067
  26        3PX        -0.06637  -0.02629  -0.06480   0.00078  -0.02559
  27        3PY        -0.11581  -0.06492  -0.10171   0.00147  -0.04463
  28        3PZ         0.00287  -0.00063  -0.00100   0.16544   0.00291
  29        4S          0.00170   0.03231   0.05671   0.00299  -0.03258
  30        4PX        -0.02249  -0.01954  -0.02969   0.00081  -0.00638
  31        4PY        -0.03857  -0.02982  -0.05435   0.00155  -0.01034
  32        4PZ         0.00245  -0.00103  -0.00171   0.15456   0.00271
  33 5   H  1S         -0.02044  -0.00064  -0.01783  -0.00049  -0.01459
  34        2S         -0.03117   0.00862  -0.03684   0.00005  -0.01895
  35        3S         -0.01200   0.00807  -0.02639   0.00013  -0.00331
  36 6   H  1S         -0.02008  -0.01499  -0.00927  -0.00049  -0.01469
  37        2S         -0.03060  -0.03598  -0.01055   0.00003  -0.01947
  38        3S         -0.01178  -0.02675  -0.00607   0.00010  -0.00374
                          11        12        13        14        15
  11        4PX         0.05951
  12        4PY        -0.00887   0.05089
  13        4PZ        -0.00099  -0.00170   0.14303
  14 2   H  1S          0.03340  -0.05398  -0.00076   0.08125
  15        2S          0.04780  -0.07477  -0.00029   0.10938   0.14927
  16        3S          0.02056  -0.02763   0.00014   0.03646   0.05196
  17 3   H  1S         -0.06285   0.00174  -0.00079  -0.01329  -0.02451
  18        2S         -0.08681   0.00392  -0.00032  -0.02439  -0.04186
  19        3S         -0.03311   0.00413   0.00014  -0.01767  -0.02657
  20 4   C  1S         -0.00320  -0.00583  -0.00044   0.00422   0.00675
  21        2S         -0.00659  -0.01187  -0.00070   0.00699   0.01128
  22        2PX        -0.01338  -0.01980   0.00080   0.00185  -0.00255
  23        2PY        -0.01991  -0.03674   0.00147   0.01134   0.02415
  24        2PZ        -0.00054  -0.00091   0.09582  -0.00042  -0.00014
  25        3S          0.02333   0.04167   0.00205  -0.02107  -0.03397
  26        3PX        -0.02064  -0.02808   0.00109   0.00112  -0.00689
  27        3PY        -0.02822  -0.05363   0.00201   0.01696   0.03626
  28        3PZ        -0.00089  -0.00150   0.15326  -0.00061  -0.00015
  29        4S          0.00836   0.01597   0.00272  -0.01810  -0.02496
  30        4PX        -0.01494  -0.01242   0.00098  -0.00155  -0.00820
  31        4PY        -0.01251  -0.02970   0.00183   0.01532   0.02732
  32        4PZ        -0.00108  -0.00184   0.14319  -0.00035   0.00019
  33 5   H  1S          0.00208  -0.01582  -0.00024   0.01116   0.02321
  34        2S          0.00931  -0.02755   0.00033   0.02374   0.04425
  35        3S          0.00755  -0.01584   0.00024   0.01664   0.02781
  36 6   H  1S         -0.01469  -0.00570  -0.00025  -0.00905  -0.01804
  37        2S         -0.02840  -0.00505   0.00032  -0.01883  -0.03416
  38        3S         -0.01733  -0.00113   0.00022  -0.01019  -0.01769
                          16        17        18        19        20
  16        3S          0.02071
  17 3   H  1S         -0.01790   0.08266
  18        2S         -0.02672   0.10977   0.14782
  19        3S         -0.01242   0.03584   0.05049   0.01985
  20 4   C  1S          0.00375   0.00431   0.00682   0.00377   0.65948
  21        2S          0.00554   0.00712   0.01137   0.00554   0.56157
  22        2PX        -0.00331   0.00890   0.02204   0.01660   0.00123
  23        2PY         0.01768   0.00736   0.00978   0.00581   0.00185
  24        2PZ         0.00002  -0.00041  -0.00011   0.00004   0.00006
  25        3S         -0.01437  -0.02143  -0.03414  -0.01431  -0.08931
  26        3PX        -0.00668   0.01423   0.03480   0.02595  -0.00043
  27        3PY         0.02663   0.00960   0.01213   0.00738  -0.00104
  28        3PZ         0.00004  -0.00061  -0.00011   0.00007   0.00013
  29        4S         -0.00615  -0.01786  -0.02413  -0.00563  -0.08029
  30        4PX        -0.00683   0.01395   0.02749   0.01702  -0.00020
  31        4PY         0.01604   0.00659   0.00679   0.00212  -0.00016
  32        4PZ         0.00019  -0.00035   0.00021   0.00020  -0.00002
  33 5   H  1S          0.01612  -0.00904  -0.01797  -0.00925  -0.02008
  34        2S          0.02730  -0.01869  -0.03372  -0.01667  -0.02212
  35        3S          0.01458  -0.01007  -0.01738  -0.00881   0.00060
  36 6   H  1S         -0.00936   0.01116   0.02302   0.01576  -0.01974
  37        2S         -0.01705   0.02380   0.04403   0.02682  -0.02206
  38        3S         -0.00906   0.01670   0.02769   0.01437   0.00049
                          21        22        23        24        25
  21        2S          0.49206
  22        2PX         0.00177   0.08237
  23        2PY         0.00264   0.00367   0.08750
  24        2PZ         0.00009   0.00010   0.00014   0.06420
  25        3S         -0.15431  -0.00570  -0.00861  -0.00011   0.45397
  26        3PX        -0.00064   0.12822   0.00194   0.00006  -0.00051
  27        3PY        -0.00157   0.00202   0.13128   0.00006   0.00053
  28        3PZ         0.00022   0.00015   0.00023   0.10269  -0.00043
  29        4S         -0.11609   0.01356   0.02267   0.00051   0.27957
  30        4PX        -0.00146   0.07352  -0.00518   0.00032   0.00617
  31        4PY        -0.00217  -0.00510   0.06732   0.00059   0.00966
  32        4PZ        -0.00009   0.00057   0.00103   0.09594   0.00053
  33 5   H  1S         -0.03199  -0.03337   0.06358  -0.00091   0.08556
  34        2S         -0.03535  -0.04982   0.08852  -0.00072   0.09460
  35        3S         -0.00059  -0.02276   0.03353  -0.00006   0.00557
  36 6   H  1S         -0.03148   0.07091   0.00281  -0.00085   0.08419
  37        2S         -0.03527   0.10123   0.00090  -0.00064   0.09433
  38        3S         -0.00074   0.04070  -0.00315  -0.00004   0.00585
                          26        27        28        29        30
  26        3PX         0.19992
  27        3PY        -0.00230   0.19751
  28        3PZ         0.00007   0.00008   0.16426
  29        4S          0.02517   0.04179   0.00063   0.18766
  30        4PX         0.11509  -0.01065   0.00050   0.01571   0.06733
  31        4PY        -0.01064   0.10183   0.00094   0.02462  -0.01053
  32        4PZ         0.00072   0.00131   0.15345   0.00147   0.00081
  33 5   H  1S         -0.05331   0.09962  -0.00150   0.06678  -0.03464
  34        2S         -0.08005   0.13820  -0.00120   0.07690  -0.05245
  35        3S         -0.03702   0.05168  -0.00010   0.00902  -0.02443
  36 6   H  1S          0.11211   0.00374  -0.00142   0.06723   0.06605
  37        2S          0.15987  -0.00019  -0.00109   0.07882   0.09464
  38        3S          0.06395  -0.00635  -0.00007   0.01016   0.03819
                          31        32        33        34        35
  31        4PY         0.05403
  32        4PZ         0.00152   0.14337
  33 5   H  1S          0.05593  -0.00078   0.08075
  34        2S          0.07774  -0.00032   0.11005   0.15244
  35        3S          0.02923   0.00013   0.03812   0.05539   0.02295
  36 6   H  1S         -0.00190  -0.00075  -0.01240  -0.02609  -0.02001
  37        2S         -0.00637  -0.00029  -0.02622  -0.04867  -0.03186
  38        3S         -0.00647   0.00012  -0.02027  -0.03205  -0.01582
                          36        37        38
  36 6   H  1S          0.07965
  37        2S          0.10958   0.15315
  38        3S          0.03840   0.05620   0.02343
    Full Mulliken population analysis:
                           1         2         3         4         5
   1 1   C  1S          0.65939
   2        2S          0.49324   0.49198
   3        2PX         0.00000   0.00000   0.08450
   4        2PY         0.00000   0.00000   0.00000   0.08763
   5        2PZ         0.00000   0.00000   0.00000   0.00000   0.06441
   6        3S         -0.02927  -0.06442   0.00000   0.00000   0.00000
   7        3PX         0.00000   0.00000   0.08226   0.00000   0.00000
   8        3PY         0.00000   0.00000   0.00000   0.08249   0.00000
   9        3PZ         0.00000   0.00000   0.00000   0.00000   0.06518
  10        4S         -0.01220  -0.02138   0.00000   0.00000   0.00000
  11        4PX         0.00000   0.00000   0.01542   0.00000   0.00000
  12        4PY         0.00000   0.00000   0.00000   0.01441   0.00000
  13        4PZ         0.00000   0.00000   0.00000   0.00000   0.02114
  14 2   H  1S         -0.00023  -0.00033   0.00185   0.00559   0.00000
  15        2S         -0.00168  -0.00321   0.00435   0.01313   0.00000
  16        3S          0.00004  -0.00007   0.00069   0.00189   0.00000
  17 3   H  1S         -0.00026  -0.00038   0.00800  -0.00000   0.00000
  18        2S         -0.00176  -0.00336   0.01777  -0.00000   0.00000
  19        3S          0.00005  -0.00007   0.00254   0.00000   0.00000
  20 4   C  1S          0.00000   0.00000  -0.00002  -0.00006   0.00000
  21        2S          0.00000  -0.00000  -0.00002  -0.00005   0.00000
  22        2PX        -0.00002  -0.00002   0.00011   0.00084   0.00000
  23        2PY        -0.00006  -0.00005   0.00084   0.00194   0.00000
  24        2PZ        -0.00000  -0.00000  -0.00000  -0.00000   0.00041
  25        3S         -0.00058  -0.00098   0.00254   0.00761  -0.00000
  26        3PX        -0.00053  -0.00098   0.00020   0.00552   0.00000
  27        3PY        -0.00161  -0.00295   0.00552   0.01068   0.00000
  28        3PZ        -0.00000  -0.00000  -0.00000  -0.00000   0.00606
  29        4S          0.00034   0.00030   0.00097   0.00293  -0.00000
  30        4PX        -0.00018  -0.00045  -0.00071   0.00147   0.00000
  31        4PY        -0.00052  -0.00133   0.00147   0.00099   0.00000
  32        4PZ        -0.00000  -0.00000  -0.00000  -0.00000   0.00902
  33 5   H  1S          0.00000   0.00000  -0.00000  -0.00000   0.00000
  34        2S          0.00001   0.00002   0.00000  -0.00031   0.00000
  35        3S          0.00007   0.00013   0.00001  -0.00070  -0.00000
  36 6   H  1S          0.00000   0.00000  -0.00000  -0.00000   0.00000
  37        2S          0.00001   0.00002  -0.00023  -0.00006   0.00000
  38        3S          0.00007   0.00012  -0.00056  -0.00012  -0.00000
                           6         7         8         9        10
   6        3S          0.45255
   7        3PX         0.00000   0.20263
   8        3PY         0.00000   0.00000   0.19669
   9        3PZ         0.00000   0.00000   0.00000   0.16667
  10        4S          0.21165   0.00000   0.00000   0.00000   0.18204
  11        4PX         0.00000   0.07111   0.00000   0.00000   0.00000
  12        4PY         0.00000   0.00000   0.06438   0.00000   0.00000
  13        4PZ         0.00000   0.00000   0.00000   0.10089   0.00000
  14 2   H  1S          0.01614   0.01098   0.03217   0.00001   0.01839
  15        2S          0.04144   0.01978   0.05726   0.00001   0.04738
  16        3S          0.00283   0.00396   0.01015   0.00000   0.00858
  17 3   H  1S          0.01720   0.04455  -0.00000   0.00001   0.01860
  18        2S          0.04292   0.07724  -0.00000   0.00001   0.04687
  19        3S          0.00288   0.01375   0.00000   0.00000   0.00774
  20 4   C  1S         -0.00059  -0.00057  -0.00172   0.00000   0.00032
  21        2S         -0.00099  -0.00105  -0.00316   0.00000   0.00030
  22        2PX         0.00239   0.00019   0.00548   0.00000   0.00078
  23        2PY         0.00722   0.00550   0.01060   0.00000   0.00237
  24        2PZ         0.00000  -0.00000  -0.00000   0.00610   0.00000
  25        3S          0.02155   0.01346   0.04038  -0.00000   0.00025
  26        3PX         0.01241  -0.00125   0.01847   0.00000   0.00394
  27        3PY         0.03748   0.01850   0.02860   0.00000   0.01191
  28        3PZ         0.00000  -0.00000  -0.00000   0.03512   0.00000
  29        4S          0.00064   0.00498   0.01513  -0.00000  -0.02043
  30        4PX         0.00631  -0.00399   0.00588   0.00000   0.00193
  31        4PY         0.01875   0.00591   0.00132   0.00000   0.00542
  32        4PZ         0.00000  -0.00000  -0.00000   0.04929   0.00000
  33 5   H  1S         -0.00005  -0.00000  -0.00019   0.00000  -0.00077
  34        2S         -0.00119   0.00006  -0.00319  -0.00000  -0.00315
  35        3S         -0.00194   0.00011  -0.00423  -0.00000  -0.00119
  36 6   H  1S         -0.00005  -0.00012  -0.00005   0.00000  -0.00076
  37        2S         -0.00113  -0.00250  -0.00051  -0.00000  -0.00318
  38        3S         -0.00188  -0.00350  -0.00055  -0.00000  -0.00133
                          11        12        13        14        15
  11        4PX         0.05951
  12        4PY         0.00000   0.05089
  13        4PZ         0.00000   0.00000   0.14303
  14 2   H  1S          0.00640   0.01736   0.00001   0.08125
  15        2S          0.01541   0.04048   0.00000   0.07726   0.14927
  16        3S          0.00519   0.01172  -0.00000   0.01362   0.04099
  17 3   H  1S          0.02356   0.00000   0.00001  -0.00001  -0.00063
  18        2S          0.05460   0.00001   0.00000  -0.00063  -0.00515
  19        3S          0.01625   0.00001  -0.00000  -0.00195  -0.00768
  20 4   C  1S         -0.00019  -0.00059   0.00000   0.00000   0.00002
  21        2S         -0.00047  -0.00146   0.00000   0.00000   0.00003
  22        2PX        -0.00072   0.00137   0.00000  -0.00000   0.00000
  23        2PY         0.00138   0.00096   0.00000  -0.00000  -0.00036
  24        2PZ        -0.00000  -0.00000   0.00899   0.00000   0.00000
  25        3S          0.00655   0.02026  -0.00000  -0.00007  -0.00151
  26        3PX        -0.00422   0.00556   0.00000  -0.00000   0.00004
  27        3PY         0.00559   0.00130   0.00000  -0.00023  -0.00360
  28        3PZ        -0.00000  -0.00000   0.04888   0.00000   0.00000
  29        4S          0.00253   0.00838  -0.00000  -0.00107  -0.00451
  30        4PX        -0.00718   0.00315   0.00000   0.00001   0.00016
  31        4PY         0.00317  -0.00559   0.00000  -0.00245  -0.01034
  32        4PZ        -0.00000  -0.00000   0.08979   0.00000  -0.00000
  33 5   H  1S          0.00003  -0.00233   0.00000   0.00000   0.00000
  34        2S          0.00028  -0.00983  -0.00000   0.00000   0.00016
  35        3S          0.00029  -0.00730  -0.00000   0.00023   0.00146
  36 6   H  1S         -0.00175  -0.00047   0.00000  -0.00000  -0.00004
  37        2S         -0.00826  -0.00102  -0.00000  -0.00004  -0.00091
  38        3S         -0.00655  -0.00030  -0.00000  -0.00046  -0.00245
                          16        17        18        19        20
  16        3S          0.02071
  17 3   H  1S         -0.00198   0.08266
  18        2S         -0.00772   0.07754   0.14782
  19        3S         -0.00642   0.01339   0.03984   0.01985
  20 4   C  1S          0.00009   0.00000   0.00002   0.00010   0.65948
  21        2S          0.00016   0.00000   0.00003   0.00017   0.49331
  22        2PX         0.00001  -0.00000  -0.00028  -0.00059   0.00000
  23        2PY        -0.00074  -0.00000  -0.00008  -0.00014   0.00000
  24        2PZ        -0.00000   0.00000   0.00000  -0.00000   0.00000
  25        3S         -0.00249  -0.00008  -0.00155  -0.00250  -0.02940
  26        3PX         0.00006  -0.00016  -0.00293  -0.00366   0.00000
  27        3PY        -0.00447  -0.00007  -0.00067  -0.00069   0.00000
  28        3PZ        -0.00000   0.00000   0.00000  -0.00000   0.00000
  29        4S         -0.00232  -0.00106  -0.00439  -0.00213  -0.01235
  30        4PX         0.00017  -0.00188  -0.00875  -0.00674   0.00000
  31        4PY        -0.00758  -0.00058  -0.00143  -0.00055   0.00000
  32        4PZ        -0.00000   0.00000  -0.00000  -0.00000   0.00000
  33 5   H  1S          0.00022  -0.00000  -0.00004  -0.00042  -0.00021
  34        2S          0.00143  -0.00004  -0.00091  -0.00233  -0.00158
  35        3S          0.00245  -0.00046  -0.00243  -0.00283   0.00005
  36 6   H  1S         -0.00042   0.00000   0.00000   0.00022  -0.00020
  37        2S         -0.00236   0.00000   0.00015   0.00140  -0.00154
  38        3S         -0.00288   0.00023   0.00145   0.00241   0.00004
                          21        22        23        24        25
  21        2S          0.49206
  22        2PX         0.00000   0.08237
  23        2PY         0.00000   0.00000   0.08750
  24        2PZ         0.00000   0.00000   0.00000   0.06420
  25        3S         -0.06463   0.00000   0.00000   0.00000   0.45397
  26        3PX         0.00000   0.08067   0.00000   0.00000   0.00000
  27        3PY         0.00000   0.00000   0.08259   0.00000   0.00000
  28        3PZ         0.00000   0.00000   0.00000   0.06461   0.00000
  29        4S         -0.02173   0.00000   0.00000   0.00000   0.21658
  30        4PX         0.00000   0.01619   0.00000   0.00000   0.00000
  31        4PY         0.00000   0.00000   0.01483   0.00000   0.00000
  32        4PZ         0.00000   0.00000   0.00000   0.02113   0.00000
  33 5   H  1S         -0.00030   0.00147   0.00566   0.00000   0.01534
  34        2S         -0.00302   0.00381   0.01367   0.00000   0.03929
  35        3S         -0.00006   0.00067   0.00201   0.00000   0.00255
  36 6   H  1S         -0.00027   0.00670   0.00002   0.00000   0.01465
  37        2S         -0.00294   0.01717   0.00001   0.00000   0.03851
  38        3S         -0.00007   0.00272  -0.00001   0.00000   0.00266
                          26        27        28        29        30
  26        3PX         0.19992
  27        3PY         0.00000   0.19751
  28        3PZ         0.00000   0.00000   0.16426
  29        4S          0.00000   0.00000   0.00000   0.18766
  30        4PX         0.07520   0.00000   0.00000   0.00000   0.06733
  31        4PY         0.00000   0.06654   0.00000   0.00000   0.00000
  32        4PZ         0.00000   0.00000   0.10028   0.00000   0.00000
  33 5   H  1S          0.00887   0.03347   0.00001   0.01751   0.00575
  34        2S          0.01725   0.06016   0.00001   0.04402   0.01468
  35        3S          0.00383   0.01080   0.00000   0.00678   0.00537
  36 6   H  1S          0.04108   0.00009   0.00001   0.01742   0.02461
  37        2S          0.07693  -0.00001   0.00001   0.04473   0.05963
  38        3S          0.01492  -0.00010   0.00000   0.00760   0.01897
                          31        32        33        34        35
  31        4PY         0.05403
  32        4PZ         0.00000   0.14337
  33 5   H  1S          0.01874   0.00001   0.08075
  34        2S          0.04394   0.00000   0.07774   0.15244
  35        3S          0.01298  -0.00000   0.01425   0.04370   0.02295
  36 6   H  1S         -0.00005   0.00001  -0.00001  -0.00080  -0.00235
  37        2S         -0.00027   0.00000  -0.00080  -0.00669  -0.00971
  38        3S         -0.00022  -0.00000  -0.00239  -0.00976  -0.00846
                          36        37        38
  36 6   H  1S          0.07965
  37        2S          0.07741   0.15315
  38        3S          0.01435   0.04434   0.02343
     Gross orbital populations:
                           1
   1 1   C  1S          1.10435
   2        2S          0.88586
   3        2PX         0.22750
   4        2PY         0.23581
   5        2PZ         0.16624
   6        3S          0.79288
   7        3PX         0.56195
   8        3PY         0.55540
   9        3PZ         0.42331
  10        4S          0.50410
  11        4PX         0.25793
  12        4PY         0.21137
  13        4PZ         0.41274
  14 2   H  1S          0.27381
  15        2S          0.46657
  16        3S          0.08554
  17 3   H  1S          0.27815
  18        2S          0.46418
  19        3S          0.08189
  20 4   C  1S          1.10442
  21        2S          0.88584
  22        2PX         0.22131
  23        2PY         0.23566
  24        2PZ         0.16545
  25        3S          0.79239
  26        3PX         0.55112
  27        3PY         0.55635
  28        3PZ         0.41925
  29        4S          0.50851
  30        4PX         0.27693
  31        4PY         0.21718
  32        4PZ         0.41289
  33 5   H  1S          0.27231
  34        2S          0.46986
  35        3S          0.08905
  36 6   H  1S          0.26887
  37        2S          0.47134
  38        3S          0.09171
          Condensed to atoms (all electrons):
               1          2          3          4          5          6
     1  C    5.031752   0.387683   0.388747   0.601250  -0.035361  -0.034642
     2  H    0.387683   0.514986  -0.032165  -0.040996   0.005965  -0.009566
     3  H    0.388747  -0.032165   0.511863  -0.040607  -0.009476   0.005862
     4  C    0.601250  -0.040996  -0.040607   5.061308   0.383536   0.382807
     5  H   -0.035361   0.005965  -0.009476   0.383536   0.527516  -0.040960
     6  H   -0.034642  -0.009566   0.005862   0.382807  -0.040960   0.528421
 Mulliken charges:
               1
     1  C   -0.339429
     2  H    0.174092
     3  H    0.175776
     4  C   -0.347298
     5  H    0.168779
     6  H    0.168078
 Sum of Mulliken charges =  -0.00000
 Mulliken charges with hydrogens summed into heavy atoms:
               1
     1  C    0.010440
     4  C   -0.010440
 Electronic spatial extent (au):  <R**2>=             83.8056
 Charge=             -0.0000 electrons
 Dipole moment (field-independent basis, Debye):
    X=              0.0015    Y=              0.0250    Z=             -0.0763  Tot=              0.0803
 Quadrupole moment (field-independent basis, Debye-Ang):
   XX=            -12.1994   YY=            -12.2251   ZZ=            -15.6820
   XY=              0.0034   XZ=             -0.0005   YZ=             -0.0018
 Traceless Quadrupole moment (field-independent basis, Debye-Ang):
   XX=              1.1694   YY=              1.1438   ZZ=             -2.3132
   XY=              0.0034   XZ=             -0.0005   YZ=             -0.0018
 Octapole moment (field-independent basis, Debye-Ang**2):
  XXX=             -0.3918  YYY=             -0.0518  ZZZ=             -0.0620  XYY=              0.2280
  XXY=             -0.0274  XXZ=             -0.1061  XZZ=             -0.1045  YZZ=             -0.0953
  YYZ=             -0.1389  XYZ=             -0.0279
 Hexadecapole moment (field-independent basis, Debye-Ang**3):
 XXXX=            -34.3278 YYYY=            -55.2894 ZZZZ=            -17.8285 XXXY=             -7.2601
 XXXZ=              0.0164 YYYX=            -10.7386 YYYZ=              0.0221 ZZZX=              0.0207
 ZZZY=              0.0347 XXYY=            -16.2184 XXZZ=             -9.9448 YYZZ=            -13.6649
 XXYZ=              0.0074 YYXZ=              0.0003 ZZXY=             -3.2096
 N-N= 3.304074183425D+01 E-N=-2.477856929796D+02  KE= 7.814486224337D+01
 Orbital energies and kinetic energies (alpha):
                                 1                 2
   1         O               -10.290925         15.978978
   2         O               -10.288124         15.979687
   3         O                -0.863486          1.536535
   4         O                -0.671994          1.271392
   5         O                -0.559709          0.941985
   6         O                -0.508553          1.283363
   7         O                -0.436650          1.042575
   8         O                -0.356583          1.037917
   9         V                 0.079532          1.182460
  10         V                 0.140699          0.590827
  11         V                 0.164667          0.594412
  12         V                 0.170019          0.681280
  13         V                 0.240536          0.583570
  14         V                 0.371378          0.849528
  15         V                 0.393757          0.934075
  16         V                 0.399644          0.786923
  17         V                 0.463851          1.196699
  18         V                 0.488164          1.416315
  19         V                 0.493937          1.302587
  20         V                 0.590810          1.651302
  21         V                 0.665612          1.573376
  22         V                 0.691063          2.145975
  23         V                 0.772018          2.393383
  24         V                 0.775519          2.350959
  25         V                 0.844250          1.087391
  26         V                 0.950512          3.415044
  27         V                 2.231281          3.925556
  28         V                 2.291117          4.024554
  29         V                 2.332319          4.305907
  30         V                 2.407191          4.518780
  31         V                 2.670696          6.300337
  32         V                 2.818059          6.307302
  33         V                 2.877138          6.138920
  34         V                 2.952193          6.225693
  35         V                 3.139096          6.820334
  36         V                 3.320104          6.402433
  37         V                23.352229         60.074992
  38         V                23.704396         60.202705
 Total kinetic energy from orbitals= 7.814486224337D+01
 Calling FoFJK, ICntrl=      2127 FMM=F ISym2X=0 I1Cent= 0 IOpClX= 0 NMat=1 NMatS=1 NMatT=0.
 -------------------------------------------------------------------
 Center     Atomic                   Forces (Hartrees/Bohr)
 Number     Number              X              Y              Z
 -------------------------------------------------------------------
      1        6           0.016891922    0.012016518   -0.003080468
      2        1          -0.010419562    0.005131221    0.001552018
      3        1           0.000892553   -0.005913375    0.001378265
      4        6           0.010525721    0.009529001   -0.003310639
      5        1           0.001634909   -0.014208390    0.001681000
      6        1          -0.019525542   -0.006554974    0.001779824
 -------------------------------------------------------------------
 Cartesian Forces:  Max     0.019525542 RMS     0.009010811

 GradGradGradGradGradGradGradGradGradGradGradGradGradGradGradGradGradGrad
 Berny optimization.
 Search for a local minimum.
 Step number   1 out of a maximum of    2
 All quantities printed in internal units (Hartrees-Bohrs-Radians)
 Second derivative matrix not updated -- first step.
 The second derivative matrix:
                          X1        Y1        Z1        X2        Y2
           X1           0.76327
           Y1           0.09278   0.85466
           Z1           0.00442   0.00687   0.16941
           X2          -0.16678   0.09753   0.00167   0.14399
           Y2           0.10323  -0.28195  -0.00588  -0.11680   0.27050
           Z2           0.00265  -0.00739  -0.05441  -0.00242   0.00607
           X3          -0.35598   0.00109  -0.00638   0.00011   0.00007
           Y3          -0.00442  -0.11101  -0.00154   0.03237   0.01925
           Z3          -0.00818  -0.00148  -0.05566   0.00122   0.00047
           X4          -0.26574  -0.17682  -0.00049   0.02268   0.01350
           Y4          -0.17733  -0.46994  -0.00081  -0.01310  -0.00780
           Z4           0.00110   0.00196  -0.09363  -0.00047  -0.00065
           X5           0.02347  -0.01356   0.00048  -0.00000   0.00000
           Y5           0.01161  -0.00671   0.00065   0.00000  -0.00000
           Z5          -0.00040   0.00026   0.01743   0.00020  -0.00010
           X6           0.00176  -0.00102   0.00030  -0.00000   0.00000
           Y6          -0.02587   0.01494   0.00072   0.00000  -0.00000
           Z6           0.00042  -0.00022   0.01687  -0.00020   0.00010
                          Z2        X3        Y3        Z3        X4
           Z2           0.02822
           X3          -0.00022   0.35598
           Y3           0.00130  -0.00123   0.07633
           Z3           0.01059   0.00694   0.00100   0.02914
           X4           0.00037  -0.00011  -0.02673  -0.00036   0.70572
           Y4          -0.00019   0.00006   0.01544   0.00023   0.12147
           Z4           0.01554  -0.00034  -0.00076   0.01599  -0.00401
           X5          -0.00019  -0.00000   0.00000   0.00019  -0.14518
           Y5           0.00012   0.00000  -0.00000  -0.00012   0.09178
           Z5           0.00916   0.00020  -0.00013  -0.00932  -0.00237
           X6          -0.00019  -0.00000   0.00000   0.00020  -0.31737
           Y6           0.00010   0.00000  -0.00000  -0.00010  -0.02320
           Z6          -0.00909  -0.00020   0.00013   0.00926   0.00686
                          Y4        Z4        X5        Y5        Z5
           Y4           0.85540
           Z4          -0.00770   0.17529
           X5           0.08343  -0.00157   0.12393
           Y5          -0.28917   0.00567  -0.10231   0.27985
           Z5           0.00702  -0.05695   0.00210  -0.00605   0.02949
           X6          -0.01454   0.00529  -0.00222  -0.00109   0.00028
           Y6          -0.10393   0.00148   0.03243   0.01603  -0.00099
           Z6           0.00146  -0.05623  -0.00102  -0.00026   0.01019
                          X6        Y6        Z6
           X6           0.31783
           Y6           0.01664   0.07296
           Z6          -0.00587  -0.00120   0.02901
 ITU=  0
     Eigenvalues ---    0.03686   0.04371   0.09286   0.09927   0.13464
     Eigenvalues ---    0.17454   0.26234   0.28988   0.52681   0.69873
     Eigenvalues ---    0.97607   1.55341
 Angle between quadratic step and forces=  33.06 degrees.
 Linear search not attempted -- first point.
 B after Tr=     0.007719    0.008935   -0.007863
         Rot=    1.000000   -0.000047    0.000025   -0.000118 Ang=  -0.01 deg.
 Variable       Old X    -DE/DX   Delta X   Delta X   Delta X     New X
                                 (Linear)    (Quad)   (Total)
    X1       -0.63725   0.01689   0.00000   0.02388   0.03185  -0.60540
    Y1       -1.10224   0.01202   0.00000   0.02747   0.03626  -1.06598
    Z1        0.01058  -0.00308   0.00000  -0.01690  -0.02490  -0.01431
    X2        0.42323  -0.01042   0.00000  -0.04023  -0.03183   0.39140
    Y2       -2.88287   0.00513   0.00000   0.02181   0.03084  -2.85203
    Z2       -0.03228   0.00155   0.00000   0.02074   0.01263  -0.01966
    X3       -2.68368   0.00089   0.00000   0.02553   0.03351  -2.65016
    Y3       -1.09343  -0.00591   0.00000  -0.02440  -0.01609  -1.10952
    Z3       -0.03281   0.00138   0.00000   0.02010   0.01200  -0.02081
    X4        0.62908   0.01053   0.00000   0.00805   0.01551   0.64459
    Y4        1.09042   0.00953   0.00000   0.00954   0.01863   1.10905
    Z4        0.00751  -0.00331   0.00000  -0.01563  -0.02336  -0.01586
    X5       -0.29785   0.00163   0.00000  -0.01310  -0.00607  -0.30392
    Y5        2.96241  -0.01421   0.00000  -0.04564  -0.03678   2.92563
    Z5       -0.03658   0.00168   0.00000   0.01974   0.01213  -0.02445
    X6        2.73394  -0.01953   0.00000  -0.05041  -0.04297   2.69097
    Y6        1.23295  -0.00655   0.00000  -0.04243  -0.03286   1.20009
    Z6       -0.03566   0.00178   0.00000   0.01911   0.01150  -0.02416
         Item               Value     Threshold  Converged?
 Maximum Force            0.019526     0.000450     NO 
 RMS     Force            0.009011     0.000300     NO 
 Maximum Displacement     0.042975     0.001800     NO 
 RMS     Displacement     0.026170     0.001200     NO 
 Predicted change in Energy=-1.863822D-03
 GradGradGradGradGradGradGradGradGradGradGradGradGradGradGradGradGradGrad

 Unable to Open any file for archive entry.
 1\1\GINC-BHD0007\Force\RwB97XD\6-311G\C2H4\BWEIGHT\11-Jan-2023\0\\# WB
 97XD/6-311G SCF=XQC FORCE nosym pop=full guess=read\\MD Step 1000\\0,1
 \C,-0.33721986,-0.58327982,0.00560061\H,0.22396386,-1.52554723,-0.0170
 8431\H,-1.42013993,-0.57861783,-0.01736079\C,0.33289408,0.57702527,0.0
 0397196\H,-0.15761721,1.56764144,-0.01935915\H,1.44674057,0.65245058,-
 0.01886881\\Version=ES64L-G16RevC.01\HF=-78.5553452\RMSD=5.512e-09\RMS
 F=9.011e-03\Dipole=0.0005784,0.0098278,-0.0300177\Quadrupole=0.8694186
 ,0.8503665,-1.7197852,0.0025127,-0.0003575,-0.0013135\PG=C01 [X(C2H4)]
 \\@
 The archive entry for this job was punched.


 SATCHEL PAIGE'S GUIDE TO LONGEVITY

    1.  AVOID FRIED MEATS, WHICH ANGRY UP THE BLOOD.

    2.  IF YOUR STOMACH DISPUTES YOU, LIE DOWN AND PACIFY IT WITH COOL
        THOUGHTS.

    3.  KEEP THE JUICES FLOWING BY JANGLING AROUND GENTLY AS YOU MOVE.

    4.  GO VERY LIGHT ON THE VICES, SUCH AS CARRYING ON IN SOCIETY.
        THE SOCIAL RUMBLE AIN'T RESTFUL.

    5.  AVOID RUNNING AT ALL TIMES.

    6.  DON'T LOOK BACK.  SOMETHING MAY BE GAINING ON YOU.
 Job cpu time:       0 days  0 hours  0 minutes 14.0 seconds.
 Elapsed time:       0 days  0 hours  0 minutes  4.0 seconds.
 File lengths (MBytes):  RWF=    272 Int=      0 D2E=      0 Chk=     32 Scr=     32
 Normal termination of Gaussian 16 at Wed Jan 11 19:42:31 2023.
