 Entering Gaussian System, Link 0=g16
 Initial command:
 /software/gaussian/g16-c01/avx2/g16/l1.exe "/gpfs/fs2/scratch/bweight/software/many_molecule_many_mode_NAMD/src/NAMD/TEST_NVT/TRAJ/traj-41/G16/GS_NEW/Gau-23420.inp" -scrdir="/gpfs/fs2/scratch/bweight/software/many_molecule_many_mode_NAMD/src/NAMD/TEST_NVT/TRAJ/traj-41/G16/GS_NEW/"
 Entering Link 1 = /software/gaussian/g16-c01/avx2/g16/l1.exe PID=     23424.
  
 Copyright (c) 1988-2019, Gaussian, Inc.  All Rights Reserved.
  
 This is part of the Gaussian(R) 16 program.  It is based on
 the Gaussian(R) 09 system (copyright 2009, Gaussian, Inc.),
 the Gaussian(R) 03 system (copyright 2003, Gaussian, Inc.),
 the Gaussian(R) 98 system (copyright 1998, Gaussian, Inc.),
 the Gaussian(R) 94 system (copyright 1995, Gaussian, Inc.),
 the Gaussian 92(TM) system (copyright 1992, Gaussian, Inc.),
 the Gaussian 90(TM) system (copyright 1990, Gaussian, Inc.),
 the Gaussian 88(TM) system (copyright 1988, Gaussian, Inc.),
 the Gaussian 86(TM) system (copyright 1986, Carnegie Mellon
 University), and the Gaussian 82(TM) system (copyright 1983,
 Carnegie Mellon University). Gaussian is a federally registered
 trademark of Gaussian, Inc.
  
 This software contains proprietary and confidential information,
 including trade secrets, belonging to Gaussian, Inc.
  
 This software is provided under written license and may be
 used, copied, transmitted, or stored only in accord with that
 written license.
  
 The following legend is applicable only to US Government
 contracts under FAR:
  
                    RESTRICTED RIGHTS LEGEND
  
 Use, reproduction and disclosure by the US Government is
 subject to restrictions as set forth in subparagraphs (a)
 and (c) of the Commercial Computer Software - Restricted
 Rights clause in FAR 52.227-19.
  
 Gaussian, Inc.
 340 Quinnipiac St., Bldg. 40, Wallingford CT 06492
  
  
 ---------------------------------------------------------------
 Warning -- This program may not be used in any manner that
 competes with the business of Gaussian, Inc. or will provide
 assistance to any competitor of Gaussian, Inc.  The licensee
 of this program is prohibited from giving any competitor of
 Gaussian, Inc. access to this program.  By using this program,
 the user acknowledges that Gaussian, Inc. is engaged in the
 business of creating and licensing software in the field of
 computational chemistry and represents and warrants to the
 licensee that it is not a competitor of Gaussian, Inc. and that
 it will not use this program in any manner prohibited above.
 ---------------------------------------------------------------
  

 Cite this work as:
 Gaussian 16, Revision C.01,
 M. J. Frisch, G. W. Trucks, H. B. Schlegel, G. E. Scuseria, 
 M. A. Robb, J. R. Cheeseman, G. Scalmani, V. Barone, 
 G. A. Petersson, H. Nakatsuji, X. Li, M. Caricato, A. V. Marenich, 
 J. Bloino, B. G. Janesko, R. Gomperts, B. Mennucci, H. P. Hratchian, 
 J. V. Ortiz, A. F. Izmaylov, J. L. Sonnenberg, D. Williams-Young, 
 F. Ding, F. Lipparini, F. Egidi, J. Goings, B. Peng, A. Petrone, 
 T. Henderson, D. Ranasinghe, V. G. Zakrzewski, J. Gao, N. Rega, 
 G. Zheng, W. Liang, M. Hada, M. Ehara, K. Toyota, R. Fukuda, 
 J. Hasegawa, M. Ishida, T. Nakajima, Y. Honda, O. Kitao, H. Nakai, 
 T. Vreven, K. Throssell, J. A. Montgomery, Jr., J. E. Peralta, 
 F. Ogliaro, M. J. Bearpark, J. J. Heyd, E. N. Brothers, K. N. Kudin, 
 V. N. Staroverov, T. A. Keith, R. Kobayashi, J. Normand, 
 K. Raghavachari, A. P. Rendell, J. C. Burant, S. S. Iyengar, 
 J. Tomasi, M. Cossi, J. M. Millam, M. Klene, C. Adamo, R. Cammi, 
 J. W. Ochterski, R. L. Martin, K. Morokuma, O. Farkas, 
 J. B. Foresman, and D. J. Fox, Gaussian, Inc., Wallingford CT, 2019.
 
 ******************************************
 Gaussian 16:  ES64L-G16RevC.01  3-Jul-2019
                11-Jan-2023 
 ******************************************
 %oldchk=../GS_OLD/geometry.chk
 %chk=geometry.chk
 %nprocshared=4
 Will use up to    4 processors via shared memory.
 %mem=5GB
 Copying data from "../GS_OLD/geometry.chk" to current chk file "geometry.chk"
 IOpt=  2 FromEx=T IUOpen= 4 IOptOp= 5 NList=   0 IFRang= 0 IUIn= 4 IUOut= 2.
 -------------------------------------------------------
 # WB97XD/6-311G SCF=XQC FORCE nosym pop=full guess=read
 -------------------------------------------------------
 1/10=7,30=1,38=1/1,3;
 2/12=2,15=1,17=6,18=5,40=1/2;
 3/5=4,6=6,11=2,25=1,30=1,71=1,74=-58,116=-2/1,2,3;
 4/5=1/1;
 5/5=2,8=3,13=1,38=6/2,8;
 6/7=3,28=1/1;
 7/29=1,30=1/1,2,3,16;
 1/10=7,30=1/3;
 99//99;
 -----------
 MD Step 999
 -----------
 Symbolic Z-matrix:
 Charge =  0 Multiplicity = 1
 C                    -0.33496  -0.57997   0.00399 
 H                     0.20807  -1.53681  -0.01049 
 H                    -1.42534  -0.59931  -0.01152 
 C                     0.33355   0.57797   0.0033 
 H                    -0.17058   1.56472  -0.01257 
 H                     1.44536   0.63593  -0.01153 
 

 GradGradGradGradGradGradGradGradGradGradGradGradGradGradGradGradGradGrad
 Berny optimization.
 Initialization pass.
 Trust Radius=3.00D-01 FncErr=1.00D-07 GrdErr=1.00D-07 EigMax=2.50D+02 EigMin=1.00D-04
 Number of steps in this run=      2 maximum allowed number of steps=      2.
 GradGradGradGradGradGradGradGradGradGradGradGradGradGradGradGradGradGrad

                          Input orientation:                          
 ---------------------------------------------------------------------
 Center     Atomic      Atomic             Coordinates (Angstroms)
 Number     Number       Type             X           Y           Z
 ---------------------------------------------------------------------
      1          6           0       -0.334959   -0.579970    0.003989
      2          1           0        0.208067   -1.536811   -0.010494
      3          1           0       -1.425342   -0.599309   -0.011518
      4          6           0        0.333549    0.577969    0.003297
      5          1           0       -0.170580    1.564721   -0.012573
      6          1           0        1.445365    0.635933   -0.011531
 ---------------------------------------------------------------------
                    Distance matrix (angstroms):
                    1          2          3          4          5
     1  C    0.000000
     2  H    1.100287   0.000000
     3  H    1.090664   1.883331   0.000000
     4  C    1.337059   2.118544   2.116577   0.000000
     5  H    2.151046   3.124561   2.501490   1.108187   0.000000
     6  H    2.155972   2.500344   3.125185   1.113425   1.863847
                    6
     6  H    0.000000
 Symmetry turned off by external request.
 Stoichiometry    C2H4
 Framework group  C1[X(C2H4)]
 Deg. of freedom    12
 Full point group                 C1      NOp   1
 Rotational constants (GHZ):         142.8120268          29.6717771          24.5693422
 Standard basis: 6-311G (5D, 7F)
    38 basis functions,    72 primitive gaussians,    38 cartesian basis functions
     8 alpha electrons        8 beta electrons
       nuclear repulsion energy        33.0357863964 Hartrees.
 NAtoms=    6 NActive=    6 NUniq=    6 SFac= 1.00D+00 NAtFMM=   60 NAOKFM=F Big=F
 Integral buffers will be    131072 words long.
 Raffenetti 2 integral format.
 Two-electron integral symmetry is turned off.
 Nuclear repulsion after empirical dispersion term =       33.0349444017 Hartrees.
 One-electron integrals computed using PRISM.
 NBasis=    38 RedAO= T EigKep=  6.42D-03  NBF=    38
 NBsUse=    38 1.00D-06 EigRej= -1.00D+00 NBFU=    38
 Initial guess from the checkpoint file:  "geometry.chk"
 B after Tr=    -0.000248   -0.000439   -0.000236
         Rot=    1.000000   -0.000001    0.000001    0.000004 Ang=  -0.00 deg.
 Keep R1 ints in memory in canonical form, NReq=4036876.
 Requested convergence on RMS density matrix=1.00D-08 within  32 cycles.
 Requested convergence on MAX density matrix=1.00D-06.
 Requested convergence on             energy=1.00D-06.
 No special actions if energy rises.
 SCF Done:  E(RwB97XD) =  -78.5560469517     A.U. after    8 cycles
            NFock=  8  Conv=0.57D-08     -V/T= 2.0054
 QCSCF skips out because SCF is already converged.

 **********************************************************************

            Population analysis using the SCF Density.

 **********************************************************************

 Alpha  occ. eigenvalues --  -10.29095 -10.28855  -0.86361  -0.67136  -0.55830
 Alpha  occ. eigenvalues --   -0.50964  -0.43595  -0.35710
 Alpha virt. eigenvalues --    0.08017   0.14069   0.16399   0.16951   0.24066
 Alpha virt. eigenvalues --    0.37636   0.39207   0.39655   0.46317   0.48650
 Alpha virt. eigenvalues --    0.49356   0.59099   0.66489   0.68905   0.77207
 Alpha virt. eigenvalues --    0.77530   0.84476   0.95301   2.23252   2.28908
 Alpha virt. eigenvalues --    2.33200   2.40655   2.67103   2.81803   2.87819
 Alpha virt. eigenvalues --    2.95213   3.14017   3.31704  23.35057  23.70596
     Molecular Orbital Coefficients:
                           1         2         3         4         5
                           O         O         O         O         O
     Eigenvalues --   -10.29095 -10.28855  -0.86361  -0.67136  -0.55830
   1 1   C  1S          0.10562   0.55341  -0.08832   0.06682  -0.00034
   2        2S          0.08713   0.45544  -0.13959   0.10705  -0.00055
   3        2PX         0.00016  -0.00002   0.02634   0.03727   0.13518
   4        2PY         0.00028  -0.00002   0.04664   0.06178  -0.07366
   5        2PZ         0.00000  -0.00000  -0.00060   0.00093   0.00013
   6        3S          0.00187   0.01448   0.37437  -0.29219   0.00151
   7        3PX        -0.00061   0.00044   0.03444   0.05980   0.21180
   8        3PY        -0.00104   0.00078   0.06067   0.10002  -0.11610
   9        3PZ        -0.00001  -0.00002  -0.00101   0.00166   0.00020
  10        4S          0.00323  -0.01467   0.19157  -0.22874   0.00112
  11        4PX         0.00149  -0.00155   0.00491   0.02423   0.11093
  12        4PY         0.00255  -0.00267   0.00857   0.04138  -0.06140
  13        4PZ         0.00000   0.00004  -0.00036   0.00084   0.00010
  14 2   H  1S         -0.00005  -0.00005   0.05195  -0.08839   0.10043
  15        2S         -0.00030   0.00011   0.05328  -0.10654   0.12751
  16        3S          0.00083   0.00166  -0.00163  -0.01554   0.04139
  17 3   H  1S         -0.00005  -0.00006   0.05299  -0.09137  -0.10264
  18        2S         -0.00030   0.00009   0.05397  -0.10936  -0.12947
  19        3S          0.00085   0.00168  -0.00164  -0.01624  -0.04198
  20 4   C  1S          0.55340  -0.10581  -0.08700  -0.06825  -0.00001
  21        2S          0.45549  -0.08688  -0.13740  -0.10944  -0.00001
  22        2PX        -0.00003  -0.00016  -0.02766   0.03694   0.12040
  23        2PY        -0.00004  -0.00028  -0.04724   0.06491  -0.07405
  24        2PZ        -0.00000   0.00000  -0.00050  -0.00095   0.00013
  25        3S          0.01402  -0.00359   0.36829   0.29900   0.00001
  26        3PX        -0.00020   0.00073  -0.03492   0.06001   0.18884
  27        3PY        -0.00034   0.00126  -0.05960   0.10514  -0.11537
  28        3PZ        -0.00002  -0.00000  -0.00086  -0.00172   0.00020
  29        4S         -0.01222   0.00847   0.18936   0.23754  -0.00098
  30        4PX         0.00088  -0.00192  -0.00538   0.02582   0.10318
  31        4PY         0.00150  -0.00335  -0.00908   0.04447  -0.06255
  32        4PZ         0.00003  -0.00001  -0.00035  -0.00089   0.00011
  33 5   H  1S         -0.00006  -0.00004   0.04963   0.09210  -0.09155
  34        2S         -0.00003  -0.00031   0.05102   0.11066  -0.11610
  35        3S          0.00180   0.00014  -0.00127   0.01658  -0.03746
  36 6   H  1S         -0.00005  -0.00004   0.04897   0.09107   0.08801
  37        2S         -0.00003  -0.00032   0.05065   0.10974   0.11188
  38        3S          0.00177   0.00014  -0.00128   0.01626   0.03636
                           6         7         8         9        10
                           O         O         O         V         V
     Eigenvalues --    -0.50964  -0.43595  -0.35710   0.08017   0.14069
   1 1   C  1S         -0.00455   0.00013  -0.00046   0.00129  -0.03317
   2        2S         -0.00693   0.00023  -0.00075   0.00214  -0.05320
   3        2PX         0.09455  -0.11276  -0.00165   0.00076  -0.03235
   4        2PY         0.16715   0.06679  -0.00269   0.00115  -0.06417
   5        2PZ         0.00241  -0.00005   0.17949  -0.18918  -0.00113
   6        3S          0.02487  -0.00049   0.00219  -0.00647   0.11571
   7        3PX         0.13766  -0.18017  -0.00234   0.00115  -0.03841
   8        3PY         0.24451   0.10702  -0.00378   0.00173  -0.07912
   9        3PZ         0.00382  -0.00006   0.28841  -0.27803  -0.00180
  10        4S         -0.04830  -0.00259   0.00323  -0.00742   1.20797
  11        4PX         0.06969  -0.11282  -0.00191   0.00620  -0.20181
  12        4PY         0.12468   0.06760  -0.00308   0.00997  -0.38847
  13        4PZ         0.00218  -0.00002   0.26701  -0.69690  -0.00669
  14 2   H  1S         -0.07968  -0.11646   0.00007   0.00200  -0.01590
  15        2S         -0.11010  -0.18054   0.00096   0.00320  -0.04558
  16        3S         -0.04117  -0.08384   0.00056   0.00845  -0.82287
  17 3   H  1S         -0.07891   0.11434   0.00005   0.00201  -0.01296
  18        2S         -0.10849   0.17663   0.00094   0.00324  -0.03889
  19        3S         -0.04029   0.08182   0.00055   0.00835  -0.77494
  20 4   C  1S         -0.00732  -0.00036  -0.00039  -0.00127  -0.03649
  21        2S         -0.01138  -0.00059  -0.00064  -0.00211  -0.05860
  22        2PX        -0.09816   0.12250   0.00153   0.00074   0.04019
  23        2PY        -0.16300  -0.07227   0.00289   0.00148   0.06271
  24        2PZ         0.00253   0.00012   0.17938   0.18957  -0.00146
  25        3S          0.03760   0.00174   0.00189   0.00632   0.12942
  26        3PX        -0.14488   0.19655   0.00214   0.00112   0.04913
  27        3PY        -0.23929  -0.11549   0.00407   0.00224   0.07474
  28        3PZ         0.00400   0.00019   0.28715   0.27783  -0.00223
  29        4S         -0.03580   0.00185   0.00316   0.00749   1.25305
  30        4PX        -0.07514   0.12571   0.00164   0.00595   0.25687
  31        4PY        -0.12313  -0.07324   0.00322   0.01111   0.41067
  32        4PZ         0.00231   0.00012   0.26707   0.69779  -0.00852
  33 5   H  1S         -0.07553  -0.12318   0.00010  -0.00193  -0.01375
  34        2S         -0.10373  -0.19252   0.00098  -0.00322  -0.04002
  35        3S         -0.03871  -0.09043   0.00056  -0.00859  -0.83043
  36 6   H  1S         -0.08041   0.12264   0.00008  -0.00193  -0.01642
  37        2S         -0.11069   0.19224   0.00096  -0.00322  -0.04723
  38        3S         -0.04143   0.09023   0.00054  -0.00864  -0.87938
                          11        12        13        14        15
                           V         V         V         V         V
     Eigenvalues --     0.16399   0.16951   0.24066   0.37636   0.39207
   1 1   C  1S          0.00008  -0.04554   0.00003   0.01201   0.00134
   2        2S          0.00011  -0.07421   0.00004   0.01732   0.00222
   3        2PX         0.09732  -0.02245   0.10050  -0.03826  -0.02537
   4        2PY        -0.05507  -0.03721  -0.05769  -0.06958   0.00938
   5        2PZ         0.00003  -0.00320   0.00005  -0.00225  -0.00009
   6        3S         -0.00005   0.16764   0.00013   0.02478  -0.00346
   7        3PX         0.14007  -0.01526   0.10770  -0.05411  -0.10889
   8        3PY        -0.07948  -0.02465  -0.06254  -0.10336   0.04572
   9        3PZ         0.00004  -0.00444   0.00004  -0.00438  -0.00010
  10        4S         -0.01596   1.43317  -0.01225  -2.93286  -0.21817
  11        4PX         0.56908  -0.13159   1.16207  -1.60704  -0.53042
  12        4PY        -0.31459  -0.20753  -0.66374  -2.80812   0.15682
  13        4PZ         0.00021  -0.02081   0.00078  -0.02015  -0.00115
  14 2   H  1S         -0.03070  -0.02523   0.01219  -0.05136   0.07777
  15        2S         -0.08064  -0.01811  -0.02354  -0.59538   0.79524
  16        3S         -1.04129  -0.98552  -1.54367  -0.36305  -0.35989
  17 3   H  1S          0.02927  -0.02581  -0.01386  -0.04432  -0.07673
  18        2S          0.07913  -0.02271   0.01901  -0.53840  -0.76158
  19        3S          1.05949  -1.02810   1.56393  -0.42676   0.28358
  20 4   C  1S          0.00171   0.04269  -0.00003  -0.01944  -0.00005
  21        2S          0.00276   0.06952  -0.00006  -0.03147   0.00016
  22        2PX         0.10097  -0.02421  -0.10026  -0.04242  -0.03031
  23        2PY        -0.06154  -0.03611   0.05753  -0.07533   0.01334
  24        2PZ         0.00017   0.00312  -0.00005   0.00180   0.00016
  25        3S         -0.00583  -0.15558   0.00019   0.03158  -0.00545
  26        3PX         0.14573  -0.01965  -0.11266  -0.09076  -0.10648
  27        3PY        -0.08744  -0.02528   0.06388  -0.16464   0.06019
  28        3PZ         0.00024   0.00430  -0.00004   0.00247   0.00033
  29        4S         -0.06717  -1.33077   0.00376   3.45484   0.15019
  30        4PX         0.54275  -0.12450  -1.12653  -1.31801  -0.56023
  31        4PY        -0.33419  -0.19125   0.65302  -2.31404   0.06548
  32        4PZ         0.00101   0.02017  -0.00075   0.01821   0.00128
  33 5   H  1S          0.03214   0.02504   0.00708   0.01701  -0.07868
  34        2S          0.07231   0.02207  -0.03180   0.15561  -0.76592
  35        3S          1.08636   0.91735  -1.51289   0.46148   0.46408
  36 6   H  1S         -0.03110   0.02649  -0.00627   0.01188   0.08699
  37        2S         -0.07140   0.02266   0.03221   0.10789   0.88857
  38        3S         -0.99526   0.95791   1.50491   0.47912  -0.43529
                          16        17        18        19        20
                           V         V         V         V         V
     Eigenvalues --     0.39655   0.46317   0.48650   0.49356   0.59099
   1 1   C  1S         -0.01614   0.01146  -0.04740   0.00021  -0.00026
   2        2S         -0.02890   0.02725  -0.07958   0.00047  -0.00047
   3        2PX         0.02033  -0.06100   0.01350   0.00054   0.00102
   4        2PY         0.03890  -0.10655   0.01957   0.00072   0.00147
   5        2PZ        -0.00016  -0.00032   0.00115  -0.15187  -0.19266
   6        3S          0.07743  -0.33469   0.10687  -0.00514  -0.00010
   7        3PX         0.08991  -0.24166  -0.02452   0.00077   0.00346
   8        3PY         0.17471  -0.42011  -0.04963   0.00050   0.00498
   9        3PZ        -0.00241  -0.00221   0.00575  -0.62854  -0.68502
  10        4S          2.18140   0.09932   3.16942   0.01952   0.03145
  11        4PX        -0.00854   0.22878   0.79835   0.00752   0.00955
  12        4PY         0.04681   0.41779   1.38380   0.01418   0.01790
  13        4PZ        -0.00261  -0.00033  -0.03580   0.68749   1.24113
  14 2   H  1S         -0.02968  -0.03746  -0.07598  -0.00062  -0.00077
  15        2S         -0.57762  -0.35278  -0.90906  -0.00447  -0.00509
  16        3S          0.23135   0.08727   0.64247   0.00931   0.01087
  17 3   H  1S         -0.03956  -0.03863  -0.07476  -0.00061  -0.00076
  18        2S         -0.67294  -0.36627  -0.89141  -0.00448  -0.00476
  19        3S          0.25513   0.08513   0.61920   0.00920   0.01068
  20 4   C  1S         -0.00438  -0.00150   0.05087   0.00103   0.00031
  21        2S         -0.01066   0.00525   0.08815   0.00189   0.00058
  22        2PX         0.00332   0.05563   0.02642  -0.00013   0.00090
  23        2PY         0.00932   0.09608   0.04715  -0.00040   0.00182
  24        2PZ        -0.00154  -0.00073   0.00129  -0.15275   0.19238
  25        3S          0.08277  -0.29220  -0.22034  -0.00810  -0.00094
  26        3PX        -0.05534   0.23737   0.04707  -0.00024   0.00313
  27        3PY        -0.08065   0.41212   0.08262  -0.00113   0.00632
  28        3PZ        -0.00467  -0.00311   0.00413  -0.63129   0.68263
  29        4S         -0.32666   0.74381  -3.09941  -0.02919  -0.02882
  30        4PX         1.03179  -0.37240   0.66078   0.00291   0.01048
  31        4PY         1.88175  -0.63420   1.13836   0.00541   0.01682
  32        4PZ        -0.01351  -0.00659   0.02182   0.69227  -1.23828
  33 5   H  1S         -0.05207  -0.06099   0.06515   0.00062   0.00074
  34        2S         -0.86651  -0.60845   0.80038   0.01025   0.00316
  35        3S         -0.08019   0.26813  -0.57665  -0.00082  -0.01069
  36 6   H  1S         -0.04151  -0.06038   0.06527   0.00062   0.00075
  37        2S         -0.75207  -0.60082   0.80039   0.01014   0.00326
  38        3S         -0.12657   0.27712  -0.58752  -0.00102  -0.01076
                          21        22        23        24        25
                           V         V         V         V         V
     Eigenvalues --     0.66489   0.68905   0.77207   0.77530   0.84476
   1 1   C  1S          0.00055  -0.00063   0.06192   0.06454   0.00086
   2        2S          0.00115  -0.00136   0.13089   0.13773   0.00196
   3        2PX        -0.12909   0.20023  -0.00822   0.11570  -0.00993
   4        2PY         0.07511  -0.11898  -0.01616   0.19116   0.01245
   5        2PZ        -0.00008   0.00013   0.00064   0.00222   0.00004
   6        3S         -0.00969   0.01464  -0.92729  -1.22180  -0.02064
   7        3PX        -0.60488   0.70031  -0.10714   0.46309  -0.23127
   8        3PY         0.34912  -0.41598  -0.19366   0.75836   0.15991
   9        3PZ        -0.00041   0.00050   0.00231   0.00775   0.00008
  10        4S          0.01760  -0.05121   1.08266   2.35654   0.00162
  11        4PX         1.11365  -0.77420   0.04270  -0.74258   4.45696
  12        4PY        -0.64107   0.47240   0.06652  -1.04434  -2.54362
  13        4PZ         0.00062   0.00011   0.00047  -0.02632   0.00321
  14 2   H  1S          0.02158  -0.05962   0.01571   0.03048  -0.02643
  15        2S          0.10641  -0.63717   0.08845   0.07265  -1.53335
  16        3S         -1.02093   1.11309  -0.25334  -1.08452  -1.20774
  17 3   H  1S         -0.02107   0.05902   0.01592   0.03107   0.02919
  18        2S         -0.11739   0.66057   0.10132   0.04633   1.56489
  19        3S          1.01598  -1.08037  -0.26551  -1.19948   1.20718
  20 4   C  1S          0.00075  -0.00049   0.08771   0.01770   0.00069
  21        2S          0.00152  -0.00096   0.18654   0.03692   0.00140
  22        2PX        -0.15428  -0.18262  -0.08852   0.06657   0.01308
  23        2PY         0.08881   0.10277  -0.15642   0.12059  -0.00215
  24        2PZ        -0.00009  -0.00014   0.00227  -0.00083  -0.00004
  25        3S         -0.01087   0.00317  -1.53210  -0.13712  -0.00691
  26        3PX        -0.69035  -0.61158  -0.30997   0.32859   0.25190
  27        3PY         0.39912   0.34178  -0.55089   0.59455  -0.11856
  28        3PZ        -0.00043  -0.00046   0.00799  -0.00304  -0.00001
  29        4S          0.00618   0.01815   2.66026  -0.31262  -0.01423
  30        4PX         1.25648   0.68060   0.48758  -0.32535  -4.23690
  31        4PY        -0.72209  -0.37513   0.88739  -0.77626   2.43135
  32        4PZ         0.00079   0.00002  -0.02236   0.01540  -0.00290
  33 5   H  1S         -0.02666  -0.05545   0.03485  -0.00260  -0.02420
  34        2S         -0.16297  -0.57508   0.07984   0.06291  -1.43616
  35        3S          1.12409   0.95059  -1.08870   0.45174  -1.11671
  36 6   H  1S          0.02719   0.05519   0.03476  -0.00212   0.02404
  37        2S          0.16008   0.55690   0.07646   0.01685   1.42846
  38        3S         -1.12696  -0.96250  -1.05664   0.38561   1.12400
                          26        27        28        29        30
                           V         V         V         V         V
     Eigenvalues --     0.95301   2.23252   2.28908   2.33200   2.40655
   1 1   C  1S          0.09542  -0.01025  -0.01395   0.00028  -0.00036
   2        2S          0.19823   0.00130  -0.01408   0.00062  -0.00045
   3        2PX        -0.09186  -0.08997  -0.13266   0.33616  -0.41219
   4        2PY        -0.15912  -0.16406  -0.23072  -0.19191   0.23363
   5        2PZ         0.00007  -0.00652  -0.00844   0.00015  -0.00041
   6        3S         -1.53481  -0.18382  -0.03106  -0.00106  -0.00334
   7        3PX        -0.23455   0.09332   0.21271  -0.40449   0.57557
   8        3PY        -0.40045   0.18051   0.37997   0.23302  -0.32750
   9        3PZ        -0.00122   0.00662   0.01060  -0.00014   0.00051
  10        4S          5.71320  -0.12107  -0.88668  -0.00063  -0.01110
  11        4PX         1.19231   0.04745  -0.19010  -0.01131   0.95758
  12        4PY         1.99133   0.06248  -0.35524  -0.00088  -0.53193
  13        4PZ        -0.00854   0.00163   0.00372  -0.00009   0.00094
  14 2   H  1S          0.01605  -0.72723  -0.77015  -0.69936   0.66594
  15        2S         -0.29216   1.03777   1.15665   1.06220  -1.46889
  16        3S         -0.08568  -0.31392  -0.46335  -0.47437   0.38432
  17 3   H  1S          0.01629  -0.72021  -0.77105   0.69131  -0.68076
  18        2S         -0.26936   1.02944   1.16268  -1.05295   1.50126
  19        3S         -0.07009  -0.29645  -0.45175   0.46515  -0.37686
  20 4   C  1S         -0.09428  -0.00989   0.01222   0.00028   0.00016
  21        2S         -0.19565   0.00124   0.01199   0.00035   0.00033
  22        2PX        -0.09257   0.12509  -0.12806   0.31509   0.41324
  23        2PY        -0.16003   0.21768  -0.21610  -0.18252  -0.23849
  24        2PZ         0.00013  -0.00681   0.00835   0.00026   0.00028
  25        3S          1.51306  -0.17411   0.02206   0.00060  -0.00042
  26        3PX        -0.22920  -0.15651   0.21800  -0.39363  -0.57935
  27        3PY        -0.40025  -0.27045   0.36406   0.22683   0.33507
  28        3PZ         0.00165   0.00728  -0.01070  -0.00031  -0.00039
  29        4S         -5.69586  -0.14624   0.88052   0.01081  -0.00332
  30        4PX         1.11820  -0.01968  -0.20339   0.08267  -0.87119
  31        4PY         1.99737  -0.03528  -0.33083  -0.04788   0.50983
  32        4PZ         0.00608   0.00188  -0.00299   0.00001  -0.00080
  33 5   H  1S         -0.01797  -0.77297   0.69979   0.71080   0.67466
  34        2S          0.28799   1.11647  -1.06374  -1.04344  -1.44867
  35        3S          0.05789  -0.34892   0.41924   0.50946   0.41585
  36 6   H  1S         -0.01784  -0.76780   0.71611  -0.69950  -0.67477
  37        2S          0.30674   1.10836  -1.08337   1.02510   1.44435
  38        3S          0.06791  -0.34714   0.43908  -0.50529  -0.42101
                          31        32        33        34        35
                           V         V         V         V         V
     Eigenvalues --     2.67103   2.81803   2.87819   2.95213   3.14017
   1 1   C  1S          0.00024   0.00120  -0.01349   0.00000  -0.00911
   2        2S          0.00020   0.00352  -0.04535  -0.00025  -0.02820
   3        2PX         0.00290   0.03421  -0.46236  -0.74084   0.46192
   4        2PY         0.00401   0.05954  -0.83255   0.41812   0.80643
   5        2PZ        -0.92372  -0.93862  -0.06657  -0.00081   0.00366
   6        3S         -0.00085  -0.02945   0.40088   0.00391   0.23877
   7        3PX        -0.00241  -0.05977   0.82969   0.89016  -0.45704
   8        3PY        -0.00323  -0.10357   1.46987  -0.49051  -0.79664
   9        3PZ         0.93848   1.14793   0.08354   0.00105  -0.00472
  10        4S          0.00638   0.06728  -0.88825  -0.01114  -0.46261
  11        4PX        -0.00060   0.04842  -0.71844  -0.66764   0.24081
  12        4PY        -0.00100   0.08435  -1.27212   0.35845   0.42122
  13        4PZ        -0.33740  -0.62272  -0.05296  -0.00081   0.00311
  14 2   H  1S          0.00569  -0.01032   0.27143  -0.38332  -0.22301
  15        2S         -0.00662   0.00704  -0.23136   0.39339   0.17042
  16        3S         -0.00122   0.01916  -0.29627   0.26627   0.07181
  17 3   H  1S          0.00575  -0.01012   0.26347   0.38469  -0.22271
  18        2S         -0.00677   0.00652  -0.21791  -0.39136   0.16819
  19        3S         -0.00140   0.01927  -0.29636  -0.28050   0.07823
  20 4   C  1S          0.00023  -0.00119   0.01388   0.00037  -0.00752
  21        2S          0.00021  -0.00365   0.04808   0.00089  -0.02387
  22        2PX        -0.00302   0.03151  -0.42756  -0.79312  -0.49164
  23        2PY        -0.00616   0.05632  -0.75565   0.44042  -0.87287
  24        2PZ        -0.92592   0.93622   0.06761  -0.00010   0.00566
  25        3S         -0.00112   0.03123  -0.43043  -0.00700   0.20662
  26        3PX         0.00301  -0.05690   0.79322   0.94362   0.51611
  27        3PY         0.00610  -0.10076   1.39364  -0.51699   0.92378
  28        3PZ         0.94146  -1.14563  -0.08518   0.00010  -0.00708
  29        4S          0.00698  -0.06841   0.91203   0.02097  -0.39554
  30        4PX        -0.00006   0.04803  -0.71836  -0.69142  -0.30162
  31        4PY        -0.00061   0.08420  -1.25295   0.37455  -0.54960
  32        4PZ        -0.33897   0.62174   0.05435  -0.00010   0.00537
  33 5   H  1S          0.00555   0.01267  -0.29148   0.41291  -0.25436
  34        2S         -0.00678  -0.01007   0.26217  -0.42620   0.19984
  35        3S         -0.00070  -0.01816   0.28323  -0.24457   0.11317
  36 6   H  1S          0.00559   0.01270  -0.28826  -0.42218  -0.24245
  37        2S         -0.00696  -0.01034   0.26242   0.43443   0.18809
  38        3S         -0.00060  -0.01765   0.27378   0.24801   0.10589
                          36        37        38
                           V         V         V
     Eigenvalues --     3.31704  23.35057  23.70596
   1 1   C  1S         -0.00030  -1.41791  -1.44843
   2        2S         -0.00042   1.51211   1.56635
   3        2PX         0.77447  -0.00649   0.01216
   4        2PY        -0.43287  -0.01072   0.02126
   5        2PZ         0.00068  -0.00026  -0.00011
   6        3S         -0.00023  -0.29633  -0.39877
   7        3PX        -1.10549   0.02405  -0.05595
   8        3PY         0.61523   0.04024  -0.09725
   9        3PZ        -0.00100   0.00073   0.00033
  10        4S         -0.00427   0.27271   0.76944
  11        4PX         1.94828  -0.02623   0.13347
  12        4PY        -1.08533  -0.04467   0.22967
  13        4PZ         0.00172  -0.00122  -0.00140
  14 2   H  1S          0.54860   0.01297   0.00644
  15        2S         -0.85793   0.00791  -0.01449
  16        3S         -0.45460  -0.08380  -0.03909
  17 3   H  1S         -0.55858   0.01435   0.00731
  18        2S          0.87191   0.00772  -0.01441
  19        3S          0.47522  -0.08557  -0.03903
  20 4   C  1S         -0.00002  -1.44362   1.42270
  21        2S         -0.00028   1.53963  -1.53862
  22        2PX        -0.72136   0.00596   0.01259
  23        2PY         0.41280   0.01056   0.02158
  24        2PZ        -0.00057  -0.00026   0.00007
  25        3S          0.00431  -0.30202   0.39207
  26        3PX         1.02501  -0.02219  -0.05668
  27        3PY        -0.59392  -0.03903  -0.09773
  28        3PZ         0.00084   0.00073  -0.00017
  29        4S         -0.01842   0.27942  -0.76237
  30        4PX        -1.81052   0.02324   0.13170
  31        4PY         1.05838   0.04178   0.22883
  32        4PZ        -0.00147  -0.00120   0.00107
  33 5   H  1S          0.49715   0.01255  -0.00439
  34        2S         -0.78042   0.00849   0.01320
  35        3S         -0.42933  -0.08286   0.03703
  36 6   H  1S         -0.49500   0.01177  -0.00380
  37        2S          0.77784   0.00919   0.01318
  38        3S          0.42233  -0.08175   0.03694
     Density Matrix:
                           1         2         3         4         5
   1 1   C  1S          0.65941
   2        2S          0.56152   0.49201
   3        2PX        -0.00064  -0.00087   0.08403
   4        2PY        -0.00140  -0.00197   0.00370   0.08765
   5        2PZ         0.00004   0.00006  -0.00005  -0.00013   0.06445
   6        3S         -0.08898  -0.15391   0.00316   0.00683  -0.00009
   7        3PX         0.00082   0.00126   0.13021   0.00136  -0.00003
   8        3PY         0.00117   0.00180   0.00138   0.13118  -0.00011
   9        3PZ         0.00008   0.00014  -0.00009  -0.00020   0.10356
  10        4S         -0.07953  -0.11459  -0.01521  -0.02707   0.00027
  11        4PX         0.00023   0.00152   0.07068  -0.00465  -0.00027
  12        4PY         0.00053   0.00286  -0.00472   0.06569  -0.00046
  13        4PZ        -0.00005  -0.00011  -0.00039  -0.00066   0.09586
  14 2   H  1S         -0.02043  -0.03255   0.03450  -0.06307  -0.00055
  15        2S         -0.02273  -0.03634   0.04923  -0.08791  -0.00040
  16        3S          0.00055  -0.00073   0.02107  -0.03313  -0.00001
  17 3   H  1S         -0.02083  -0.03316  -0.07248  -0.00233  -0.00063
  18        2S         -0.02300  -0.03673  -0.10066  -0.00208  -0.00051
  19        3S          0.00058  -0.00070  -0.03872   0.00148  -0.00004
  20 4   C  1S          0.00610   0.00983  -0.01079  -0.01872  -0.00020
  21        2S          0.00981   0.01532  -0.01727  -0.02996  -0.00032
  22        2PX         0.01048   0.01676  -0.01235  -0.03221   0.00020
  23        2PY         0.01821   0.02912  -0.03220  -0.04964   0.00042
  24        2PZ        -0.00023  -0.00037  -0.00020  -0.00029   0.06441
  25        3S         -0.02645  -0.04015   0.04841   0.08409   0.00097
  26        3PX         0.01619   0.02511  -0.01804  -0.04585   0.00026
  27        3PY         0.02812   0.04362  -0.04571  -0.07101   0.00056
  28        3PZ        -0.00038  -0.00062  -0.00035  -0.00051   0.10310
  29        4S          0.00541   0.00407   0.02022   0.03541   0.00117
  30        4PX         0.00311   0.00642  -0.01303  -0.02085   0.00030
  31        4PY         0.00530   0.01100  -0.02085  -0.03710   0.00065
  32        4PZ        -0.00033  -0.00053  -0.00053  -0.00081   0.09588
  33 5   H  1S          0.00421   0.00691  -0.00177  -0.01221  -0.00023
  34        2S          0.00640   0.01064   0.00335  -0.02486  -0.00001
  35        3S          0.00333   0.00489   0.00412  -0.01758   0.00004
  36 6   H  1S          0.00417   0.00686  -0.00970  -0.00764  -0.00024
  37        2S          0.00634   0.01055  -0.02319  -0.00953  -0.00003
  38        3S          0.00330   0.00484  -0.01721  -0.00527   0.00003
                           6         7         8         9        10
   6        3S          0.45274
   7        3PX        -0.00150   0.20208
   8        3PY        -0.00131  -0.00426   0.19684
   9        3PZ        -0.00027  -0.00006  -0.00017   0.16640
  10        4S          0.27432  -0.02609  -0.04700   0.00035   0.18320
  11        4PX        -0.00662   0.11007  -0.01037  -0.00044  -0.01506
  12        4PY        -0.01189  -0.01050   0.09903  -0.00074  -0.02810
  13        4PZ         0.00052  -0.00052  -0.00086   0.15404   0.00099
  14 2   H  1S          0.08701   0.05557  -0.09859  -0.00091   0.06887
  15        2S          0.09724   0.07968  -0.13694  -0.00068   0.08101
  16        3S          0.00607   0.03443  -0.05100  -0.00001   0.01095
  17 3   H  1S          0.08872  -0.11368  -0.00213  -0.00104   0.06890
  18        2S          0.09836  -0.15773  -0.00052  -0.00083   0.07999
  19        3S          0.00610  -0.06042   0.00411  -0.00007   0.01013
  20 4   C  1S         -0.02662  -0.01681  -0.02917  -0.00034   0.00527
  21        2S         -0.04031  -0.02610  -0.04533  -0.00055   0.00401
  22        2PX        -0.04694  -0.01766  -0.04572   0.00035  -0.01837
  23        2PY        -0.08156  -0.04571  -0.07076   0.00071  -0.03181
  24        2PZ         0.00109  -0.00028  -0.00038   0.10349   0.00116
  25        3S          0.10285   0.07083   0.12321   0.00162   0.00089
  26        3PX        -0.06801  -0.02596  -0.06487   0.00045  -0.02744
  27        3PY        -0.11815  -0.06469  -0.10118   0.00096  -0.04749
  28        3PZ         0.00182  -0.00049  -0.00067   0.16566   0.00193
  29        4S          0.00140   0.03052   0.05362   0.00195  -0.03298
  30        4PX        -0.02271  -0.01957  -0.02930   0.00050  -0.00696
  31        4PY        -0.03910  -0.02933  -0.05360   0.00107  -0.01156
  32        4PZ         0.00154  -0.00074  -0.00111   0.15406   0.00177
  33 5   H  1S         -0.02058  -0.00075  -0.01760  -0.00033  -0.01539
  34        2S         -0.03179   0.00838  -0.03666   0.00002  -0.02030
  35        3S         -0.01258   0.00795  -0.02644   0.00008  -0.00394
  36 6   H  1S         -0.02041  -0.01478  -0.00935  -0.00034  -0.01557
  37        2S         -0.03156  -0.03574  -0.01087  -0.00001  -0.02083
  38        3S         -0.01249  -0.02667  -0.00630   0.00005  -0.00430
                          11        12        13        14        15
  11        4PX         0.06102
  12        4PY        -0.00938   0.05139
  13        4PZ        -0.00065  -0.00105   0.14260
  14 2   H  1S          0.03368  -0.05437  -0.00047   0.08102
  15        2S          0.04904  -0.07543  -0.00015   0.10958   0.15033
  16        3S          0.02159  -0.02801   0.00011   0.03698   0.05303
  17 3   H  1S         -0.06347   0.00173  -0.00053  -0.01301  -0.02497
  18        2S         -0.08847   0.00459  -0.00023  -0.02491  -0.04385
  19        3S         -0.03420   0.00479   0.00008  -0.01837  -0.02809
  20 4   C  1S         -0.00313  -0.00562  -0.00030   0.00423   0.00666
  21        2S         -0.00648  -0.01154  -0.00048   0.00699   0.01110
  22        2PX        -0.01310  -0.02013   0.00049   0.00189  -0.00273
  23        2PY        -0.02017  -0.03678   0.00097   0.01155   0.02425
  24        2PZ        -0.00038  -0.00056   0.09580  -0.00026  -0.00008
  25        3S          0.02300   0.04075   0.00141  -0.02098  -0.03338
  26        3PX        -0.02009  -0.02839   0.00066   0.00100  -0.00741
  27        3PY        -0.02840  -0.05347   0.00133   0.01708   0.03622
  28        3PZ        -0.00063  -0.00093   0.15336  -0.00039  -0.00008
  29        4S          0.00767   0.01422   0.00179  -0.01724  -0.02346
  30        4PX        -0.01475  -0.01236   0.00061  -0.00170  -0.00861
  31        4PY        -0.01244  -0.02939   0.00125   0.01531   0.02717
  32        4PZ        -0.00075  -0.00115   0.14263  -0.00021   0.00014
  33 5   H  1S          0.00191  -0.01577  -0.00017   0.01121   0.02343
  34        2S          0.00909  -0.02761   0.00021   0.02379   0.04461
  35        3S          0.00749  -0.01592   0.00015   0.01665   0.02796
  36 6   H  1S         -0.01446  -0.00590  -0.00018  -0.00908  -0.01832
  37        2S         -0.02817  -0.00540   0.00019  -0.01880  -0.03449
  38        3S         -0.01729  -0.00127   0.00014  -0.01012  -0.01779
                          16        17        18        19        20
  16        3S          0.02137
  17 3   H  1S         -0.01850   0.08198
  18        2S         -0.02818   0.10979   0.14921
  19        3S         -0.01336   0.03648   0.05189   0.02070
  20 4   C  1S          0.00363   0.00428   0.00665   0.00362   0.65946
  21        2S          0.00535   0.00706   0.01108   0.00531   0.56154
  22        2PX        -0.00355   0.00911   0.02233   0.01674   0.00112
  23        2PY         0.01755   0.00753   0.00972   0.00557   0.00181
  24        2PZ         0.00001  -0.00026  -0.00005   0.00004   0.00004
  25        3S         -0.01387  -0.02115  -0.03320  -0.01366  -0.08917
  26        3PX        -0.00714   0.01438   0.03508   0.02615  -0.00052
  27        3PY         0.02645   0.00951   0.01158   0.00686  -0.00104
  28        3PZ         0.00003  -0.00038  -0.00003   0.00007   0.00008
  29        4S         -0.00543  -0.01706  -0.02283  -0.00506  -0.08018
  30        4PX        -0.00714   0.01414   0.02777   0.01714  -0.00021
  31        4PY         0.01588   0.00644   0.00634   0.00177  -0.00027
  32        4PZ         0.00013  -0.00021   0.00017   0.00015  -0.00002
  33 5   H  1S          0.01627  -0.00903  -0.01821  -0.00954  -0.02007
  34        2S          0.02761  -0.01864  -0.03414  -0.01716  -0.02229
  35        3S          0.01474  -0.01005  -0.01761  -0.00907   0.00055
  36 6   H  1S         -0.00965   0.01122   0.02335   0.01604  -0.01991
  37        2S         -0.01744   0.02378   0.04442   0.02725  -0.02228
  38        3S         -0.00921   0.01660   0.02776   0.01453   0.00048
                          21        22        23        24        25
  21        2S          0.49201
  22        2PX         0.00161   0.08254
  23        2PY         0.00258   0.00388   0.08746
  24        2PZ         0.00006   0.00007   0.00010   0.06437
  25        3S         -0.15411  -0.00523  -0.00848  -0.00007   0.45333
  26        3PX        -0.00079   0.12844   0.00196   0.00005  -0.00004
  27        3PY        -0.00158   0.00198   0.13109   0.00005   0.00057
  28        3PZ         0.00014   0.00011   0.00016   0.10304  -0.00028
  29        4S         -0.11583   0.01433   0.02451   0.00031   0.27845
  30        4PX        -0.00149   0.07261  -0.00508   0.00022   0.00631
  31        4PY        -0.00240  -0.00503   0.06664   0.00042   0.01047
  32        4PZ        -0.00007   0.00037   0.00068   0.09583   0.00039
  33 5   H  1S         -0.03198  -0.03334   0.06325  -0.00062   0.08552
  34        2S         -0.03562  -0.04940   0.08839  -0.00051   0.09529
  35        3S         -0.00068  -0.02228   0.03351  -0.00006   0.00580
  36 6   H  1S         -0.03175   0.07105   0.00265  -0.00055   0.08491
  37        2S         -0.03562   0.10108   0.00120  -0.00040   0.09529
  38        3S         -0.00078   0.04027  -0.00268  -0.00001   0.00603
                          26        27        28        29        30
  26        3PX         0.20021
  27        3PY        -0.00283   0.19707
  28        3PZ         0.00007   0.00007   0.16495
  29        4S          0.02605   0.04437   0.00039   0.18761
  30        4PX         0.11364  -0.01080   0.00035   0.01583   0.06560
  31        4PY        -0.01076   0.10072   0.00067   0.02628  -0.01040
  32        4PZ         0.00048   0.00088   0.15340   0.00097   0.00054
  33 5   H  1S         -0.05352   0.09918  -0.00103   0.06768  -0.03429
  34        2S         -0.07975   0.13810  -0.00085   0.07884  -0.05160
  35        3S         -0.03640   0.05170  -0.00009   0.00987  -0.02377
  36 6   H  1S          0.11226   0.00316  -0.00091   0.06785   0.06526
  37        2S          0.15953  -0.00020  -0.00068   0.07974   0.09318
  38        3S          0.06325  -0.00583  -0.00003   0.01043   0.03727
                          31        32        33        34        35
  31        4PY         0.05304
  32        4PZ         0.00105   0.14266
  33 5   H  1S          0.05539  -0.00054   0.08041
  34        2S          0.07719  -0.00025   0.10981   0.15231
  35        3S          0.02897   0.00006   0.03791   0.05509   0.02272
  36 6   H  1S         -0.00196  -0.00048  -0.01255  -0.02583  -0.01965
  37        2S         -0.00605  -0.00016  -0.02588  -0.04758  -0.03107
  38        3S         -0.00609   0.00010  -0.01976  -0.03112  -0.01529
                          36        37        38
  36 6   H  1S          0.07989
  37        2S          0.10959   0.15267
  38        3S          0.03803   0.05544   0.02290
    Full Mulliken population analysis:
                           1         2         3         4         5
   1 1   C  1S          0.65941
   2        2S          0.49326   0.49201
   3        2PX         0.00000   0.00000   0.08403
   4        2PY         0.00000   0.00000   0.00000   0.08765
   5        2PZ         0.00000   0.00000   0.00000   0.00000   0.06445
   6        3S         -0.02929  -0.06446   0.00000   0.00000   0.00000
   7        3PX         0.00000   0.00000   0.08192   0.00000   0.00000
   8        3PY         0.00000   0.00000   0.00000   0.08253   0.00000
   9        3PZ         0.00000   0.00000   0.00000   0.00000   0.06515
  10        4S         -0.01223  -0.02145   0.00000   0.00000   0.00000
  11        4PX         0.00000   0.00000   0.01557   0.00000   0.00000
  12        4PY         0.00000   0.00000   0.00000   0.01447   0.00000
  13        4PZ         0.00000   0.00000   0.00000   0.00000   0.02111
  14 2   H  1S         -0.00023  -0.00032   0.00173   0.00558   0.00000
  15        2S         -0.00164  -0.00315   0.00421   0.01326   0.00000
  16        3S          0.00004  -0.00007   0.00069   0.00192   0.00000
  17 3   H  1S         -0.00024  -0.00035   0.00769   0.00000   0.00000
  18        2S         -0.00170  -0.00326   0.01766   0.00001   0.00000
  19        3S          0.00005  -0.00007   0.00258  -0.00000   0.00000
  20 4   C  1S          0.00000   0.00000  -0.00002  -0.00006   0.00000
  21        2S          0.00000  -0.00000  -0.00002  -0.00005   0.00000
  22        2PX        -0.00002  -0.00002   0.00011   0.00086   0.00000
  23        2PY        -0.00006  -0.00005   0.00086   0.00197   0.00000
  24        2PZ        -0.00000  -0.00000  -0.00000  -0.00000   0.00042
  25        3S         -0.00060  -0.00101   0.00253   0.00762  -0.00000
  26        3PX        -0.00055  -0.00101   0.00019   0.00556   0.00000
  27        3PY        -0.00165  -0.00303   0.00554   0.01067   0.00000
  28        3PZ        -0.00000  -0.00000  -0.00000  -0.00000   0.00614
  29        4S          0.00034   0.00031   0.00092   0.00279  -0.00000
  30        4PX        -0.00018  -0.00046  -0.00071   0.00144   0.00000
  31        4PY        -0.00053  -0.00135   0.00144   0.00096   0.00000
  32        4PZ        -0.00000  -0.00000  -0.00000  -0.00000   0.00903
  33 5   H  1S          0.00000   0.00000  -0.00000  -0.00000   0.00000
  34        2S          0.00001   0.00002   0.00000  -0.00032   0.00000
  35        3S          0.00008   0.00014   0.00001  -0.00071  -0.00000
  36 6   H  1S          0.00000   0.00000  -0.00000  -0.00000   0.00000
  37        2S          0.00001   0.00002  -0.00024  -0.00007   0.00000
  38        3S          0.00008   0.00013  -0.00057  -0.00012  -0.00000
                           6         7         8         9        10
   6        3S          0.45274
   7        3PX         0.00000   0.20208
   8        3PY         0.00000   0.00000   0.19684
   9        3PZ         0.00000   0.00000   0.00000   0.16640
  10        4S          0.21251   0.00000   0.00000   0.00000   0.18320
  11        4PX         0.00000   0.07193   0.00000   0.00000   0.00000
  12        4PY         0.00000   0.00000   0.06471   0.00000   0.00000
  13        4PZ         0.00000   0.00000   0.00000   0.10066   0.00000
  14 2   H  1S          0.01583   0.01039   0.03247   0.00000   0.01815
  15        2S          0.04072   0.01917   0.05805   0.00000   0.04657
  16        3S          0.00279   0.00396   0.01033   0.00000   0.00825
  17 3   H  1S          0.01657   0.04381   0.00001   0.00001   0.01834
  18        2S          0.04180   0.07732   0.00000   0.00001   0.04633
  19        3S          0.00282   0.01404  -0.00002   0.00000   0.00767
  20 4   C  1S         -0.00060  -0.00057  -0.00171   0.00000   0.00033
  21        2S         -0.00101  -0.00105  -0.00315   0.00000   0.00030
  22        2PX         0.00246   0.00018   0.00554   0.00000   0.00083
  23        2PY         0.00739   0.00554   0.01064   0.00000   0.00250
  24        2PZ         0.00000  -0.00000  -0.00000   0.00616   0.00000
  25        3S          0.02198   0.01330   0.04006  -0.00000   0.00034
  26        3PX         0.01277  -0.00127   0.01853   0.00000   0.00423
  27        3PY         0.03841   0.01847   0.02843   0.00000   0.01268
  28        3PZ         0.00000  -0.00000  -0.00000   0.03540   0.00000
  29        4S          0.00053   0.00471   0.01432  -0.00000  -0.02072
  30        4PX         0.00638  -0.00402   0.00580   0.00000   0.00211
  31        4PY         0.01903   0.00580   0.00123   0.00000   0.00606
  32        4PZ         0.00000  -0.00000  -0.00000   0.04928   0.00000
  33 5   H  1S         -0.00006  -0.00000  -0.00019   0.00000  -0.00083
  34        2S         -0.00124   0.00006  -0.00324  -0.00000  -0.00342
  35        3S         -0.00206   0.00010  -0.00427  -0.00000  -0.00142
  36 6   H  1S         -0.00005  -0.00013  -0.00006   0.00000  -0.00083
  37        2S         -0.00121  -0.00258  -0.00054   0.00000  -0.00348
  38        3S         -0.00203  -0.00355  -0.00057  -0.00000  -0.00155
                          11        12        13        14        15
  11        4PX         0.06102
  12        4PY         0.00000   0.05139
  13        4PZ         0.00000   0.00000   0.14260
  14 2   H  1S          0.00622   0.01770   0.00000   0.08102
  15        2S          0.01526   0.04136   0.00000   0.07740   0.15033
  16        3S          0.00527   0.01205  -0.00000   0.01382   0.04184
  17 3   H  1S          0.02377  -0.00001   0.00000  -0.00001  -0.00067
  18        2S          0.05570  -0.00005   0.00000  -0.00067  -0.00557
  19        3S          0.01684  -0.00004  -0.00000  -0.00206  -0.00824
  20 4   C  1S         -0.00018  -0.00057   0.00000   0.00000   0.00002
  21        2S         -0.00046  -0.00142   0.00000   0.00000   0.00003
  22        2PX        -0.00071   0.00139   0.00000  -0.00000   0.00000
  23        2PY         0.00140   0.00095   0.00000  -0.00000  -0.00035
  24        2PZ        -0.00000  -0.00000   0.00902   0.00000   0.00000
  25        3S          0.00646   0.01983  -0.00000  -0.00007  -0.00143
  26        3PX        -0.00413   0.00562   0.00000  -0.00000   0.00004
  27        3PY         0.00562   0.00122   0.00000  -0.00022  -0.00348
  28        3PZ        -0.00000  -0.00000   0.04906   0.00000   0.00000
  29        4S          0.00232   0.00746  -0.00000  -0.00099  -0.00415
  30        4PX        -0.00711   0.00313   0.00000   0.00002   0.00019
  31        4PY         0.00315  -0.00559   0.00000  -0.00240  -0.01014
  32        4PZ        -0.00000  -0.00000   0.08961   0.00000  -0.00000
  33 5   H  1S          0.00002  -0.00235   0.00000   0.00000   0.00000
  34        2S          0.00025  -0.00994  -0.00000   0.00000   0.00015
  35        3S          0.00027  -0.00736  -0.00000   0.00023   0.00145
  36 6   H  1S         -0.00177  -0.00049   0.00000  -0.00000  -0.00004
  37        2S         -0.00836  -0.00109  -0.00000  -0.00004  -0.00091
  38        3S         -0.00661  -0.00033  -0.00000  -0.00046  -0.00245
                          16        17        18        19        20
  16        3S          0.02137
  17 3   H  1S         -0.00208   0.08198
  18        2S         -0.00827   0.07756   0.14921
  19        3S         -0.00697   0.01363   0.04094   0.02070
  20 4   C  1S          0.00009   0.00000   0.00002   0.00009   0.65946
  21        2S          0.00016   0.00000   0.00003   0.00015   0.49328
  22        2PX         0.00001  -0.00000  -0.00027  -0.00058   0.00000
  23        2PY        -0.00073  -0.00000  -0.00008  -0.00013   0.00000
  24        2PZ        -0.00000   0.00000   0.00000  -0.00000   0.00000
  25        3S         -0.00236  -0.00007  -0.00143  -0.00233  -0.02935
  26        3PX         0.00007  -0.00015  -0.00282  -0.00362   0.00000
  27        3PY        -0.00439  -0.00007  -0.00062  -0.00064   0.00000
  28        3PZ        -0.00000   0.00000   0.00000  -0.00000   0.00000
  29        4S         -0.00202  -0.00098  -0.00405  -0.00189  -0.01233
  30        4PX         0.00020  -0.00185  -0.00864  -0.00671   0.00000
  31        4PY        -0.00746  -0.00056  -0.00132  -0.00046   0.00000
  32        4PZ        -0.00000   0.00000  -0.00000  -0.00000   0.00000
  33 5   H  1S          0.00022  -0.00000  -0.00004  -0.00043  -0.00021
  34        2S          0.00143  -0.00004  -0.00090  -0.00236  -0.00158
  35        3S          0.00246  -0.00045  -0.00243  -0.00288   0.00004
  36 6   H  1S         -0.00043   0.00000   0.00000   0.00022  -0.00020
  37        2S         -0.00241   0.00000   0.00015   0.00141  -0.00156
  38        3S         -0.00292   0.00023   0.00144   0.00242   0.00004
                          21        22        23        24        25
  21        2S          0.49201
  22        2PX         0.00000   0.08254
  23        2PY         0.00000   0.00000   0.08746
  24        2PZ         0.00000   0.00000   0.00000   0.06437
  25        3S         -0.06454   0.00000   0.00000   0.00000   0.45333
  26        3PX         0.00000   0.08081   0.00000   0.00000   0.00000
  27        3PY         0.00000   0.00000   0.08247   0.00000   0.00000
  28        3PZ         0.00000   0.00000   0.00000   0.06483   0.00000
  29        4S         -0.02168   0.00000   0.00000   0.00000   0.21572
  30        4PX         0.00000   0.01599   0.00000   0.00000   0.00000
  31        4PY         0.00000   0.00000   0.01468   0.00000   0.00000
  32        4PZ         0.00000   0.00000   0.00000   0.02110   0.00000
  33 5   H  1S         -0.00030   0.00149   0.00554   0.00000   0.01523
  34        2S         -0.00303   0.00386   0.01352   0.00000   0.03942
  35        3S         -0.00006   0.00068   0.00199   0.00000   0.00265
  36 6   H  1S         -0.00028   0.00681   0.00001   0.00000   0.01490
  37        2S         -0.00299   0.01723   0.00001   0.00000   0.03910
  38        3S         -0.00007   0.00269  -0.00001   0.00000   0.00275
                          26        27        28        29        30
  26        3PX         0.20021
  27        3PY         0.00000   0.19707
  28        3PZ         0.00000   0.00000   0.16495
  29        4S          0.00000   0.00000   0.00000   0.18761
  30        4PX         0.07426   0.00000   0.00000   0.00000   0.06560
  31        4PY         0.00000   0.06582   0.00000   0.00000   0.00000
  32        4PZ         0.00000   0.00000   0.10024   0.00000   0.00000
  33 5   H  1S          0.00909   0.03296   0.00001   0.01770   0.00583
  34        2S          0.01760   0.05964   0.00001   0.04504   0.01481
  35        3S          0.00386   0.01074   0.00000   0.00741   0.00537
  36 6   H  1S          0.04143   0.00006   0.00000   0.01764   0.02435
  37        2S          0.07701  -0.00000   0.00000   0.04536   0.05875
  38        3S          0.01476  -0.00007   0.00000   0.00781   0.01851
                          31        32        33        34        35
  31        4PY         0.05304
  32        4PZ         0.00000   0.14266
  33 5   H  1S          0.01844   0.00000   0.08041
  34        2S          0.04337   0.00000   0.07757   0.15231
  35        3S          0.01280  -0.00000   0.01417   0.04347   0.02272
  36 6   H  1S         -0.00004   0.00000  -0.00001  -0.00074  -0.00226
  37        2S         -0.00020   0.00000  -0.00075  -0.00630  -0.00930
  38        3S         -0.00016  -0.00000  -0.00228  -0.00932  -0.00808
                          36        37        38
  36 6   H  1S          0.07989
  37        2S          0.07742   0.15267
  38        3S          0.01421   0.04374   0.02290
     Gross orbital populations:
                           1
   1 1   C  1S          1.10436
   2        2S          0.88585
   3        2PX         0.22614
   4        2PY         0.23596
   5        2PZ         0.16631
   6        3S          0.79274
   7        3PX         0.55959
   8        3PY         0.55574
   9        3PZ         0.42307
  10        4S          0.50450
  11        4PX         0.26173
  12        4PY         0.21202
  13        4PZ         0.41207
  14 2   H  1S          0.27312
  15        2S          0.46784
  16        3S          0.08685
  17 3   H  1S          0.27607
  18        2S          0.46605
  19        3S          0.08414
  20 4   C  1S          1.10441
  21        2S          0.88584
  22        2PX         0.22189
  23        2PY         0.23552
  24        2PZ         0.16591
  25        3S          0.79202
  26        3PX         0.55248
  27        3PY         0.55565
  28        3PZ         0.42064
  29        4S          0.50917
  30        4PX         0.27306
  31        4PY         0.21560
  32        4PZ         0.41194
  33 5   H  1S          0.27124
  34        2S          0.47012
  35        3S          0.08935
  36 6   H  1S          0.26961
  37        2S          0.47085
  38        3S          0.09055
          Condensed to atoms (all electrons):
               1          2          3          4          5          6
     1  C    5.036585   0.386601   0.387302   0.602020  -0.036443  -0.035989
     2  H    0.386601   0.518836  -0.034538  -0.039378   0.005945  -0.009664
     3  H    0.387302  -0.034538   0.516142  -0.038995  -0.009524   0.005871
     4  C    0.602020  -0.039378  -0.038995   5.052899   0.383938   0.383655
     5  H   -0.036443   0.005945  -0.009524   0.383938   0.525837  -0.039042
     6  H   -0.035989  -0.009664   0.005871   0.383655  -0.039042   0.526179
 Mulliken charges:
               1
     1  C   -0.340075
     2  H    0.172196
     3  H    0.173741
     4  C   -0.344140
     5  H    0.169289
     6  H    0.168989
 Sum of Mulliken charges =   0.00000
 Mulliken charges with hydrogens summed into heavy atoms:
               1
     1  C    0.005862
     4  C   -0.005862
 Electronic spatial extent (au):  <R**2>=             83.8487
 Charge=             -0.0000 electrons
 Dipole moment (field-independent basis, Debye):
    X=             -0.0011    Y=              0.0100    Z=             -0.0502  Tot=              0.0512
 Quadrupole moment (field-independent basis, Debye-Ang):
   XX=            -12.2071   YY=            -12.2133   ZZ=            -15.6832
   XY=              0.0180   XZ=              0.0009   YZ=             -0.0020
 Traceless Quadrupole moment (field-independent basis, Debye-Ang):
   XX=              1.1608   YY=              1.1545   ZZ=             -2.3153
   XY=              0.0180   XZ=              0.0009   YZ=             -0.0020
 Octapole moment (field-independent basis, Debye-Ang**2):
  XXX=             -0.2471  YYY=             -0.0606  ZZZ=             -0.0630  XYY=              0.0961
  XXY=             -0.0396  XXZ=             -0.0761  XZZ=             -0.0757  YZZ=             -0.0710
  YYZ=             -0.0975  XYZ=             -0.0186
 Hexadecapole moment (field-independent basis, Debye-Ang**3):
 XXXX=            -34.3410 YYYY=            -55.2791 ZZZZ=            -17.8139 XXXY=             -7.2159
 XXXZ=              0.0060 YYYX=            -10.7268 YYYZ=              0.0080 ZZZX=              0.0064
 ZZZY=              0.0168 XXYY=            -16.2424 XXZZ=             -9.9522 YYZZ=            -13.6813
 XXYZ=              0.0044 YYXZ=              0.0008 ZZXY=             -3.2050
 N-N= 3.303494440168D+01 E-N=-2.477707524377D+02  KE= 7.813796666965D+01
 Orbital energies and kinetic energies (alpha):
                                 1                 2
   1         O               -10.290950         15.978570
   2         O               -10.288549         15.980156
   3         O                -0.863611          1.540326
   4         O                -0.671361          1.269186
   5         O                -0.558302          0.939533
   6         O                -0.509637          1.281782
   7         O                -0.435946          1.040480
   8         O                -0.357099          1.038949
   9         V                 0.080174          1.181715
  10         V                 0.140692          0.590955
  11         V                 0.163986          0.598669
  12         V                 0.169509          0.682903
  13         V                 0.240665          0.584641
  14         V                 0.376360          0.858676
  15         V                 0.392074          0.931766
  16         V                 0.396553          0.771221
  17         V                 0.463165          1.190379
  18         V                 0.486497          1.426001
  19         V                 0.493564          1.300889
  20         V                 0.590993          1.653152
  21         V                 0.664886          1.569964
  22         V                 0.689045          2.146934
  23         V                 0.772072          2.483419
  24         V                 0.775305          2.254620
  25         V                 0.844763          1.087669
  26         V                 0.953014          3.429501
  27         V                 2.232524          3.920559
  28         V                 2.289078          4.030839
  29         V                 2.332000          4.300238
  30         V                 2.406551          4.515284
  31         V                 2.671030          6.301175
  32         V                 2.818026          6.307603
  33         V                 2.878185          6.132818
  34         V                 2.952131          6.226836
  35         V                 3.140174          6.822504
  36         V                 3.317037          6.401869
  37         V                23.350570         60.073789
  38         V                23.705964         60.204342
 Total kinetic energy from orbitals= 7.813796666965D+01
 Calling FoFJK, ICntrl=      2127 FMM=F ISym2X=0 I1Cent= 0 IOpClX= 0 NMat=1 NMatS=1 NMatT=0.
 -------------------------------------------------------------------
 Center     Atomic                   Forces (Hartrees/Bohr)
 Number     Number              X              Y              Z
 -------------------------------------------------------------------
      1        6           0.008805932    0.003407666   -0.002081577
      2        1          -0.008439099    0.008340828    0.001047652
      3        1           0.005577785   -0.002612898    0.000984853
      4        6           0.007793880    0.009602796   -0.002235833
      5        1           0.004578127   -0.014916310    0.001131675
      6        1          -0.018316625   -0.003822081    0.001153231
 -------------------------------------------------------------------
 Cartesian Forces:  Max     0.018316625 RMS     0.007558712

 GradGradGradGradGradGradGradGradGradGradGradGradGradGradGradGradGradGrad
 Berny optimization.
 Search for a local minimum.
 Step number   1 out of a maximum of    2
 All quantities printed in internal units (Hartrees-Bohrs-Radians)
 Second derivative matrix not updated -- first step.
 The second derivative matrix:
                          X1        Y1        Z1        X2        Y2
           X1           0.75063
           Y1           0.10435   0.85948
           Z1           0.00302   0.00443   0.17247
           X2          -0.16029   0.09345   0.00101   0.13794
           Y2           0.09998  -0.28340  -0.00369  -0.11267   0.27251
           Z2           0.00161  -0.00465  -0.05526  -0.00145   0.00384
           X3          -0.34710  -0.00421  -0.00412  -0.00059  -0.00033
           Y3          -0.01067  -0.10916  -0.00100   0.03245   0.01841
           Z3          -0.00526  -0.00096  -0.05636   0.00074   0.00026
           X4          -0.26793  -0.17934  -0.00042   0.02294   0.01302
           Y4          -0.17954  -0.47508  -0.00066  -0.01324  -0.00751
           Z4           0.00063   0.00117  -0.09482  -0.00030  -0.00042
           X5           0.02332  -0.01346   0.00032  -0.00000   0.00000
           Y5           0.01191  -0.00688   0.00044   0.00000  -0.00000
           Z5          -0.00027   0.00017   0.01724   0.00013  -0.00007
           X6           0.00136  -0.00079   0.00020  -0.00000   0.00000
           Y6          -0.02603   0.01503   0.00047   0.00000  -0.00000
           Z6           0.00028  -0.00015   0.01672  -0.00013   0.00007
                          Z2        X3        Y3        Z3        X4
           Z2           0.02863
           X3          -0.00016   0.34721
           Y3           0.00080   0.00481   0.07539
           Z3           0.01049   0.00451   0.00070   0.02938
           X4           0.00026   0.00048  -0.02660  -0.00025   0.71320
           Y4          -0.00014  -0.00027   0.01536   0.00016   0.11995
           Z4           0.01609  -0.00023  -0.00050   0.01652  -0.00252
           X5          -0.00013  -0.00000   0.00000   0.00013  -0.14735
           Y5           0.00008   0.00000  -0.00000  -0.00008   0.09223
           Z5           0.00927   0.00014  -0.00008  -0.00941  -0.00163
           X6          -0.00013  -0.00000   0.00000   0.00013  -0.32134
           Y6           0.00007   0.00000  -0.00000  -0.00007  -0.01925
           Z6          -0.00923  -0.00013   0.00008   0.00937   0.00456
                          Y4        Z4        X5        Y5        Z5
           Y4           0.85638
           Z4          -0.00505   0.17478
           X5           0.08446  -0.00108   0.12572
           Y5          -0.28470   0.00381  -0.10328   0.27510
           Z5           0.00472  -0.05654   0.00146  -0.00406   0.02923
           X6          -0.01135   0.00350  -0.00169  -0.00086   0.00017
           Y6          -0.10445   0.00098   0.03228   0.01648  -0.00068
           Z6           0.00097  -0.05603  -0.00071  -0.00020   0.01021
                          X6        Y6        Z6
           X6           0.32167
           Y6           0.01300   0.07294
           Z6          -0.00387  -0.00077   0.02897
 ITU=  0
     Eigenvalues ---    0.03728   0.04361   0.09390   0.09851   0.13478
     Eigenvalues ---    0.17353   0.26500   0.28685   0.52457   0.69443
     Eigenvalues ---    0.96563   1.56464
 Angle between quadratic step and forces=  28.10 degrees.
 Linear search not attempted -- first point.
 B after Tr=     0.004638    0.004841   -0.005130
         Rot=    1.000000   -0.000012    0.000007   -0.000090 Ang=  -0.01 deg.
 Variable       Old X    -DE/DX   Delta X   Delta X   Delta X     New X
                                 (Linear)    (Quad)   (Total)
    X1       -0.63298   0.00881   0.00000   0.01588   0.02072  -0.61226
    Y1       -1.09599   0.00341   0.00000   0.01725   0.02198  -1.07400
    Z1        0.00754  -0.00208   0.00000  -0.01078  -0.01594  -0.00841
    X2        0.39319  -0.00844   0.00000  -0.02782  -0.02266   0.37053
    Y2       -2.90415   0.00834   0.00000   0.03115   0.03606  -2.86809
    Z2       -0.01983   0.00105   0.00000   0.01324   0.00804  -0.01179
    X3       -2.69351   0.00558   0.00000   0.03190   0.03675  -2.65676
    Y3       -1.13253  -0.00261   0.00000  -0.00497  -0.00061  -1.13314
    Z3       -0.02177   0.00098   0.00000   0.01302   0.00782  -0.01394
    X4        0.63032   0.00779   0.00000   0.00330   0.00775   0.63806
    Y4        1.09220   0.00960   0.00000   0.00280   0.00775   1.09996
    Z4        0.00623  -0.00224   0.00000  -0.01045  -0.01555  -0.00932
    X5       -0.32235   0.00458   0.00000   0.00134   0.00545  -0.31690
    Y5        2.95689  -0.01492   0.00000  -0.05051  -0.04572   2.91117
    Z5       -0.02376   0.00113   0.00000   0.01302   0.00796  -0.01580
    X6        2.73134  -0.01832   0.00000  -0.05243  -0.04800   2.68334
    Y6        1.20174  -0.00382   0.00000  -0.02478  -0.01946   1.18228
    Z6       -0.02179   0.00115   0.00000   0.01274   0.00767  -0.01412
         Item               Value     Threshold  Converged?
 Maximum Force            0.018317     0.000450     NO 
 RMS     Force            0.007559     0.000300     NO 
 Maximum Displacement     0.048000     0.001800     NO 
 RMS     Displacement     0.023267     0.001200     NO 
 Predicted change in Energy=-1.426615D-03
 GradGradGradGradGradGradGradGradGradGradGradGradGradGradGradGradGradGrad

 Unable to Open any file for archive entry.
 1\1\GINC-BHD0009\Force\RwB97XD\6-311G\C2H4\BWEIGHT\11-Jan-2023\0\\# WB
 97XD/6-311G SCF=XQC FORCE nosym pop=full guess=read\\MD Step 999\\0,1\
 C,-0.33495928,-0.57997039,0.00398859\H,0.20806718,-1.53681089,-0.01049
 366\H,-1.42534206,-0.59930872,-0.01151773\C,0.33354862,0.57796899,0.00
 329719\H,-0.17058024,1.56472132,-0.01257313\H,1.44536474,0.63593306,-0
 .01153146\\Version=ES64L-G16RevC.01\HF=-78.556047\RMSD=5.732e-09\RMSF=
 7.559e-03\Dipole=-0.0004407,0.0039373,-0.0197379\Quadrupole=0.862992,0
 .8583692,-1.7213612,0.013349,0.0006511,-0.0014708\PG=C01 [X(C2H4)]\\@
 The archive entry for this job was punched.


 A COMPUTER IS LIKE A HORSE, IT WILL SENSE WEAKNESS.
     -- GREG WETTSTEIN
 Job cpu time:       0 days  0 hours  0 minutes 43.8 seconds.
 Elapsed time:       0 days  0 hours  0 minutes 15.2 seconds.
 File lengths (MBytes):  RWF=    272 Int=      0 D2E=      0 Chk=     32 Scr=     32
 Normal termination of Gaussian 16 at Wed Jan 11 18:39:46 2023.
