 Entering Gaussian System, Link 0=g16
 Initial command:
 /software/gaussian/g16-c01/avx2/g16/l1.exe "/gpfs/fs2/scratch/bweight/software/many_molecule_many_mode_NAMD/src/NAMD/TEST_NVT/TRAJ/traj-70/G16/GS_NEW/Gau-9403.inp" -scrdir="/gpfs/fs2/scratch/bweight/software/many_molecule_many_mode_NAMD/src/NAMD/TEST_NVT/TRAJ/traj-70/G16/GS_NEW/"
 Entering Link 1 = /software/gaussian/g16-c01/avx2/g16/l1.exe PID=      9404.
  
 Copyright (c) 1988-2019, Gaussian, Inc.  All Rights Reserved.
  
 This is part of the Gaussian(R) 16 program.  It is based on
 the Gaussian(R) 09 system (copyright 2009, Gaussian, Inc.),
 the Gaussian(R) 03 system (copyright 2003, Gaussian, Inc.),
 the Gaussian(R) 98 system (copyright 1998, Gaussian, Inc.),
 the Gaussian(R) 94 system (copyright 1995, Gaussian, Inc.),
 the Gaussian 92(TM) system (copyright 1992, Gaussian, Inc.),
 the Gaussian 90(TM) system (copyright 1990, Gaussian, Inc.),
 the Gaussian 88(TM) system (copyright 1988, Gaussian, Inc.),
 the Gaussian 86(TM) system (copyright 1986, Carnegie Mellon
 University), and the Gaussian 82(TM) system (copyright 1983,
 Carnegie Mellon University). Gaussian is a federally registered
 trademark of Gaussian, Inc.
  
 This software contains proprietary and confidential information,
 including trade secrets, belonging to Gaussian, Inc.
  
 This software is provided under written license and may be
 used, copied, transmitted, or stored only in accord with that
 written license.
  
 The following legend is applicable only to US Government
 contracts under FAR:
  
                    RESTRICTED RIGHTS LEGEND
  
 Use, reproduction and disclosure by the US Government is
 subject to restrictions as set forth in subparagraphs (a)
 and (c) of the Commercial Computer Software - Restricted
 Rights clause in FAR 52.227-19.
  
 Gaussian, Inc.
 340 Quinnipiac St., Bldg. 40, Wallingford CT 06492
  
  
 ---------------------------------------------------------------
 Warning -- This program may not be used in any manner that
 competes with the business of Gaussian, Inc. or will provide
 assistance to any competitor of Gaussian, Inc.  The licensee
 of this program is prohibited from giving any competitor of
 Gaussian, Inc. access to this program.  By using this program,
 the user acknowledges that Gaussian, Inc. is engaged in the
 business of creating and licensing software in the field of
 computational chemistry and represents and warrants to the
 licensee that it is not a competitor of Gaussian, Inc. and that
 it will not use this program in any manner prohibited above.
 ---------------------------------------------------------------
  

 Cite this work as:
 Gaussian 16, Revision C.01,
 M. J. Frisch, G. W. Trucks, H. B. Schlegel, G. E. Scuseria, 
 M. A. Robb, J. R. Cheeseman, G. Scalmani, V. Barone, 
 G. A. Petersson, H. Nakatsuji, X. Li, M. Caricato, A. V. Marenich, 
 J. Bloino, B. G. Janesko, R. Gomperts, B. Mennucci, H. P. Hratchian, 
 J. V. Ortiz, A. F. Izmaylov, J. L. Sonnenberg, D. Williams-Young, 
 F. Ding, F. Lipparini, F. Egidi, J. Goings, B. Peng, A. Petrone, 
 T. Henderson, D. Ranasinghe, V. G. Zakrzewski, J. Gao, N. Rega, 
 G. Zheng, W. Liang, M. Hada, M. Ehara, K. Toyota, R. Fukuda, 
 J. Hasegawa, M. Ishida, T. Nakajima, Y. Honda, O. Kitao, H. Nakai, 
 T. Vreven, K. Throssell, J. A. Montgomery, Jr., J. E. Peralta, 
 F. Ogliaro, M. J. Bearpark, J. J. Heyd, E. N. Brothers, K. N. Kudin, 
 V. N. Staroverov, T. A. Keith, R. Kobayashi, J. Normand, 
 K. Raghavachari, A. P. Rendell, J. C. Burant, S. S. Iyengar, 
 J. Tomasi, M. Cossi, J. M. Millam, M. Klene, C. Adamo, R. Cammi, 
 J. W. Ochterski, R. L. Martin, K. Morokuma, O. Farkas, 
 J. B. Foresman, and D. J. Fox, Gaussian, Inc., Wallingford CT, 2019.
 
 ******************************************
 Gaussian 16:  ES64L-G16RevC.01  3-Jul-2019
                11-Jan-2023 
 ******************************************
 %oldchk=../GS_OLD/geometry.chk
 %chk=geometry.chk
 %nprocshared=4
 Will use up to    4 processors via shared memory.
 %mem=5GB
 Copying data from "../GS_OLD/geometry.chk" to current chk file "geometry.chk"
 IOpt=  2 FromEx=T IUOpen= 4 IOptOp= 5 NList=   0 IFRang= 0 IUIn= 4 IUOut= 2.
 -------------------------------------------------------
 # WB97XD/6-311G SCF=XQC FORCE nosym pop=full guess=read
 -------------------------------------------------------
 1/10=7,30=1,38=1/1,3;
 2/12=2,15=1,17=6,18=5,40=1/2;
 3/5=4,6=6,11=2,25=1,30=1,71=1,74=-58,116=-2/1,2,3;
 4/5=1/1;
 5/5=2,8=3,13=1,38=6/2,8;
 6/7=3,28=1/1;
 7/29=1,30=1/1,2,3,16;
 1/10=7,30=1/3;
 99//99;
 ------------
 MD Step 1000
 ------------
 Symbolic Z-matrix:
 Charge =  0 Multiplicity = 1
 C                    -0.33592  -0.58104   0.00513 
 H                     0.2153   -1.5298   -0.01553 
 H                    -1.42111  -0.59327  -0.01622 
 C                     0.33335   0.57811   0.00417 
 H                    -0.1622    1.56218  -0.01775 
 H                     1.44275   0.63984  -0.01712 
 

 GradGradGradGradGradGradGradGradGradGradGradGradGradGradGradGradGradGrad
 Berny optimization.
 Initialization pass.
 Trust Radius=3.00D-01 FncErr=1.00D-07 GrdErr=1.00D-07 EigMax=2.50D+02 EigMin=1.00D-04
 Number of steps in this run=      2 maximum allowed number of steps=      2.
 GradGradGradGradGradGradGradGradGradGradGradGradGradGradGradGradGradGrad

                          Input orientation:                          
 ---------------------------------------------------------------------
 Center     Atomic      Atomic             Coordinates (Angstroms)
 Number     Number       Type             X           Y           Z
 ---------------------------------------------------------------------
      1          6           0       -0.335925   -0.581040    0.005125
      2          1           0        0.215299   -1.529802   -0.015534
      3          1           0       -1.421107   -0.593273   -0.016220
      4          6           0        0.333352    0.578114    0.004166
      5          1           0       -0.162197    1.562176   -0.017750
      6          1           0        1.442748    0.639843   -0.017121
 ---------------------------------------------------------------------
                    Distance matrix (angstroms):
                    1          2          3          4          5
     1  C    0.000000
     2  H    1.097463   0.000000
     3  H    1.085461   1.885447   0.000000
     4  C    1.338495   2.111311   2.109666   0.000000
     5  H    2.150366   3.114937   2.496161   1.102010   0.000000
     6  H    2.157481   2.492788   3.118051   1.111316   1.851093
                    6
     6  H    0.000000
 Symmetry turned off by external request.
 Stoichiometry    C2H4
 Framework group  C1[X(C2H4)]
 Deg. of freedom    12
 Full point group                 C1      NOp   1
 Rotational constants (GHZ):         143.5837537          29.6852774          24.6031985
 Standard basis: 6-311G (5D, 7F)
    38 basis functions,    72 primitive gaussians,    38 cartesian basis functions
     8 alpha electrons        8 beta electrons
       nuclear repulsion energy        33.0764759205 Hartrees.
 NAtoms=    6 NActive=    6 NUniq=    6 SFac= 1.00D+00 NAtFMM=   60 NAOKFM=F Big=F
 Integral buffers will be    131072 words long.
 Raffenetti 2 integral format.
 Two-electron integral symmetry is turned off.
 Nuclear repulsion after empirical dispersion term =       33.0756348696 Hartrees.
 One-electron integrals computed using PRISM.
 NBasis=    38 RedAO= T EigKep=  6.44D-03  NBF=    38
 NBsUse=    38 1.00D-06 EigRej= -1.00D+00 NBFU=    38
 Initial guess from the checkpoint file:  "geometry.chk"
 B after Tr=    -0.000268   -0.000364   -0.000461
         Rot=    1.000000   -0.000000    0.000002    0.000006 Ang=  -0.00 deg.
 Keep R1 ints in memory in canonical form, NReq=4036876.
 Requested convergence on RMS density matrix=1.00D-08 within  32 cycles.
 Requested convergence on MAX density matrix=1.00D-06.
 Requested convergence on             energy=1.00D-06.
 No special actions if energy rises.
 SCF Done:  E(RwB97XD) =  -78.5561010274     A.U. after    8 cycles
            NFock=  8  Conv=0.60D-08     -V/T= 2.0051
 QCSCF skips out because SCF is already converged.

 **********************************************************************

            Population analysis using the SCF Density.

 **********************************************************************

 Alpha  occ. eigenvalues --  -10.29004 -10.28789  -0.86372  -0.67249  -0.55944
 Alpha  occ. eigenvalues --   -0.50937  -0.43696  -0.35675
 Alpha virt. eigenvalues --    0.07987   0.14109   0.16494   0.17033   0.24086
 Alpha virt. eigenvalues --    0.37487   0.39358   0.39776   0.46451   0.48828
 Alpha virt. eigenvalues --    0.49387   0.59106   0.66590   0.69158   0.77310
 Alpha virt. eigenvalues --    0.77575   0.84437   0.95183   2.23156   2.29017
 Alpha virt. eigenvalues --    2.33283   2.40789   2.67115   2.81820   2.87806
 Alpha virt. eigenvalues --    2.95216   3.14027   3.32082  23.35287  23.70586
     Molecular Orbital Coefficients:
                           1         2         3         4         5
                           O         O         O         O         O
     Eigenvalues --   -10.29004 -10.28789  -0.86372  -0.67249  -0.55944
   1 1   C  1S          0.11732   0.55104  -0.08831   0.06689  -0.00032
   2        2S          0.09675   0.45349  -0.13957   0.10715  -0.00053
   3        2PX         0.00016  -0.00002   0.02594   0.03681   0.13723
   4        2PY         0.00028  -0.00003   0.04620   0.06050  -0.07285
   5        2PZ         0.00000  -0.00000  -0.00086   0.00130   0.00015
   6        3S          0.00219   0.01446   0.37432  -0.29242   0.00145
   7        3PX        -0.00060   0.00044   0.03423   0.05894   0.21479
   8        3PY        -0.00102   0.00079   0.06052   0.09796  -0.11497
   9        3PZ        -0.00001  -0.00002  -0.00144   0.00232   0.00023
  10        4S          0.00287  -0.01475   0.19160  -0.22682   0.00072
  11        4PX         0.00145  -0.00159   0.00486   0.02374   0.11163
  12        4PY         0.00248  -0.00272   0.00860   0.04056  -0.06054
  13        4PZ         0.00000   0.00005  -0.00051   0.00116   0.00011
  14 2   H  1S         -0.00005  -0.00006   0.05243  -0.08771   0.10124
  15        2S         -0.00030   0.00012   0.05365  -0.10559   0.12813
  16        3S          0.00086   0.00166  -0.00166  -0.01519   0.04140
  17 3   H  1S         -0.00006  -0.00007   0.05371  -0.09135  -0.10476
  18        2S         -0.00030   0.00009   0.05448  -0.10903  -0.13152
  19        3S          0.00090   0.00168  -0.00170  -0.01607  -0.04240
  20 4   C  1S          0.55103  -0.11751  -0.08693  -0.06834  -0.00014
  21        2S          0.45355  -0.09651  -0.13727  -0.10958  -0.00021
  22        2PX        -0.00002  -0.00016  -0.02748   0.03715   0.11860
  23        2PY        -0.00004  -0.00028  -0.04652   0.06639  -0.07482
  24        2PZ        -0.00000   0.00000  -0.00072  -0.00137   0.00015
  25        3S          0.01396  -0.00388   0.36780   0.29942   0.00055
  26        3PX        -0.00019   0.00073  -0.03456   0.06028   0.18581
  27        3PY        -0.00030   0.00126  -0.05852   0.10706  -0.11612
  28        3PZ        -0.00002  -0.00000  -0.00123  -0.00246   0.00023
  29        4S         -0.01204   0.00872   0.18907   0.23680  -0.00064
  30        4PX         0.00082  -0.00192  -0.00535   0.02616   0.10170
  31        4PY         0.00140  -0.00337  -0.00908   0.04534  -0.06289
  32        4PZ         0.00005  -0.00001  -0.00050  -0.00126   0.00012
  33 5   H  1S         -0.00007  -0.00004   0.05018   0.09358  -0.09111
  34        2S         -0.00003  -0.00031   0.05129   0.11158  -0.11475
  35        3S          0.00182   0.00010  -0.00114   0.01672  -0.03677
  36 6   H  1S         -0.00005  -0.00004   0.04909   0.09140   0.08648
  37        2S         -0.00003  -0.00032   0.05063   0.10964   0.10951
  38        3S          0.00178   0.00009  -0.00118   0.01614   0.03544
                           6         7         8         9        10
                           O         O         O         V         V
     Eigenvalues --    -0.50937  -0.43696  -0.35675   0.07987   0.14109
   1 1   C  1S         -0.00401   0.00023  -0.00066   0.00180  -0.03331
   2        2S         -0.00605   0.00040  -0.00107   0.00299  -0.05343
   3        2PX         0.09379  -0.11193  -0.00227   0.00099  -0.03090
   4        2PY         0.16833   0.06637  -0.00384   0.00164  -0.06458
   5        2PZ         0.00340  -0.00002   0.17939  -0.18912  -0.00164
   6        3S          0.02237  -0.00097   0.00312  -0.00905   0.11620
   7        3PX         0.13623  -0.17849  -0.00320   0.00151  -0.03617
   8        3PY         0.24622   0.10624  -0.00541   0.00246  -0.07979
   9        3PZ         0.00539  -0.00001   0.28840  -0.27813  -0.00260
  10        4S         -0.05058  -0.00340   0.00460  -0.01010   1.21889
  11        4PX         0.06868  -0.11079  -0.00261   0.00847  -0.19211
  12        4PY         0.12538   0.06683  -0.00443   0.01408  -0.38758
  13        4PZ         0.00307   0.00003   0.26721  -0.69550  -0.00959
  14 2   H  1S         -0.08074  -0.11589   0.00009   0.00280  -0.01670
  15        2S         -0.11162  -0.17899   0.00133   0.00441  -0.04722
  16        3S         -0.04177  -0.08280   0.00079   0.01164  -0.83657
  17 3   H  1S         -0.07865   0.11337   0.00007   0.00282  -0.01263
  18        2S         -0.10806   0.17433   0.00131   0.00452  -0.03731
  19        3S         -0.04007   0.08050   0.00078   0.01157  -0.76791
  20 4   C  1S         -0.00806  -0.00049  -0.00055  -0.00176  -0.03629
  21        2S         -0.01261  -0.00082  -0.00090  -0.00292  -0.05829
  22        2PX        -0.09884   0.12410   0.00223   0.00111   0.04127
  23        2PY        -0.16218  -0.07323   0.00403   0.00202   0.06104
  24        2PZ         0.00356   0.00012   0.17919   0.18950  -0.00200
  25        3S          0.04094   0.00235   0.00265   0.00875   0.12864
  26        3PX        -0.14627   0.19859   0.00312   0.00171   0.05082
  27        3PY        -0.23825  -0.11653   0.00566   0.00310   0.07234
  28        3PZ         0.00563   0.00017   0.28692   0.27796  -0.00305
  29        4S         -0.03077   0.00311   0.00438   0.00996   1.24948
  30        4PX        -0.07630   0.12662   0.00241   0.00858   0.26536
  31        4PY        -0.12287  -0.07332   0.00447   0.01536   0.40912
  32        4PZ         0.00326   0.00009   0.26743   0.69651  -0.01188
  33 5   H  1S         -0.07453  -0.12410   0.00014  -0.00268  -0.01217
  34        2S         -0.10177  -0.19313   0.00140  -0.00446  -0.03739
  35        3S         -0.03794  -0.09056   0.00079  -0.01160  -0.82061
  36 6   H  1S         -0.08037   0.12395   0.00011  -0.00269  -0.01605
  37        2S         -0.11023   0.19380   0.00137  -0.00447  -0.04720
  38        3S         -0.04131   0.09086   0.00076  -0.01179  -0.88998
                          11        12        13        14        15
                           V         V         V         V         V
     Eigenvalues --     0.16494   0.17033   0.24086   0.37487   0.39358
   1 1   C  1S          0.00123  -0.04539   0.00001   0.01072   0.00199
   2        2S          0.00198  -0.07397   0.00001   0.01504   0.00338
   3        2PX         0.09755  -0.02012   0.09989  -0.03689  -0.02569
   4        2PY        -0.05341  -0.03749  -0.05728  -0.06760   0.00709
   5        2PZ         0.00010  -0.00440   0.00002  -0.00312  -0.00013
   6        3S         -0.00420   0.16689   0.00022   0.02958  -0.00643
   7        3PX         0.13946  -0.01167   0.10606  -0.04884  -0.11270
   8        3PY        -0.07749  -0.02484  -0.06176  -0.09410   0.03795
   9        3PZ         0.00014  -0.00610  -0.00001  -0.00626  -0.00003
  10        4S         -0.05683   1.43709  -0.01243  -2.72515  -0.31032
  11        4PX         0.58159  -0.11958   1.16932  -1.58232  -0.54633
  12        4PY        -0.30950  -0.20774  -0.66478  -2.76238   0.13946
  13        4PZ         0.00071  -0.02884   0.00055  -0.02863  -0.00152
  14 2   H  1S         -0.02928  -0.02530   0.01296  -0.05550   0.07774
  15        2S         -0.07926  -0.01717  -0.02529  -0.63708   0.80722
  16        3S         -1.02501  -1.00486  -1.54751  -0.33293  -0.34918
  17 3   H  1S          0.02872  -0.02487  -0.01509  -0.04831  -0.07481
  18        2S          0.07856  -0.02066   0.01975  -0.58181  -0.73510
  19        3S          1.09863  -1.01343   1.57143  -0.40637   0.24579
  20 4   C  1S          0.00139   0.04248  -0.00005  -0.01987   0.00013
  21        2S          0.00222   0.06917  -0.00010  -0.03245   0.00059
  22        2PX         0.10055  -0.02303  -0.10014  -0.04198  -0.03096
  23        2PY        -0.06143  -0.03717   0.05738  -0.07417   0.01290
  24        2PZ         0.00012   0.00430  -0.00001   0.00236   0.00034
  25        3S         -0.00444  -0.15382   0.00030   0.03878  -0.00936
  26        3PX         0.14455  -0.01802  -0.11304  -0.09333  -0.10545
  27        3PY        -0.08709  -0.02653   0.06362  -0.16771   0.06308
  28        3PZ         0.00017   0.00592   0.00002   0.00304   0.00080
  29        4S         -0.06495  -1.34213   0.00668   3.36498   0.18784
  30        4PX         0.53880  -0.11597  -1.12699  -1.23037  -0.62032
  31        4PY        -0.33553  -0.19811   0.65685  -2.15768  -0.00788
  32        4PZ         0.00079   0.02803  -0.00053   0.02396   0.00285
  33 5   H  1S          0.03097   0.02463   0.00702   0.01201  -0.07728
  34        2S          0.06846   0.02183  -0.03359   0.09006  -0.74030
  35        3S          1.08767   0.94292  -1.52764   0.46366   0.46590
  36 6   H  1S         -0.03105   0.02539  -0.00555   0.00765   0.08929
  37        2S         -0.06891   0.01958   0.03500   0.04916   0.92730
  38        3S         -1.00128   0.94671   1.51328   0.47225  -0.43090
                          16        17        18        19        20
                           V         V         V         V         V
     Eigenvalues --     0.39776   0.46451   0.48828   0.49387   0.59106
   1 1   C  1S         -0.01742   0.01177  -0.04697  -0.00003  -0.00038
   2        2S         -0.03084   0.02778  -0.07875   0.00013  -0.00068
   3        2PX         0.02317  -0.06084   0.01341   0.00079   0.00139
   4        2PY         0.04619  -0.10643   0.01831   0.00113   0.00212
   5        2PZ         0.00005  -0.00037   0.00274  -0.15191  -0.19249
   6        3S          0.07585  -0.33580   0.10057  -0.00655  -0.00022
   7        3PX         0.09159  -0.24102  -0.02757   0.00061   0.00467
   8        3PY         0.18875  -0.41941  -0.05714   0.00027   0.00713
   9        3PZ        -0.00282  -0.00297   0.01263  -0.62870  -0.68478
  10        4S          2.47221   0.13253   3.14623   0.04782   0.04541
  11        4PX         0.11749   0.23339   0.80646   0.01581   0.01385
  12        4PY         0.30728   0.43165   1.39109   0.02854   0.02495
  13        4PZ        -0.00194   0.00002  -0.05565   0.68696   1.24047
  14 2   H  1S         -0.02336  -0.03584  -0.07592  -0.00142  -0.00111
  15        2S         -0.50818  -0.34406  -0.91277  -0.01288  -0.00787
  16        3S          0.26152   0.08018   0.63914   0.01735   0.01545
  17 3   H  1S         -0.03967  -0.03748  -0.07414  -0.00139  -0.00107
  18        2S         -0.66630  -0.36210  -0.88559  -0.01265  -0.00729
  19        3S          0.30743   0.07882   0.61031   0.01695   0.01508
  20 4   C  1S         -0.00214  -0.00191   0.05086   0.00180   0.00046
  21        2S         -0.00706   0.00450   0.08831   0.00327   0.00085
  22        2PX         0.00518   0.05553   0.02680  -0.00006   0.00135
  23        2PY         0.01477   0.09510   0.04849  -0.00018   0.00257
  24        2PZ        -0.00233  -0.00107   0.00279  -0.15275   0.19224
  25        3S          0.08018  -0.29042  -0.22420  -0.01305  -0.00148
  26        3PX        -0.05347   0.23738   0.05127  -0.00018   0.00472
  27        3PY        -0.06727   0.41097   0.09024  -0.00077   0.00890
  28        3PZ        -0.00680  -0.00450   0.01001  -0.63156   0.68247
  29        4S         -0.63967   0.75293  -3.11313  -0.06143  -0.04096
  30        4PX         1.13382  -0.35290   0.63544   0.00804   0.01443
  31        4PY         2.11509  -0.59290   1.08859   0.01353   0.02399
  32        4PZ        -0.02082  -0.01040   0.02691   0.69275  -1.23763
  33 5   H  1S         -0.05356  -0.06215   0.06490   0.00130   0.00105
  34        2S         -0.89529  -0.63221   0.81042   0.02006   0.00457
  35        3S         -0.13462   0.26007  -0.55610  -0.00443  -0.01511
  36 6   H  1S         -0.03656  -0.06144   0.06478   0.00131   0.00107
  37        2S         -0.71084  -0.62303   0.80800   0.01982   0.00467
  38        3S         -0.20252   0.27694  -0.57299  -0.00500  -0.01524
                          21        22        23        24        25
                           V         V         V         V         V
     Eigenvalues --     0.66590   0.69158   0.77310   0.77575   0.84437
   1 1   C  1S          0.00087  -0.00058   0.05045   0.07364   0.00088
   2        2S          0.00180  -0.00127   0.10646   0.15700   0.00207
   3        2PX        -0.13161   0.19836  -0.02764   0.11399  -0.00660
   4        2PY         0.07659  -0.11923  -0.04678   0.18527   0.01349
   5        2PZ        -0.00005   0.00010   0.00037   0.00324   0.00009
   6        3S         -0.01458   0.01565  -0.71473  -1.35450  -0.02441
   7        3PX        -0.61376   0.69659  -0.18363   0.44451  -0.21601
   8        3PY         0.35337  -0.41925  -0.31200   0.71142   0.16349
   9        3PZ        -0.00029   0.00039   0.00141   0.01133   0.00031
  10        4S          0.02239  -0.05970   0.69878   2.46983   0.01346
  11        4PX         1.10268  -0.80002   0.19598  -0.76847   4.49965
  12        4PY        -0.63518   0.49741   0.22317  -1.00309  -2.55621
  13        4PZ         0.00034   0.00081   0.00666  -0.03631   0.00264
  14 2   H  1S          0.02303  -0.05885   0.01005   0.03255  -0.02675
  15        2S          0.12462  -0.62511   0.06769   0.09877  -1.56040
  16        3S         -1.03818   1.11982  -0.08361  -1.09761  -1.22269
  17 3   H  1S         -0.02219   0.05822   0.01008   0.03321   0.03042
  18        2S         -0.13803   0.65431   0.10141   0.06084   1.60098
  19        3S          1.02956  -1.07687  -0.05690  -1.25164   1.21988
  20 4   C  1S          0.00107  -0.00028   0.08374   0.03211   0.00060
  21        2S          0.00220  -0.00053   0.17828   0.06757   0.00115
  22        2PX        -0.15242  -0.18490  -0.09687   0.05100   0.01123
  23        2PY         0.08742   0.10244  -0.17547   0.09417   0.00218
  24        2PZ        -0.00004  -0.00010   0.00336  -0.00064  -0.00011
  25        3S         -0.01641  -0.00187  -1.49013  -0.39219  -0.00251
  26        3PX        -0.68585  -0.62606  -0.35277   0.27183   0.24134
  27        3PY         0.39640   0.34398  -0.64604   0.50009  -0.09766
  28        3PZ        -0.00026  -0.00034   0.01188  -0.00246  -0.00029
  29        4S          0.01426   0.03530   2.66798   0.15524  -0.02811
  30        4PX         1.26942   0.75212   0.50525  -0.22177  -4.20565
  31        4PY        -0.73008  -0.40123   1.03331  -0.66208   2.41785
  32        4PZ         0.00041  -0.00070  -0.03460   0.01630  -0.00216
  33 5   H  1S         -0.02581  -0.05494   0.03454   0.00315  -0.02446
  34        2S         -0.15565  -0.56363   0.07383   0.08211  -1.43810
  35        3S          1.12174   0.97348  -1.17660   0.28554  -1.10953
  36 6   H  1S          0.02656   0.05499   0.03406   0.00363   0.02370
  37        2S          0.14836   0.53579   0.08341   0.01797   1.42040
  38        3S         -1.12573  -1.00010  -1.09146   0.20332   1.12138
                          26        27        28        29        30
                           V         V         V         V         V
     Eigenvalues --     0.95183   2.23156   2.29017   2.33283   2.40789
   1 1   C  1S          0.09566  -0.01035  -0.01442   0.00037  -0.00047
   2        2S          0.19875   0.00105  -0.01456   0.00079  -0.00060
   3        2PX        -0.09126  -0.08296  -0.13091   0.34053  -0.41250
   4        2PY        -0.15810  -0.15555  -0.22971  -0.19329   0.23177
   5        2PZ         0.00010  -0.00896  -0.01202   0.00005  -0.00048
   6        3S         -1.53984  -0.18350  -0.03414  -0.00095  -0.00427
   7        3PX        -0.23324   0.08168   0.20677  -0.40778   0.57491
   8        3PY        -0.39625   0.16652   0.37593   0.23385  -0.32431
   9        3PZ        -0.00172   0.00900   0.01500   0.00001   0.00054
  10        4S          5.71474  -0.11754  -0.89032  -0.00004  -0.01110
  11        4PX         1.20684   0.05071  -0.18479  -0.03374   0.98363
  12        4PY         1.98109   0.06664  -0.35588   0.00990  -0.53887
  13        4PZ        -0.01206   0.00217   0.00539  -0.00016   0.00106
  14 2   H  1S          0.01549  -0.71884  -0.78402  -0.70180   0.65818
  15        2S         -0.29394   1.02411   1.17551   1.07508  -1.46684
  16        3S         -0.09764  -0.30817  -0.46996  -0.46921   0.37221
  17 3   H  1S          0.01594  -0.70921  -0.78152   0.69460  -0.67917
  18        2S         -0.26023   1.01117   1.17785  -1.06753   1.51127
  19        3S         -0.07379  -0.28637  -0.45125   0.45895  -0.36295
  20 4   C  1S         -0.09412  -0.01041   0.01247   0.00047   0.00029
  21        2S         -0.19524   0.00014   0.01249   0.00063   0.00057
  22        2PX        -0.09220   0.13044  -0.12614   0.30964   0.41437
  23        2PY        -0.15921   0.22598  -0.20974  -0.18005  -0.24030
  24        2PZ         0.00018  -0.00966   0.01176   0.00023   0.00021
  25        3S          1.50973  -0.16962   0.02024   0.00063  -0.00007
  26        3PX        -0.22634  -0.16487   0.21535  -0.38563  -0.57969
  27        3PY        -0.39699  -0.28060   0.35189   0.22178   0.33709
  28        3PZ         0.00233   0.01031  -0.01496  -0.00023  -0.00028
  29        4S         -5.69449  -0.16418   0.88951   0.01526  -0.00310
  30        4PX         1.09935  -0.01638  -0.20332   0.09249  -0.87276
  31        4PY         1.99439  -0.03686  -0.31906  -0.05184   0.51817
  32        4PZ         0.00871   0.00300  -0.00438  -0.00008  -0.00091
  33 5   H  1S         -0.01780  -0.78095   0.68658   0.71031   0.68001
  34        2S          0.28491   1.13229  -1.04814  -1.03877  -1.45931
  35        3S          0.05983  -0.34903   0.40490   0.50881   0.41420
  36 6   H  1S         -0.01767  -0.77615   0.70784  -0.69591  -0.67791
  37        2S          0.31282   1.12322  -1.07292   1.01470   1.44779
  38        3S          0.07521  -0.35131   0.43373  -0.50509  -0.42302
                          31        32        33        34        35
                           V         V         V         V         V
     Eigenvalues --     2.67115   2.81820   2.87806   2.95216   3.14027
   1 1   C  1S          0.00033   0.00169  -0.01339   0.00002  -0.00954
   2        2S          0.00027   0.00493  -0.04458  -0.00025  -0.02915
   3        2PX         0.00357   0.04834  -0.46556  -0.73445   0.45678
   4        2PY         0.00551   0.08543  -0.84604   0.41465   0.79253
   5        2PZ        -0.92413  -0.93585  -0.09382  -0.00083   0.00474
   6        3S         -0.00112  -0.04094   0.39224   0.00431   0.24486
   7        3PX        -0.00274  -0.08428   0.83115   0.88564  -0.44651
   8        3PY        -0.00420  -0.14754   1.48081  -0.48608  -0.77086
   9        3PZ         0.93919   1.14403   0.11777   0.00114  -0.00610
  10        4S          0.00877   0.09456  -0.87914  -0.01170  -0.47616
  11        4PX        -0.00124   0.06800  -0.71470  -0.67282   0.23206
  12        4PY        -0.00160   0.11963  -1.27401   0.35787   0.39415
  13        4PZ        -0.33783  -0.62011  -0.07458  -0.00091   0.00382
  14 2   H  1S          0.00796  -0.01385   0.26592  -0.38031  -0.21638
  15        2S         -0.00912   0.00900  -0.22346   0.39189   0.16356
  16        3S         -0.00186   0.02758  -0.30066   0.27190   0.06257
  17 3   H  1S          0.00810  -0.01353   0.25645   0.38053  -0.21982
  18        2S         -0.00945   0.00804  -0.20664  -0.38810   0.16630
  19        3S         -0.00218   0.02772  -0.30064  -0.28874   0.07375
  20 4   C  1S          0.00034  -0.00167   0.01367   0.00050  -0.00759
  21        2S          0.00032  -0.00514   0.04781   0.00116  -0.02356
  22        2PX        -0.00476   0.04433  -0.41935  -0.80161  -0.49668
  23        2PY        -0.00868   0.07835  -0.74026   0.44148  -0.88473
  24        2PZ        -0.92542   0.93424   0.09567   0.00034   0.00839
  25        3S         -0.00179   0.04403  -0.42905  -0.00850   0.20188
  26        3PX         0.00488  -0.08021   0.78353   0.95641   0.52694
  27        3PY         0.00875  -0.14109   1.37713  -0.52015   0.94829
  28        3PZ         0.94102  -1.14244  -0.12046  -0.00041  -0.01060
  29        4S          0.01023  -0.09620   0.90421   0.02570  -0.38461
  30        4PX        -0.00036   0.06810  -0.71609  -0.69803  -0.31492
  31        4PY        -0.00108   0.11867  -1.24795   0.37626  -0.57368
  32        4PZ        -0.33879   0.61929   0.07677   0.00025   0.00818
  33 5   H  1S          0.00769   0.01804  -0.29190   0.41451  -0.26132
  34        2S         -0.00940  -0.01433   0.26290  -0.42559   0.20458
  35        3S         -0.00102  -0.02596   0.28632  -0.24870   0.12235
  36 6   H  1S          0.00778   0.01810  -0.28841  -0.42672  -0.24695
  37        2S         -0.00976  -0.01490   0.26457   0.43717   0.19245
  38        3S         -0.00078  -0.02495   0.27335   0.24989   0.11202
                          36        37        38
                           V         V         V
     Eigenvalues --     3.32082  23.35287  23.70586
   1 1   C  1S         -0.00031  -1.41660  -1.44974
   2        2S         -0.00038   1.51081   1.56772
   3        2PX         0.78115  -0.00661   0.01211
   4        2PY        -0.43449  -0.01082   0.02123
   5        2PZ         0.00068  -0.00037  -0.00016
   6        3S         -0.00172  -0.29669  -0.39867
   7        3PX        -1.11801   0.02415  -0.05556
   8        3PY         0.61653   0.04009  -0.09664
   9        3PZ        -0.00104   0.00103   0.00047
  10        4S          0.00170   0.27462   0.76776
  11        4PX         1.97285  -0.02601   0.13339
  12        4PY        -1.08504  -0.04411   0.22856
  13        4PZ         0.00176  -0.00172  -0.00198
  14 2   H  1S          0.55593   0.01323   0.00705
  15        2S         -0.86777   0.00759  -0.01497
  16        3S         -0.46140  -0.08397  -0.03973
  17 3   H  1S         -0.56738   0.01498   0.00809
  18        2S          0.88437   0.00732  -0.01466
  19        3S          0.48867  -0.08622  -0.03946
  20 4   C  1S          0.00006  -1.44496   1.42133
  21        2S         -0.00023   1.54115  -1.53708
  22        2PX        -0.71387   0.00606   0.01262
  23        2PY         0.41179   0.01093   0.02151
  24        2PZ        -0.00053  -0.00037   0.00010
  25        3S          0.00527  -0.30264   0.39105
  26        3PX         1.01590  -0.02226  -0.05638
  27        3PY        -0.59562  -0.03973  -0.09700
  28        3PZ         0.00082   0.00105  -0.00025
  29        4S         -0.02342   0.27979  -0.76023
  30        4PX        -1.79490   0.02339   0.13047
  31        4PY         1.06331   0.04276   0.22724
  32        4PZ        -0.00144  -0.00171   0.00152
  33 5   H  1S          0.49394   0.01350  -0.00498
  34        2S         -0.77263   0.00803   0.01360
  35        3S         -0.43728  -0.08350   0.03740
  36 6   H  1S         -0.48833   0.01212  -0.00399
  37        2S          0.76577   0.00899   0.01354
  38        3S          0.42355  -0.08154   0.03731
     Density Matrix:
                           1         2         3         4         5
   1 1   C  1S          0.65941
   2        2S          0.56152   0.49202
   3        2PX        -0.00053  -0.00071   0.08438
   4        2PY        -0.00130  -0.00180   0.00359   0.08772
   5        2PZ         0.00006   0.00009  -0.00008  -0.00018   0.06439
   6        3S         -0.08896  -0.15389   0.00269   0.00637  -0.00013
   7        3PX         0.00088   0.00135   0.13059   0.00119  -0.00006
   8        3PY         0.00121   0.00186   0.00123   0.13123  -0.00015
   9        3PZ         0.00012   0.00020  -0.00014  -0.00029   0.10352
  10        4S         -0.07937  -0.11431  -0.01530  -0.02736   0.00038
  11        4PX         0.00023   0.00154   0.07034  -0.00451  -0.00038
  12        4PY         0.00056   0.00292  -0.00460   0.06564  -0.00066
  13        4PZ        -0.00007  -0.00017  -0.00055  -0.00094   0.09589
  14 2   H  1S         -0.02054  -0.03272   0.03485  -0.06308  -0.00080
  15        2S         -0.02281  -0.03649   0.04930  -0.08783  -0.00060
  16        3S          0.00056  -0.00073   0.02085  -0.03308  -0.00002
  17 3   H  1S         -0.02105  -0.03349  -0.07282  -0.00226  -0.00088
  18        2S         -0.02315  -0.03696  -0.10060  -0.00224  -0.00069
  19        3S          0.00060  -0.00067  -0.03845   0.00127  -0.00005
  20 4   C  1S          0.00606   0.00977  -0.01080  -0.01874  -0.00028
  21        2S          0.00974   0.01522  -0.01728  -0.03000  -0.00046
  22        2PX         0.01041   0.01664  -0.01247  -0.03214   0.00030
  23        2PY         0.01809   0.02892  -0.03211  -0.04972   0.00058
  24        2PZ        -0.00032  -0.00052  -0.00027  -0.00041   0.06431
  25        3S         -0.02623  -0.03982   0.04842   0.08422   0.00138
  26        3PX         0.01607   0.02491  -0.01827  -0.04588   0.00039
  27        3PY         0.02791   0.04327  -0.04565  -0.07126   0.00076
  28        3PZ        -0.00054  -0.00087  -0.00047  -0.00073   0.10297
  29        4S          0.00531   0.00391   0.02058   0.03623   0.00165
  30        4PX         0.00312   0.00643  -0.01311  -0.02104   0.00045
  31        4PY         0.00527   0.01095  -0.02105  -0.03732   0.00088
  32        4PZ        -0.00046  -0.00074  -0.00071  -0.00116   0.09597
  33 5   H  1S          0.00420   0.00690  -0.00171  -0.01233  -0.00032
  34        2S          0.00632   0.01050   0.00352  -0.02495  -0.00002
  35        3S          0.00326   0.00477   0.00423  -0.01752   0.00006
  36 6   H  1S          0.00415   0.00682  -0.00981  -0.00761  -0.00033
  37        2S          0.00626   0.01043  -0.02332  -0.00941  -0.00003
  38        3S          0.00323   0.00474  -0.01724  -0.00517   0.00004
                           6         7         8         9        10
   6        3S          0.45270
   7        3PX        -0.00179   0.20242
   8        3PY        -0.00153  -0.00450   0.19684
   9        3PZ        -0.00040  -0.00010  -0.00024   0.16643
  10        4S          0.27345  -0.02592  -0.04712   0.00050   0.18195
  11        4PX        -0.00669   0.10936  -0.01013  -0.00061  -0.01491
  12        4PY        -0.01208  -0.01031   0.09889  -0.00107  -0.02828
  13        4PZ         0.00074  -0.00074  -0.00124   0.15417   0.00142
  14 2   H  1S          0.08745   0.05612  -0.09850  -0.00133   0.06898
  15        2S          0.09765   0.07975  -0.13666  -0.00102   0.08116
  16        3S          0.00611   0.03405  -0.05086  -0.00004   0.01107
  17 3   H  1S          0.08959  -0.11400  -0.00195  -0.00143   0.06906
  18        2S          0.09900  -0.15731  -0.00071  -0.00113   0.07990
  19        3S          0.00611  -0.05989   0.00376  -0.00007   0.01004
  20 4   C  1S         -0.02646  -0.01684  -0.02925  -0.00048   0.00513
  21        2S         -0.04006  -0.02617  -0.04548  -0.00077   0.00382
  22        2PX        -0.04661  -0.01780  -0.04565   0.00052  -0.01803
  23        2PY        -0.08097  -0.04557  -0.07089   0.00099  -0.03110
  24        2PZ         0.00154  -0.00036  -0.00055   0.10339   0.00163
  25        3S          0.10203   0.07098   0.12365   0.00230   0.00118
  26        3PX        -0.06748  -0.02621  -0.06497   0.00068  -0.02687
  27        3PY        -0.11712  -0.06462  -0.10155   0.00131  -0.04625
  28        3PZ         0.00256  -0.00064  -0.00098   0.16555   0.00271
  29        4S          0.00189   0.03108   0.05493   0.00275  -0.03217
  30        4PX        -0.02271  -0.01960  -0.02961   0.00075  -0.00683
  31        4PY        -0.03892  -0.02963  -0.05390   0.00146  -0.01106
  32        4PZ         0.00218  -0.00099  -0.00161   0.15428   0.00251
  33 5   H  1S         -0.02052  -0.00068  -0.01772  -0.00047  -0.01497
  34        2S         -0.03137   0.00857  -0.03671   0.00003  -0.01950
  35        3S         -0.01224   0.00808  -0.02635   0.00011  -0.00360
  36 6   H  1S         -0.02029  -0.01486  -0.00928  -0.00048  -0.01524
  37        2S         -0.03121  -0.03579  -0.01069   0.00001  -0.02032
  38        3S         -0.01223  -0.02665  -0.00618   0.00009  -0.00415
                          11        12        13        14        15
  11        4PX         0.06011
  12        4PY        -0.00905   0.05121
  13        4PZ        -0.00090  -0.00152   0.14283
  14 2   H  1S          0.03354  -0.05421  -0.00069   0.08128
  15        2S          0.04844  -0.07508  -0.00026   0.10960   0.14988
  16        3S          0.02111  -0.02783   0.00014   0.03681   0.05260
  17 3   H  1S         -0.06313   0.00163  -0.00073  -0.01313  -0.02481
  18        2S         -0.08749   0.00421  -0.00029  -0.02475  -0.04311
  19        3S         -0.03359   0.00450   0.00013  -0.01813  -0.02752
  20 4   C  1S         -0.00314  -0.00573  -0.00042   0.00422   0.00669
  21        2S         -0.00651  -0.01171  -0.00068   0.00698   0.01117
  22        2PX        -0.01311  -0.02004   0.00073   0.00181  -0.00276
  23        2PY        -0.02008  -0.03685   0.00134   0.01149   0.02425
  24        2PZ        -0.00051  -0.00082   0.09578  -0.00037  -0.00011
  25        3S          0.02306   0.04119   0.00199  -0.02100  -0.03360
  26        3PX        -0.02011  -0.02837   0.00099   0.00102  -0.00725
  27        3PY        -0.02835  -0.05364   0.00184   0.01705   0.03628
  28        3PZ        -0.00084  -0.00135   0.15337  -0.00055  -0.00011
  29        4S          0.00794   0.01509   0.00251  -0.01759  -0.02410
  30        4PX        -0.01465  -0.01250   0.00091  -0.00159  -0.00833
  31        4PY        -0.01262  -0.02949   0.00173   0.01519   0.02702
  32        4PZ        -0.00101  -0.00166   0.14294  -0.00030   0.00019
  33 5   H  1S          0.00185  -0.01579  -0.00024   0.01120   0.02334
  34        2S          0.00899  -0.02752   0.00030   0.02377   0.04439
  35        3S          0.00743  -0.01583   0.00021   0.01662   0.02782
  36 6   H  1S         -0.01438  -0.00580  -0.00024  -0.00913  -0.01830
  37        2S         -0.02795  -0.00524   0.00029  -0.01887  -0.03442
  38        3S         -0.01714  -0.00122   0.00020  -0.01017  -0.01776
                          16        17        18        19        20
  16        3S          0.02110
  17 3   H  1S         -0.01828   0.08249
  18        2S         -0.02760   0.10986   0.14845
  19        3S         -0.01299   0.03619   0.05120   0.02030
  20 4   C  1S          0.00367   0.00429   0.00669   0.00366   0.65947
  21        2S          0.00542   0.00708   0.01114   0.00537   0.56157
  22        2PX        -0.00351   0.00910   0.02235   0.01674   0.00115
  23        2PY         0.01762   0.00746   0.00966   0.00558   0.00174
  24        2PZ         0.00002  -0.00037  -0.00008   0.00005   0.00005
  25        3S         -0.01407  -0.02122  -0.03339  -0.01381  -0.08924
  26        3PX        -0.00699   0.01438   0.03508   0.02612  -0.00050
  27        3PY         0.02654   0.00954   0.01170   0.00695  -0.00110
  28        3PZ         0.00005  -0.00054  -0.00006   0.00009   0.00012
  29        4S         -0.00581  -0.01727  -0.02311  -0.00522  -0.08007
  30        4PX        -0.00695   0.01405   0.02760   0.01705  -0.00021
  31        4PY         0.01585   0.00662   0.00667   0.00195  -0.00022
  32        4PZ         0.00019  -0.00030   0.00022   0.00021  -0.00003
  33 5   H  1S          0.01622  -0.00903  -0.01813  -0.00946  -0.02023
  34        2S          0.02742  -0.01861  -0.03390  -0.01696  -0.02227
  35        3S          0.01462  -0.01004  -0.01747  -0.00895   0.00060
  36 6   H  1S         -0.00959   0.01120   0.02326   0.01596  -0.01993
  37        2S         -0.01732   0.02375   0.04420   0.02705  -0.02219
  38        3S         -0.00914   0.01660   0.02764   0.01442   0.00050
                          21        22        23        24        25
  21        2S          0.49206
  22        2PX         0.00165   0.08275
  23        2PY         0.00247   0.00364   0.08771
  24        2PZ         0.00008   0.00010   0.00013   0.06425
  25        3S         -0.15422  -0.00533  -0.00814  -0.00010   0.45366
  26        3PX        -0.00075   0.12867   0.00180   0.00006  -0.00016
  27        3PY        -0.00167   0.00183   0.13143   0.00006   0.00089
  28        3PZ         0.00020   0.00015   0.00021   0.10287  -0.00039
  29        4S         -0.11564   0.01392   0.02351   0.00043   0.27800
  30        4PX        -0.00148   0.07288  -0.00502   0.00032   0.00624
  31        4PY        -0.00229  -0.00494   0.06691   0.00058   0.01009
  32        4PZ        -0.00011   0.00053   0.00095   0.09587   0.00057
  33 5   H  1S         -0.03222  -0.03348   0.06375  -0.00086   0.08617
  34        2S         -0.03557  -0.04956   0.08852  -0.00068   0.09519
  35        3S         -0.00060  -0.02239   0.03340  -0.00007   0.00565
  36 6   H  1S         -0.03176   0.07126   0.00254  -0.00080   0.08494
  37        2S         -0.03548   0.10124   0.00084  -0.00059   0.09491
  38        3S         -0.00074   0.04039  -0.00295  -0.00003   0.00594
                          26        27        28        29        30
  26        3PX         0.20040
  27        3PY        -0.00275   0.19750
  28        3PZ         0.00008   0.00009   0.16473
  29        4S          0.02552   0.04274   0.00054   0.18603
  30        4PX         0.11394  -0.01052   0.00050   0.01569   0.06584
  31        4PY        -0.01043   0.10106   0.00092   0.02517  -0.01010
  32        4PZ         0.00068   0.00122   0.15350   0.00136   0.00078
  33 5   H  1S         -0.05353   0.09976  -0.00143   0.06723  -0.03423
  34        2S         -0.07966   0.13806  -0.00113   0.07745  -0.05142
  35        3S         -0.03644   0.05144  -0.00010   0.00927  -0.02373
  36 6   H  1S          0.11251   0.00315  -0.00133   0.06746   0.06550
  37        2S          0.15965  -0.00051  -0.00100   0.07892   0.09338
  38        3S          0.06338  -0.00612  -0.00006   0.01023   0.03739
                          31        32        33        34        35
  31        4PY         0.05320
  32        4PZ         0.00146   0.14306
  33 5   H  1S          0.05555  -0.00074   0.08107
  34        2S          0.07697  -0.00031   0.11005   0.15181
  35        3S          0.02878   0.00011   0.03785   0.05475   0.02255
  36 6   H  1S         -0.00191  -0.00070  -0.01251  -0.02593  -0.01977
  37        2S         -0.00607  -0.00025  -0.02602  -0.04789  -0.03124
  38        3S         -0.00613   0.00012  -0.01995  -0.03134  -0.01538
                          36        37        38
  36 6   H  1S          0.08013
  37        2S          0.10972   0.15258
  38        3S          0.03813   0.05551   0.02297
    Full Mulliken population analysis:
                           1         2         3         4         5
   1 1   C  1S          0.65941
   2        2S          0.49326   0.49202
   3        2PX         0.00000   0.00000   0.08438
   4        2PY         0.00000   0.00000   0.00000   0.08772
   5        2PZ         0.00000   0.00000   0.00000   0.00000   0.06439
   6        3S         -0.02928  -0.06445   0.00000   0.00000   0.00000
   7        3PX         0.00000   0.00000   0.08216   0.00000   0.00000
   8        3PY         0.00000   0.00000   0.00000   0.08256   0.00000
   9        3PZ         0.00000   0.00000   0.00000   0.00000   0.06513
  10        4S         -0.01220  -0.02139   0.00000   0.00000   0.00000
  11        4PX         0.00000   0.00000   0.01549   0.00000   0.00000
  12        4PY         0.00000   0.00000   0.00000   0.01446   0.00000
  13        4PZ         0.00000   0.00000   0.00000   0.00000   0.02112
  14 2   H  1S         -0.00023  -0.00033   0.00180   0.00562   0.00000
  15        2S         -0.00166  -0.00318   0.00431   0.01322   0.00000
  16        3S          0.00004  -0.00007   0.00070   0.00191   0.00000
  17 3   H  1S         -0.00025  -0.00037   0.00791   0.00000   0.00000
  18        2S         -0.00173  -0.00332   0.01776   0.00000   0.00000
  19        3S          0.00005  -0.00006   0.00256  -0.00000   0.00000
  20 4   C  1S          0.00000   0.00000  -0.00002  -0.00006   0.00000
  21        2S          0.00000  -0.00000  -0.00002  -0.00005   0.00000
  22        2PX        -0.00002  -0.00002   0.00011   0.00085   0.00000
  23        2PY        -0.00006  -0.00005   0.00085   0.00196   0.00000
  24        2PZ        -0.00000  -0.00000  -0.00000  -0.00000   0.00041
  25        3S         -0.00059  -0.00099   0.00252   0.00760  -0.00000
  26        3PX        -0.00054  -0.00100   0.00019   0.00554   0.00000
  27        3PY        -0.00163  -0.00300   0.00552   0.01069   0.00000
  28        3PZ        -0.00000  -0.00000  -0.00000  -0.00000   0.00610
  29        4S          0.00034   0.00030   0.00093   0.00285  -0.00000
  30        4PX        -0.00018  -0.00046  -0.00071   0.00146   0.00000
  31        4PY        -0.00053  -0.00135   0.00146   0.00097   0.00000
  32        4PZ        -0.00000  -0.00000  -0.00000  -0.00000   0.00902
  33 5   H  1S          0.00000   0.00000  -0.00000  -0.00000   0.00000
  34        2S          0.00001   0.00002   0.00000  -0.00032   0.00000
  35        3S          0.00008   0.00013   0.00001  -0.00070  -0.00000
  36 6   H  1S          0.00000   0.00000  -0.00000  -0.00000   0.00000
  37        2S          0.00001   0.00002  -0.00024  -0.00007   0.00000
  38        3S          0.00007   0.00013  -0.00057  -0.00012  -0.00000
                           6         7         8         9        10
   6        3S          0.45270
   7        3PX         0.00000   0.20242
   8        3PY         0.00000   0.00000   0.19684
   9        3PZ         0.00000   0.00000   0.00000   0.16643
  10        4S          0.21184   0.00000   0.00000   0.00000   0.18195
  11        4PX         0.00000   0.07147   0.00000   0.00000   0.00000
  12        4PY         0.00000   0.00000   0.06462   0.00000   0.00000
  13        4PZ         0.00000   0.00000   0.00000   0.10074   0.00000
  14 2   H  1S          0.01604   0.01073   0.03242   0.00001   0.01824
  15        2S          0.04107   0.01956   0.05769   0.00001   0.04676
  16        3S          0.00282   0.00398   0.01024   0.00000   0.00835
  17 3   H  1S          0.01697   0.04434   0.00001   0.00001   0.01848
  18        2S          0.04240   0.07735   0.00000   0.00001   0.04647
  19        3S          0.00284   0.01389  -0.00001   0.00000   0.00762
  20 4   C  1S         -0.00059  -0.00057  -0.00171   0.00000   0.00032
  21        2S         -0.00100  -0.00105  -0.00315   0.00000   0.00029
  22        2PX         0.00243   0.00019   0.00551   0.00000   0.00082
  23        2PY         0.00731   0.00551   0.01063   0.00000   0.00244
  24        2PZ         0.00000  -0.00000  -0.00000   0.00613   0.00000
  25        3S          0.02173   0.01330   0.04011  -0.00000   0.00045
  26        3PX         0.01264  -0.00127   0.01853   0.00000   0.00414
  27        3PY         0.03799   0.01843   0.02855   0.00000   0.01235
  28        3PZ         0.00000  -0.00000  -0.00000   0.03526   0.00000
  29        4S          0.00072   0.00479   0.01466  -0.00000  -0.02019
  30        4PX         0.00638  -0.00402   0.00586   0.00000   0.00207
  31        4PY         0.01893   0.00587   0.00127   0.00000   0.00580
  32        4PZ         0.00000  -0.00000  -0.00000   0.04928   0.00000
  33 5   H  1S         -0.00006  -0.00000  -0.00019   0.00000  -0.00081
  34        2S         -0.00122   0.00006  -0.00325  -0.00000  -0.00329
  35        3S         -0.00200   0.00011  -0.00426  -0.00000  -0.00130
  36 6   H  1S         -0.00005  -0.00013  -0.00006   0.00000  -0.00081
  37        2S         -0.00119  -0.00257  -0.00053  -0.00000  -0.00339
  38        3S         -0.00198  -0.00354  -0.00056  -0.00000  -0.00149
                          11        12        13        14        15
  11        4PX         0.06011
  12        4PY         0.00000   0.05121
  13        4PZ         0.00000   0.00000   0.14283
  14 2   H  1S          0.00631   0.01754   0.00000   0.08128
  15        2S          0.01533   0.04091   0.00000   0.07742   0.14988
  16        3S          0.00524   0.01188  -0.00000   0.01375   0.04150
  17 3   H  1S          0.02366  -0.00001   0.00001  -0.00001  -0.00066
  18        2S          0.05504  -0.00003   0.00000  -0.00066  -0.00545
  19        3S          0.01650  -0.00002  -0.00000  -0.00203  -0.00806
  20 4   C  1S         -0.00018  -0.00058   0.00000   0.00000   0.00002
  21        2S         -0.00046  -0.00144   0.00000   0.00000   0.00003
  22        2PX        -0.00071   0.00139   0.00000  -0.00000   0.00000
  23        2PY         0.00139   0.00096   0.00000  -0.00000  -0.00036
  24        2PZ        -0.00000  -0.00000   0.00901   0.00000   0.00000
  25        3S          0.00648   0.02004  -0.00000  -0.00007  -0.00147
  26        3PX        -0.00412   0.00562   0.00000  -0.00000   0.00004
  27        3PY         0.00561   0.00126   0.00000  -0.00022  -0.00355
  28        3PZ        -0.00000  -0.00000   0.04898   0.00000   0.00000
  29        4S          0.00240   0.00792  -0.00000  -0.00102  -0.00431
  30        4PX        -0.00705   0.00316   0.00000   0.00001   0.00018
  31        4PY         0.00319  -0.00558   0.00000  -0.00240  -0.01016
  32        4PZ        -0.00000  -0.00000   0.08972   0.00000  -0.00000
  33 5   H  1S          0.00002  -0.00235   0.00000   0.00000   0.00000
  34        2S          0.00026  -0.00991  -0.00000   0.00000   0.00016
  35        3S          0.00028  -0.00732  -0.00000   0.00023   0.00147
  36 6   H  1S         -0.00175  -0.00049   0.00000  -0.00000  -0.00004
  37        2S         -0.00826  -0.00106  -0.00000  -0.00004  -0.00093
  38        3S         -0.00653  -0.00032  -0.00000  -0.00046  -0.00248
                          16        17        18        19        20
  16        3S          0.02110
  17 3   H  1S         -0.00205   0.08249
  18        2S         -0.00808   0.07760   0.14845
  19        3S         -0.00677   0.01352   0.04040   0.02030
  20 4   C  1S          0.00009   0.00000   0.00002   0.00009   0.65947
  21        2S          0.00016   0.00000   0.00003   0.00016   0.49330
  22        2PX         0.00001  -0.00000  -0.00028  -0.00059   0.00000
  23        2PY        -0.00074  -0.00000  -0.00008  -0.00013   0.00000
  24        2PZ        -0.00000   0.00000   0.00000  -0.00000   0.00000
  25        3S         -0.00242  -0.00007  -0.00147  -0.00238  -0.02937
  26        3PX         0.00007  -0.00016  -0.00287  -0.00364   0.00000
  27        3PY        -0.00443  -0.00007  -0.00064  -0.00065   0.00000
  28        3PZ        -0.00000   0.00000   0.00000  -0.00000   0.00000
  29        4S         -0.00218  -0.00101  -0.00415  -0.00196  -0.01231
  30        4PX         0.00018  -0.00186  -0.00866  -0.00670   0.00000
  31        4PY        -0.00747  -0.00058  -0.00140  -0.00051   0.00000
  32        4PZ        -0.00000   0.00000  -0.00000  -0.00000   0.00000
  33 5   H  1S          0.00023  -0.00000  -0.00004  -0.00043  -0.00022
  34        2S          0.00144  -0.00004  -0.00090  -0.00235  -0.00160
  35        3S          0.00247  -0.00045  -0.00242  -0.00285   0.00005
  36 6   H  1S         -0.00044   0.00000   0.00000   0.00022  -0.00020
  37        2S         -0.00241   0.00000   0.00015   0.00142  -0.00156
  38        3S         -0.00292   0.00023   0.00145   0.00242   0.00004
                          21        22        23        24        25
  21        2S          0.49206
  22        2PX         0.00000   0.08275
  23        2PY         0.00000   0.00000   0.08771
  24        2PZ         0.00000   0.00000   0.00000   0.06425
  25        3S         -0.06459   0.00000   0.00000   0.00000   0.45366
  26        3PX         0.00000   0.08095   0.00000   0.00000   0.00000
  27        3PY         0.00000   0.00000   0.08269   0.00000   0.00000
  28        3PZ         0.00000   0.00000   0.00000   0.06472   0.00000
  29        4S         -0.02164   0.00000   0.00000   0.00000   0.21536
  30        4PX         0.00000   0.01605   0.00000   0.00000   0.00000
  31        4PY         0.00000   0.00000   0.01474   0.00000   0.00000
  32        4PZ         0.00000   0.00000   0.00000   0.02111   0.00000
  33 5   H  1S         -0.00031   0.00152   0.00575   0.00000   0.01561
  34        2S         -0.00307   0.00386   0.01368   0.00000   0.03975
  35        3S         -0.00006   0.00067   0.00199   0.00000   0.00260
  36 6   H  1S         -0.00029   0.00690   0.00001   0.00000   0.01500
  37        2S         -0.00299   0.01730   0.00001   0.00000   0.03907
  38        3S         -0.00007   0.00270  -0.00001   0.00000   0.00271
                          26        27        28        29        30
  26        3PX         0.20040
  27        3PY         0.00000   0.19750
  28        3PZ         0.00000   0.00000   0.16473
  29        4S          0.00000   0.00000   0.00000   0.18603
  30        4PX         0.07446   0.00000   0.00000   0.00000   0.06584
  31        4PY         0.00000   0.06604   0.00000   0.00000   0.00000
  32        4PZ         0.00000   0.00000   0.10031   0.00000   0.00000
  33 5   H  1S          0.00909   0.03363   0.00001   0.01769   0.00576
  34        2S          0.01744   0.06003   0.00001   0.04447   0.01458
  35        3S          0.00382   0.01071   0.00000   0.00698   0.00528
  36 6   H  1S          0.04168   0.00006   0.00001   0.01758   0.02444
  37        2S          0.07715  -0.00001   0.00001   0.04498   0.05884
  38        3S          0.01478  -0.00008   0.00000   0.00767   0.01855
                          31        32        33        34        35
  31        4PY         0.05320
  32        4PZ         0.00000   0.14306
  33 5   H  1S          0.01856   0.00001   0.08107
  34        2S          0.04334   0.00000   0.07773   0.15181
  35        3S          0.01272  -0.00000   0.01414   0.04320   0.02255
  36 6   H  1S         -0.00004   0.00001  -0.00001  -0.00078  -0.00231
  37        2S         -0.00021   0.00000  -0.00078  -0.00652  -0.00948
  38        3S         -0.00017  -0.00000  -0.00234  -0.00951  -0.00820
                          36        37        38
  36 6   H  1S          0.08013
  37        2S          0.07750   0.15258
  38        3S          0.01425   0.04380   0.02297
     Gross orbital populations:
                           1
   1 1   C  1S          1.10435
   2        2S          0.88586
   3        2PX         0.22712
   4        2PY         0.23609
   5        2PZ         0.16618
   6        3S          0.79297
   7        3PX         0.56101
   8        3PY         0.55580
   9        3PZ         0.42300
  10        4S          0.50353
  11        4PX         0.25970
  12        4PY         0.21186
  13        4PZ         0.41241
  14 2   H  1S          0.27393
  15        2S          0.46725
  16        3S          0.08618
  17 3   H  1S          0.27764
  18        2S          0.46496
  19        3S          0.08285
  20 4   C  1S          1.10440
  21        2S          0.88584
  22        2PX         0.22239
  23        2PY         0.23620
  24        2PZ         0.16564
  25        3S          0.79255
  26        3PX         0.55293
  27        3PY         0.55678
  28        3PZ         0.42014
  29        4S          0.50688
  30        4PX         0.27347
  31        4PY         0.21569
  32        4PZ         0.41252
  33 5   H  1S          0.27329
  34        2S          0.46911
  35        3S          0.08811
  36 6   H  1S          0.27039
  37        2S          0.47057
  38        3S          0.09041
          Condensed to atoms (all electrons):
               1          2          3          4          5          6
     1  C    5.033426   0.387266   0.388091   0.602573  -0.035996  -0.035478
     2  H    0.387266   0.517619  -0.033763  -0.040033   0.005996  -0.009727
     3  H    0.388091  -0.033763   0.514269  -0.039549  -0.009503   0.005901
     4  C    0.602573  -0.040033  -0.039549   5.054268   0.384351   0.383831
     5  H   -0.035996   0.005996  -0.009503   0.384351   0.525579  -0.039928
     6  H   -0.035478  -0.009727   0.005901   0.383831  -0.039928   0.526776
 Mulliken charges:
               1
     1  C   -0.339881
     2  H    0.172642
     3  H    0.174555
     4  C   -0.345442
     5  H    0.169500
     6  H    0.168625
 Sum of Mulliken charges =  -0.00000
 Mulliken charges with hydrogens summed into heavy atoms:
               1
     1  C    0.007316
     4  C   -0.007316
 Electronic spatial extent (au):  <R**2>=             83.6939
 Charge=              0.0000 electrons
 Dipole moment (field-independent basis, Debye):
    X=              0.0003    Y=              0.0173    Z=             -0.0707  Tot=              0.0728
 Quadrupole moment (field-independent basis, Debye-Ang):
   XX=            -12.1996   YY=            -12.2132   ZZ=            -15.6689
   XY=              0.0142   XZ=             -0.0002   YZ=             -0.0022
 Traceless Quadrupole moment (field-independent basis, Debye-Ang):
   XX=              1.1610   YY=              1.1474   ZZ=             -2.3084
   XY=              0.0142   XZ=             -0.0002   YZ=             -0.0022
 Octapole moment (field-independent basis, Debye-Ang**2):
  XXX=             -0.3132  YYY=             -0.0299  ZZZ=             -0.0673  XYY=              0.1447
  XXY=             -0.0419  XXZ=             -0.1011  XZZ=             -0.0885  YZZ=             -0.0728
  YYZ=             -0.1309  XYZ=             -0.0261
 Hexadecapole moment (field-independent basis, Debye-Ang**3):
 XXXX=            -34.2539 YYYY=            -55.1706 ZZZZ=            -17.8021 XXXY=             -7.2450
 XXXZ=              0.0096 YYYX=            -10.7081 YYYZ=              0.0120 ZZZX=              0.0128
 ZZZY=              0.0233 XXYY=            -16.1859 XXZZ=             -9.9207 YYZZ=            -13.6364
 XXYZ=              0.0051 YYXZ=              0.0003 ZZXY=             -3.2040
 N-N= 3.307563486960D+01 E-N=-2.478653287786D+02  KE= 7.815605118042D+01
 Orbital energies and kinetic energies (alpha):
                                 1                 2
   1         O               -10.290042         15.978207
   2         O               -10.287894         15.980067
   3         O                -0.863716          1.538005
   4         O                -0.672493          1.272168
   5         O                -0.559438          0.942273
   6         O                -0.509367          1.284511
   7         O                -0.436963          1.044563
   8         O                -0.356749          1.038230
   9         V                 0.079871          1.181905
  10         V                 0.141092          0.588401
  11         V                 0.164938          0.593615
  12         V                 0.170334          0.678757
  13         V                 0.240864          0.582083
  14         V                 0.374873          0.855697
  15         V                 0.393580          0.932973
  16         V                 0.397756          0.778388
  17         V                 0.464510          1.191430
  18         V                 0.488280          1.424492
  19         V                 0.493872          1.301724
  20         V                 0.591064          1.652170
  21         V                 0.665905          1.572746
  22         V                 0.691585          2.147994
  23         V                 0.773097          2.423506
  24         V                 0.775746          2.320676
  25         V                 0.844367          1.087837
  26         V                 0.951834          3.422876
  27         V                 2.231557          3.924829
  28         V                 2.290169          4.030452
  29         V                 2.332833          4.304222
  30         V                 2.407889          4.522868
  31         V                 2.671148          6.300959
  32         V                 2.818196          6.307470
  33         V                 2.878061          6.135724
  34         V                 2.952157          6.225696
  35         V                 3.140271          6.821750
  36         V                 3.320816          6.401688
  37         V                23.352870         60.074731
  38         V                23.705856         60.203627
 Total kinetic energy from orbitals= 7.815605118042D+01
 Calling FoFJK, ICntrl=      2127 FMM=F ISym2X=0 I1Cent= 0 IOpClX= 0 NMat=1 NMatS=1 NMatT=0.
 -------------------------------------------------------------------
 Center     Atomic                   Forces (Hartrees/Bohr)
 Number     Number              X              Y              Z
 -------------------------------------------------------------------
      1        6           0.013205606    0.007725362   -0.002826276
      2        1          -0.008827400    0.006186612    0.001436752
      3        1           0.002298124   -0.003785728    0.001313728
      4        6           0.008223800    0.006410203   -0.003084502
      5        1           0.001982463   -0.011914984    0.001536798
      6        1          -0.016882593   -0.004621465    0.001623499
 -------------------------------------------------------------------
 Cartesian Forces:  Max     0.016882593 RMS     0.007292186

 GradGradGradGradGradGradGradGradGradGradGradGradGradGradGradGradGradGrad
 Berny optimization.
 Search for a local minimum.
 Step number   1 out of a maximum of    2
 All quantities printed in internal units (Hartrees-Bohrs-Radians)
 Second derivative matrix not updated -- first step.
 The second derivative matrix:
                          X1        Y1        Z1        X2        Y2
           X1           0.75892
           Y1           0.09927   0.85842
           Z1           0.00417   0.00642   0.17148
           X2          -0.16374   0.09588   0.00150   0.14129
           Y2           0.10215  -0.28379  -0.00533  -0.11519   0.27260
           Z2           0.00237  -0.00669  -0.05491  -0.00215   0.00552
           X3          -0.35318  -0.00271  -0.00583  -0.00039  -0.00022
           Y3          -0.00890  -0.11032  -0.00143   0.03249   0.01885
           Z3          -0.00745  -0.00138  -0.05637   0.00108   0.00040
           X4          -0.26696  -0.17804  -0.00058   0.02284   0.01326
           Y4          -0.17830  -0.47253  -0.00096  -0.01319  -0.00766
           Z4           0.00090   0.00163  -0.09433  -0.00043  -0.00059
           X5           0.02350  -0.01357   0.00045  -0.00000   0.00000
           Y5           0.01182  -0.00683   0.00062   0.00000  -0.00000
           Z5          -0.00037   0.00023   0.01746   0.00018  -0.00010
           X6           0.00146  -0.00084   0.00028  -0.00000   0.00000
           Y6          -0.02604   0.01504   0.00068   0.00000  -0.00000
           Z6           0.00038  -0.00020   0.01668  -0.00018   0.00010
                          Z2        X3        Y3        Z3        X4
           Z2           0.02850
           X3          -0.00022   0.35326
           Y3           0.00115   0.00311   0.07605
           Z3           0.01057   0.00636   0.00098   0.02945
           X4           0.00037   0.00031  -0.02670  -0.00036   0.71531
           Y4          -0.00020  -0.00018   0.01542   0.00022   0.11817
           Z4           0.01576  -0.00032  -0.00070   0.01644  -0.00372
           X5          -0.00018  -0.00000   0.00000   0.00019  -0.14817
           Y5           0.00011   0.00000  -0.00000  -0.00012   0.09384
           Z5           0.00926   0.00019  -0.00012  -0.00944  -0.00229
           X6          -0.00018  -0.00000   0.00000   0.00018  -0.32334
           Y6           0.00010   0.00000  -0.00000  -0.00010  -0.02053
           Z6          -0.00917  -0.00019   0.00011   0.00935   0.00658
                          Y4        Z4        X5        Y5        Z5
           Y4           0.86080
           Z4          -0.00714   0.17554
           X5           0.08571  -0.00151   0.12651
           Y5          -0.29130   0.00542  -0.10475   0.28173
           Z5           0.00672  -0.05719   0.00204  -0.00577   0.02963
           X6          -0.01221   0.00507  -0.00183  -0.00092   0.00025
           Y6          -0.10473   0.00139   0.03260   0.01640  -0.00097
           Z6           0.00136  -0.05622  -0.00099  -0.00027   0.01027
                          X6        Y6        Z6
           X6           0.32373
           Y6           0.01396   0.07330
           Z6          -0.00561  -0.00110   0.02909
 ITU=  0
     Eigenvalues ---    0.03724   0.04389   0.09354   0.09961   0.13524
     Eigenvalues ---    0.17511   0.26428   0.29039   0.53027   0.70388
     Eigenvalues ---    0.97632   1.56260
 Angle between quadratic step and forces=  32.11 degrees.
 Linear search not attempted -- first point.
 B after Tr=     0.006102    0.005862   -0.007232
         Rot=    1.000000   -0.000022    0.000012   -0.000105 Ang=  -0.01 deg.
 Variable       Old X    -DE/DX   Delta X   Delta X   Delta X     New X
                                 (Linear)    (Quad)   (Total)
    X1       -0.63481   0.01321   0.00000   0.01973   0.02606  -0.60875
    Y1       -1.09801   0.00773   0.00000   0.02019   0.02592  -1.07208
    Z1        0.00969  -0.00283   0.00000  -0.01525  -0.02254  -0.01286
    X2        0.40686  -0.00883   0.00000  -0.03292  -0.02621   0.38065
    Y2       -2.89091   0.00619   0.00000   0.02227   0.02821  -2.86269
    Z2       -0.02935   0.00144   0.00000   0.01869   0.01134  -0.01801
    X3       -2.68550   0.00230   0.00000   0.02586   0.03221  -2.65330
    Y3       -1.12112  -0.00379   0.00000  -0.01053  -0.00523  -1.12635
    Z3       -0.03065   0.00131   0.00000   0.01843   0.01108  -0.01957
    X4        0.62994   0.00822   0.00000   0.00552   0.01139   0.64133
    Y4        1.09248   0.00641   0.00000   0.00410   0.01009   1.10257
    Z4        0.00787  -0.00308   0.00000  -0.01468  -0.02185  -0.01398
    X5       -0.30651   0.00198   0.00000  -0.00991  -0.00442  -0.31093
    Y5        2.95208  -0.01191   0.00000  -0.04164  -0.03584   2.91624
    Z5       -0.03354   0.00154   0.00000   0.01824   0.01113  -0.02242
    X6        2.72640  -0.01688   0.00000  -0.04488  -0.03902   2.68738
    Y6        1.20913  -0.00462   0.00000  -0.02959  -0.02316   1.18597
    Z6       -0.03235   0.00162   0.00000   0.01796   0.01084  -0.02151
         Item               Value     Threshold  Converged?
 Maximum Force            0.016883     0.000450     NO 
 RMS     Force            0.007292     0.000300     NO 
 Maximum Displacement     0.039023     0.001800     NO 
 RMS     Displacement     0.022325     0.001200     NO 
 Predicted change in Energy=-1.291604D-03
 GradGradGradGradGradGradGradGradGradGradGradGradGradGradGradGradGradGrad

 Unable to Open any file for archive entry.
 1\1\GINC-BHD0014\Force\RwB97XD\6-311G\C2H4\BWEIGHT\11-Jan-2023\0\\# WB
 97XD/6-311G SCF=XQC FORCE nosym pop=full guess=read\\MD Step 1000\\0,1
 \C,-0.33592478,-0.5810395,0.00512533\H,0.2152989,-1.52980188,-0.015533
 88\H,-1.42110725,-0.59327329,-0.01622043\C,0.33335208,0.57811439,0.004
 16565\H,-0.16219651,1.56217564,-0.01774967\H,1.44274822,0.63984288,-0.
 0171209\\Version=ES64L-G16RevC.01\HF=-78.556101\RMSD=6.029e-09\RMSF=7.
 292e-03\Dipole=0.0001256,0.0068082,-0.0278075\Quadrupole=0.8631664,0.8
 530438,-1.7162101,0.0105789,-0.0001826,-0.00165\PG=C01 [X(C2H4)]\\@
 The archive entry for this job was punched.


 THIS CURIOUS WORLD WHICH WE INHABIT IS MORE WONDERFUL THAN IT IS CONVENIENT;
 MORE BEAUTIFUL THAN IT IS USEFUL;
 IT IS MORE TO BE ADMIRED THAN IT IS TO BE USED.

                                                                 -- THOREAU
 Job cpu time:       0 days  0 hours  0 minutes 51.5 seconds.
 Elapsed time:       0 days  0 hours  0 minutes 18.0 seconds.
 File lengths (MBytes):  RWF=    272 Int=      0 D2E=      0 Chk=     32 Scr=     32
 Normal termination of Gaussian 16 at Wed Jan 11 16:35:51 2023.
