 Entering Gaussian System, Link 0=g16
 Initial command:
 /software/gaussian/g16-c01/avx2/g16/l1.exe "/gpfs/fs2/scratch/bweight/software/many_molecule_many_mode_NAMD/src/NAMD/TEST_NVT/TRAJ/traj-15/G16/GS_NEW/Gau-36629.inp" -scrdir="/gpfs/fs2/scratch/bweight/software/many_molecule_many_mode_NAMD/src/NAMD/TEST_NVT/TRAJ/traj-15/G16/GS_NEW/"
 Entering Link 1 = /software/gaussian/g16-c01/avx2/g16/l1.exe PID=     36630.
  
 Copyright (c) 1988-2019, Gaussian, Inc.  All Rights Reserved.
  
 This is part of the Gaussian(R) 16 program.  It is based on
 the Gaussian(R) 09 system (copyright 2009, Gaussian, Inc.),
 the Gaussian(R) 03 system (copyright 2003, Gaussian, Inc.),
 the Gaussian(R) 98 system (copyright 1998, Gaussian, Inc.),
 the Gaussian(R) 94 system (copyright 1995, Gaussian, Inc.),
 the Gaussian 92(TM) system (copyright 1992, Gaussian, Inc.),
 the Gaussian 90(TM) system (copyright 1990, Gaussian, Inc.),
 the Gaussian 88(TM) system (copyright 1988, Gaussian, Inc.),
 the Gaussian 86(TM) system (copyright 1986, Carnegie Mellon
 University), and the Gaussian 82(TM) system (copyright 1983,
 Carnegie Mellon University). Gaussian is a federally registered
 trademark of Gaussian, Inc.
  
 This software contains proprietary and confidential information,
 including trade secrets, belonging to Gaussian, Inc.
  
 This software is provided under written license and may be
 used, copied, transmitted, or stored only in accord with that
 written license.
  
 The following legend is applicable only to US Government
 contracts under FAR:
  
                    RESTRICTED RIGHTS LEGEND
  
 Use, reproduction and disclosure by the US Government is
 subject to restrictions as set forth in subparagraphs (a)
 and (c) of the Commercial Computer Software - Restricted
 Rights clause in FAR 52.227-19.
  
 Gaussian, Inc.
 340 Quinnipiac St., Bldg. 40, Wallingford CT 06492
  
  
 ---------------------------------------------------------------
 Warning -- This program may not be used in any manner that
 competes with the business of Gaussian, Inc. or will provide
 assistance to any competitor of Gaussian, Inc.  The licensee
 of this program is prohibited from giving any competitor of
 Gaussian, Inc. access to this program.  By using this program,
 the user acknowledges that Gaussian, Inc. is engaged in the
 business of creating and licensing software in the field of
 computational chemistry and represents and warrants to the
 licensee that it is not a competitor of Gaussian, Inc. and that
 it will not use this program in any manner prohibited above.
 ---------------------------------------------------------------
  

 Cite this work as:
 Gaussian 16, Revision C.01,
 M. J. Frisch, G. W. Trucks, H. B. Schlegel, G. E. Scuseria, 
 M. A. Robb, J. R. Cheeseman, G. Scalmani, V. Barone, 
 G. A. Petersson, H. Nakatsuji, X. Li, M. Caricato, A. V. Marenich, 
 J. Bloino, B. G. Janesko, R. Gomperts, B. Mennucci, H. P. Hratchian, 
 J. V. Ortiz, A. F. Izmaylov, J. L. Sonnenberg, D. Williams-Young, 
 F. Ding, F. Lipparini, F. Egidi, J. Goings, B. Peng, A. Petrone, 
 T. Henderson, D. Ranasinghe, V. G. Zakrzewski, J. Gao, N. Rega, 
 G. Zheng, W. Liang, M. Hada, M. Ehara, K. Toyota, R. Fukuda, 
 J. Hasegawa, M. Ishida, T. Nakajima, Y. Honda, O. Kitao, H. Nakai, 
 T. Vreven, K. Throssell, J. A. Montgomery, Jr., J. E. Peralta, 
 F. Ogliaro, M. J. Bearpark, J. J. Heyd, E. N. Brothers, K. N. Kudin, 
 V. N. Staroverov, T. A. Keith, R. Kobayashi, J. Normand, 
 K. Raghavachari, A. P. Rendell, J. C. Burant, S. S. Iyengar, 
 J. Tomasi, M. Cossi, J. M. Millam, M. Klene, C. Adamo, R. Cammi, 
 J. W. Ochterski, R. L. Martin, K. Morokuma, O. Farkas, 
 J. B. Foresman, and D. J. Fox, Gaussian, Inc., Wallingford CT, 2019.
 
 ******************************************
 Gaussian 16:  ES64L-G16RevC.01  3-Jul-2019
                11-Jan-2023 
 ******************************************
 %oldchk=../GS_OLD/geometry.chk
 %chk=geometry.chk
 %nprocshared=4
 Will use up to    4 processors via shared memory.
 %mem=5GB
 Copying data from "../GS_OLD/geometry.chk" to current chk file "geometry.chk"
 IOpt=  2 FromEx=T IUOpen= 4 IOptOp= 5 NList=   0 IFRang= 0 IUIn= 4 IUOut= 2.
 -------------------------------------------------------
 # WB97XD/6-311G SCF=XQC FORCE nosym pop=full guess=read
 -------------------------------------------------------
 1/10=7,30=1,38=1/1,3;
 2/12=2,15=1,17=6,18=5,40=1/2;
 3/5=4,6=6,11=2,25=1,30=1,71=1,74=-58,116=-2/1,2,3;
 4/5=1/1;
 5/5=2,8=3,13=1,38=6/2,8;
 6/7=3,28=1/1;
 7/29=1,30=1/1,2,3,16;
 1/10=7,30=1/3;
 99//99;
 ------------
 MD Step 1000
 ------------
 Symbolic Z-matrix:
 Charge =  0 Multiplicity = 1
 C                    -0.33614  -0.58261   0.00759 
 H                     0.21653  -1.52544  -0.02639 
 H                    -1.42045  -0.58049  -0.0271 
 C                     0.33363   0.57706   0.00585 
 H                    -0.16073   1.56651  -0.03015 
 H                     1.44174   0.65275  -0.02928 
 

 GradGradGradGradGradGradGradGradGradGradGradGradGradGradGradGradGradGrad
 Berny optimization.
 Initialization pass.
 Trust Radius=3.00D-01 FncErr=1.00D-07 GrdErr=1.00D-07 EigMax=2.50D+02 EigMin=1.00D-04
 Number of steps in this run=      2 maximum allowed number of steps=      2.
 GradGradGradGradGradGradGradGradGradGradGradGradGradGradGradGradGradGrad

                          Input orientation:                          
 ---------------------------------------------------------------------
 Center     Atomic      Atomic             Coordinates (Angstroms)
 Number     Number       Type             X           Y           Z
 ---------------------------------------------------------------------
      1          6           0       -0.336136   -0.582614    0.007585
      2          1           0        0.216534   -1.525442   -0.026394
      3          1           0       -1.420446   -0.580491   -0.027097
      4          6           0        0.333626    0.577062    0.005851
      5          1           0       -0.160729    1.566506   -0.030148
      6          1           0        1.441745    0.652754   -0.029276
 ---------------------------------------------------------------------
                    Distance matrix (angstroms):
                    1          2          3          4          5
     1  C    0.000000
     2  H    1.093400   0.000000
     3  H    1.084866   1.890141   0.000000
     4  C    1.339191   2.106009   2.101852   0.000000
     5  H    2.156596   3.114881   2.489275   1.106653   0.000000
     6  H    2.165260   2.499138   3.116574   1.111256   1.844685
                    6
     6  H    0.000000
 Symmetry turned off by external request.
 Stoichiometry    C2H4
 Framework group  C1[X(C2H4)]
 Deg. of freedom    12
 Full point group                 C1      NOp   1
 Rotational constants (GHZ):         143.6046146          29.6604279          24.5930547
 Standard basis: 6-311G (5D, 7F)
    38 basis functions,    72 primitive gaussians,    38 cartesian basis functions
     8 alpha electrons        8 beta electrons
       nuclear repulsion energy        33.0697618976 Hartrees.
 NAtoms=    6 NActive=    6 NUniq=    6 SFac= 1.00D+00 NAtFMM=   60 NAOKFM=F Big=F
 Integral buffers will be    131072 words long.
 Raffenetti 2 integral format.
 Two-electron integral symmetry is turned off.
 Nuclear repulsion after empirical dispersion term =       33.0689206074 Hartrees.
 One-electron integrals computed using PRISM.
 NBasis=    38 RedAO= T EigKep=  6.45D-03  NBF=    38
 NBsUse=    38 1.00D-06 EigRej= -1.00D+00 NBFU=    38
 Initial guess from the checkpoint file:  "geometry.chk"
 B after Tr=    -0.000269   -0.000470   -0.000518
         Rot=    1.000000    0.000000    0.000000    0.000005 Ang=   0.00 deg.
 Keep R1 ints in memory in canonical form, NReq=4036876.
 Requested convergence on RMS density matrix=1.00D-08 within  32 cycles.
 Requested convergence on MAX density matrix=1.00D-06.
 Requested convergence on             energy=1.00D-06.
 No special actions if energy rises.
 SCF Done:  E(RwB97XD) =  -78.5555606978     A.U. after    8 cycles
            NFock=  8  Conv=0.66D-08     -V/T= 2.0051
 QCSCF skips out because SCF is already converged.

 **********************************************************************

            Population analysis using the SCF Density.

 **********************************************************************

 Alpha  occ. eigenvalues --  -10.29046 -10.28776  -0.86371  -0.67257  -0.55962
 Alpha  occ. eigenvalues --   -0.50925  -0.43672  -0.35667
 Alpha virt. eigenvalues --    0.07949   0.14105   0.16492   0.17031   0.24080
 Alpha virt. eigenvalues --    0.37296   0.39350   0.39962   0.46429   0.48892
 Alpha virt. eigenvalues --    0.49394   0.59097   0.66582   0.69171   0.77256
 Alpha virt. eigenvalues --    0.77593   0.84105   0.95117   2.23122   2.29044
 Alpha virt. eigenvalues --    2.33299   2.40672   2.67108   2.81750   2.87886
 Alpha virt. eigenvalues --    2.95152   3.14023   3.31948  23.35290  23.70529
     Molecular Orbital Coefficients:
                           1         2         3         4         5
                           O         O         O         O         O
     Eigenvalues --   -10.29046 -10.28776  -0.86371  -0.67257  -0.55962
   1 1   C  1S          0.09221   0.55580  -0.08849   0.06667  -0.00039
   2        2S          0.07609   0.45741  -0.13987   0.10676  -0.00065
   3        2PX         0.00016  -0.00001   0.02588   0.03602   0.13771
   4        2PY         0.00028  -0.00001   0.04597   0.05986  -0.07651
   5        2PZ         0.00000  -0.00001  -0.00143   0.00212   0.00015
   6        3S          0.00153   0.01456   0.37521  -0.29134   0.00182
   7        3PX        -0.00061   0.00042   0.03431   0.05780   0.21588
   8        3PY        -0.00105   0.00074   0.06074   0.09688  -0.12038
   9        3PZ        -0.00001  -0.00004  -0.00239   0.00378   0.00022
  10        4S          0.00349  -0.01462   0.19208  -0.22518   0.00186
  11        4PX         0.00150  -0.00151   0.00478   0.02317   0.11145
  12        4PY         0.00261  -0.00262   0.00853   0.03998  -0.06278
  13        4PZ         0.00000   0.00009  -0.00084   0.00189   0.00010
  14 2   H  1S         -0.00005  -0.00007   0.05309  -0.08780   0.10441
  15        2S         -0.00030   0.00010   0.05422  -0.10552   0.13187
  16        3S          0.00081   0.00170  -0.00178  -0.01514   0.04254
  17 3   H  1S         -0.00005  -0.00007   0.05420  -0.09027  -0.10583
  18        2S         -0.00030   0.00009   0.05492  -0.10795  -0.13297
  19        3S          0.00082   0.00174  -0.00177  -0.01582  -0.04295
  20 4   C  1S          0.55580  -0.09240  -0.08669  -0.06855  -0.00013
  21        2S          0.45746  -0.07584  -0.13688  -0.10993  -0.00020
  22        2PX        -0.00001  -0.00017  -0.02743   0.03804   0.11790
  23        2PY        -0.00002  -0.00029  -0.04663   0.06681  -0.07119
  24        2PZ        -0.00000   0.00000  -0.00115  -0.00226   0.00016
  25        3S          0.01410  -0.00324   0.36671   0.30046   0.00058
  26        3PX        -0.00022   0.00072  -0.03441   0.06155   0.18439
  27        3PY        -0.00036   0.00125  -0.05828   0.10785  -0.11077
  28        3PZ        -0.00004  -0.00001  -0.00199  -0.00406   0.00024
  29        4S         -0.01237   0.00816   0.18874   0.23825  -0.00017
  30        4PX         0.00091  -0.00190  -0.00551   0.02687   0.10165
  31        4PY         0.00153  -0.00329  -0.00910   0.04603  -0.06042
  32        4PZ         0.00008  -0.00002  -0.00082  -0.00209   0.00012
  33 5   H  1S         -0.00006  -0.00004   0.04955   0.09328  -0.08789
  34        2S         -0.00001  -0.00032   0.05071   0.11140  -0.11090
  35        3S          0.00179   0.00017  -0.00106   0.01668  -0.03560
  36 6   H  1S         -0.00005  -0.00004   0.04876   0.09265   0.08522
  37        2S         -0.00002  -0.00032   0.05031   0.11080   0.10766
  38        3S          0.00176   0.00017  -0.00112   0.01637   0.03474
                           6         7         8         9        10
                           O         O         O         V         V
     Eigenvalues --    -0.50925  -0.43672  -0.35667   0.07949   0.14105
   1 1   C  1S         -0.00338   0.00003  -0.00110   0.00295  -0.03287
   2        2S         -0.00503   0.00007  -0.00178   0.00490  -0.05272
   3        2PX         0.09599  -0.10986  -0.00369   0.00156  -0.03327
   4        2PY         0.16750   0.06544  -0.00631   0.00263  -0.06290
   5        2PZ         0.00558   0.00003   0.17933  -0.18896  -0.00260
   6        3S          0.01952   0.00002   0.00520  -0.01487   0.11438
   7        3PX         0.13969  -0.17506  -0.00522   0.00235  -0.03997
   8        3PY         0.24458   0.10471  -0.00891   0.00394  -0.07755
   9        3PZ         0.00884   0.00008   0.28848  -0.27800  -0.00417
  10        4S         -0.05354  -0.00212   0.00759  -0.01640   1.21486
  11        4PX         0.07056  -0.10909  -0.00427   0.01344  -0.20107
  12        4PY         0.12409   0.06524  -0.00733   0.02305  -0.37269
  13        4PZ         0.00501   0.00008   0.26723  -0.69384  -0.01518
  14 2   H  1S         -0.08001  -0.11396   0.00016   0.00462  -0.01582
  15        2S         -0.11064  -0.17559   0.00219   0.00730  -0.04453
  16        3S         -0.04133  -0.08112   0.00132   0.01907  -0.80968
  17 3   H  1S         -0.08006   0.11208   0.00009   0.00462  -0.01378
  18        2S         -0.11023   0.17203   0.00209   0.00727  -0.04030
  19        3S         -0.04095   0.07915   0.00127   0.01869  -0.77895
  20 4   C  1S         -0.00874  -0.00032  -0.00088  -0.00287  -0.03675
  21        2S         -0.01370  -0.00053  -0.00144  -0.00476  -0.05903
  22        2PX        -0.09694   0.12590   0.00363   0.00185   0.03867
  23        2PY        -0.16267  -0.07427   0.00662   0.00337   0.06294
  24        2PZ         0.00585   0.00020   0.17905   0.18945  -0.00338
  25        3S          0.04406   0.00151   0.00427   0.01427   0.13053
  26        3PX        -0.14336   0.20142   0.00507   0.00285   0.04674
  27        3PY        -0.23956  -0.11819   0.00929   0.00518   0.07492
  28        3PZ         0.00925   0.00030   0.28653   0.27777  -0.00511
  29        4S         -0.02726   0.00166   0.00713   0.01633   1.25441
  30        4PX        -0.07477   0.12881   0.00391   0.01431   0.25617
  31        4PY        -0.12414  -0.07549   0.00729   0.02519   0.42429
  32        4PZ         0.00537   0.00019   0.26752   0.69514  -0.02009
  33 5   H  1S         -0.07485  -0.12586   0.00026  -0.00437  -0.01315
  34        2S         -0.10224  -0.19631   0.00235  -0.00728  -0.04003
  35        3S         -0.03824  -0.09224   0.00130  -0.01899  -0.84752
  36 6   H  1S         -0.07927   0.12479   0.00018  -0.00437  -0.01491
  37        2S         -0.10845   0.19534   0.00223  -0.00738  -0.04474
  38        3S         -0.04060   0.09184   0.00122  -0.01928  -0.87950
                          11        12        13        14        15
                           V         V         V         V         V
     Eigenvalues --     0.16492   0.17031   0.24080   0.37296   0.39350
   1 1   C  1S          0.00021  -0.04579   0.00012   0.00950   0.00002
   2        2S          0.00034  -0.07462   0.00018   0.01291  -0.00017
   3        2PX         0.09564  -0.02070   0.09997  -0.03642  -0.02142
   4        2PY        -0.05487  -0.03674  -0.05722  -0.06502   0.01242
   5        2PZ         0.00001  -0.00722   0.00003  -0.00504  -0.00016
   6        3S         -0.00073   0.16856   0.00019   0.03369   0.00469
   7        3PX         0.13709  -0.01261   0.10555  -0.04522  -0.09900
   8        3PY        -0.07898  -0.02325  -0.06102  -0.08505   0.06049
   9        3PZ         0.00001  -0.01000  -0.00001  -0.01032  -0.00035
  10        4S         -0.01493   1.45260  -0.02381  -2.54045  -0.06175
  11        4PX         0.57808  -0.11908   1.16764  -1.55116  -0.52751
  12        4PY        -0.32497  -0.20704  -0.67433  -2.69982   0.17899
  13        4PZ         0.00019  -0.04734   0.00067  -0.04672  -0.00234
  14 2   H  1S         -0.02927  -0.02495   0.01438  -0.05829   0.07406
  15        2S         -0.08147  -0.01773  -0.02279  -0.66559   0.74353
  16        3S         -1.05621  -1.01114  -1.55087  -0.31254  -0.29199
  17 3   H  1S          0.02818  -0.02516  -0.01579  -0.05275  -0.07706
  18        2S          0.08002  -0.01967   0.01818  -0.61850  -0.78538
  19        3S          1.07424  -1.02510   1.57792  -0.36719   0.25844
  20 4   C  1S          0.00091   0.04199  -0.00013  -0.02018  -0.00025
  21        2S          0.00146   0.06834  -0.00022  -0.03322  -0.00046
  22        2PX         0.10232  -0.02355  -0.10021  -0.04061  -0.03152
  23        2PY        -0.06058  -0.03692   0.05749  -0.07301   0.01412
  24        2PZ         0.00019   0.00700  -0.00003   0.00362   0.00016
  25        3S         -0.00295  -0.15146   0.00027   0.04581   0.00244
  26        3PX         0.14679  -0.01869  -0.11402  -0.09279  -0.11231
  27        3PY        -0.08620  -0.02680   0.06458  -0.16916   0.05287
  28        3PZ         0.00026   0.00965  -0.00002   0.00437   0.00026
  29        4S         -0.03942  -1.32878   0.01515   3.26977   0.09820
  30        4PX         0.54282  -0.12146  -1.12365  -1.14690  -0.49738
  31        4PY        -0.32338  -0.19070   0.64414  -2.01546   0.21219
  32        4PZ         0.00116   0.04560  -0.00068   0.03719   0.00113
  33 5   H  1S          0.03146   0.02454   0.00525   0.00844  -0.08331
  34        2S          0.06733   0.02060  -0.03582   0.04229  -0.83641
  35        3S          1.06947   0.92067  -1.52071   0.44840   0.47764
  36 6   H  1S         -0.03125   0.02536  -0.00464   0.00315   0.08610
  37        2S         -0.06757   0.02146   0.03616  -0.00068   0.85885
  38        3S         -1.01588   0.94775   1.50629   0.46820  -0.46759
                          16        17        18        19        20
                           V         V         V         V         V
     Eigenvalues --     0.39962   0.46429   0.48892   0.49394   0.59097
   1 1   C  1S         -0.01865   0.01332  -0.04603  -0.00062  -0.00060
   2        2S         -0.03267   0.03033  -0.07678  -0.00074  -0.00107
   3        2PX         0.02903  -0.06193   0.01062   0.00130   0.00224
   4        2PY         0.05039  -0.10661   0.01391   0.00192   0.00344
   5        2PZ         0.00046  -0.00052   0.00643  -0.15169  -0.19248
   6        3S          0.07365  -0.33777   0.08343  -0.00992  -0.00078
   7        3PX         0.10959  -0.24159  -0.03971  -0.00004   0.00743
   8        3PY         0.19251  -0.41457  -0.07802  -0.00107   0.01155
   9        3PZ        -0.00389  -0.00485   0.02868  -0.62778  -0.68499
  10        4S          2.75895   0.07214   3.10669   0.11482   0.07568
  11        4PX         0.30599   0.21695   0.80893   0.03564   0.02387
  12        4PY         0.51107   0.40572   1.41537   0.06395   0.04021
  13        4PZ        -0.00081   0.00285  -0.10024   0.68369   1.24038
  14 2   H  1S         -0.02901  -0.03193  -0.07646  -0.00334  -0.00184
  15        2S         -0.56251  -0.30317  -0.91332  -0.03292  -0.01409
  16        3S          0.33025   0.05192   0.63674   0.03644   0.02522
  17 3   H  1S         -0.02891  -0.03435  -0.07463  -0.00328  -0.00174
  18        2S         -0.55309  -0.33290  -0.89734  -0.03276  -0.01224
  19        3S          0.32087   0.05573   0.60885   0.03533   0.02482
  20 4   C  1S         -0.00022  -0.00390   0.05094   0.00362   0.00076
  21        2S         -0.00396   0.00103   0.08886   0.00654   0.00143
  22        2PX         0.01049   0.05342   0.02856   0.00025   0.00223
  23        2PY         0.01792   0.09360   0.05165   0.00038   0.00427
  24        2PZ        -0.00417  -0.00200   0.00651  -0.15277   0.19214
  25        3S          0.07880  -0.28025  -0.24000  -0.02501  -0.00282
  26        3PX        -0.03716   0.23185   0.06112   0.00051   0.00788
  27        3PY        -0.06541   0.40737   0.10966   0.00048   0.01481
  28        3PZ        -0.01170  -0.00801   0.02434  -0.63164   0.68192
  29        4S         -0.95909   0.82620  -3.06879  -0.13702  -0.06608
  30        4PX         1.30724  -0.35367   0.60200   0.01908   0.02285
  31        4PY         2.29925  -0.58820   1.01883   0.03181   0.04013
  32        4PZ        -0.03640  -0.01936   0.03478   0.69530  -1.23683
  33 5   H  1S         -0.04354  -0.06593   0.06250   0.00291   0.00170
  34        2S         -0.80544  -0.67990   0.79523   0.04310   0.00628
  35        3S         -0.22317   0.28717  -0.53872  -0.01359  -0.02474
  36 6   H  1S         -0.04322  -0.06430   0.06307   0.00298   0.00176
  37        2S         -0.79771  -0.65611   0.79172   0.04289   0.00726
  38        3S         -0.21697   0.29364  -0.55455  -0.01470  -0.02499
                          21        22        23        24        25
                           V         V         V         V         V
     Eigenvalues --     0.66582   0.69171   0.77256   0.77593   0.84105
   1 1   C  1S          0.00041  -0.00046   0.04515   0.07687   0.00088
   2        2S          0.00084  -0.00103   0.09512   0.16384   0.00193
   3        2PX        -0.12834   0.20150  -0.03453   0.10987  -0.01012
   4        2PY         0.07491  -0.11923  -0.06026   0.18250   0.00957
   5        2PZ        -0.00005   0.00016   0.00027   0.00533   0.00013
   6        3S         -0.00666   0.01273  -0.61609  -1.39975  -0.01637
   7        3PX        -0.60086   0.71214  -0.20772   0.41993  -0.22849
   8        3PY         0.34853  -0.42049  -0.36270   0.69205   0.14560
   9        3PZ        -0.00028   0.00063   0.00117   0.01865   0.00054
  10        4S          0.01494  -0.06283   0.52002   2.49116  -0.06485
  11        4PX         1.07302  -0.81862   0.18271  -0.68775   4.50396
  12        4PY        -0.62362   0.47720   0.31707  -1.02210  -2.61016
  13        4PZ         0.00023   0.00048   0.01488  -0.05840   0.00244
  14 2   H  1S          0.02229  -0.05920   0.00756   0.03330  -0.02764
  15        2S          0.12383  -0.64315   0.08033   0.09361  -1.58398
  16        3S         -1.02237   1.12260   0.00662  -1.13466  -1.23313
  17 3   H  1S         -0.02198   0.05885   0.00738   0.03392   0.02964
  18        2S         -0.13256   0.66785   0.08149   0.08167   1.61233
  19        3S          1.01590  -1.10471   0.00605  -1.22336   1.23704
  20 4   C  1S          0.00062  -0.00062   0.08120   0.03814   0.00079
  21        2S          0.00122  -0.00121   0.17295   0.08042   0.00169
  22        2PX        -0.15533  -0.18103  -0.10270   0.04531   0.00842
  23        2PY         0.08918   0.10236  -0.18084   0.08185  -0.00238
  24        2PZ        -0.00007  -0.00020   0.00558  -0.00071  -0.00011
  25        3S         -0.00808   0.00446  -1.45797  -0.50080  -0.01341
  26        3PX        -0.69678  -0.60856  -0.38272   0.25336   0.22814
  27        3PY         0.40116   0.34236  -0.67428   0.45384  -0.11633
  28        3PZ        -0.00036  -0.00068   0.01975  -0.00284  -0.00034
  29        4S          0.00454   0.03187   2.65875   0.36079   0.05043
  30        4PX         1.29522   0.71994   0.58647  -0.25250  -4.16671
  31        4PY        -0.74031  -0.41679   1.04423  -0.57269   2.34643
  32        4PZ         0.00075  -0.00002  -0.05860   0.02282  -0.00192
  33 5   H  1S         -0.02664  -0.05458   0.03406   0.00565  -0.02242
  34        2S         -0.15555  -0.54777   0.07353   0.06847  -1.40146
  35        3S          1.13574   0.96944  -1.15611   0.19004  -1.09486
  36 6   H  1S          0.02689   0.05411   0.03389   0.00628   0.02327
  37        2S          0.15409   0.52693   0.06973   0.03754   1.39954
  38        3S         -1.13681  -0.96742  -1.13408   0.14940   1.09859
                          26        27        28        29        30
                           V         V         V         V         V
     Eigenvalues --     0.95117   2.23122   2.29044   2.33299   2.40672
   1 1   C  1S          0.09590  -0.01030  -0.01475   0.00020  -0.00033
   2        2S          0.19930   0.00123  -0.01488   0.00057  -0.00030
   3        2PX        -0.09092  -0.07797  -0.13323   0.34466  -0.40734
   4        2PY        -0.15759  -0.14286  -0.22878  -0.19781   0.23465
   5        2PZ         0.00018  -0.01453  -0.01979  -0.00010  -0.00054
   6        3S         -1.54504  -0.18540  -0.03654  -0.00187  -0.00372
   7        3PX        -0.23084   0.07391   0.21085  -0.41134   0.56732
   8        3PY        -0.39545   0.14580   0.37207   0.23783  -0.32956
   9        3PZ        -0.00276   0.01446   0.02463   0.00020   0.00062
  10        4S          5.71467  -0.11203  -0.88913  -0.00195  -0.02759
  11        4PX         1.17877   0.05426  -0.19635  -0.05309   0.97690
  12        4PY         1.99854   0.07212  -0.35107   0.02430  -0.55613
  13        4PZ        -0.02020   0.00333   0.00901  -0.00020   0.00104
  14 2   H  1S          0.01528  -0.70674  -0.79335  -0.70466   0.65849
  15        2S         -0.28154   1.00383   1.19068   1.08882  -1.47221
  16        3S         -0.09382  -0.29780  -0.46878  -0.46350   0.36404
  17 3   H  1S          0.01532  -0.70040  -0.79689   0.69229  -0.67487
  18        2S         -0.26633   0.99698   1.19624  -1.07349   1.50538
  19        3S         -0.08798  -0.28009  -0.46313   0.45243  -0.36010
  20 4   C  1S         -0.09387  -0.01036   0.01223   0.00027   0.00014
  21        2S         -0.19467   0.00005   0.01219   0.00034   0.00022
  22        2PX        -0.09219   0.13519  -0.12192   0.30521   0.41673
  23        2PY        -0.15903   0.23739  -0.20621  -0.17595  -0.23634
  24        2PZ         0.00031  -0.01602   0.01922   0.00031   0.00020
  25        3S          1.50537  -0.16719   0.01867   0.00021  -0.00047
  26        3PX        -0.22658  -0.17192   0.20817  -0.38176  -0.58425
  27        3PY        -0.39364  -0.30037   0.34922   0.21890   0.33081
  28        3PZ         0.00385   0.01726  -0.02448  -0.00037  -0.00032
  29        4S         -5.68755  -0.17099   0.88875   0.01178   0.01236
  30        4PX         1.12132  -0.01671  -0.18926   0.10955  -0.85650
  31        4PY         1.96796  -0.03064  -0.32027  -0.06424   0.48756
  32        4PZ         0.01419   0.00514  -0.00706  -0.00007  -0.00076
  33 5   H  1S         -0.01791  -0.79022   0.67496   0.70909   0.68214
  34        2S          0.29726   1.14819  -1.02970  -1.02916  -1.44726
  35        3S          0.06749  -0.35880   0.40354   0.51514   0.42906
  36 6   H  1S         -0.01797  -0.78330   0.69398  -0.69644  -0.68239
  37        2S          0.30763   1.13720  -1.05712   1.00839   1.44493
  38        3S          0.06622  -0.35565   0.42112  -0.50998  -0.43102
                          31        32        33        34        35
                           V         V         V         V         V
     Eigenvalues --     2.67108   2.81750   2.87886   2.95152   3.14023
   1 1   C  1S          0.00054   0.00274  -0.01321  -0.00002  -0.00989
   2        2S          0.00042   0.00786  -0.04359  -0.00023  -0.03001
   3        2PX         0.00528   0.07920  -0.47652  -0.72777   0.44218
   4        2PY         0.00844   0.13861  -0.85027   0.40338   0.78119
   5        2PZ        -0.92374  -0.92870  -0.15017  -0.00111   0.00704
   6        3S         -0.00162  -0.06477   0.38171   0.00322   0.25077
   7        3PX        -0.00367  -0.13680   0.83932   0.87731  -0.42180
   8        3PY        -0.00585  -0.23787   1.47752  -0.47533  -0.74803
   9        3PZ         0.93889   1.13462   0.18858   0.00152  -0.00904
  10        4S          0.01388   0.15131  -0.86571  -0.01243  -0.49031
  11        4PX        -0.00237   0.10990  -0.71577  -0.66784   0.20771
  12        4PY        -0.00340   0.19135  -1.26260   0.35546   0.37227
  13        4PZ        -0.33789  -0.61359  -0.11964  -0.00120   0.00526
  14 2   H  1S          0.01314  -0.02081   0.26018  -0.37137  -0.21589
  15        2S         -0.01493   0.01243  -0.21486   0.38274   0.16392
  16        3S         -0.00342   0.04455  -0.30072   0.27750   0.05955
  17 3   H  1S          0.01324  -0.01998   0.25005   0.37557  -0.21004
  18        2S         -0.01521   0.01089  -0.19800  -0.38274   0.15758
  19        3S         -0.00383   0.04509  -0.30206  -0.29240   0.06038
  20 4   C  1S          0.00056  -0.00268   0.01359   0.00043  -0.00732
  21        2S          0.00055  -0.00831   0.04781   0.00110  -0.02267
  22        2PX        -0.00820   0.06926  -0.40025  -0.80716  -0.50867
  23        2PY        -0.01484   0.12427  -0.72071   0.45282  -0.89445
  24        2PZ        -0.92556   0.92601   0.15388   0.00043   0.01456
  25        3S         -0.00320   0.07123  -0.42970  -0.00912   0.19440
  26        3PX         0.00861  -0.12662   0.75987   0.96332   0.54843
  27        3PY         0.01541  -0.22481   1.35149  -0.53099   0.96937
  28        3PZ         0.94143  -1.13181  -0.19377  -0.00056  -0.01843
  29        4S          0.01732  -0.15476   0.89845   0.02475  -0.36979
  30        4PX        -0.00109   0.10794  -0.70287  -0.70157  -0.33646
  31        4PY        -0.00245   0.19027  -1.23658   0.37808  -0.59735
  32        4PZ        -0.33923   0.61204   0.12376   0.00037   0.01453
  33 5   H  1S          0.01251   0.02939  -0.29372   0.42260  -0.26329
  34        2S         -0.01552  -0.02397   0.26850  -0.43382   0.20734
  35        3S         -0.00135  -0.04120   0.28109  -0.24239   0.12525
  36 6   H  1S          0.01267   0.02977  -0.29159  -0.42948  -0.25748
  37        2S         -0.01602  -0.02486   0.27085   0.43996   0.20261
  38        3S         -0.00106  -0.03923   0.26755   0.24640   0.12378
                          36        37        38
                           V         V         V
     Eigenvalues --     3.31948  23.35290  23.70529
   1 1   C  1S         -0.00041  -1.41214  -1.45410
   2        2S         -0.00069   1.50605   1.57239
   3        2PX         0.78779  -0.00659   0.01208
   4        2PY        -0.44473  -0.01092   0.02122
   5        2PZ         0.00066  -0.00060  -0.00027
   6        3S          0.00259  -0.29581  -0.39962
   7        3PX        -1.12492   0.02406  -0.05535
   8        3PY         0.63502   0.04033  -0.09646
   9        3PZ        -0.00101   0.00170   0.00080
  10        4S         -0.02414   0.27393   0.76792
  11        4PX         1.96556  -0.02608   0.13190
  12        4PY        -1.11739  -0.04442   0.22936
  13        4PZ         0.00168  -0.00283  -0.00330
  14 2   H  1S          0.56622   0.01367   0.00761
  15        2S         -0.87900   0.00741  -0.01478
  16        3S         -0.47242  -0.08481  -0.03961
  17 3   H  1S         -0.57489   0.01490   0.00861
  18        2S          0.89107   0.00713  -0.01537
  19        3S          0.48816  -0.08619  -0.04038
  20 4   C  1S          0.00010  -1.44933   1.41685
  21        2S         -0.00002   1.54582  -1.53222
  22        2PX        -0.70819   0.00616   0.01268
  23        2PY         0.40043   0.01090   0.02161
  24        2PZ        -0.00048  -0.00060   0.00015
  25        3S          0.00154  -0.30360   0.38963
  26        3PX         1.00975  -0.02241  -0.05643
  27        3PY        -0.57580  -0.03943  -0.09692
  28        3PZ         0.00071   0.00172  -0.00039
  29        4S          0.00019   0.28063  -0.75804
  30        4PX        -1.77651   0.02334   0.13147
  31        4PY         1.01526   0.04234   0.22567
  32        4PZ        -0.00121  -0.00280   0.00245
  33 5   H  1S          0.47896   0.01297  -0.00446
  34        2S         -0.74607   0.00817   0.01382
  35        3S         -0.42316  -0.08255   0.03758
  36 6   H  1S         -0.47797   0.01225  -0.00368
  37        2S          0.74586   0.00913   0.01307
  38        3S          0.42187  -0.08172   0.03653
     Density Matrix:
                           1         2         3         4         5
   1 1   C  1S          0.65940
   2        2S          0.56151   0.49200
   3        2PX        -0.00052  -0.00068   0.08446
   4        2PY        -0.00116  -0.00160   0.00345   0.08786
   5        2PZ         0.00010   0.00015  -0.00014  -0.00029   0.06439
   6        3S         -0.08892  -0.15383   0.00264   0.00582  -0.00023
   7        3PX         0.00087   0.00134   0.13072   0.00099  -0.00011
   8        3PY         0.00127   0.00196   0.00098   0.13136  -0.00026
   9        3PZ         0.00019   0.00032  -0.00024  -0.00047   0.10358
  10        4S         -0.07929  -0.11415  -0.01564  -0.02789   0.00062
  11        4PX         0.00028   0.00161   0.07016  -0.00443  -0.00063
  12        4PY         0.00062   0.00302  -0.00443   0.06538  -0.00111
  13        4PZ        -0.00012  -0.00028  -0.00091  -0.00155   0.09591
  14 2   H  1S         -0.02073  -0.03301   0.03486  -0.06333  -0.00134
  15        2S         -0.02299  -0.03675   0.04885  -0.08790  -0.00102
  16        3S          0.00058  -0.00071   0.02041  -0.03296  -0.00004
  17 3   H  1S         -0.02109  -0.03356  -0.07284  -0.00178  -0.00143
  18        2S         -0.02321  -0.03708  -0.10053  -0.00196  -0.00112
  19        3S          0.00060  -0.00070  -0.03832   0.00114  -0.00007
  20 4   C  1S          0.00605   0.00976  -0.01088  -0.01880  -0.00046
  21        2S          0.00972   0.01519  -0.01741  -0.03010  -0.00074
  22        2PX         0.01030   0.01647  -0.01251  -0.03205   0.00051
  23        2PY         0.01797   0.02874  -0.03217  -0.04969   0.00095
  24        2PZ        -0.00053  -0.00085  -0.00042  -0.00067   0.06428
  25        3S         -0.02614  -0.03970   0.04889   0.08451   0.00225
  26        3PX         0.01589   0.02461  -0.01838  -0.04574   0.00065
  27        3PY         0.02769   0.04293  -0.04585  -0.07133   0.00124
  28        3PZ        -0.00089  -0.00144  -0.00074  -0.00118   0.10285
  29        4S          0.00532   0.00391   0.02123   0.03689   0.00272
  30        4PX         0.00304   0.00630  -0.01304  -0.02108   0.00074
  31        4PY         0.00524   0.01089  -0.02110  -0.03764   0.00143
  32        4PZ        -0.00076  -0.00123  -0.00115  -0.00190   0.09600
  33 5   H  1S          0.00418   0.00686  -0.00164  -0.01238  -0.00052
  34        2S          0.00628   0.01045   0.00359  -0.02500  -0.00002
  35        3S          0.00321   0.00470   0.00426  -0.01755   0.00010
  36 6   H  1S          0.00414   0.00680  -0.00997  -0.00769  -0.00053
  37        2S          0.00617   0.01026  -0.02352  -0.00937  -0.00004
  38        3S          0.00315   0.00461  -0.01729  -0.00505   0.00007
                           6         7         8         9        10
   6        3S          0.45257
   7        3PX        -0.00175   0.20262
   8        3PY        -0.00183  -0.00484   0.19687
   9        3PZ        -0.00065  -0.00020  -0.00041   0.16664
  10        4S          0.27293  -0.02636  -0.04755   0.00081   0.18152
  11        4PX        -0.00685   0.10907  -0.01002  -0.00103  -0.01529
  12        4PY        -0.01242  -0.01000   0.09838  -0.00179  -0.02854
  13        4PZ         0.00125  -0.00121  -0.00205   0.15429   0.00235
  14 2   H  1S          0.08825   0.05612  -0.09871  -0.00221   0.06938
  15        2S          0.09835   0.07900  -0.13654  -0.00172   0.08147
  16        3S          0.00608   0.03334  -0.05062  -0.00007   0.01103
  17 3   H  1S          0.08976  -0.11402  -0.00112  -0.00234   0.06918
  18        2S          0.09936  -0.15717  -0.00016  -0.00185   0.08032
  19        3S          0.00620  -0.05966   0.00358  -0.00011   0.01031
  20 4   C  1S         -0.02645  -0.01700  -0.02941  -0.00078   0.00508
  21        2S         -0.04002  -0.02644  -0.04574  -0.00126   0.00379
  22        2PX        -0.04607  -0.01778  -0.04546   0.00087  -0.01733
  23        2PY        -0.08048  -0.04573  -0.07083   0.00163  -0.03042
  24        2PZ         0.00254  -0.00058  -0.00090   0.10340   0.00266
  25        3S          0.10183   0.07186   0.12438   0.00376   0.00109
  26        3PX        -0.06653  -0.02626  -0.06468   0.00113  -0.02570
  27        3PY        -0.11620  -0.06500  -0.10161   0.00215  -0.04511
  28        3PZ         0.00421  -0.00102  -0.00160   0.16546   0.00442
  29        4S          0.00203   0.03216   0.05606   0.00453  -0.03210
  30        4PX        -0.02235  -0.01942  -0.02961   0.00123  -0.00626
  31        4PY        -0.03873  -0.02972  -0.05431   0.00236  -0.01062
  32        4PZ         0.00359  -0.00161  -0.00263   0.15443   0.00411
  33 5   H  1S         -0.02042  -0.00061  -0.01772  -0.00077  -0.01475
  34        2S         -0.03125   0.00862  -0.03672   0.00007  -0.01928
  35        3S         -0.01212   0.00808  -0.02637   0.00018  -0.00354
  36 6   H  1S         -0.02017  -0.01499  -0.00929  -0.00078  -0.01471
  37        2S         -0.03063  -0.03598  -0.01052   0.00005  -0.01935
  38        3S         -0.01181  -0.02670  -0.00598   0.00015  -0.00369
                          11        12        13        14        15
  11        4PX         0.05976
  12        4PY        -0.00870   0.05067
  13        4PZ        -0.00149  -0.00254   0.14288
  14 2   H  1S          0.03328  -0.05395  -0.00113   0.08164
  15        2S          0.04770  -0.07447  -0.00043   0.10955   0.14908
  16        3S          0.02062  -0.02745   0.00024   0.03645   0.05186
  17 3   H  1S         -0.06301   0.00175  -0.00119  -0.01323  -0.02463
  18        2S         -0.08722   0.00406  -0.00049  -0.02455  -0.04234
  19        3S         -0.03339   0.00424   0.00022  -0.01787  -0.02691
  20 4   C  1S         -0.00324  -0.00576  -0.00069   0.00424   0.00673
  21        2S         -0.00665  -0.01176  -0.00111   0.00701   0.01123
  22        2PX        -0.01340  -0.01991   0.00120   0.00184  -0.00266
  23        2PY        -0.02002  -0.03667   0.00221   0.01141   0.02417
  24        2PZ        -0.00083  -0.00137   0.09575  -0.00062  -0.00019
  25        3S          0.02346   0.04137   0.00325  -0.02110  -0.03376
  26        3PX        -0.02060  -0.02819   0.00163   0.00108  -0.00708
  27        3PY        -0.02835  -0.05348   0.00303   0.01702   0.03626
  28        3PZ        -0.00136  -0.00225   0.15322  -0.00091  -0.00019
  29        4S          0.00847   0.01553   0.00412  -0.01785  -0.02437
  30        4PX        -0.01483  -0.01250   0.00149  -0.00147  -0.00813
  31        4PY        -0.01252  -0.02963   0.00281   0.01541   0.02737
  32        4PZ        -0.00165  -0.00276   0.14302  -0.00051   0.00030
  33 5   H  1S          0.00210  -0.01566  -0.00038   0.01119   0.02327
  34        2S          0.00931  -0.02732   0.00051   0.02377   0.04431
  35        3S          0.00755  -0.01575   0.00036   0.01667   0.02783
  36 6   H  1S         -0.01466  -0.00585  -0.00039  -0.00905  -0.01807
  37        2S         -0.02833  -0.00526   0.00049  -0.01880  -0.03413
  38        3S         -0.01728  -0.00117   0.00033  -0.01018  -0.01768
                          16        17        18        19        20
  16        3S          0.02067
  17 3   H  1S         -0.01803   0.08252
  18        2S         -0.02704   0.10980   0.14820
  19        3S         -0.01262   0.03605   0.05091   0.02009
  20 4   C  1S          0.00373   0.00429   0.00677   0.00374   0.65948
  21        2S          0.00549   0.00709   0.01129   0.00550   0.56157
  22        2PX        -0.00343   0.00895   0.02212   0.01665   0.00113
  23        2PY         0.01760   0.00735   0.00972   0.00575   0.00186
  24        2PZ         0.00004  -0.00061  -0.00015   0.00007   0.00009
  25        3S         -0.01422  -0.02133  -0.03392  -0.01420  -0.08928
  26        3PX        -0.00686   0.01424   0.03482   0.02598  -0.00053
  27        3PY         0.02652   0.00952   0.01196   0.00725  -0.00103
  28        3PZ         0.00010  -0.00090  -0.00014   0.00014   0.00019
  29        4S         -0.00589  -0.01778  -0.02404  -0.00567  -0.08019
  30        4PX        -0.00686   0.01389   0.02738   0.01696  -0.00017
  31        4PY         0.01602   0.00645   0.00655   0.00199  -0.00020
  32        4PZ         0.00031  -0.00051   0.00033   0.00033  -0.00005
  33 5   H  1S          0.01613  -0.00910  -0.01812  -0.00937  -0.02003
  34        2S          0.02731  -0.01878  -0.03398  -0.01688  -0.02208
  35        3S          0.01460  -0.01015  -0.01755  -0.00893   0.00059
  36 6   H  1S         -0.00942   0.01119   0.02310   0.01582  -0.01992
  37        2S         -0.01709   0.02382   0.04410   0.02688  -0.02214
  38        3S         -0.00907   0.01666   0.02766   0.01437   0.00052
                          21        22        23        24        25
  21        2S          0.49207
  22        2PX         0.00162   0.08272
  23        2PY         0.00265   0.00374   0.08746
  24        2PZ         0.00013   0.00015   0.00022   0.06420
  25        3S         -0.15428  -0.00525  -0.00863  -0.00016   0.45385
  26        3PX        -0.00079   0.12860   0.00197   0.00008  -0.00003
  27        3PY        -0.00157   0.00203   0.13124   0.00009   0.00053
  28        3PZ         0.00032   0.00022   0.00035   0.10274  -0.00064
  29        4S         -0.11589   0.01348   0.02297   0.00072   0.27886
  30        4PX        -0.00142   0.07327  -0.00512   0.00050   0.00610
  31        4PY        -0.00225  -0.00513   0.06730   0.00092   0.00988
  32        4PZ        -0.00016   0.00087   0.00155   0.09587   0.00091
  33 5   H  1S         -0.03190  -0.03352   0.06341  -0.00140   0.08532
  34        2S         -0.03529  -0.05005   0.08840  -0.00109   0.09442
  35        3S         -0.00061  -0.02287   0.03356  -0.00010   0.00562
  36 6   H  1S         -0.03175   0.07126   0.00296  -0.00132   0.08493
  37        2S         -0.03539   0.10129   0.00109  -0.00097   0.09466
  38        3S         -0.00071   0.04050  -0.00307  -0.00006   0.00582
                          26        27        28        29        30
  26        3PX         0.20024
  27        3PY        -0.00239   0.19748
  28        3PZ         0.00010   0.00013   0.16441
  29        4S          0.02485   0.04226   0.00090   0.18681
  30        4PX         0.11454  -0.01064   0.00079   0.01520   0.06657
  31        4PY        -0.01074   0.10182   0.00147   0.02505  -0.01052
  32        4PZ         0.00110   0.00197   0.15342   0.00221   0.00126
  33 5   H  1S         -0.05358   0.09944  -0.00231   0.06685  -0.03463
  34        2S         -0.08042   0.13812  -0.00182   0.07721  -0.05238
  35        3S         -0.03719   0.05176  -0.00017   0.00932  -0.02436
  36 6   H  1S          0.11248   0.00391  -0.00220   0.06726   0.06577
  37        2S          0.15969   0.00002  -0.00166   0.07834   0.09385
  38        3S          0.06355  -0.00627  -0.00011   0.00986   0.03770
                          31        32        33        34        35
  31        4PY         0.05405
  32        4PZ         0.00235   0.14320
  33 5   H  1S          0.05590  -0.00121   0.08065
  34        2S          0.07779  -0.00049   0.11003   0.15255
  35        3S          0.02930   0.00017   0.03821   0.05555   0.02305
  36 6   H  1S         -0.00181  -0.00115  -0.01241  -0.02610  -0.02004
  37        2S         -0.00625  -0.00041  -0.02620  -0.04860  -0.03181
  38        3S         -0.00643   0.00020  -0.02020  -0.03192  -0.01575
                          36        37        38
  36 6   H  1S          0.08016
  37        2S          0.10973   0.15265
  38        3S          0.03820   0.05569   0.02313
    Full Mulliken population analysis:
                           1         2         3         4         5
   1 1   C  1S          0.65940
   2        2S          0.49325   0.49200
   3        2PX         0.00000   0.00000   0.08446
   4        2PY         0.00000   0.00000   0.00000   0.08786
   5        2PZ         0.00000   0.00000   0.00000   0.00000   0.06439
   6        3S         -0.02927  -0.06443   0.00000   0.00000   0.00000
   7        3PX         0.00000   0.00000   0.08224   0.00000   0.00000
   8        3PY         0.00000   0.00000   0.00000   0.08264   0.00000
   9        3PZ         0.00000   0.00000   0.00000   0.00000   0.06517
  10        4S         -0.01219  -0.02136   0.00000   0.00000   0.00000
  11        4PX         0.00000   0.00000   0.01545   0.00000   0.00000
  12        4PY         0.00000   0.00000   0.00000   0.01440   0.00000
  13        4PZ         0.00000   0.00000   0.00000   0.00000   0.02112
  14 2   H  1S         -0.00024  -0.00034   0.00185   0.00573   0.00000
  15        2S         -0.00169  -0.00324   0.00432   0.01326   0.00001
  16        3S          0.00005  -0.00007   0.00069   0.00190   0.00000
  17 3   H  1S         -0.00026  -0.00037   0.00793  -0.00000   0.00000
  18        2S         -0.00174  -0.00333   0.01775  -0.00000   0.00001
  19        3S          0.00005  -0.00007   0.00255   0.00000   0.00000
  20 4   C  1S          0.00000   0.00000  -0.00002  -0.00006   0.00000
  21        2S          0.00000  -0.00000  -0.00002  -0.00005   0.00000
  22        2PX        -0.00002  -0.00002   0.00011   0.00085   0.00000
  23        2PY        -0.00006  -0.00005   0.00085   0.00195   0.00000
  24        2PZ        -0.00000  -0.00000  -0.00000  -0.00000   0.00041
  25        3S         -0.00058  -0.00099   0.00254   0.00761  -0.00000
  26        3PX        -0.00054  -0.00098   0.00019   0.00552   0.00000
  27        3PY        -0.00162  -0.00296   0.00553   0.01069   0.00000
  28        3PZ        -0.00000  -0.00000  -0.00000  -0.00000   0.00608
  29        4S          0.00034   0.00030   0.00096   0.00290  -0.00000
  30        4PX        -0.00018  -0.00045  -0.00070   0.00146   0.00000
  31        4PY        -0.00053  -0.00134   0.00146   0.00098   0.00000
  32        4PZ        -0.00000  -0.00000  -0.00000  -0.00000   0.00902
  33 5   H  1S          0.00000   0.00000  -0.00000  -0.00000   0.00000
  34        2S          0.00001   0.00002   0.00000  -0.00031   0.00000
  35        3S          0.00007   0.00013   0.00001  -0.00070  -0.00000
  36 6   H  1S          0.00000   0.00000  -0.00000  -0.00000   0.00000
  37        2S          0.00001   0.00002  -0.00023  -0.00006   0.00000
  38        3S          0.00007   0.00012  -0.00056  -0.00011  -0.00000
                           6         7         8         9        10
   6        3S          0.45257
   7        3PX         0.00000   0.20262
   8        3PY         0.00000   0.00000   0.19687
   9        3PZ         0.00000   0.00000   0.00000   0.16664
  10        4S          0.21144   0.00000   0.00000   0.00000   0.18152
  11        4PX         0.00000   0.07127   0.00000   0.00000   0.00000
  12        4PY         0.00000   0.00000   0.06429   0.00000   0.00000
  13        4PZ         0.00000   0.00000   0.00000   0.10082   0.00000
  14 2   H  1S          0.01636   0.01088   0.03265   0.00003   0.01842
  15        2S          0.04162   0.01955   0.05764   0.00003   0.04709
  16        3S          0.00281   0.00392   0.01015   0.00000   0.00834
  17 3   H  1S          0.01703   0.04439  -0.00000   0.00003   0.01852
  18        2S          0.04259   0.07729  -0.00000   0.00003   0.04674
  19        3S          0.00288   0.01384   0.00000   0.00000   0.00782
  20 4   C  1S         -0.00059  -0.00057  -0.00172   0.00000   0.00032
  21        2S         -0.00099  -0.00105  -0.00316   0.00000   0.00029
  22        2PX         0.00240   0.00019   0.00549   0.00000   0.00079
  23        2PY         0.00725   0.00552   0.01061   0.00000   0.00239
  24        2PZ         0.00000  -0.00000  -0.00000   0.00611   0.00000
  25        3S          0.02165   0.01345   0.04030  -0.00000   0.00041
  26        3PX         0.01245  -0.00126   0.01844   0.00000   0.00396
  27        3PY         0.03765   0.01853   0.02856   0.00000   0.01204
  28        3PZ         0.00000  -0.00000  -0.00000   0.03518   0.00000
  29        4S          0.00077   0.00496   0.01496  -0.00000  -0.02014
  30        4PX         0.00628  -0.00398   0.00587   0.00000   0.00190
  31        4PY         0.01884   0.00589   0.00130   0.00000   0.00557
  32        4PZ         0.00000  -0.00000  -0.00000   0.04929   0.00000
  33 5   H  1S         -0.00005  -0.00000  -0.00019   0.00000  -0.00079
  34        2S         -0.00120   0.00006  -0.00320  -0.00000  -0.00322
  35        3S         -0.00197   0.00011  -0.00424  -0.00000  -0.00127
  36 6   H  1S         -0.00005  -0.00012  -0.00005   0.00000  -0.00077
  37        2S         -0.00114  -0.00253  -0.00051  -0.00000  -0.00319
  38        3S         -0.00189  -0.00351  -0.00055  -0.00000  -0.00132
                          11        12        13        14        15
  11        4PX         0.05976
  12        4PY         0.00000   0.05067
  13        4PZ         0.00000   0.00000   0.14288
  14 2   H  1S          0.00630   0.01742   0.00001   0.08164
  15        2S          0.01519   0.04045   0.00001   0.07738   0.14908
  16        3S          0.00514   0.01167  -0.00000   0.01362   0.04091
  17 3   H  1S          0.02360   0.00000   0.00001  -0.00001  -0.00065
  18        2S          0.05485   0.00000   0.00001  -0.00065  -0.00530
  19        3S          0.01639   0.00000  -0.00000  -0.00199  -0.00784
  20 4   C  1S         -0.00019  -0.00058   0.00000   0.00000   0.00002
  21        2S         -0.00047  -0.00145   0.00000   0.00000   0.00003
  22        2PX        -0.00072   0.00138   0.00000  -0.00000   0.00000
  23        2PY         0.00139   0.00096   0.00000  -0.00000  -0.00036
  24        2PZ        -0.00000  -0.00000   0.00900   0.00000   0.00000
  25        3S          0.00659   0.02012  -0.00000  -0.00007  -0.00150
  26        3PX        -0.00422   0.00558   0.00000  -0.00000   0.00004
  27        3PY         0.00562   0.00128   0.00000  -0.00023  -0.00359
  28        3PZ        -0.00000  -0.00000   0.04890   0.00000   0.00000
  29        4S          0.00257   0.00815  -0.00000  -0.00105  -0.00440
  30        4PX        -0.00713   0.00317   0.00000   0.00001   0.00017
  31        4PY         0.00317  -0.00559   0.00000  -0.00246  -0.01035
  32        4PZ        -0.00000  -0.00000   0.08973   0.00000  -0.00000
  33 5   H  1S          0.00003  -0.00231   0.00000   0.00000   0.00000
  34        2S          0.00027  -0.00977  -0.00000   0.00000   0.00016
  35        3S          0.00028  -0.00726  -0.00000   0.00023   0.00147
  36 6   H  1S         -0.00176  -0.00049   0.00000  -0.00000  -0.00004
  37        2S         -0.00827  -0.00107  -0.00000  -0.00004  -0.00090
  38        3S         -0.00654  -0.00031  -0.00000  -0.00046  -0.00244
                          16        17        18        19        20
  16        3S          0.02067
  17 3   H  1S         -0.00201   0.08252
  18        2S         -0.00787   0.07756   0.14820
  19        3S         -0.00655   0.01347   0.04017   0.02009
  20 4   C  1S          0.00009   0.00000   0.00002   0.00009   0.65948
  21        2S          0.00016   0.00000   0.00003   0.00016   0.49331
  22        2PX         0.00001  -0.00000  -0.00028  -0.00059   0.00000
  23        2PY        -0.00074  -0.00000  -0.00008  -0.00013   0.00000
  24        2PZ        -0.00000   0.00000   0.00000  -0.00000   0.00000
  25        3S         -0.00246  -0.00007  -0.00153  -0.00247  -0.02939
  26        3PX         0.00006  -0.00016  -0.00291  -0.00366   0.00000
  27        3PY        -0.00445  -0.00007  -0.00066  -0.00067   0.00000
  28        3PZ        -0.00000   0.00000   0.00000  -0.00000   0.00000
  29        4S         -0.00222  -0.00105  -0.00436  -0.00214  -0.01233
  30        4PX         0.00018  -0.00186  -0.00869  -0.00671   0.00000
  31        4PY        -0.00757  -0.00057  -0.00137  -0.00052   0.00000
  32        4PZ        -0.00000   0.00000  -0.00000  -0.00000   0.00000
  33 5   H  1S          0.00023  -0.00000  -0.00004  -0.00043  -0.00021
  34        2S          0.00144  -0.00004  -0.00092  -0.00236  -0.00157
  35        3S          0.00246  -0.00046  -0.00246  -0.00287   0.00005
  36 6   H  1S         -0.00042   0.00000   0.00000   0.00022  -0.00020
  37        2S         -0.00236   0.00000   0.00015   0.00141  -0.00156
  38        3S         -0.00289   0.00023   0.00145   0.00242   0.00004
                          21        22        23        24        25
  21        2S          0.49207
  22        2PX         0.00000   0.08272
  23        2PY         0.00000   0.00000   0.08746
  24        2PZ         0.00000   0.00000   0.00000   0.06420
  25        3S         -0.06461   0.00000   0.00000   0.00000   0.45385
  26        3PX         0.00000   0.08090   0.00000   0.00000   0.00000
  27        3PY         0.00000   0.00000   0.08256   0.00000   0.00000
  28        3PZ         0.00000   0.00000   0.00000   0.06463   0.00000
  29        4S         -0.02169   0.00000   0.00000   0.00000   0.21603
  30        4PX         0.00000   0.01614   0.00000   0.00000   0.00000
  31        4PY         0.00000   0.00000   0.01482   0.00000   0.00000
  32        4PZ         0.00000   0.00000   0.00000   0.02111   0.00000
  33 5   H  1S         -0.00030   0.00148   0.00561   0.00000   0.01526
  34        2S         -0.00301   0.00385   0.01361   0.00001   0.03915
  35        3S         -0.00006   0.00068   0.00200   0.00000   0.00257
  36 6   H  1S         -0.00029   0.00689   0.00002   0.00000   0.01500
  37        2S         -0.00299   0.01729   0.00001   0.00001   0.03898
  38        3S         -0.00007   0.00270  -0.00001   0.00000   0.00266
                          26        27        28        29        30
  26        3PX         0.20024
  27        3PY         0.00000   0.19748
  28        3PZ         0.00000   0.00000   0.16441
  29        4S          0.00000   0.00000   0.00000   0.18681
  30        4PX         0.07485   0.00000   0.00000   0.00000   0.06657
  31        4PY         0.00000   0.06654   0.00000   0.00000   0.00000
  32        4PZ         0.00000   0.00000   0.10025   0.00000   0.00000
  33 5   H  1S          0.00896   0.03328   0.00003   0.01751   0.00578
  34        2S          0.01744   0.05996   0.00003   0.04416   0.01476
  35        3S          0.00388   0.01080   0.00000   0.00700   0.00540
  36 6   H  1S          0.04162   0.00010   0.00003   0.01753   0.02451
  37        2S          0.07709   0.00000   0.00003   0.04465   0.05907
  38        3S          0.01480  -0.00010   0.00000   0.00739   0.01868
                          31        32        33        34        35
  31        4PY         0.05405
  32        4PZ         0.00000   0.14320
  33 5   H  1S          0.01869   0.00001   0.08065
  34        2S          0.04388   0.00001   0.07772   0.15255
  35        3S          0.01299  -0.00000   0.01428   0.04383   0.02305
  36 6   H  1S         -0.00005   0.00001  -0.00001  -0.00080  -0.00236
  37        2S         -0.00027   0.00001  -0.00081  -0.00671  -0.00971
  38        3S         -0.00022  -0.00000  -0.00238  -0.00975  -0.00844
                          36        37        38
  36 6   H  1S          0.08016
  37        2S          0.07751   0.15265
  38        3S          0.01428   0.04393   0.02313
     Gross orbital populations:
                           1
   1 1   C  1S          1.10435
   2        2S          0.88586
   3        2PX         0.22737
   4        2PY         0.23643
   5        2PZ         0.16621
   6        3S          0.79301
   7        3PX         0.56167
   8        3PY         0.55614
   9        3PZ         0.42332
  10        4S          0.50331
  11        4PX         0.25858
  12        4PY         0.21072
  13        4PZ         0.41247
  14 2   H  1S          0.27501
  15        2S          0.46611
  16        3S          0.08489
  17 3   H  1S          0.27771
  18        2S          0.46465
  19        3S          0.08257
  20 4   C  1S          1.10441
  21        2S          0.88584
  22        2PX         0.22223
  23        2PY         0.23557
  24        2PZ         0.16549
  25        3S          0.79248
  26        3PX         0.55231
  27        3PY         0.55626
  28        3PZ         0.41957
  29        4S          0.50759
  30        4PX         0.27510
  31        4PY         0.21736
  32        4PZ         0.41264
  33 5   H  1S          0.27200
  34        2S          0.47005
  35        3S          0.08948
  36 6   H  1S          0.27046
  37        2S          0.47045
  38        3S          0.09036
          Condensed to atoms (all electrons):
               1          2          3          4          5          6
     1  C    5.031302   0.387885   0.388573   0.601957  -0.035479  -0.034818
     2  H    0.387885   0.515232  -0.032859  -0.040674   0.005988  -0.009559
     3  H    0.388573  -0.032859   0.513205  -0.040285  -0.009595   0.005896
     4  C    0.601957  -0.040674  -0.040285   5.058790   0.383694   0.383349
     5  H   -0.035479   0.005988  -0.009595   0.383694   0.527901  -0.040979
     6  H   -0.034818  -0.009559   0.005896   0.383349  -0.040979   0.527381
 Mulliken charges:
               1
     1  C   -0.339420
     2  H    0.173988
     3  H    0.175065
     4  C   -0.346831
     5  H    0.168469
     6  H    0.168729
 Sum of Mulliken charges =   0.00000
 Mulliken charges with hydrogens summed into heavy atoms:
               1
     1  C    0.009632
     4  C   -0.009632
 Electronic spatial extent (au):  <R**2>=             83.7192
 Charge=             -0.0000 electrons
 Dipole moment (field-independent basis, Debye):
    X=              0.0045    Y=              0.0208    Z=             -0.1160  Tot=              0.1180
 Quadrupole moment (field-independent basis, Debye-Ang):
   XX=            -12.2047   YY=            -12.2174   ZZ=            -15.6684
   XY=              0.0143   XZ=             -0.0008   YZ=             -0.0041
 Traceless Quadrupole moment (field-independent basis, Debye-Ang):
   XX=              1.1588   YY=              1.1461   ZZ=             -2.3049
   XY=              0.0143   XZ=             -0.0008   YZ=             -0.0041
 Octapole moment (field-independent basis, Debye-Ang**2):
  XXX=             -0.3474  YYY=             -0.0901  ZZZ=             -0.0680  XYY=              0.2130
  XXY=             -0.0221  XXZ=             -0.1543  XZZ=             -0.0891  YZZ=             -0.1006
  YYZ=             -0.2042  XYZ=             -0.0429
 Hexadecapole moment (field-independent basis, Debye-Ang**3):
 XXXX=            -34.2686 YYYY=            -55.2279 ZZZZ=            -17.8171 XXXY=             -7.2604
 XXXZ=              0.0182 YYYX=            -10.7060 YYYZ=              0.0240 ZZZX=              0.0247
 ZZZY=              0.0455 XXYY=            -16.1894 XXZZ=             -9.9182 YYZZ=            -13.6442
 XXYZ=              0.0082 YYXZ=             -0.0007 ZZXY=             -3.2062
 N-N= 3.306892060738D+01 E-N=-2.478494425924D+02  KE= 7.815466601037D+01
 Orbital energies and kinetic energies (alpha):
                                 1                 2
   1         O               -10.290457         15.978723
   2         O               -10.287762         15.979629
   3         O                -0.863711          1.537183
   4         O                -0.672570          1.271970
   5         O                -0.559625          0.942627
   6         O                -0.509250          1.284747
   7         O                -0.436724          1.044196
   8         O                -0.356668          1.038258
   9         V                 0.079489          1.182281
  10         V                 0.141051          0.588432
  11         V                 0.164920          0.594022
  12         V                 0.170308          0.678686
  13         V                 0.240796          0.582760
  14         V                 0.372960          0.851985
  15         V                 0.393501          0.933875
  16         V                 0.399619          0.784082
  17         V                 0.464291          1.195245
  18         V                 0.488915          1.418459
  19         V                 0.493937          1.302403
  20         V                 0.590970          1.652105
  21         V                 0.665819          1.573572
  22         V                 0.691708          2.146721
  23         V                 0.772557          2.394461
  24         V                 0.775927          2.351313
  25         V                 0.841051          1.082848
  26         V                 0.951172          3.419308
  27         V                 2.231224          3.927157
  28         V                 2.290443          4.028561
  29         V                 2.332988          4.305147
  30         V                 2.406722          4.518622
  31         V                 2.671077          6.300581
  32         V                 2.817504          6.305028
  33         V                 2.878863          6.140093
  34         V                 2.951522          6.225479
  35         V                 3.140225          6.820925
  36         V                 3.319483          6.402281
  37         V                23.352896         60.074947
  38         V                23.705291         60.203203
 Total kinetic energy from orbitals= 7.815466601037D+01
 Calling FoFJK, ICntrl=      2127 FMM=F ISym2X=0 I1Cent= 0 IOpClX= 0 NMat=1 NMatS=1 NMatT=0.
 -------------------------------------------------------------------
 Center     Atomic                   Forces (Hartrees/Bohr)
 Number     Number              X              Y              Z
 -------------------------------------------------------------------
      1        6           0.013554683    0.012386414   -0.004544844
      2        1          -0.008480492    0.003570423    0.002276592
      3        1           0.001895563   -0.005280703    0.002116523
      4        6           0.007376584    0.010177820   -0.005140038
      5        1           0.002142876   -0.014570481    0.002615256
      6        1          -0.016489214   -0.006283474    0.002676513
 -------------------------------------------------------------------
 Cartesian Forces:  Max     0.016489214 RMS     0.008199962

 GradGradGradGradGradGradGradGradGradGradGradGradGradGradGradGradGradGrad
 Berny optimization.
 Search for a local minimum.
 Step number   1 out of a maximum of    2
 All quantities printed in internal units (Hartrees-Bohrs-Radians)
 Second derivative matrix not updated -- first step.
 The second derivative matrix:
                          X1        Y1        Z1        X2        Y2
           X1           0.76148
           Y1           0.09335   0.85972
           Z1           0.00672   0.01064   0.17059
           X2          -0.16654   0.09810   0.00253   0.14369
           Y2           0.10401  -0.28632  -0.00893  -0.11742   0.27506
           Z2           0.00397  -0.01119  -0.05516  -0.00364   0.00924
           X3          -0.35375   0.00055  -0.00955   0.00001   0.00002
           Y3          -0.00523  -0.11043  -0.00230   0.03252   0.01899
           Z3          -0.01222  -0.00221  -0.05582   0.00181   0.00068
           X4          -0.26642  -0.17743  -0.00091   0.02287   0.01338
           Y4          -0.17781  -0.47125  -0.00152  -0.01321  -0.00773
           Z4           0.00151   0.00272  -0.09387  -0.00071  -0.00098
           X5           0.02343  -0.01353   0.00074  -0.00001   0.00001
           Y5           0.01168  -0.00675   0.00100   0.00001  -0.00000
           Z5          -0.00059   0.00037   0.01720   0.00030  -0.00016
           X6           0.00180  -0.00104   0.00046  -0.00001   0.00001
           Y6          -0.02601   0.01502   0.00112   0.00001  -0.00000
           Z6           0.00061  -0.00033   0.01705  -0.00030   0.00016
                          Z2        X3        Y3        Z3        X4
           Z2           0.02876
           X3          -0.00034   0.35379
           Y3           0.00193  -0.00059   0.07602
           Z3           0.01059   0.01039   0.00151   0.02934
           X4           0.00061  -0.00003  -0.02670  -0.00059   0.71173
           Y4          -0.00033   0.00002   0.01542   0.00036   0.12244
           Z4           0.01582  -0.00051  -0.00114   0.01587  -0.00621
           X5          -0.00030  -0.00001   0.00001   0.00030  -0.14543
           Y5           0.00019   0.00001  -0.00000  -0.00019   0.09187
           Z5           0.00921   0.00030  -0.00019  -0.00931  -0.00369
           X6          -0.00030  -0.00001   0.00001   0.00031  -0.32272
           Y6           0.00016   0.00001  -0.00000  -0.00016  -0.02355
           Z6          -0.00923  -0.00030   0.00019   0.00932   0.01079
                          Y4        Z4        X5        Y5        Z5
           Y4           0.85584
           Z4          -0.01162   0.17595
           X5           0.08350  -0.00242   0.12429
           Y5          -0.28746   0.00871  -0.10245   0.27805
           Z5           0.01081  -0.05689   0.00326  -0.00929   0.02958
           X6          -0.01495   0.00833  -0.00227  -0.00112   0.00043
           Y6          -0.10482   0.00231   0.03246   0.01616  -0.00155
           Z6           0.00229  -0.05688  -0.00158  -0.00042   0.01021
                          X6        Y6        Z6
           X6           0.32321
           Y6           0.01709   0.07364
           Z6          -0.00923  -0.00188   0.02952
 ITU=  0
     Eigenvalues ---    0.03714   0.04388   0.09157   0.10112   0.13519
     Eigenvalues ---    0.17483   0.26302   0.29111   0.53038   0.70189
     Eigenvalues ---    0.97804   1.55887
 Angle between quadratic step and forces=  35.91 degrees.
 Linear search not attempted -- first point.
 B after Tr=     0.006139    0.008792   -0.011925
         Rot=    1.000000   -0.000044    0.000024   -0.000109 Ang=  -0.01 deg.
 Variable       Old X    -DE/DX   Delta X   Delta X   Delta X     New X
                                 (Linear)    (Quad)   (Total)
    X1       -0.63521   0.01355   0.00000   0.02015   0.02652  -0.60868
    Y1       -1.10098   0.01239   0.00000   0.02671   0.03537  -1.06561
    Z1        0.01433  -0.00454   0.00000  -0.02523  -0.03728  -0.02295
    X2        0.40919  -0.00848   0.00000  -0.03274  -0.02598   0.38321
    Y2       -2.88267   0.00357   0.00000   0.01873   0.02761  -2.85506
    Z2       -0.04988   0.00228   0.00000   0.03110   0.01894  -0.03094
    X3       -2.68425   0.00190   0.00000   0.02385   0.03023  -2.65402
    Y3       -1.09697  -0.00528   0.00000  -0.02240  -0.01419  -1.11116
    Z3       -0.05121   0.00212   0.00000   0.03029   0.01814  -0.03307
    X4        0.63046   0.00738   0.00000   0.00524   0.01114   0.64160
    Y4        1.09049   0.01018   0.00000   0.00970   0.01864   1.10912
    Z4        0.01106  -0.00514   0.00000  -0.02412  -0.03591  -0.02486
    X5       -0.30373   0.00214   0.00000  -0.01135  -0.00584  -0.30957
    Y5        2.96027  -0.01457   0.00000  -0.04436  -0.03563   2.92463
    Z5       -0.05697   0.00262   0.00000   0.03016   0.01847  -0.03850
    X6        2.72450  -0.01649   0.00000  -0.04196  -0.03608   2.68842
    Y6        1.23353  -0.00628   0.00000  -0.04117  -0.03179   1.20174
    Z6       -0.05532   0.00268   0.00000   0.02934   0.01765  -0.03768
         Item               Value     Threshold  Converged?
 Maximum Force            0.016489     0.000450     NO 
 RMS     Force            0.008200     0.000300     NO 
 Maximum Displacement     0.037283     0.001800     NO 
 RMS     Displacement     0.026473     0.001200     NO 
 Predicted change in Energy=-1.676458D-03
 GradGradGradGradGradGradGradGradGradGradGradGradGradGradGradGradGradGrad

 Unable to Open any file for archive entry.
 1\1\GINC-BHD0003\Force\RwB97XD\6-311G\C2H4\BWEIGHT\11-Jan-2023\0\\# WB
 97XD/6-311G SCF=XQC FORCE nosym pop=full guess=read\\MD Step 1000\\0,1
 \C,-0.33613609,-0.58261359,0.00758542\H,0.21653389,-1.52544221,-0.0263
 9351\H,-1.42044552,-0.58049106,-0.02709654\C,0.33362563,0.57706227,0.0
 0585052\H,-0.16072868,1.56650561,-0.03014838\H,1.44174463,0.65275421,-
 0.02927627\\Version=ES64L-G16RevC.01\HF=-78.5555607\RMSD=6.604e-09\RMS
 F=8.200e-03\Dipole=0.001777,0.0082002,-0.0456403\Quadrupole=0.8615403,
 0.8520976,-1.7136379,0.0105957,-0.0006265,-0.0030765\PG=C01 [X(C2H4)]\
 \@
 The archive entry for this job was punched.


 In the beginning the Universe was created.
 This has made a lot of people very angry
 and been widely regarded as a bad move.
                               -D.Adams
 Job cpu time:       0 days  0 hours  0 minutes 58.8 seconds.
 Elapsed time:       0 days  0 hours  0 minutes 20.5 seconds.
 File lengths (MBytes):  RWF=    272 Int=      0 D2E=      0 Chk=     32 Scr=     32
 Normal termination of Gaussian 16 at Wed Jan 11 16:52:56 2023.
