 Entering Gaussian System, Link 0=g16
 Initial command:
 /software/gaussian/g16-c01/avx2/g16/l1.exe "/gpfs/fs2/scratch/bweight/software/many_molecule_many_mode_NAMD/src/NAMD/EXAMPLE_2_BOMD_S1/G16/TD_NEW_S1/Gau-6727.inp" -scrdir="/gpfs/fs2/scratch/bweight/software/many_molecule_many_mode_NAMD/src/NAMD/EXAMPLE_2_BOMD_S1/G16/TD_NEW_S1/"
 Entering Link 1 = /software/gaussian/g16-c01/avx2/g16/l1.exe PID=      6728.
  
 Copyright (c) 1988-2019, Gaussian, Inc.  All Rights Reserved.
  
 This is part of the Gaussian(R) 16 program.  It is based on
 the Gaussian(R) 09 system (copyright 2009, Gaussian, Inc.),
 the Gaussian(R) 03 system (copyright 2003, Gaussian, Inc.),
 the Gaussian(R) 98 system (copyright 1998, Gaussian, Inc.),
 the Gaussian(R) 94 system (copyright 1995, Gaussian, Inc.),
 the Gaussian 92(TM) system (copyright 1992, Gaussian, Inc.),
 the Gaussian 90(TM) system (copyright 1990, Gaussian, Inc.),
 the Gaussian 88(TM) system (copyright 1988, Gaussian, Inc.),
 the Gaussian 86(TM) system (copyright 1986, Carnegie Mellon
 University), and the Gaussian 82(TM) system (copyright 1983,
 Carnegie Mellon University). Gaussian is a federally registered
 trademark of Gaussian, Inc.
  
 This software contains proprietary and confidential information,
 including trade secrets, belonging to Gaussian, Inc.
  
 This software is provided under written license and may be
 used, copied, transmitted, or stored only in accord with that
 written license.
  
 The following legend is applicable only to US Government
 contracts under FAR:
  
                    RESTRICTED RIGHTS LEGEND
  
 Use, reproduction and disclosure by the US Government is
 subject to restrictions as set forth in subparagraphs (a)
 and (c) of the Commercial Computer Software - Restricted
 Rights clause in FAR 52.227-19.
  
 Gaussian, Inc.
 340 Quinnipiac St., Bldg. 40, Wallingford CT 06492
  
  
 ---------------------------------------------------------------
 Warning -- This program may not be used in any manner that
 competes with the business of Gaussian, Inc. or will provide
 assistance to any competitor of Gaussian, Inc.  The licensee
 of this program is prohibited from giving any competitor of
 Gaussian, Inc. access to this program.  By using this program,
 the user acknowledges that Gaussian, Inc. is engaged in the
 business of creating and licensing software in the field of
 computational chemistry and represents and warrants to the
 licensee that it is not a competitor of Gaussian, Inc. and that
 it will not use this program in any manner prohibited above.
 ---------------------------------------------------------------
  

 Cite this work as:
 Gaussian 16, Revision C.01,
 M. J. Frisch, G. W. Trucks, H. B. Schlegel, G. E. Scuseria, 
 M. A. Robb, J. R. Cheeseman, G. Scalmani, V. Barone, 
 G. A. Petersson, H. Nakatsuji, X. Li, M. Caricato, A. V. Marenich, 
 J. Bloino, B. G. Janesko, R. Gomperts, B. Mennucci, H. P. Hratchian, 
 J. V. Ortiz, A. F. Izmaylov, J. L. Sonnenberg, D. Williams-Young, 
 F. Ding, F. Lipparini, F. Egidi, J. Goings, B. Peng, A. Petrone, 
 T. Henderson, D. Ranasinghe, V. G. Zakrzewski, J. Gao, N. Rega, 
 G. Zheng, W. Liang, M. Hada, M. Ehara, K. Toyota, R. Fukuda, 
 J. Hasegawa, M. Ishida, T. Nakajima, Y. Honda, O. Kitao, H. Nakai, 
 T. Vreven, K. Throssell, J. A. Montgomery, Jr., J. E. Peralta, 
 F. Ogliaro, M. J. Bearpark, J. J. Heyd, E. N. Brothers, K. N. Kudin, 
 V. N. Staroverov, T. A. Keith, R. Kobayashi, J. Normand, 
 K. Raghavachari, A. P. Rendell, J. C. Burant, S. S. Iyengar, 
 J. Tomasi, M. Cossi, J. M. Millam, M. Klene, C. Adamo, R. Cammi, 
 J. W. Ochterski, R. L. Martin, K. Morokuma, O. Farkas, 
 J. B. Foresman, and D. J. Fox, Gaussian, Inc., Wallingford CT, 2019.
 
 ******************************************
 Gaussian 16:  ES64L-G16RevC.01  3-Jul-2019
                29-Dec-2022 
 ******************************************
 %oldchk=../GS_NEW/geometry.chk
 %chk=geometry.chk
 %nprocshared=1
 Will use up to    1 processors via shared memory.
 %mem=5GB
 Copying data from "../GS_NEW/geometry.chk" to current chk file "geometry.chk"
 IOpt=  2 FromEx=T IUOpen= 4 IOptOp= 5 NList=   0 IFRang= 0 IUIn= 4 IUOut= 2.
 ----------------------------------------------------------------------
 # BLYP/STO-3G SCF=XQC TD=(singlets,nstates=2,root=1) FORCE nosym pop=f
 ull guess=read
 ----------------------------------------------------------------------
 1/10=7,30=1,38=1/1,3;
 2/12=2,15=1,17=6,18=5,40=1/2;
 3/6=3,11=9,25=1,30=1,71=1,74=402,116=-2/1,2,3,8;
 4/5=1/1;
 5/5=2,8=3,13=1,38=6/2,8;
 8/6=1,10=1,107=1,108=2/1;
 9/8=1,15=2,41=2,42=1,48=1,70=2/14;
 10/5=4,28=1,31=1/2;
 6/7=3,18=1/1;
 7/12=6,13=5,14=1,29=1,30=1/1,2,3,16;
 1/10=7,30=1/3;
 99//99;
 ------------
 MD Step 1000
 ------------
 Symbolic Z-matrix:
 Charge =  0 Multiplicity = 1
 Li                    2.03344   1.83296   2.27851 
 H                     0.46211   1.84281   1.77205 
 

 GradGradGradGradGradGradGradGradGradGradGradGradGradGradGradGradGradGrad
 Berny optimization.
 Initialization pass.
 Trust Radius=3.00D-01 FncErr=1.00D-07 GrdErr=1.00D-07 EigMax=2.50D+02 EigMin=1.00D-04
 Number of steps in this run=      2 maximum allowed number of steps=      2.
 GradGradGradGradGradGradGradGradGradGradGradGradGradGradGradGradGradGrad

                          Input orientation:                          
 ---------------------------------------------------------------------
 Center     Atomic      Atomic             Coordinates (Angstroms)
 Number     Number       Type             X           Y           Z
 ---------------------------------------------------------------------
      1          3           0        2.033438    1.832955    2.278508
      2          1           0        0.462106    1.842808    1.772052
 ---------------------------------------------------------------------
 Symmetry turned off by external request.
 Stoichiometry    HLi
 Framework group  C*V[C*(HLi)]
 Deg. of freedom     1
 Full point group                 C*V     NOp   4
 Rotational constants (GHZ):           0.0000000         210.4015309         210.4015309
 Standard basis: STO-3G (5D, 7F)
     6 basis functions,    18 primitive gaussians,     6 cartesian basis functions
     2 alpha electrons        2 beta electrons
       nuclear repulsion energy         0.9615788219 Hartrees.
 NAtoms=    2 NActive=    2 NUniq=    2 SFac= 1.00D+00 NAtFMM=   60 NAOKFM=F Big=F
 Integral buffers will be    131072 words long.
 Regular integral format.
 Two-electron integral symmetry is turned off.
 One-electron integrals computed using PRISM.
 NBasis=     6 RedAO= T EigKep=  3.61D-01  NBF=     6
 NBsUse=     6 1.00D-06 EigRej= -1.00D+00 NBFU=     6
 Initial guess from the checkpoint file:  "geometry.chk"
 B after Tr=     0.000000    0.000000    0.000000
         Rot=    1.000000    0.000000    0.000000    0.000000 Ang=   0.00 deg.
 Keep J ints in memory in canonical form, NReq=846976.
 Requested convergence on RMS density matrix=1.00D-08 within  32 cycles.
 Requested convergence on MAX density matrix=1.00D-06.
 Requested convergence on             energy=1.00D-06.
 No special actions if energy rises.
 Skip diagonalization as Alpha Fock matrix is already diagonal.
 SCF Done:  E(RB-LYP) =  -7.94279532377     A.U. after    1 cycles
            NFock=  1  Conv=0.00D+00     -V/T= 2.0032
 QCSCF skips out because SCF is already converged.
 DoSCS=F DFT=T ScalE2(SS,OS)=  1.000000  1.000000
 ExpMin= 4.81D-02 ExpMax= 1.61D+01 ExpMxC= 1.61D+01 IAcc=3 IRadAn=         5 AccDes= 0.00D+00
 HarFok:  IExCor=  205 AccDes= 0.00D+00 IRadAn=         5 IDoV=-2 UseB2=F ITyADJ=14
 ICtDFT= 12500011 ScaDFX=  1.000000  1.000000  1.000000  1.000000
 Range of M.O.s used for correlation:     2     6
 NBasis=     6 NAE=     2 NBE=     2 NFC=     1 NFV=     0
 NROrb=      5 NOA=     1 NOB=     1 NVA=     4 NVB=     4
 Keep J ints in memory in canonical form, NReq=868411.
     4 initial guesses have been made.
 Convergence on wavefunction:    0.000001000000000
 *** WARNING: Number of orthogonal guesses is            4
 Iteration     1 Dimension     4 NMult     0 NNew      4
 CISAX will form     4 AO SS matrices at one time.
 ***********************************************************************
 Excited states from <AA,BB:AA,BB> singles matrix:
 ***********************************************************************
 
 Ground to excited state transition densities written to RWF  633
 Ground to excited state transition electric dipole moments (Au):
       state          X           Y           Z        Dip. S.      Osc.
         1        -0.7018      0.0045     -0.2262      0.5436      0.0442
         2         0.4148     -0.2949     -1.2928      1.9305      0.2373
 Ground to excited state transition velocity dipole moments (Au):
       state          X           Y           Z        Dip. S.      Osc.
         1         0.1207     -0.0008      0.0389      0.0161      0.0879
         2        -0.0606      0.0430      0.1887      0.0411      0.1487
 Ground to excited state transition magnetic dipole moments (Au):
       state          X           Y           Z
         1         0.1381      0.3703     -0.4210
         2         0.5294     -0.1415      0.2022
 Ground to excited state transition velocity quadrupole moments (Au):
       state          XX          YY          ZZ          XY          XZ          YZ
         1         0.8656      0.0569      0.3843      0.4160      0.6292      0.1317
         2        -0.3647      0.2986      1.5240     -0.0805      0.3238      0.8285
 <0|del|b> * <b|rxdel|0> + <0|del|b> * <b|delr+rdel|0>
 Rotatory Strengths (R) in cgs (10**-40 erg-esu-cm/Gauss)
       state          XX          YY          ZZ    R(velocity)    E-M Angle
         1         0.0028      0.0000     -0.0028     -0.0000       90.00
         2         5.6353    -55.3982     49.7629     -0.0000       90.00
 1/2[<0|r|b>*<b|rxdel|0> + (<0|rxdel|b>*<b|r|0>)*]
 Rotatory Strengths (R) in cgs (10**-40 erg-esu-cm/Gauss)
       state          XX          YY          ZZ     R(length)
         1        68.5096     -1.1692    -67.3490     -0.0029
         2      -155.3097    -29.5133    184.8228     -0.0001
  1/2[<0|del|b>*<b|r|0> + (<0|r|b>*<b|del|0>)*] (Au)
       state          X           Y           Z        Dip. S.   Osc.(frdel)
         1        -0.0847     -0.0000     -0.0088      0.0935      0.0623
         2        -0.0251     -0.0127     -0.2440      0.2818      0.1879

 Excitation energies and oscillator strengths:
 
 Excited state symmetry could not be determined.
 Excited State   1:      Singlet-?Sym    3.3182 eV  373.65 nm  f=0.0442  <S**2>=0.000
       2 ->  3         0.70530
 This state for optimization and/or second-order correction.
 Total Energy, E(TD-HF/TD-DFT) =  -7.82085279786    
 Copying the excited state density for this state as the 1-particle RhoCI density.
 
 Excited state symmetry could not be determined.
 Excited State   2:      Singlet-?Sym    5.0178 eV  247.09 nm  f=0.2373  <S**2>=0.000
       2 ->  4         0.69380
       2 ->  5        -0.13968
 SavETr:  write IOETrn=   770 NScale= 10 NData=  16 NLR=1 NState=    2 LETran=      46.
          IDoAtm=11
          Differentiating once with respect to electric field.
                with respect to dipole field.
          Differentiating once with respect to nuclear coordinates.
 Keep J ints in memory in canonical form, NReq=848429.
          There are     1 degrees of freedom in the 1st order CPHF.  IDoFFX=0 NUNeed=     1.
 LinEq1:  Iter=  0 NonCon=     1 RMS=1.37D+00 Max=3.79D+00 NDo=     1
 AX will form     1 AO Fock derivatives at one time.
 LinEq1:  Iter=  1 NonCon=     1 RMS=3.52D-01 Max=9.70D-01 NDo=     1
 LinEq1:  Iter=  2 NonCon=     1 RMS=2.30D-03 Max=6.29D-03 NDo=     1
 LinEq1:  Iter=  3 NonCon=     1 RMS=3.86D-05 Max=9.45D-05 NDo=     1
 LinEq1:  Iter=  4 NonCon=     1 RMS=2.38D-06 Max=5.45D-06 NDo=     1
 LinEq1:  Iter=  5 NonCon=     1 RMS=5.11D-10 Max=1.38D-09 NDo=     1
 LinEq1:  Iter=  6 NonCon=     0 RMS=1.20D-12 Max=2.97D-12 NDo=     1
 Linear equations converged to 1.000D-10 1.000D-09 after     6 iterations.
 End of Minotr F.D. properties file   721 does not exist.
 End of Minotr F.D. properties file   722 does not exist.
 End of Minotr F.D. properties file   788 does not exist.

 **********************************************************************

            Population analysis using the SCF Density.

 **********************************************************************

 Alpha  occ. eigenvalues --   -1.77365  -0.13626
 Alpha virt. eigenvalues --   -0.02729   0.03337   0.03337   0.32016
     Molecular Orbital Coefficients:
                           1         2         3         4         5
                           O         O         V         V         V
     Eigenvalues --    -1.77365  -0.13626  -0.02729   0.03337   0.03337
   1 1   Li 1S          0.98649  -0.18207  -0.21797  -0.00000  -0.00000
   2        2S          0.05082   0.48556   0.80031   0.00000   0.00000
   3        2PX         0.00411  -0.28959   0.56377  -0.27876   0.12819
   4        2PY        -0.00003   0.00182  -0.00354   0.40090   0.91610
   5        2PZ         0.00132  -0.09334   0.18171   0.87268  -0.37990
   6 2   H  1S          0.00038   0.56014  -0.20800  -0.00000  -0.00000
                           6
                           V
     Eigenvalues --     0.32016
   1 1   Li 1S          0.09957
   2        2S         -0.66164
   3        2PX         0.94149
   4        2PY        -0.00590
   5        2PZ         0.30345
   6 2   H  1S          1.14497
     Density Matrix:
                           1         2         3         4         5
   1 1   Li 1S          2.01262
   2        2S         -0.07654   0.47670
   3        2PX         0.11355  -0.28081   0.16776
   4        2PY        -0.00071   0.00176  -0.00105   0.00001
   5        2PZ         0.03660  -0.09051   0.05407  -0.00034   0.01743
   6 2   H  1S         -0.20321   0.54400  -0.32442   0.00203  -0.10456
                           6
   6 2   H  1S          0.62751
    Full Mulliken population analysis:
                           1         2         3         4         5
   1 1   Li 1S          2.01262
   2        2S         -0.01846   0.47670
   3        2PX         0.00000   0.00000   0.16776
   4        2PY         0.00000   0.00000   0.00000   0.00001
   5        2PZ         0.00000   0.00000   0.00000   0.00000   0.01743
   6 2   H  1S         -0.01212   0.20811   0.15531   0.00001   0.01613
                           6
   6 2   H  1S          0.62751
     Gross orbital populations:
                           1
   1 1   Li 1S          1.98204
   2        2S          0.66636
   3        2PX         0.32307
   4        2PY         0.00001
   5        2PZ         0.03356
   6 2   H  1S          0.99495
          Condensed to atoms (all electrons):
               1          2
     1  Li   2.637605   0.367441
     2  H    0.367441   0.627514
 Mulliken charges:
               1
     1  Li  -0.005046
     2  H    0.005046
 Sum of Mulliken charges =   0.00000
 Mulliken charges with hydrogens summed into heavy atoms:
               1
     1  Li   0.000000
 Electronic spatial extent (au):  <R**2>=            156.1924
 Charge=              0.0000 electrons
 Dipole moment (field-independent basis, Debye):
    X=              4.4764    Y=             -0.0281    Z=              1.4428  Tot=              4.7032
 Quadrupole moment (field-independent basis, Debye-Ang):
   XX=              9.8145   YY=             -5.5223   ZZ=              0.8468
   XY=              8.1666   XZ=             12.1757   YZ=              2.5866
 Traceless Quadrupole moment (field-independent basis, Debye-Ang):
   XX=              8.1015   YY=             -7.2353   ZZ=             -0.8662
   XY=              8.1666   XZ=             12.1757   YZ=              2.5866
 Octapole moment (field-independent basis, Debye-Ang**2):
  XXX=             21.0442  YYY=            -30.1793  ZZZ=            -11.7157  XYY=              8.9653
  XXY=             17.9083  XXZ=             26.5373  XZZ=             25.8341  YZZ=              1.4010
  YYZ=             -6.0737  XYZ=             22.2392
 Hexadecapole moment (field-independent basis, Debye-Ang**3):
 XXXX=             36.5255 YYYY=           -123.7860 ZZZZ=            -80.9715 XXXY=             38.4089
 XXXZ=             56.3823 YYYX=             -5.5527 YYYZ=            -50.7740 ZZZX=             45.4448
 ZZZY=            -21.9087 XXYY=             21.8656 XXZZ=             57.9785 YYZZ=            -23.2442
 XXYZ=             48.4797 YYXZ=             28.9176 ZZXY=             47.1585
 N-N= 9.615788219072D-01 E-N=-2.028344319354D+01  KE= 7.917211871432D+00
 Orbital energies and kinetic energies (alpha):
                                 1                 2
   1         O                -1.773646          3.479025
   2         O                -0.136263          0.479581
   3         V                -0.027286          0.402975
   4         V                 0.033369          0.319682
   5         V                 0.033369          0.319682
   6         V                 0.320165          1.056328
 Total kinetic energy from orbitals= 7.917211871432D+00
 Calling FoFJK, ICntrl=  10005527 FMM=F ISym2X=0 I1Cent= 0 IOpClX= 0 NMat=1 NMatS=1 NMatT=0.
 -------------------------------------------------------------------
 Center     Atomic                   Forces (Hartrees/Bohr)
 Number     Number              X              Y              Z
 -------------------------------------------------------------------
      1        3          -0.001262672    0.000022531   -0.000424268
      2        1           0.001262672   -0.000022531    0.000424268
 -------------------------------------------------------------------
 Cartesian Forces:  Max     0.001262672 RMS     0.000769166

 GradGradGradGradGradGradGradGradGradGradGradGradGradGradGradGradGradGrad
 Berny optimization.
 Search for a local minimum.
 Step number   1 out of a maximum of    2
 All quantities printed in internal units (Hartrees-Bohrs-Radians)
 Second derivative matrix not updated -- first step.
 The second derivative matrix:
                          X1        Y1        Z1        X2        Y2
           X1           0.07408
           Y1          -0.00046   1.00000
           Z1           0.02388  -0.00015   0.00770
           X2          -0.07408   0.00046  -0.02388   0.07408
           Y2           0.00046  -0.00000   0.00015  -0.00046   1.00000
           Z2          -0.02388   0.00015  -0.00770   0.02388  -0.00015
                          Z2
           Z2           0.00770
 ITU=  0
     Eigenvalues ---    0.15263
 Angle between quadratic step and forces=  15.03 degrees.
 Linear search not attempted -- first point.
 B after Tr=    -0.002077    0.000013   -0.000669
         Rot=    1.000000   -0.000000    0.000000    0.000000 Ang=   0.00 deg.
 Variable       Old X    -DE/DX   Delta X   Delta X   Delta X     New X
                                 (Linear)    (Quad)   (Total)
    X1        3.84264  -0.00126   0.00000  -0.00567  -0.00775   3.83489
    Y1        3.46378   0.00002   0.00000   0.00004   0.00005   3.46383
    Z1        4.30576  -0.00042   0.00000  -0.00183  -0.00250   4.30326
    X2        0.87325   0.00126   0.00000   0.00983   0.00775   0.88100
    Y2        3.48240  -0.00002   0.00000  -0.00006  -0.00005   3.48235
    Z2        3.34869   0.00042   0.00000   0.00317   0.00250   3.35119
         Item               Value     Threshold  Converged?
 Maximum Force            0.001263     0.000450     NO 
 RMS     Force            0.000769     0.000300     NO 
 Maximum Displacement     0.007750     0.001800     NO 
 RMS     Displacement     0.004701     0.001200     NO 
 Predicted change in Energy=-1.084692D-05
 GradGradGradGradGradGradGradGradGradGradGradGradGradGradGradGradGradGrad

 Unable to Open any file for archive entry.
 1\1\GINC-BHD0001\Force\RBLYP TD-FC\STO-3G\H1Li1\BWEIGHT\29-Dec-2022\0\
 \# BLYP/STO-3G SCF=XQC TD=(singlets,nstates=2,root=1) FORCE nosym pop=
 full guess=read\\MD Step 1000\\0,1\Li,2.03343844,1.83295548,2.27850755
 \H,0.46210587,1.84280791,1.77205154\\Version=ES64L-G16RevC.01\HF=-7.94
 27953\RMSD=0.000e+00\RMSF=7.692e-04\Dipole=-0.6040106,0.0045816,-0.195
 5797\PG=C*V [C*(H1Li1)]\\@
 The archive entry for this job was punched.


 ... UNTIL SCIENCE IS MIXED WITH EMOTION AND APPEALS TO THE HEART AND
 IMAGINATION , IT IS LIKE DEAD INORGANIC MATTER; AND WHEN IT IS SO MIXED
 AND SO TRANSFORMED IT IS LITERATURE.

                                  -- JOHN BURROUGHS
 Job cpu time:       0 days  0 hours  0 minutes  5.2 seconds.
 Elapsed time:       0 days  0 hours  0 minutes  5.4 seconds.
 File lengths (MBytes):  RWF=    272 Int=      0 D2E=      0 Chk=     32 Scr=     32
 Normal termination of Gaussian 16 at Thu Dec 29 05:02:58 2022.
