 Entering Gaussian System, Link 0=g16
 Initial command:
 /software/gaussian/g16-c01/avx2/g16/l1.exe "/gpfs/fs2/scratch/bweight/software/many_molecule_many_mode_NAMD/src/NAMD/TEST_NVT/TRAJ/traj-12/G16/GS_NEW/Gau-11600.inp" -scrdir="/gpfs/fs2/scratch/bweight/software/many_molecule_many_mode_NAMD/src/NAMD/TEST_NVT/TRAJ/traj-12/G16/GS_NEW/"
 Entering Link 1 = /software/gaussian/g16-c01/avx2/g16/l1.exe PID=     11601.
  
 Copyright (c) 1988-2019, Gaussian, Inc.  All Rights Reserved.
  
 This is part of the Gaussian(R) 16 program.  It is based on
 the Gaussian(R) 09 system (copyright 2009, Gaussian, Inc.),
 the Gaussian(R) 03 system (copyright 2003, Gaussian, Inc.),
 the Gaussian(R) 98 system (copyright 1998, Gaussian, Inc.),
 the Gaussian(R) 94 system (copyright 1995, Gaussian, Inc.),
 the Gaussian 92(TM) system (copyright 1992, Gaussian, Inc.),
 the Gaussian 90(TM) system (copyright 1990, Gaussian, Inc.),
 the Gaussian 88(TM) system (copyright 1988, Gaussian, Inc.),
 the Gaussian 86(TM) system (copyright 1986, Carnegie Mellon
 University), and the Gaussian 82(TM) system (copyright 1983,
 Carnegie Mellon University). Gaussian is a federally registered
 trademark of Gaussian, Inc.
  
 This software contains proprietary and confidential information,
 including trade secrets, belonging to Gaussian, Inc.
  
 This software is provided under written license and may be
 used, copied, transmitted, or stored only in accord with that
 written license.
  
 The following legend is applicable only to US Government
 contracts under FAR:
  
                    RESTRICTED RIGHTS LEGEND
  
 Use, reproduction and disclosure by the US Government is
 subject to restrictions as set forth in subparagraphs (a)
 and (c) of the Commercial Computer Software - Restricted
 Rights clause in FAR 52.227-19.
  
 Gaussian, Inc.
 340 Quinnipiac St., Bldg. 40, Wallingford CT 06492
  
  
 ---------------------------------------------------------------
 Warning -- This program may not be used in any manner that
 competes with the business of Gaussian, Inc. or will provide
 assistance to any competitor of Gaussian, Inc.  The licensee
 of this program is prohibited from giving any competitor of
 Gaussian, Inc. access to this program.  By using this program,
 the user acknowledges that Gaussian, Inc. is engaged in the
 business of creating and licensing software in the field of
 computational chemistry and represents and warrants to the
 licensee that it is not a competitor of Gaussian, Inc. and that
 it will not use this program in any manner prohibited above.
 ---------------------------------------------------------------
  

 Cite this work as:
 Gaussian 16, Revision C.01,
 M. J. Frisch, G. W. Trucks, H. B. Schlegel, G. E. Scuseria, 
 M. A. Robb, J. R. Cheeseman, G. Scalmani, V. Barone, 
 G. A. Petersson, H. Nakatsuji, X. Li, M. Caricato, A. V. Marenich, 
 J. Bloino, B. G. Janesko, R. Gomperts, B. Mennucci, H. P. Hratchian, 
 J. V. Ortiz, A. F. Izmaylov, J. L. Sonnenberg, D. Williams-Young, 
 F. Ding, F. Lipparini, F. Egidi, J. Goings, B. Peng, A. Petrone, 
 T. Henderson, D. Ranasinghe, V. G. Zakrzewski, J. Gao, N. Rega, 
 G. Zheng, W. Liang, M. Hada, M. Ehara, K. Toyota, R. Fukuda, 
 J. Hasegawa, M. Ishida, T. Nakajima, Y. Honda, O. Kitao, H. Nakai, 
 T. Vreven, K. Throssell, J. A. Montgomery, Jr., J. E. Peralta, 
 F. Ogliaro, M. J. Bearpark, J. J. Heyd, E. N. Brothers, K. N. Kudin, 
 V. N. Staroverov, T. A. Keith, R. Kobayashi, J. Normand, 
 K. Raghavachari, A. P. Rendell, J. C. Burant, S. S. Iyengar, 
 J. Tomasi, M. Cossi, J. M. Millam, M. Klene, C. Adamo, R. Cammi, 
 J. W. Ochterski, R. L. Martin, K. Morokuma, O. Farkas, 
 J. B. Foresman, and D. J. Fox, Gaussian, Inc., Wallingford CT, 2019.
 
 ******************************************
 Gaussian 16:  ES64L-G16RevC.01  3-Jul-2019
                11-Jan-2023 
 ******************************************
 %oldchk=../GS_OLD/geometry.chk
 %chk=geometry.chk
 %nprocshared=4
 Will use up to    4 processors via shared memory.
 %mem=5GB
 Copying data from "../GS_OLD/geometry.chk" to current chk file "geometry.chk"
 IOpt=  2 FromEx=T IUOpen= 4 IOptOp= 5 NList=   0 IFRang= 0 IUIn= 4 IUOut= 2.
 -------------------------------------------------------
 # WB97XD/6-311G SCF=XQC FORCE nosym pop=full guess=read
 -------------------------------------------------------
 1/10=7,30=1,38=1/1,3;
 2/12=2,15=1,17=6,18=5,40=1/2;
 3/5=4,6=6,11=2,25=1,30=1,71=1,74=-58,116=-2/1,2,3;
 4/5=1/1;
 5/5=2,8=3,13=1,38=6/2,8;
 6/7=3,28=1/1;
 7/29=1,30=1/1,2,3,16;
 1/10=7,30=1/3;
 99//99;
 -----------
 MD Step 999
 -----------
 Symbolic Z-matrix:
 Charge =  0 Multiplicity = 1
 C                    -0.33575  -0.58084   0.00918 
 H                     0.22145  -1.52829  -0.033 
 H                    -1.42405  -0.58873  -0.03512 
 C                     0.33274   0.57677   0.00659 
 H                    -0.15758   1.56677  -0.03826 
 H                     1.44176   0.64429  -0.03592 
 

 GradGradGradGradGradGradGradGradGradGradGradGradGradGradGradGradGradGrad
 Berny optimization.
 Initialization pass.
 Trust Radius=3.00D-01 FncErr=1.00D-07 GrdErr=1.00D-07 EigMax=2.50D+02 EigMin=1.00D-04
 Number of steps in this run=      2 maximum allowed number of steps=      2.
 GradGradGradGradGradGradGradGradGradGradGradGradGradGradGradGradGradGrad

                          Input orientation:                          
 ---------------------------------------------------------------------
 Center     Atomic      Atomic             Coordinates (Angstroms)
 Number     Number       Type             X           Y           Z
 ---------------------------------------------------------------------
      1          6           0       -0.335753   -0.580836    0.009179
      2          1           0        0.221453   -1.528288   -0.033003
      3          1           0       -1.424052   -0.588735   -0.035120
      4          6           0        0.332737    0.576774    0.006595
      5          1           0       -0.157583    1.566773   -0.038260
      6          1           0        1.441761    0.644292   -0.035921
 ---------------------------------------------------------------------
                    Distance matrix (angstroms):
                    1          2          3          4          5
     1  C    0.000000
     2  H    1.099965   0.000000
     3  H    1.089229   1.894849   0.000000
     4  C    1.336767   2.108373   2.108663   0.000000
     5  H    2.155509   3.118188   2.500033   1.105678   0.000000
     6  H    2.159289   2.491840   3.119814   1.111890   1.846314
                    6
     6  H    0.000000
 Symmetry turned off by external request.
 Stoichiometry    C2H4
 Framework group  C1[X(C2H4)]
 Deg. of freedom    12
 Full point group                 C1      NOp   1
 Rotational constants (GHZ):         143.0180956          29.7109904          24.6160185
 Standard basis: 6-311G (5D, 7F)
    38 basis functions,    72 primitive gaussians,    38 cartesian basis functions
     8 alpha electrons        8 beta electrons
       nuclear repulsion energy        33.0640330452 Hartrees.
 NAtoms=    6 NActive=    6 NUniq=    6 SFac= 1.00D+00 NAtFMM=   60 NAOKFM=F Big=F
 Integral buffers will be    131072 words long.
 Raffenetti 2 integral format.
 Two-electron integral symmetry is turned off.
 Nuclear repulsion after empirical dispersion term =       33.0631911694 Hartrees.
 One-electron integrals computed using PRISM.
 NBasis=    38 RedAO= T EigKep=  6.40D-03  NBF=    38
 NBsUse=    38 1.00D-06 EigRej= -1.00D+00 NBFU=    38
 Initial guess from the checkpoint file:  "geometry.chk"
 B after Tr=    -0.000144   -0.000304   -0.000501
         Rot=    1.000000   -0.000001    0.000001    0.000004 Ang=  -0.00 deg.
 Keep R1 ints in memory in canonical form, NReq=4036876.
 Requested convergence on RMS density matrix=1.00D-08 within  32 cycles.
 Requested convergence on MAX density matrix=1.00D-06.
 Requested convergence on             energy=1.00D-06.
 No special actions if energy rises.
 SCF Done:  E(RwB97XD) =  -78.5554412394     A.U. after    8 cycles
            NFock=  8  Conv=0.76D-08     -V/T= 2.0052
 QCSCF skips out because SCF is already converged.

 **********************************************************************

            Population analysis using the SCF Density.

 **********************************************************************

 Alpha  occ. eigenvalues --  -10.29030 -10.28850  -0.86403  -0.67174  -0.55895
 Alpha  occ. eigenvalues --   -0.50957  -0.43584  -0.35716
 Alpha virt. eigenvalues --    0.07980   0.14075   0.16423   0.16990   0.24085
 Alpha virt. eigenvalues --    0.37380   0.39270   0.39926   0.46364   0.48824
 Alpha virt. eigenvalues --    0.49358   0.59113   0.66496   0.69004   0.77260
 Alpha virt. eigenvalues --    0.77531   0.83861   0.95319   2.23178   2.29015
 Alpha virt. eigenvalues --    2.33239   2.40444   2.67144   2.81659   2.87891
 Alpha virt. eigenvalues --    2.95124   3.14125   3.31592  23.35121  23.70665
     Molecular Orbital Coefficients:
                           1         2         3         4         5
                           O         O         O         O         O
     Eigenvalues --   -10.29030 -10.28850  -0.86403  -0.67174  -0.55895
   1 1   C  1S          0.14334   0.54486  -0.08832   0.06684  -0.00028
   2        2S          0.11817   0.44838  -0.13960   0.10706  -0.00046
   3        2PX         0.00016  -0.00002   0.02643   0.03608   0.13744
   4        2PY         0.00028  -0.00003   0.04673   0.05942  -0.07370
   5        2PZ        -0.00000  -0.00001  -0.00178   0.00264   0.00035
   6        3S          0.00286   0.01434   0.37442  -0.29213   0.00124
   7        3PX        -0.00057   0.00048   0.03491   0.05799   0.21551
   8        3PY        -0.00097   0.00085   0.06128   0.09649  -0.11643
   9        3PZ        -0.00002  -0.00004  -0.00298   0.00473   0.00052
  10        4S          0.00217  -0.01490   0.19170  -0.22735   0.00054
  11        4PX         0.00137  -0.00168   0.00502   0.02346   0.11189
  12        4PY         0.00235  -0.00286   0.00865   0.03980  -0.06108
  13        4PZ         0.00001   0.00011  -0.00105   0.00238   0.00026
  14 2   H  1S         -0.00005  -0.00005   0.05226  -0.08706   0.10206
  15        2S         -0.00029   0.00013   0.05355  -0.10527   0.12963
  16        3S          0.00094   0.00161  -0.00176  -0.01519   0.04200
  17 3   H  1S         -0.00006  -0.00006   0.05329  -0.09052  -0.10499
  18        2S         -0.00029   0.00011   0.05426  -0.10852  -0.13234
  19        3S          0.00097   0.00163  -0.00180  -0.01596  -0.04280
  20 4   C  1S          0.54483  -0.14353  -0.08699  -0.06821   0.00002
  21        2S          0.44846  -0.11793  -0.13735  -0.10939   0.00005
  22        2PX        -0.00003  -0.00016  -0.02753   0.03818   0.11806
  23        2PY        -0.00005  -0.00028  -0.04705   0.06720  -0.07393
  24        2PZ        -0.00000   0.00000  -0.00140  -0.00277   0.00035
  25        3S          0.01375  -0.00454   0.36794   0.29891  -0.00017
  26        3PX        -0.00015   0.00074  -0.03440   0.06179   0.18489
  27        3PY        -0.00024   0.00128  -0.05886   0.10838  -0.11485
  28        3PZ        -0.00005  -0.00000  -0.00242  -0.00499   0.00054
  29        4S         -0.01160   0.00933   0.18883   0.23801  -0.00136
  30        4PX         0.00072  -0.00197  -0.00530   0.02668   0.10160
  31        4PY         0.00124  -0.00345  -0.00909   0.04610  -0.06269
  32        4PZ         0.00009  -0.00003  -0.00100  -0.00258   0.00029
  33 5   H  1S         -0.00006  -0.00004   0.04963   0.09358  -0.08995
  34        2S         -0.00005  -0.00031   0.05085   0.11170  -0.11354
  35        3S          0.00180   0.00002  -0.00113   0.01681  -0.03651
  36 6   H  1S         -0.00006  -0.00004   0.04897   0.09219   0.08559
  37        2S         -0.00004  -0.00032   0.05045   0.11050   0.10844
  38        3S          0.00178   0.00000  -0.00113   0.01644   0.03522
                           6         7         8         9        10
                           O         O         O         V         V
     Eigenvalues --    -0.50957  -0.43584  -0.35716   0.07980   0.14075
   1 1   C  1S         -0.00341   0.00019  -0.00139   0.00374  -0.03357
   2        2S         -0.00507   0.00033  -0.00226   0.00621  -0.05384
   3        2PX         0.09429  -0.11068  -0.00464   0.00211  -0.03160
   4        2PY         0.16831   0.06578  -0.00778   0.00336  -0.06497
   5        2PZ         0.00690  -0.00004   0.17938  -0.18884  -0.00356
   6        3S          0.01970  -0.00080   0.00660  -0.01875   0.11721
   7        3PX         0.13688  -0.17705  -0.00656   0.00317  -0.03719
   8        3PY         0.24583   0.10541  -0.01095   0.00501  -0.08024
   9        3PZ         0.01096  -0.00003   0.28834  -0.27760  -0.00563
  10        4S         -0.05479  -0.00312   0.00946  -0.02195   1.22458
  11        4PX         0.06882  -0.11060  -0.00540   0.01763  -0.19298
  12        4PY         0.12480   0.06675  -0.00905   0.02875  -0.38446
  13        4PZ         0.00625   0.00004   0.26672  -0.69473  -0.02065
  14 2   H  1S         -0.08078  -0.11508   0.00019   0.00583  -0.01732
  15        2S         -0.11207  -0.17812   0.00274   0.00926  -0.04781
  16        3S         -0.04191  -0.08257   0.00162   0.02454  -0.83418
  17 3   H  1S         -0.07946   0.11251   0.00010   0.00584  -0.01370
  18        2S         -0.10962   0.17352   0.00263   0.00945  -0.03921
  19        3S         -0.04065   0.08029   0.00156   0.02432  -0.77309
  20 4   C  1S         -0.00858  -0.00045  -0.00107  -0.00354  -0.03607
  21        2S         -0.01344  -0.00075  -0.00174  -0.00587  -0.05793
  22        2PX        -0.09846   0.12449   0.00446   0.00215   0.04067
  23        2PY        -0.16158  -0.07374   0.00828   0.00416   0.06141
  24        2PZ         0.00728   0.00034   0.17909   0.18922  -0.00387
  25        3S          0.04330   0.00220   0.00513   0.01764   0.12782
  26        3PX        -0.14567   0.19928   0.00622   0.00331   0.04995
  27        3PY        -0.23753  -0.11761   0.01164   0.00639   0.07300
  28        3PZ         0.01150   0.00052   0.28670   0.27753  -0.00591
  29        4S         -0.02835   0.00237   0.00884   0.01943   1.23849
  30        4PX        -0.07599   0.12801   0.00471   0.01700   0.26446
  31        4PY        -0.12276  -0.07458   0.00907   0.03150   0.41341
  32        4PZ         0.00664   0.00031   0.26705   0.69580  -0.02301
  33 5   H  1S         -0.07418  -0.12468   0.00034  -0.00538  -0.01211
  34        2S         -0.10125  -0.19468   0.00291  -0.00899  -0.03769
  35        3S         -0.03778  -0.09174   0.00164  -0.02359  -0.82002
  36 6   H  1S         -0.07991   0.12427   0.00024  -0.00537  -0.01546
  37        2S         -0.10947   0.19463   0.00276  -0.00888  -0.04656
  38        3S         -0.04105   0.09159   0.00155  -0.02358  -0.88143
                          11        12        13        14        15
                           V         V         V         V         V
     Eigenvalues --     0.16423   0.16990   0.24085   0.37380   0.39270
   1 1   C  1S          0.00042  -0.04538  -0.00004   0.00953   0.00097
   2        2S          0.00067  -0.07396  -0.00006   0.01301   0.00159
   3        2PX         0.09748  -0.02165   0.09997  -0.03561  -0.02445
   4        2PY        -0.05420  -0.03617  -0.05740  -0.06543   0.00909
   5        2PZ         0.00007  -0.00911   0.00009  -0.00643  -0.00027
   6        3S         -0.00125   0.16739   0.00019   0.03348  -0.00295
   7        3PX         0.14000  -0.01386   0.10623  -0.04436  -0.10713
   8        3PY        -0.07834  -0.02306  -0.06174  -0.08609   0.04701
   9        3PZ         0.00011  -0.01265   0.00002  -0.01323  -0.00051
  10        4S         -0.03004   1.42786  -0.00593  -2.60759  -0.16451
  11        4PX         0.58078  -0.12825   1.16583  -1.55570  -0.52863
  12        4PY        -0.31500  -0.19899  -0.66119  -2.72082   0.14809
  13        4PZ         0.00059  -0.05936   0.00164  -0.05738  -0.00336
  14 2   H  1S         -0.03001  -0.02528   0.01317  -0.05853   0.07523
  15        2S         -0.08169  -0.01728  -0.02264  -0.66766   0.76444
  16        3S         -1.04109  -0.98102  -1.54122  -0.30121  -0.33243
  17 3   H  1S          0.02882  -0.02565  -0.01517  -0.05143  -0.07690
  18        2S          0.08053  -0.02272   0.01732  -0.61286  -0.77047
  19        3S          1.07743  -1.02487   1.55920  -0.37067   0.26582
  20 4   C  1S          0.00187   0.04249   0.00001  -0.01991  -0.00013
  21        2S          0.00301   0.06917   0.00000  -0.03270  -0.00002
  22        2PX         0.10053  -0.02450  -0.10062  -0.04087  -0.03056
  23        2PY        -0.06209  -0.03710   0.05767  -0.07213   0.01450
  24        2PZ         0.00045   0.00880  -0.00010   0.00453   0.00035
  25        3S         -0.00628  -0.15361   0.00024   0.04316  -0.00512
  26        3PX         0.14496  -0.02014  -0.11429  -0.09318  -0.10701
  27        3PY        -0.08797  -0.02653   0.06467  -0.16724   0.06028
  28        3PZ         0.00065   0.01211  -0.00007   0.00533   0.00059
  29        4S         -0.07616  -1.34325  -0.00234   3.31083   0.15497
  30        4PX         0.53318  -0.12393  -1.12017  -1.16893  -0.54988
  31        4PY        -0.33434  -0.19732   0.65420  -2.04438   0.11359
  32        4PZ         0.00276   0.05726  -0.00168   0.04810   0.00292
  33 5   H  1S          0.03213   0.02428   0.00597   0.00885  -0.08150
  34        2S          0.07025   0.02157  -0.03277   0.05061  -0.80188
  35        3S          1.08850   0.92908  -1.52068   0.44999   0.47854
  36 6   H  1S         -0.03119   0.02576  -0.00495   0.00454   0.08675
  37        2S         -0.06936   0.02102   0.03305   0.01054   0.88009
  38        3S         -0.98536   0.96172   1.51563   0.46460  -0.45271
                          16        17        18        19        20
                           V         V         V         V         V
     Eigenvalues --     0.39926   0.46364   0.48824   0.49358   0.59113
   1 1   C  1S         -0.01855   0.01163   0.04684  -0.00079  -0.00074
   2        2S         -0.03256   0.02754   0.07848  -0.00096  -0.00134
   3        2PX         0.02704  -0.06047  -0.01216   0.00185   0.00277
   4        2PY         0.04982  -0.10639  -0.01721   0.00259   0.00419
   5        2PZ         0.00041  -0.00080  -0.00785  -0.15165  -0.19259
   6        3S          0.07588  -0.33488  -0.09983  -0.01163  -0.00070
   7        3PX         0.10294  -0.23844   0.03145   0.00099   0.00938
   8        3PY         0.19386  -0.41732   0.06177  -0.00039   0.01408
   9        3PZ        -0.00505  -0.00630  -0.03532  -0.62740  -0.68497
  10        4S          2.70145   0.16641  -3.11571   0.14446   0.09349
  11        4PX         0.25826   0.25135  -0.82149   0.04559   0.02784
  12        4PY         0.48244   0.45336  -1.41307   0.08126   0.05242
  13        4PZ        -0.00233   0.00049   0.12394   0.68266   1.24080
  14 2   H  1S         -0.02601  -0.03595   0.07504  -0.00400  -0.00224
  15        2S         -0.53051  -0.34615   0.89987  -0.03931  -0.01571
  16        3S          0.31572   0.08466  -0.64170   0.04571   0.03165
  17 3   H  1S         -0.03287  -0.03669   0.07389  -0.00392  -0.00222
  18        2S         -0.59179  -0.35270   0.87670  -0.03847  -0.01539
  19        3S          0.32691   0.08156  -0.62045   0.04474   0.03111
  20 4   C  1S         -0.00066  -0.00200  -0.05082   0.00446   0.00094
  21        2S         -0.00468   0.00430  -0.08828   0.00804   0.00176
  22        2PX         0.00903   0.05569  -0.02707   0.00034   0.00272
  23        2PY         0.01737   0.09523  -0.04760   0.00022   0.00526
  24        2PZ        -0.00501  -0.00241  -0.00806  -0.15240   0.19235
  25        3S          0.08002  -0.28890   0.22567  -0.02989  -0.00330
  26        3PX        -0.04294   0.23716  -0.05316   0.00064   0.00947
  27        3PY        -0.06472   0.40886  -0.09094  -0.00065   0.01834
  28        3PZ        -0.01416  -0.00993  -0.03014  -0.63046   0.68271
  29        4S         -0.90731   0.72117   3.12613  -0.17499  -0.08358
  30        4PX         1.26914  -0.32731  -0.61973   0.02539   0.03068
  31        4PY         2.27100  -0.56079  -1.07127   0.04454   0.04883
  32        4PZ        -0.04455  -0.02049  -0.04316   0.69587  -1.23835
  33 5   H  1S         -0.04721  -0.06266  -0.06511   0.00375   0.00214
  34        2S         -0.84143  -0.63693  -0.81677   0.05447   0.00901
  35        3S         -0.19857   0.26136   0.55874  -0.01846  -0.03080
  36 6   H  1S         -0.04046  -0.06264  -0.06459   0.00372   0.00213
  37        2S         -0.76188  -0.63776  -0.81355   0.05388   0.00863
  38        3S         -0.22126   0.27515   0.56613  -0.01928  -0.03099
                          21        22        23        24        25
                           V         V         V         V         V
     Eigenvalues --     0.66496   0.69004   0.77260   0.77531   0.83861
   1 1   C  1S          0.00068  -0.00076   0.06219   0.06381   0.00119
   2        2S          0.00144  -0.00161   0.13151   0.13618   0.00273
   3        2PX        -0.13468   0.19655  -0.00699   0.11621  -0.01008
   4        2PY         0.07835  -0.11750  -0.01380   0.18994   0.01524
   5        2PZ        -0.00017   0.00024   0.00193   0.00631   0.00015
   6        3S         -0.01259   0.01654  -0.93426  -1.21201  -0.03000
   7        3PX        -0.62261   0.68402  -0.10188   0.46737  -0.23114
   8        3PY         0.35865  -0.40933  -0.18295   0.75361   0.17097
   9        3PZ        -0.00090   0.00090   0.00705   0.02196   0.00035
  10        4S          0.02293  -0.04637   1.09907   2.33728   0.04941
  11        4PX         1.09645  -0.72758   0.04249  -0.77768   4.50278
  12        4PY        -0.62923   0.45993   0.03845  -1.00732  -2.54319
  13        4PZ         0.00100   0.00132   0.00015  -0.07574   0.00741
  14 2   H  1S          0.02416  -0.05897   0.01546   0.03071  -0.02530
  15        2S          0.13814  -0.64498   0.08557   0.07830  -1.55321
  16        3S         -1.04694   1.08695  -0.27181  -1.06203  -1.22394
  17 3   H  1S         -0.02346   0.05820   0.01581   0.03119   0.02913
  18        2S         -0.15275   0.66794   0.10721   0.03166   1.58955
  19        3S          1.03980  -1.04216  -0.27944  -1.21133   1.21572
  20 4   C  1S          0.00092  -0.00037   0.08818   0.01702   0.00066
  21        2S          0.00188  -0.00075   0.18755   0.03547   0.00129
  22        2PX        -0.14904  -0.18666  -0.08746   0.06720   0.01286
  23        2PY         0.08599   0.10443  -0.15560   0.12290   0.00043
  24        2PZ        -0.00019  -0.00029   0.00647  -0.00248  -0.00015
  25        3S         -0.01377   0.00158  -1.53785  -0.12556  -0.00307
  26        3PX        -0.67508  -0.63155  -0.30490   0.33054   0.24495
  27        3PY         0.39177   0.35037  -0.54748   0.60574  -0.10300
  28        3PZ        -0.00095  -0.00096   0.02284  -0.00921  -0.00015
  29        4S          0.00737   0.01307   2.67539  -0.34611  -0.06141
  30        4PX         1.27239   0.72964   0.47232  -0.30358  -4.14671
  31        4PY        -0.73487  -0.38773   0.89100  -0.82265   2.39967
  32        4PZ         0.00189  -0.00074  -0.06325   0.04529  -0.00677
  33 5   H  1S         -0.02464  -0.05563   0.03456  -0.00254  -0.02272
  34        2S         -0.13597  -0.57225   0.08179   0.07193  -1.40317
  35        3S          1.10551   0.98185  -1.09501   0.48251  -1.09487
  36 6   H  1S          0.02537   0.05558   0.03439  -0.00215   0.02211
  37        2S          0.13273   0.55324   0.08133   0.00613   1.39280
  38        3S         -1.10818  -1.00524  -1.04749   0.39206   1.11004
                          26        27        28        29        30
                           V         V         V         V         V
     Eigenvalues --     0.95319   2.23178   2.29015   2.33239   2.40444
   1 1   C  1S          0.09578  -0.00989  -0.01426   0.00034  -0.00041
   2        2S          0.19906   0.00195  -0.01404   0.00069  -0.00055
   3        2PX        -0.09182  -0.07874  -0.13225   0.34819  -0.40549
   4        2PY        -0.15893  -0.14726  -0.23216  -0.19751   0.22694
   5        2PZ         0.00027  -0.01829  -0.02488   0.00034  -0.00108
   6        3S         -1.54221  -0.18648  -0.03710  -0.00042  -0.00368
   7        3PX        -0.23521   0.07621   0.21020  -0.41983   0.56801
   8        3PY        -0.40065   0.15501   0.38047   0.24033  -0.31847
   9        3PZ        -0.00331   0.01845   0.03108  -0.00024   0.00126
  10        4S          5.71966  -0.10152  -0.88480  -0.00069  -0.00406
  11        4PX         1.20398   0.05087  -0.18718  -0.05082   0.95911
  12        4PY         1.99545   0.06896  -0.36144   0.01935  -0.52398
  13        4PZ        -0.02566   0.00401   0.01098  -0.00035   0.00247
  14 2   H  1S          0.01558  -0.70810  -0.79429  -0.71055   0.64932
  15        2S         -0.28994   1.00640   1.18812   1.09730  -1.44416
  16        3S         -0.09232  -0.30302  -0.47738  -0.47411   0.37284
  17 3   H  1S          0.01592  -0.69735  -0.79373   0.70478  -0.66731
  18        2S         -0.26311   0.99173   1.19443  -1.09157   1.48278
  19        3S         -0.07136  -0.28246  -0.46055   0.46467  -0.36396
  20 4   C  1S         -0.09397  -0.01043   0.01218   0.00035   0.00020
  21        2S         -0.19495   0.00012   0.01230   0.00040   0.00046
  22        2PX        -0.09269   0.13495  -0.12426   0.30149   0.41576
  23        2PY        -0.16023   0.23364  -0.20719  -0.17546  -0.24209
  24        2PZ         0.00048  -0.01974   0.02349   0.00069   0.00065
  25        3S          1.50635  -0.16863   0.01697   0.00117  -0.00078
  26        3PX        -0.22935  -0.17134   0.21292  -0.37547  -0.58246
  27        3PY        -0.40073  -0.29402   0.35111   0.21686   0.34071
  28        3PZ         0.00497   0.02118  -0.03010  -0.00078  -0.00089
  29        4S         -5.69857  -0.17332   0.89006   0.01329  -0.01169
  30        4PX         1.10899  -0.01736  -0.20227   0.11222  -0.83722
  31        4PY         1.99231  -0.03180  -0.31837  -0.06452   0.49789
  32        4PZ         0.01634   0.00624  -0.00856   0.00004  -0.00210
  33 5   H  1S         -0.01796  -0.78947   0.67479   0.70069   0.69126
  34        2S          0.29101   1.14664  -1.03250  -1.01425  -1.45904
  35        3S          0.05502  -0.35669   0.40113   0.50705   0.43473
  36 6   H  1S         -0.01784  -0.78584   0.69316  -0.68612  -0.69165
  37        2S          0.31222   1.14058  -1.05270   0.99117   1.45377
  38        3S          0.06894  -0.35615   0.42623  -0.50185  -0.44202
                          31        32        33        34        35
                           V         V         V         V         V
     Eigenvalues --     2.67144   2.81659   2.87891   2.95124   3.14125
   1 1   C  1S          0.00069   0.00338  -0.01319  -0.00004  -0.00944
   2        2S          0.00056   0.00979  -0.04388  -0.00041  -0.02932
   3        2PX         0.00760   0.09656  -0.46193  -0.72893   0.45057
   4        2PY         0.01095   0.17051  -0.84292   0.41077   0.78344
   5        2PZ        -0.92428  -0.92151  -0.18575  -0.00206   0.00901
   6        3S         -0.00241  -0.08120   0.38630   0.00561   0.24817
   7        3PX        -0.00604  -0.16756   0.82106   0.87658  -0.43461
   8        3PY        -0.00847  -0.29335   1.46828  -0.47939  -0.75308
   9        3PZ         0.93931   1.12645   0.23308   0.00273  -0.01162
  10        4S          0.01831   0.18830  -0.86868  -0.01442  -0.48569
  11        4PX        -0.00214   0.13434  -0.70431  -0.66724   0.21904
  12        4PY        -0.00323   0.23645  -1.25704   0.35267   0.37775
  13        4PZ        -0.33834  -0.60850  -0.14790  -0.00213   0.00706
  14 2   H  1S          0.01643  -0.02612   0.26324  -0.37609  -0.21359
  15        2S         -0.01883   0.01630  -0.22029   0.38893   0.16259
  16        3S         -0.00385   0.05467  -0.29646   0.26918   0.05697
  17 3   H  1S          0.01668  -0.02569   0.25471   0.37711  -0.21551
  18        2S         -0.01944   0.01482  -0.20634  -0.38626   0.16273
  19        3S         -0.00432   0.05435  -0.29374  -0.28562   0.06713
  20 4   C  1S          0.00067  -0.00328   0.01336   0.00042  -0.00723
  21        2S          0.00062  -0.01024   0.04738   0.00101  -0.02277
  22        2PX        -0.00928   0.08652  -0.40609  -0.80736  -0.50046
  23        2PY        -0.01806   0.15372  -0.71671   0.44353  -0.89376
  24        2PZ        -0.92495   0.91989   0.18934   0.00022   0.01779
  25        3S         -0.00339   0.08820  -0.42764  -0.00778   0.19678
  26        3PX         0.00940  -0.15776   0.76613   0.96243   0.53607
  27        3PY         0.01810  -0.27807   1.34395  -0.52078   0.96632
  28        3PZ         0.94032  -1.12443  -0.23883  -0.00032  -0.02240
  29        4S          0.02016  -0.19109   0.89312   0.02411  -0.37426
  30        4PX        -0.00050   0.13452  -0.70472  -0.69790  -0.32390
  31        4PY        -0.00216   0.23450  -1.22752   0.37357  -0.59457
  32        4PZ        -0.33884   0.60703   0.15287   0.00018   0.01749
  33 5   H  1S          0.01557   0.03675  -0.29467   0.41588  -0.26655
  34        2S         -0.01919  -0.03003   0.27019  -0.42644   0.21081
  35        3S         -0.00188  -0.05030   0.27767  -0.24328   0.12771
  36 6   H  1S          0.01567   0.03646  -0.28887  -0.42866  -0.25086
  37        2S         -0.01972  -0.03049   0.26732   0.43794   0.19584
  38        3S         -0.00154  -0.04906   0.26851   0.24763   0.11694
                          36        37        38
                           V         V         V
     Eigenvalues --     3.31592  23.35121  23.70665
   1 1   C  1S         -0.00026  -1.41651  -1.44984
   2        2S         -0.00033   1.51066   1.56791
   3        2PX         0.78762  -0.00639   0.01216
   4        2PY        -0.43648  -0.01050   0.02123
   5        2PZ         0.00170  -0.00074  -0.00033
   6        3S         -0.00166  -0.29647  -0.39945
   7        3PX        -1.12405   0.02372  -0.05607
   8        3PY         0.61861   0.03953  -0.09729
   9        3PZ        -0.00258   0.00209   0.00101
  10        4S          0.00585   0.27505   0.77030
  11        4PX         1.95668  -0.02529   0.13461
  12        4PY        -1.07387  -0.04317   0.23013
  13        4PZ         0.00437  -0.00354  -0.00418
  14 2   H  1S          0.55698   0.01285   0.00689
  15        2S         -0.86241   0.00762  -0.01488
  16        3S         -0.45440  -0.08385  -0.03953
  17 3   H  1S         -0.56800   0.01439   0.00771
  18        2S          0.87809   0.00755  -0.01440
  19        3S          0.48002  -0.08591  -0.03898
  20 4   C  1S         -0.00008  -1.44501   1.42129
  21        2S         -0.00045   1.54111  -1.53709
  22        2PX        -0.71007   0.00606   0.01254
  23        2PY         0.40836   0.01074   0.02152
  24        2PZ        -0.00142  -0.00074   0.00018
  25        3S          0.00619  -0.30212   0.39156
  26        3PX         1.00968  -0.02252  -0.05658
  27        3PY        -0.59027  -0.03967  -0.09763
  28        3PZ         0.00214   0.00212  -0.00043
  29        4S         -0.03105   0.27780  -0.76298
  30        4PX        -1.76007   0.02404   0.13075
  31        4PY         1.04280   0.04317   0.22833
  32        4PZ        -0.00375  -0.00343   0.00292
  33 5   H  1S          0.48388   0.01305  -0.00445
  34        2S         -0.75062   0.00832   0.01339
  35        3S         -0.42651  -0.08293   0.03687
  36 6   H  1S         -0.48101   0.01213  -0.00386
  37        2S          0.74700   0.00897   0.01364
  38        3S          0.41625  -0.08150   0.03720
     Density Matrix:
                           1         2         3         4         5
   1 1   C  1S          0.65940
   2        2S          0.56150   0.49198
   3        2PX        -0.00057  -0.00077   0.08410
   4        2PY        -0.00133  -0.00185   0.00375   0.08772
   5        2PZ         0.00011   0.00017  -0.00016  -0.00038   0.06447
   6        3S         -0.08890  -0.15378   0.00288   0.00652  -0.00024
   7        3PX         0.00084   0.00129   0.13034   0.00127  -0.00012
   8        3PY         0.00118   0.00182   0.00132   0.13115  -0.00033
   9        3PZ         0.00023   0.00039  -0.00028  -0.00059   0.10363
  10        4S         -0.07952  -0.11453  -0.01586  -0.02818   0.00076
  11        4PX         0.00025   0.00159   0.07023  -0.00453  -0.00079
  12        4PY         0.00058   0.00297  -0.00462   0.06548  -0.00139
  13        4PZ        -0.00015  -0.00036  -0.00112  -0.00189   0.09579
  14 2   H  1S         -0.02049  -0.03264   0.03477  -0.06284  -0.00161
  15        2S         -0.02285  -0.03655   0.04913  -0.08781  -0.00121
  16        3S          0.00053  -0.00077   0.02071  -0.03315  -0.00004
  17 3   H  1S         -0.02095  -0.03335  -0.07247  -0.00225  -0.00181
  18        2S         -0.02318  -0.03702  -0.10045  -0.00243  -0.00144
  19        3S          0.00056  -0.00073  -0.03847   0.00110  -0.00012
  20 4   C  1S          0.00609   0.00982  -0.01084  -0.01886  -0.00055
  21        2S          0.00979   0.01530  -0.01734  -0.03018  -0.00090
  22        2PX         0.01042   0.01666  -0.01241  -0.03228   0.00061
  23        2PY         0.01807   0.02888  -0.03219  -0.04974   0.00122
  24        2PZ        -0.00067  -0.00108  -0.00054  -0.00080   0.06434
  25        3S         -0.02635  -0.04001   0.04861   0.08473   0.00271
  26        3PX         0.01605   0.02488  -0.01817  -0.04604   0.00078
  27        3PY         0.02782   0.04312  -0.04573  -0.07130   0.00161
  28        3PZ        -0.00113  -0.00182  -0.00095  -0.00142   0.10300
  29        4S          0.00547   0.00412   0.02083   0.03676   0.00337
  30        4PX         0.00306   0.00634  -0.01314  -0.02111   0.00086
  31        4PY         0.00518   0.01082  -0.02111  -0.03741   0.00180
  32        4PZ        -0.00096  -0.00155  -0.00146  -0.00232   0.09589
  33 5   H  1S          0.00420   0.00689  -0.00174  -0.01236  -0.00064
  34        2S          0.00627   0.01042   0.00352  -0.02498  -0.00001
  35        3S          0.00322   0.00471   0.00428  -0.01754   0.00014
  36 6   H  1S          0.00416   0.00684  -0.00981  -0.00764  -0.00065
  37        2S          0.00624   0.01040  -0.02330  -0.00943  -0.00006
  38        3S          0.00320   0.00470  -0.01722  -0.00513   0.00010
                           6         7         8         9        10
   6        3S          0.45236
   7        3PX        -0.00160   0.20231
   8        3PY        -0.00138  -0.00460   0.19658
   9        3PZ        -0.00076  -0.00021  -0.00051   0.16659
  10        4S          0.27394  -0.02679  -0.04834   0.00096   0.18352
  11        4PX        -0.00690   0.10937  -0.01028  -0.00129  -0.01552
  12        4PY        -0.01231  -0.01047   0.09859  -0.00223  -0.02901
  13        4PZ         0.00160  -0.00149  -0.00249   0.15398   0.00288
  14 2   H  1S          0.08725   0.05618  -0.09815  -0.00268   0.06931
  15        2S          0.09783   0.07976  -0.13665  -0.00205   0.08197
  16        3S          0.00621   0.03396  -0.05097  -0.00007   0.01137
  17 3   H  1S          0.08922  -0.11363  -0.00184  -0.00297   0.06948
  18        2S          0.09914  -0.15733  -0.00085  -0.00238   0.08098
  19        3S          0.00622  -0.06001   0.00357  -0.00018   0.01046
  20 4   C  1S         -0.02664  -0.01691  -0.02942  -0.00094   0.00523
  21        2S         -0.04031  -0.02627  -0.04576  -0.00152   0.00399
  22        2PX        -0.04666  -0.01770  -0.04576   0.00105  -0.01768
  23        2PY        -0.08083  -0.04559  -0.07075   0.00208  -0.03034
  24        2PZ         0.00322  -0.00074  -0.00106   0.10342   0.00331
  25        3S          0.10261   0.07127   0.12442   0.00454   0.00069
  26        3PX        -0.06736  -0.02607  -0.06509   0.00136  -0.02627
  27        3PY        -0.11666  -0.06458  -0.10139   0.00277  -0.04502
  28        3PZ         0.00534  -0.00131  -0.00190   0.16555   0.00550
  29        4S          0.00154   0.03151   0.05580   0.00560  -0.03290
  30        4PX        -0.02249  -0.01968  -0.02964   0.00144  -0.00637
  31        4PY        -0.03859  -0.02963  -0.05391   0.00297  -0.01032
  32        4PZ         0.00454  -0.00204  -0.00321   0.15413   0.00511
  33 5   H  1S         -0.02045  -0.00061  -0.01768  -0.00093  -0.01471
  34        2S         -0.03111   0.00875  -0.03666   0.00011  -0.01904
  35        3S         -0.01207   0.00825  -0.02635   0.00025  -0.00336
  36 6   H  1S         -0.02033  -0.01488  -0.00924  -0.00095  -0.01506
  37        2S         -0.03111  -0.03585  -0.01060   0.00004  -0.01994
  38        3S         -0.01210  -0.02668  -0.00608   0.00019  -0.00391
                          11        12        13        14        15
  11        4PX         0.06019
  12        4PY        -0.00919   0.05103
  13        4PZ        -0.00187  -0.00312   0.14237
  14 2   H  1S          0.03361  -0.05403  -0.00139   0.08100
  15        2S          0.04855  -0.07509  -0.00050   0.10949   0.15009
  16        3S          0.02114  -0.02789   0.00029   0.03681   0.05271
  17 3   H  1S         -0.06303   0.00173  -0.00152  -0.01316  -0.02472
  18        2S         -0.08766   0.00422  -0.00065  -0.02467  -0.04288
  19        3S         -0.03372   0.00447   0.00024  -0.01806  -0.02741
  20 4   C  1S         -0.00316  -0.00573  -0.00083   0.00424   0.00677
  21        2S         -0.00654  -0.01173  -0.00134   0.00701   0.01131
  22        2PX        -0.01320  -0.01990   0.00146   0.00183  -0.00263
  23        2PY        -0.01988  -0.03676   0.00277   0.01137   0.02418
  24        2PZ        -0.00107  -0.00167   0.09561  -0.00078  -0.00025
  25        3S          0.02315   0.04127   0.00393  -0.02113  -0.03404
  26        3PX        -0.02027  -0.02814   0.00198   0.00106  -0.00706
  27        3PY        -0.02802  -0.05357   0.00381   0.01699   0.03631
  28        3PZ        -0.00177  -0.00275   0.15306  -0.00114  -0.00026
  29        4S          0.00817   0.01535   0.00510  -0.01795  -0.02467
  30        4PX        -0.01488  -0.01233   0.00177  -0.00164  -0.00839
  31        4PY        -0.01244  -0.02957   0.00350   0.01523   0.02720
  32        4PZ        -0.00211  -0.00339   0.14252  -0.00064   0.00037
  33 5   H  1S          0.00213  -0.01587  -0.00046   0.01121   0.02334
  34        2S          0.00944  -0.02767   0.00064   0.02386   0.04456
  35        3S          0.00768  -0.01592   0.00046   0.01672   0.02803
  36 6   H  1S         -0.01452  -0.00563  -0.00048  -0.00915  -0.01833
  37        2S         -0.02819  -0.00497   0.00060  -0.01894  -0.03453
  38        3S         -0.01728  -0.00105   0.00042  -0.01024  -0.01787
                          16        17        18        19        20
  16        3S          0.02115
  17 3   H  1S         -0.01818   0.08206
  18        2S         -0.02747   0.10968   0.14873
  19        3S         -0.01294   0.03621   0.05138   0.02039
  20 4   C  1S          0.00374   0.00429   0.00673   0.00371   0.65947
  21        2S          0.00552   0.00709   0.01122   0.00544   0.56157
  22        2PX        -0.00344   0.00902   0.02229   0.01678   0.00117
  23        2PY         0.01766   0.00743   0.00976   0.00568   0.00186
  24        2PZ         0.00003  -0.00077  -0.00018   0.00008   0.00011
  25        3S         -0.01435  -0.02125  -0.03361  -0.01399  -0.08925
  26        3PX        -0.00690   0.01431   0.03505   0.02619  -0.00051
  27        3PY         0.02664   0.00951   0.01182   0.00705  -0.00103
  28        3PZ         0.00008  -0.00112  -0.00015   0.00016   0.00024
  29        4S         -0.00599  -0.01764  -0.02371  -0.00544  -0.08018
  30        4PX        -0.00702   0.01415   0.02785   0.01721  -0.00018
  31        4PY         0.01599   0.00658   0.00668   0.00195  -0.00022
  32        4PZ         0.00036  -0.00063   0.00043   0.00040  -0.00005
  33 5   H  1S          0.01624  -0.00903  -0.01812  -0.00946  -0.02008
  34        2S          0.02754  -0.01868  -0.03402  -0.01705  -0.02214
  35        3S          0.01475  -0.01013  -0.01765  -0.00906   0.00059
  36 6   H  1S         -0.00961   0.01122   0.02330   0.01601  -0.01988
  37        2S         -0.01738   0.02379   0.04435   0.02717  -0.02211
  38        3S         -0.00921   0.01664   0.02778   0.01452   0.00051
                          21        22        23        24        25
  21        2S          0.49208
  22        2PX         0.00168   0.08273
  23        2PY         0.00266   0.00380   0.08762
  24        2PZ         0.00017   0.00020   0.00027   0.06427
  25        3S         -0.15425  -0.00541  -0.00866  -0.00021   0.45369
  26        3PX        -0.00076   0.12862   0.00199   0.00013  -0.00013
  27        3PY        -0.00156   0.00200   0.13139   0.00012   0.00053
  28        3PZ         0.00041   0.00030   0.00043   0.10289  -0.00082
  29        4S         -0.11583   0.01371   0.02337   0.00091   0.27849
  30        4PX        -0.00142   0.07320  -0.00518   0.00061   0.00608
  31        4PY        -0.00229  -0.00509   0.06715   0.00114   0.01009
  32        4PZ        -0.00018   0.00108   0.00194   0.09576   0.00104
  33 5   H  1S         -0.03199  -0.03326   0.06357  -0.00176   0.08553
  34        2S         -0.03538  -0.04958   0.08849  -0.00140   0.09464
  35        3S         -0.00061  -0.02266   0.03353  -0.00014   0.00562
  36 6   H  1S         -0.03169   0.07123   0.00263  -0.00158   0.08475
  37        2S         -0.03535   0.10130   0.00079  -0.00115   0.09456
  38        3S         -0.00073   0.04054  -0.00311  -0.00004   0.00590
                          26        27        28        29        30
  26        3PX         0.20031
  27        3PY        -0.00255   0.19758
  28        3PZ         0.00017   0.00017   0.16472
  29        4S          0.02525   0.04282   0.00113   0.18683
  30        4PX         0.11445  -0.01084   0.00096   0.01537   0.06650
  31        4PY        -0.01071   0.10153   0.00182   0.02536  -0.01052
  32        4PZ         0.00137   0.00248   0.15331   0.00274   0.00152
  33 5   H  1S         -0.05319   0.09968  -0.00291   0.06716  -0.03446
  34        2S         -0.07974   0.13826  -0.00235   0.07755  -0.05208
  35        3S         -0.03688   0.05173  -0.00023   0.00937  -0.02424
  36 6   H  1S          0.11249   0.00330  -0.00263   0.06727   0.06576
  37        2S          0.15978  -0.00061  -0.00196   0.07853   0.09389
  38        3S          0.06362  -0.00640  -0.00008   0.01005   0.03775
                          31        32        33        34        35
  31        4PY         0.05374
  32        4PZ         0.00291   0.14273
  33 5   H  1S          0.05582  -0.00151   0.08072
  34        2S          0.07756  -0.00065   0.10995   0.15223
  35        3S          0.02914   0.00021   0.03808   0.05531   0.02293
  36 6   H  1S         -0.00203  -0.00138  -0.01241  -0.02606  -0.02002
  37        2S         -0.00643  -0.00047  -0.02611  -0.04841  -0.03175
  38        3S         -0.00643   0.00028  -0.02012  -0.03178  -0.01571
                          36        37        38
  36 6   H  1S          0.08011
  37        2S          0.10975   0.15278
  38        3S          0.03828   0.05581   0.02318
    Full Mulliken population analysis:
                           1         2         3         4         5
   1 1   C  1S          0.65940
   2        2S          0.49324   0.49198
   3        2PX         0.00000   0.00000   0.08410
   4        2PY         0.00000   0.00000   0.00000   0.08772
   5        2PZ         0.00000   0.00000   0.00000   0.00000   0.06447
   6        3S         -0.02926  -0.06440   0.00000   0.00000   0.00000
   7        3PX         0.00000   0.00000   0.08200   0.00000   0.00000
   8        3PY         0.00000   0.00000   0.00000   0.08251   0.00000
   9        3PZ         0.00000   0.00000   0.00000   0.00000   0.06520
  10        4S         -0.01223  -0.02143   0.00000   0.00000   0.00000
  11        4PX         0.00000   0.00000   0.01547   0.00000   0.00000
  12        4PY         0.00000   0.00000   0.00000   0.01442   0.00000
  13        4PZ         0.00000   0.00000   0.00000   0.00000   0.02110
  14 2   H  1S         -0.00023  -0.00032   0.00180   0.00552   0.00001
  15        2S         -0.00166  -0.00317   0.00432   0.01313   0.00001
  16        3S          0.00004  -0.00007   0.00070   0.00191   0.00000
  17 3   H  1S         -0.00025  -0.00036   0.00774   0.00000   0.00001
  18        2S         -0.00172  -0.00329   0.01764   0.00000   0.00001
  19        3S          0.00004  -0.00007   0.00256  -0.00000   0.00000
  20 4   C  1S          0.00000   0.00000  -0.00002  -0.00006   0.00000
  21        2S          0.00000  -0.00000  -0.00002  -0.00006   0.00000
  22        2PX        -0.00002  -0.00002   0.00011   0.00086   0.00000
  23        2PY        -0.00006  -0.00005   0.00086   0.00198   0.00000
  24        2PZ        -0.00000  -0.00000  -0.00000  -0.00000   0.00042
  25        3S         -0.00059  -0.00100   0.00255   0.00768  -0.00000
  26        3PX        -0.00055  -0.00100   0.00019   0.00558   0.00000
  27        3PY        -0.00164  -0.00300   0.00554   0.01072   0.00000
  28        3PZ        -0.00000  -0.00000  -0.00000  -0.00000   0.00614
  29        4S          0.00035   0.00031   0.00095   0.00289  -0.00000
  30        4PX        -0.00018  -0.00045  -0.00071   0.00146   0.00000
  31        4PY        -0.00052  -0.00133   0.00146   0.00096   0.00000
  32        4PZ        -0.00000  -0.00000  -0.00000  -0.00000   0.00904
  33 5   H  1S          0.00000   0.00000  -0.00000  -0.00000   0.00000
  34        2S          0.00001   0.00002   0.00000  -0.00031   0.00000
  35        3S          0.00007   0.00013   0.00001  -0.00070  -0.00000
  36 6   H  1S          0.00000   0.00000  -0.00000  -0.00000   0.00000
  37        2S          0.00001   0.00002  -0.00024  -0.00007   0.00000
  38        3S          0.00007   0.00013  -0.00057  -0.00012  -0.00000
                           6         7         8         9        10
   6        3S          0.45236
   7        3PX         0.00000   0.20231
   8        3PY         0.00000   0.00000   0.19658
   9        3PZ         0.00000   0.00000   0.00000   0.16659
  10        4S          0.21222   0.00000   0.00000   0.00000   0.18352
  11        4PX         0.00000   0.07147   0.00000   0.00000   0.00000
  12        4PY         0.00000   0.00000   0.06442   0.00000   0.00000
  13        4PZ         0.00000   0.00000   0.00000   0.10062   0.00000
  14 2   H  1S          0.01589   0.01078   0.03204   0.00004   0.01827
  15        2S          0.04099   0.01970   0.05739   0.00004   0.04714
  16        3S          0.00286   0.00401   0.01023   0.00000   0.00857
  17 3   H  1S          0.01673   0.04387   0.00001   0.00005   0.01852
  18        2S          0.04222   0.07714   0.00000   0.00005   0.04696
  19        3S          0.00288   0.01393  -0.00001   0.00000   0.00792
  20 4   C  1S         -0.00060  -0.00057  -0.00173   0.00000   0.00033
  21        2S         -0.00101  -0.00106  -0.00319   0.00000   0.00030
  22        2PX         0.00244   0.00018   0.00555   0.00000   0.00080
  23        2PY         0.00733   0.00553   0.01064   0.00000   0.00239
  24        2PZ         0.00000  -0.00000  -0.00000   0.00617   0.00000
  25        3S          0.02194   0.01339   0.04047  -0.00000   0.00026
  26        3PX         0.01265  -0.00127   0.01860   0.00000   0.00405
  27        3PY         0.03795   0.01845   0.02848   0.00000   0.01202
  28        3PZ         0.00000  -0.00000  -0.00000   0.03540   0.00000
  29        4S          0.00058   0.00486   0.01490  -0.00000  -0.02067
  30        4PX         0.00632  -0.00405   0.00587   0.00000   0.00193
  31        4PY         0.01878   0.00586   0.00122   0.00000   0.00541
  32        4PZ         0.00000  -0.00000  -0.00000   0.04932   0.00001
  33 5   H  1S         -0.00005  -0.00000  -0.00019   0.00000  -0.00078
  34        2S         -0.00120   0.00006  -0.00320  -0.00000  -0.00319
  35        3S         -0.00196   0.00011  -0.00424  -0.00000  -0.00121
  36 6   H  1S         -0.00005  -0.00013  -0.00005   0.00000  -0.00080
  37        2S         -0.00118  -0.00256  -0.00052  -0.00000  -0.00332
  38        3S         -0.00196  -0.00353  -0.00055  -0.00000  -0.00140
                          11        12        13        14        15
  11        4PX         0.06019
  12        4PY         0.00000   0.05103
  13        4PZ         0.00000   0.00000   0.14237
  14 2   H  1S          0.00637   0.01742   0.00002   0.08100
  15        2S          0.01550   0.04078   0.00001   0.07734   0.15009
  16        3S          0.00530   0.01188  -0.00001   0.01375   0.04159
  17 3   H  1S          0.02360  -0.00000   0.00002  -0.00001  -0.00064
  18        2S          0.05514  -0.00002   0.00002  -0.00064  -0.00531
  19        3S          0.01658  -0.00002  -0.00000  -0.00200  -0.00794
  20 4   C  1S         -0.00018  -0.00058   0.00000   0.00000   0.00002
  21        2S         -0.00046  -0.00144   0.00000   0.00000   0.00003
  22        2PX        -0.00072   0.00138   0.00000  -0.00000   0.00000
  23        2PY         0.00138   0.00095   0.00000  -0.00000  -0.00036
  24        2PZ        -0.00000  -0.00000   0.00901   0.00000   0.00000
  25        3S          0.00651   0.02009  -0.00000  -0.00007  -0.00150
  26        3PX        -0.00417   0.00557   0.00000  -0.00000   0.00004
  27        3PY         0.00554   0.00122   0.00000  -0.00023  -0.00357
  28        3PZ        -0.00000  -0.00000   0.04898   0.00000   0.00000
  29        4S          0.00248   0.00805  -0.00001  -0.00105  -0.00444
  30        4PX        -0.00718   0.00312   0.00000   0.00001   0.00017
  31        4PY         0.00315  -0.00564   0.00000  -0.00242  -0.01026
  32        4PZ        -0.00000  -0.00000   0.08957   0.00000  -0.00000
  33 5   H  1S          0.00003  -0.00234   0.00000   0.00000   0.00000
  34        2S          0.00028  -0.00991  -0.00001   0.00000   0.00016
  35        3S          0.00029  -0.00734  -0.00000   0.00023   0.00147
  36 6   H  1S         -0.00176  -0.00047   0.00000  -0.00000  -0.00004
  37        2S         -0.00831  -0.00101  -0.00000  -0.00004  -0.00093
  38        3S         -0.00657  -0.00028  -0.00000  -0.00047  -0.00249
                          16        17        18        19        20
  16        3S          0.02115
  17 3   H  1S         -0.00201   0.08206
  18        2S         -0.00796   0.07748   0.14873
  19        3S         -0.00670   0.01353   0.04054   0.02039
  20 4   C  1S          0.00009   0.00000   0.00002   0.00009   0.65947
  21        2S          0.00016   0.00000   0.00003   0.00016   0.49331
  22        2PX         0.00001  -0.00000  -0.00028  -0.00059   0.00000
  23        2PY        -0.00074  -0.00000  -0.00008  -0.00013   0.00000
  24        2PZ        -0.00000   0.00000   0.00000  -0.00000   0.00000
  25        3S         -0.00248  -0.00007  -0.00148  -0.00242  -0.02938
  26        3PX         0.00006  -0.00016  -0.00288  -0.00366   0.00000
  27        3PY        -0.00446  -0.00007  -0.00064  -0.00065   0.00000
  28        3PZ        -0.00000   0.00000   0.00000  -0.00000   0.00000
  29        4S         -0.00225  -0.00103  -0.00426  -0.00204  -0.01233
  30        4PX         0.00018  -0.00188  -0.00877  -0.00678   0.00000
  31        4PY        -0.00755  -0.00058  -0.00140  -0.00051   0.00000
  32        4PZ        -0.00000   0.00000  -0.00000  -0.00000   0.00000
  33 5   H  1S          0.00023  -0.00000  -0.00004  -0.00043  -0.00021
  34        2S          0.00144  -0.00004  -0.00090  -0.00235  -0.00158
  35        3S          0.00248  -0.00046  -0.00244  -0.00288   0.00005
  36 6   H  1S         -0.00044   0.00000   0.00000   0.00022  -0.00020
  37        2S         -0.00243   0.00000   0.00015   0.00142  -0.00156
  38        3S         -0.00295   0.00023   0.00145   0.00243   0.00004
                          21        22        23        24        25
  21        2S          0.49208
  22        2PX         0.00000   0.08273
  23        2PY         0.00000   0.00000   0.08762
  24        2PZ         0.00000   0.00000   0.00000   0.06427
  25        3S         -0.06460   0.00000   0.00000   0.00000   0.45369
  26        3PX         0.00000   0.08092   0.00000   0.00000   0.00000
  27        3PY         0.00000   0.00000   0.08266   0.00000   0.00000
  28        3PZ         0.00000   0.00000   0.00000   0.06473   0.00000
  29        4S         -0.02168   0.00000   0.00000   0.00000   0.21574
  30        4PX         0.00000   0.01612   0.00000   0.00000   0.00000
  31        4PY         0.00000   0.00000   0.01479   0.00000   0.00000
  32        4PZ         0.00000   0.00000   0.00000   0.02109   0.00000
  33 5   H  1S         -0.00030   0.00147   0.00566   0.00001   0.01534
  34        2S         -0.00303   0.00379   0.01366   0.00001   0.03930
  35        3S         -0.00006   0.00067   0.00201   0.00000   0.00257
  36 6   H  1S         -0.00029   0.00687   0.00002   0.00001   0.01494
  37        2S         -0.00298   0.01728   0.00001   0.00001   0.03889
  38        3S         -0.00007   0.00270  -0.00001   0.00000   0.00269
                          26        27        28        29        30
  26        3PX         0.20031
  27        3PY         0.00000   0.19758
  28        3PZ         0.00000   0.00000   0.16472
  29        4S          0.00000   0.00000   0.00000   0.18683
  30        4PX         0.07479   0.00000   0.00000   0.00000   0.06650
  31        4PY         0.00000   0.06635   0.00000   0.00000   0.00000
  32        4PZ         0.00000   0.00000   0.10018   0.00000   0.00000
  33 5   H  1S          0.00884   0.03347   0.00004   0.01760   0.00571
  34        2S          0.01718   0.06014   0.00005   0.04439   0.01457
  35        3S          0.00382   0.01080   0.00000   0.00704   0.00533
  36 6   H  1S          0.04159   0.00007   0.00004   0.01752   0.02451
  37        2S          0.07712  -0.00002   0.00004   0.04473   0.05912
  38        3S          0.01482  -0.00009   0.00000   0.00753   0.01872
                          31        32        33        34        35
  31        4PY         0.05374
  32        4PZ         0.00000   0.14273
  33 5   H  1S          0.01869   0.00002   0.08072
  34        2S          0.04381   0.00002   0.07766   0.15223
  35        3S          0.01294  -0.00000   0.01423   0.04364   0.02293
  36 6   H  1S         -0.00005   0.00002  -0.00001  -0.00080  -0.00236
  37        2S         -0.00025   0.00001  -0.00080  -0.00666  -0.00968
  38        3S         -0.00019  -0.00001  -0.00237  -0.00969  -0.00841
                          36        37        38
  36 6   H  1S          0.08011
  37        2S          0.07753   0.15278
  38        3S          0.01430   0.04403   0.02318
     Gross orbital populations:
                           1
   1 1   C  1S          1.10436
   2        2S          0.88586
   3        2PX         0.22644
   4        2PY         0.23604
   5        2PZ         0.16639
   6        3S          0.79247
   7        3PX         0.56048
   8        3PY         0.55520
   9        3PZ         0.42346
  10        4S          0.50561
  11        4PX         0.25992
  12        4PY         0.21126
  13        4PZ         0.41168
  14 2   H  1S          0.27303
  15        2S          0.46757
  16        3S          0.08658
  17 3   H  1S          0.27630
  18        2S          0.46549
  19        3S          0.08353
  20 4   C  1S          1.10441
  21        2S          0.88584
  22        2PX         0.22228
  23        2PY         0.23602
  24        2PZ         0.16572
  25        3S          0.79244
  26        3PX         0.55244
  27        3PY         0.55663
  28        3PZ         0.42031
  29        4S          0.50700
  30        4PX         0.27443
  31        4PY         0.21648
  32        4PZ         0.41197
  33 5   H  1S          0.27220
  34        2S          0.46957
  35        3S          0.08910
  36 6   H  1S          0.27029
  37        2S          0.47061
  38        3S          0.09061
          Condensed to atoms (all electrons):
               1          2          3          4          5          6
     1  C    5.033276   0.387189   0.387922   0.601602  -0.035607  -0.035216
     2  H    0.387189   0.517611  -0.033207  -0.040626   0.006007  -0.009795
     3  H    0.387922  -0.033207   0.514278  -0.040062  -0.009529   0.005915
     4  C    0.601602  -0.040626  -0.040062   5.057647   0.383812   0.383589
     5  H   -0.035607   0.006007  -0.009529   0.383812   0.526948  -0.040766
     6  H   -0.035216  -0.009795   0.005915   0.383589  -0.040766   0.527783
 Mulliken charges:
               1
     1  C   -0.339165
     2  H    0.172821
     3  H    0.174683
     4  C   -0.345963
     5  H    0.169135
     6  H    0.168490
 Sum of Mulliken charges =  -0.00000
 Mulliken charges with hydrogens summed into heavy atoms:
               1
     1  C    0.008339
     4  C   -0.008339
 Electronic spatial extent (au):  <R**2>=             83.7397
 Charge=             -0.0000 electrons
 Dipole moment (field-independent basis, Debye):
    X=              0.0058    Y=              0.0215    Z=             -0.1439  Tot=              0.1456
 Quadrupole moment (field-independent basis, Debye-Ang):
   XX=            -12.2106   YY=            -12.2278   ZZ=            -15.6691
   XY=              0.0133   XZ=              0.0014   YZ=             -0.0044
 Traceless Quadrupole moment (field-independent basis, Debye-Ang):
   XX=              1.1585   YY=              1.1414   ZZ=             -2.2999
   XY=              0.0133   XZ=              0.0014   YZ=             -0.0044
 Octapole moment (field-independent basis, Debye-Ang**2):
  XXX=             -0.3477  YYY=             -0.0130  ZZZ=             -0.0613  XYY=              0.1968
  XXY=             -0.0432  XXZ=             -0.1861  XZZ=             -0.0857  YZZ=             -0.0775
  YYZ=             -0.2477  XYZ=             -0.0530
 Hexadecapole moment (field-independent basis, Debye-Ang**3):
 XXXX=            -34.3245 YYYY=            -55.2496 ZZZZ=            -17.8213 XXXY=             -7.2324
 XXXZ=              0.0268 YYYX=            -10.6949 YYYZ=              0.0310 ZZZX=              0.0276
 ZZZY=              0.0574 XXYY=            -16.2099 XXZZ=             -9.9313 YYZZ=            -13.6501
 XXYZ=              0.0148 YYXZ=             -0.0002 ZZXY=             -3.1983
 N-N= 3.306319116937D+01 E-N=-2.478328646045D+02  KE= 7.814721030178D+01
 Orbital energies and kinetic energies (alpha):
                                 1                 2
   1         O               -10.290298         15.977896
   2         O               -10.288497         15.980546
   3         O                -0.864031          1.540182
   4         O                -0.671740          1.269846
   5         O                -0.558949          0.940774
   6         O                -0.509572          1.283094
   7         O                -0.435838          1.041920
   8         O                -0.357155          1.039347
   9         V                 0.079800          1.181944
  10         V                 0.140750          0.590056
  11         V                 0.164228          0.596928
  12         V                 0.169899          0.680875
  13         V                 0.240846          0.584537
  14         V                 0.373802          0.850203
  15         V                 0.392699          0.932717
  16         V                 0.399259          0.782917
  17         V                 0.463640          1.191809
  18         V                 0.488237          1.421107
  19         V                 0.493579          1.301412
  20         V                 0.591132          1.654063
  21         V                 0.664959          1.569531
  22         V                 0.690039          2.147777
  23         V                 0.772598          2.489277
  24         V                 0.775310          2.247966
  25         V                 0.838605          1.081020
  26         V                 0.953194          3.431235
  27         V                 2.231776          3.925615
  28         V                 2.290147          4.029146
  29         V                 2.332392          4.301603
  30         V                 2.404439          4.509405
  31         V                 2.671443          6.301133
  32         V                 2.816594          6.302132
  33         V                 2.878913          6.140268
  34         V                 2.951238          6.227413
  35         V                 3.141255          6.821035
  36         V                 3.315919          6.403591
  37         V                23.351207         60.073863
  38         V                23.706648         60.204615
 Total kinetic energy from orbitals= 7.814721030178D+01
 Calling FoFJK, ICntrl=      2127 FMM=F ISym2X=0 I1Cent= 0 IOpClX= 0 NMat=1 NMatS=1 NMatT=0.
 -------------------------------------------------------------------
 Center     Atomic                   Forces (Hartrees/Bohr)
 Number     Number              X              Y              Z
 -------------------------------------------------------------------
      1        6           0.011206836    0.005849157   -0.005988630
      2        1          -0.010291781    0.007033928    0.002991542
      3        1           0.004751675   -0.004469808    0.002774041
      4        6           0.009291893    0.011240320   -0.006259982
      5        1           0.001903149   -0.014090688    0.003198532
      6        1          -0.016861772   -0.005562909    0.003284497
 -------------------------------------------------------------------
 Cartesian Forces:  Max     0.016861772 RMS     0.008166984

 GradGradGradGradGradGradGradGradGradGradGradGradGradGradGradGradGradGrad
 Berny optimization.
 Search for a local minimum.
 Step number   1 out of a maximum of    2
 All quantities printed in internal units (Hartrees-Bohrs-Radians)
 Second derivative matrix not updated -- first step.
 The second derivative matrix:
                          X1        Y1        Z1        X2        Y2
           X1           0.75506
           Y1           0.10015   0.85663
           Z1           0.00845   0.01275   0.17114
           X2          -0.16381   0.09575   0.00303   0.14141
           Y2           0.10156  -0.27995  -0.01077  -0.11475   0.26888
           Z2           0.00481  -0.01357  -0.05483  -0.00436   0.01115
           X3          -0.34834  -0.00162  -0.01189  -0.00032  -0.00017
           Y3          -0.00741  -0.10952  -0.00289   0.03213   0.01879
           Z3          -0.01523  -0.00280  -0.05632   0.00221   0.00083
           X4          -0.26805  -0.17975  -0.00106   0.02276   0.01335
           Y4          -0.17986  -0.47550  -0.00168  -0.01314  -0.00771
           Z4           0.00194   0.00356  -0.09432  -0.00088  -0.00121
           X5           0.02354  -0.01359   0.00091  -0.00001   0.00001
           Y5           0.01162  -0.00671   0.00125   0.00001  -0.00000
           Z5          -0.00078   0.00049   0.01755   0.00037  -0.00019
           X6           0.00162  -0.00093   0.00056  -0.00001   0.00001
           Y6          -0.02605   0.01505   0.00136   0.00001  -0.00000
           Z6           0.00081  -0.00043   0.01677  -0.00037   0.00019
                          Z2        X3        Y3        Z3        X4
           Z2           0.02873
           X3          -0.00044   0.34848
           Y3           0.00238   0.00191   0.07536
           Z3           0.01047   0.01298   0.00195   0.02968
           X4           0.00073   0.00022  -0.02664  -0.00071   0.71254
           Y4          -0.00039  -0.00013   0.01538   0.00045   0.12311
           Z4           0.01557  -0.00065  -0.00144   0.01624  -0.00749
           X5          -0.00037  -0.00002   0.00001   0.00038  -0.14528
           Y5           0.00024   0.00001  -0.00001  -0.00024   0.09159
           Z5           0.00927   0.00039  -0.00024  -0.00945  -0.00454
           X6          -0.00036  -0.00002   0.00001   0.00037  -0.32219
           Y6           0.00019   0.00001  -0.00001  -0.00019  -0.02166
           Z6          -0.00921  -0.00038   0.00024   0.00938   0.01306
                          Y4        Z4        X5        Y5        Z5
           Y4           0.86091
           Z4          -0.01458   0.17696
           X5           0.08329  -0.00301   0.12383
           Y5          -0.28876   0.01088  -0.10223   0.27946
           Z5           0.01345  -0.05767   0.00405  -0.01161   0.03009
           X6          -0.01327   0.01007  -0.00206  -0.00099   0.00051
           Y6          -0.10432   0.00279   0.03252   0.01602  -0.00189
           Z6           0.00276  -0.05677  -0.00197  -0.00051   0.01019
                          X6        Y6        Z6
           X6           0.32266
           Y6           0.01518   0.07327
           Z6          -0.01115  -0.00225   0.02964
 ITU=  0
     Eigenvalues ---    0.03739   0.04367   0.09030   0.10204   0.13501
     Eigenvalues ---    0.17375   0.26372   0.28916   0.52669   0.69680
     Eigenvalues ---    0.96934   1.56642
 Angle between quadratic step and forces=  36.31 degrees.
 Linear search not attempted -- first point.
 B after Tr=     0.006600    0.007147   -0.014815
         Rot=    1.000000   -0.000075    0.000043   -0.000107 Ang=  -0.02 deg.
 Variable       Old X    -DE/DX   Delta X   Delta X   Delta X     New X
                                 (Linear)    (Quad)   (Total)
    X1       -0.63448   0.01121   0.00000   0.01990   0.02673  -0.60775
    Y1       -1.09762   0.00585   0.00000   0.02128   0.02830  -1.06932
    Z1        0.01734  -0.00599   0.00000  -0.03169  -0.04672  -0.02937
    X2        0.41849  -0.01029   0.00000  -0.04291  -0.03570   0.38279
    Y2       -2.88805   0.00703   0.00000   0.02045   0.02768  -2.86037
    Z2       -0.06237   0.00299   0.00000   0.03879   0.02358  -0.03879
    X3       -2.69107   0.00475   0.00000   0.03119   0.03803  -2.65303
    Y3       -1.11255  -0.00447   0.00000  -0.01708  -0.01050  -1.12304
    Z3       -0.06637   0.00277   0.00000   0.03790   0.02269  -0.04368
    X4        0.62878   0.00929   0.00000   0.00741   0.01377   0.64255
    Y4        1.08994   0.01124   0.00000   0.00833   0.01562   1.10556
    Z4        0.01246  -0.00626   0.00000  -0.02961  -0.04421  -0.03175
    X5       -0.29779   0.00190   0.00000  -0.01400  -0.00803  -0.30582
    Y5        2.96077  -0.01409   0.00000  -0.04515  -0.03807   2.92270
    Z5       -0.07230   0.00320   0.00000   0.03726   0.02285  -0.04945
    X6        2.72453  -0.01686   0.00000  -0.04117  -0.03482   2.68971
    Y6        1.21754  -0.00556   0.00000  -0.03076  -0.02303   1.19451
    Z6       -0.06788   0.00328   0.00000   0.03622   0.02181  -0.04607
         Item               Value     Threshold  Converged?
 Maximum Force            0.016862     0.000450     NO 
 RMS     Force            0.008167     0.000300     NO 
 Maximum Displacement     0.046720     0.001800     NO 
 RMS     Displacement     0.028875     0.001200     NO 
 Predicted change in Energy=-1.814595D-03
 GradGradGradGradGradGradGradGradGradGradGradGradGradGradGradGradGradGrad

 Unable to Open any file for archive entry.
 1\1\GINC-BHD0002\Force\RwB97XD\6-311G\C2H4\BWEIGHT\11-Jan-2023\0\\# WB
 97XD/6-311G SCF=XQC FORCE nosym pop=full guess=read\\MD Step 999\\0,1\
 C,-0.3357528,-0.58083586,0.00917851\H,0.22145312,-1.52828805,-0.033003
 37\H,-1.42405224,-0.58873454,-0.03511951\C,0.33273694,0.57677363,0.006
 59474\H,-0.15758306,1.5667729,-0.03826011\H,1.44176066,0.64429226,-0.0
 3592131\\Version=ES64L-G16RevC.01\HF=-78.5554412\RMSD=7.636e-09\RMSF=8
 .167e-03\Dipole=0.0022853,0.0084739,-0.056625\Quadrupole=0.8613425,0.8
 485904,-1.7099329,0.009877,0.0010364,-0.0032545\PG=C01 [X(C2H4)]\\@
 The archive entry for this job was punched.


 MEN HAVE BECOME THE TOOLS OF THEIR TOOLS... THOREAU   
 Job cpu time:       0 days  0 hours  0 minutes 39.5 seconds.
 Elapsed time:       0 days  0 hours  0 minutes 13.4 seconds.
 File lengths (MBytes):  RWF=    272 Int=      0 D2E=      0 Chk=     32 Scr=     32
 Normal termination of Gaussian 16 at Wed Jan 11 18:43:45 2023.
