6
MD Step 0
C  -0.33763715 -0.58748864 0.00000000
H  0.19552659 -1.51519357 0.00000000
H  -1.40763715 -0.58748864 0.00000000
C  0.33763715 0.58748865 0.00000000
H  -0.19552659 1.51519357 0.00000000
H  1.40763715 0.58748865 0.00000000
6
MD Step 1
C  -0.33800520 -0.58783610 -0.00039424
H  0.19788613 -1.51299044 0.00234995
H  -1.40542174 -0.58520412 0.00234742
C  0.33721685 0.58704700 -0.00039407
H  -0.19318979 1.51768756 0.00234939
H  1.41011942 0.58990989 0.00234685
6
MD Step 2
C  -0.33831053 -0.58808038 -0.00078195
H  0.20022994 -1.51113487 0.00466093
H  -1.40356532 -0.58310754 0.00465595
C  0.33675560 0.58652009 -0.00078158
H  -0.19090820 1.52041022 0.00465968
H  1.41277218 0.59242466 0.00465452
6
MD Step 3
C  -0.33855359 -0.58822459 -0.00116696
H  0.20257961 -1.50961393 0.00695572
H  -1.40208849 -0.58118283 0.00694865
C  0.33625455 0.58590804 -0.00116628
H  -0.18865164 1.52335465 0.00695333
H  1.41555599 0.59504610 0.00694520
6
MD Step 4
C  -0.33873423 -0.58827154 -0.00155172
H  0.20494518 -1.50841567 0.00924886
H  -1.40101041 -0.57942122 0.00924047
C  0.33571651 0.58521334 -0.00155050
H  -0.18639607 1.52650033 0.00924431
H  1.41842056 0.59777819 0.00923248
6
MD Step 5
C  -0.33884997 -0.58822202 -0.00193555
H  0.20731473 -1.50753985 0.01153607
H  -1.40035858 -0.57783177 0.01152772
C  0.33514763 0.58444249 -0.00193338
H  -0.18413455 1.52980337 0.01152761
H  1.42129554 0.60060521 0.01151088
6
MD Step 6
C  -0.33889579 -0.58807437 -0.00231427
H  0.20965242 -1.50700020 0.01379221
H  -1.40016995 -0.57644344 0.01378594
C  0.33455769 0.58360631 -0.00231053
H  -0.18187979 1.53319536 0.01377722
H  1.42409021 0.60348979 0.01375379
6
MD Step 7
C  -0.33886699 -0.58782729 -0.00268297
H  0.21191552 -1.50680788 0.01598797
H  -1.40047312 -0.57528825 0.01598661
C  0.33395708 0.58271694 -0.00267685
H  -0.17964796 1.53660138 0.01596283
H  1.42671221 0.60638982 0.01593030
6
MD Step 8
C  -0.33877003 -0.58749053 -0.00304679
H  0.21411858 -1.50690799 0.01815376
H  -1.40122373 -0.57433735 0.01816081
C  0.33334601 0.58177701 -0.00303725
H  -0.17739536 1.54000521 0.01811381
H  1.42913330 0.60932260 0.01806923
6
MD Step 9
C  -0.33860134 -0.58706364 -0.00339977
H  0.21620829 -1.50730624 0.02025399
H  -1.40243132 -0.57362672 0.02027373
C  0.33273558 0.58080061 -0.00338560
H  -0.17514454 1.54332435 0.02019354
H  1.43126415 0.61223907 0.02013336
6
MD Step 10
C  -0.33836797 -0.58655659 -0.00374550
H  0.21818676 -1.50794673 0.02230990
H  -1.40403650 -0.57313431 0.02234711
C  0.33212706 0.57979258 -0.00372526
H  -0.17286207 1.54653417 0.02222222
H  1.43307874 0.61514697 0.02214253
6
MD Step 11
C  -0.33807229 -0.58597438 -0.00408187
H  0.22002167 -1.50880350 0.02430910
H  -1.40600316 -0.57287048 0.02436900
C  0.33152703 0.57876354 -0.00405403
H  -0.17054929 1.54957824 0.02418655
H  1.43452428 0.61802038 0.02408302
6
MD Step 12
C  -0.33772215 -0.58532724 -0.00441140
H  0.22170772 -1.50982051 0.02626649
H  -1.40825881 -0.57281707 0.02635444
C  0.33093719 0.57771956 -0.00437427
H  -0.16818188 1.55243011 0.02610052
H  1.43558283 0.62086079 0.02596876
6
MD Step 13
C  -0.33732330 -0.58462303 -0.00473370
H  0.22322305 -1.51095695 0.02818007
H  -1.41074088 -0.57297163 0.02830142
C  0.33036166 0.57666952 -0.00468554
H  -0.16575430 1.55504983 0.02796142
H  1.43622729 0.62365298 0.02779694
6
MD Step 14
C  -0.33688235 -0.58387022 -0.00504862
H  0.22454802 -1.51216992 0.03004920
H  -1.41338028 -0.57332911 0.03020907
C  0.32980399 0.57562191 -0.00498767
H  -0.16326183 1.55740284 0.02976800
H  1.43643997 0.62638335 0.02956643
6
MD Step 15
C  -0.33640545 -0.58307661 -0.00535507
H  0.22565888 -1.51342226 0.03186773
H  -1.41611023 -0.57388879 0.03207082
C  0.32926827 0.57458588 -0.00527960
H  -0.16070768 1.55945371 0.03151366
H  1.43620589 0.62903315 0.03127085
6
MD Step 16
C  -0.33589419 -0.58224520 -0.00564695
H  0.22650428 -1.51470729 0.03360000
H  -1.41889191 -0.57467811 0.03385093
C  0.32876307 0.57357519 -0.00555544
H  -0.15812692 1.56114278 0.03316274
H  1.43548913 0.63155469 0.03287439
6
MD Step 17
C  -0.33535974 -0.58138839 -0.00592760
H  0.22709090 -1.51596419 0.03526634
H  -1.42163040 -0.57566760 0.03556856
C  0.32828714 0.57259377 -0.00581861
H  -0.15550175 1.56247195 0.03473530
H  1.43431849 0.63395681 0.03439794
6
MD Step 18
C  -0.33481331 -0.58051852 -0.00620036
H  0.22742780 -1.51713490 0.03688690
H  -1.42423286 -0.57682689 0.03724244
C  0.32783878 0.57164510 -0.00607248
H  -0.15281734 1.56344887 0.03625139
H  1.43273107 0.63624887 0.03586268
6
MD Step 19
C  -0.33425638 -0.57963797 -0.00645868
H  0.22746900 -1.51822258 0.03842375
H  -1.42666815 -0.57818241 0.03883424
C  0.32742561 0.57074178 -0.00631092
H  -0.15011938 1.56402929 0.03767366
H  1.43071411 0.63838290 0.03723132
6
MD Step 20
C  -0.33369227 -0.57875088 -0.00669806
H  0.22718365 -1.51922199 0.03985106
H  -1.42889758 -0.57974756 0.04031754
C  0.32705273 0.56989375 -0.00652988
H  -0.14744434 1.56418741 0.03897698
H  1.42827521 0.64032391 0.03847902
6
MD Step 21
C  -0.33312815 -0.57786512 -0.00691811
H  0.22656826 -1.52010778 0.04116720
H  -1.43086364 -0.58151077 0.04168954
C  0.32672067 0.56910618 -0.00672930
H  -0.14480742 1.56392817 0.04016041
H  1.42545444 0.64206208 0.03960577
6
MD Step 22
C  -0.33257578 -0.57699312 -0.00712357
H  0.22565254 -1.52082922 0.04240063
H  -1.43248530 -0.58342989 0.04297648
C  0.32642441 0.56837848 -0.00691402
H  -0.14219686 1.56329290 0.04125285
H  1.42232952 0.64361856 0.04064239
6
MD Step 23
C  -0.33203932 -0.57613957 -0.00731180
H  0.22442641 -1.52138364 0.04353635
H  -1.43373243 -0.58550525 0.04416241
C  0.32616576 0.56771651 -0.00708185
H  -0.13964639 1.56228599 0.04224046
H  1.41894188 0.64497223 0.04157586
6
MD Step 24
C  -0.33151941 -0.57530552 -0.00747703
H  0.22286543 -1.52179124 0.04454153
H  -1.43460087 -0.58775437 0.04521426
C  0.32594908 0.56712831 -0.00722777
H  -0.13720980 1.56090019 0.04309192
H  1.41532144 0.64608522 0.04237509
6
MD Step 25
C  -0.33101882 -0.57449408 -0.00761621
H  0.22096423 -1.52206154 0.04539905
H  -1.43507894 -0.59017862 0.04611445
C  0.32577566 0.56661843 -0.00734937
H  -0.13492736 1.55914997 0.04379172
H  1.41151979 0.64693662 0.04302507
6
MD Step 26
C  -0.33055334 -0.57372148 -0.00774055
H  0.21880274 -1.52212724 0.04617434
H  -1.43508145 -0.59269741 0.04692461
C  0.32563250 0.56617689 -0.00745747
H  -0.13275979 1.55713743 0.04440575
H  1.40767542 0.64758882 0.04359542
6
MD Step 27
C  -0.33011836 -0.57298329 -0.00784068
H  0.21634568 -1.52204475 0.04681366
H  -1.43465126 -0.59534799 0.04759204
C  0.32552633 0.56581270 -0.00754381
H  -0.13078705 1.55485107 0.04488253
H  1.40381147 0.64798662 0.04403388
6
MD Step 28
C  -0.32971684 -0.57228267 -0.00791584
H  0.21361029 -1.52182611 0.04731305
H  -1.43379085 -0.59811826 0.04811212
C  0.32545526 0.56552585 -0.00760813
H  -0.12904102 1.55233328 0.04521975
H  1.40000270 0.64812554 0.04433908
6
MD Step 29
C  -0.32935600 -0.57162710 -0.00797053
H  0.21064672 -1.52145815 0.04769883
H  -1.43248179 -0.60096619 0.04850922
C  0.32541214 0.56531056 -0.00765495
H  -0.12752441 1.54966018 0.04544500
H  1.39635461 0.64803226 0.04454071
6
MD Step 30
C  -0.32903542 -0.57101631 -0.00800201
H  0.20746619 -1.52097402 0.04795546
H  -1.43075656 -0.60389140 0.04876797
C  0.32539680 0.56516735 -0.00768218
H  -0.12628147 1.54686899 0.04554462
H  1.39292974 0.64769281 0.04462525
6
MD Step 31
C  -0.32876187 -0.57045737 -0.00801597
H  0.20413019 -1.52036328 0.04811567
H  -1.42860888 -0.60684602 0.04891922
C  0.32540099 0.56508820 -0.00769531
H  -0.12530838 1.54404647 0.04555251
H  1.38983533 0.64714210 0.04462870
6
MD Step 32
C  -0.32853360 -0.56994879 -0.00800995
H  0.20065580 -1.51966603 0.04816543
H  -1.42608815 -0.60982899 0.04894946
C  0.32542454 0.56507239 -0.00769240
H  -0.12464649 1.54123323 0.04545633
H  1.38712655 0.64636922 0.04453848
6
MD Step 33
C  -0.32835209 -0.56949246 -0.00798575
H  0.19708584 -1.51890184 0.04811491
H  -1.42322847 -0.61281580 0.04886851
C  0.32546347 0.56511487 -0.00767531
H  -0.12431158 1.53849308 0.04526756
H  1.38487515 0.64538799 0.04436660
6
MD Step 34
C  -0.32821698 -0.56908854 -0.00794407
H  0.19345803 -1.51809956 0.04796794
H  -1.42007852 -0.61578897 0.04868030
C  0.32551531 0.56521148 -0.00764480
H  -0.12432342 1.53588125 0.04499116
H  1.38313710 0.64420643 0.04411807
6
MD Step 35
C  -0.32812006 -0.56872950 -0.00787811
H  0.18976846 -1.51733278 0.04768563
H  -1.41673708 -0.61877417 0.04834834
C  0.32558523 0.56536507 -0.00759488
H  -0.12474106 1.53340700 0.04458950
H  1.38191479 0.64279052 0.04375310
6
MD Step 36
C  -0.32806090 -0.56841581 -0.00778997
H  0.18606397 -1.51662578 0.04727982
H  -1.41325838 -0.62174734 0.04788488
C  0.32567040 0.56557007 -0.00752751
H  -0.12556972 1.53112566 0.04407506
H  1.38124947 0.64115738 0.04328376
6
MD Step 37
C  -0.32804451 -0.56815360 -0.00768826
H  0.18242716 -1.51596721 0.04679836
H  -1.40966569 -0.62464915 0.04733673
C  0.32576249 0.56581496 -0.00745021
H  -0.12677444 1.52912293 0.04349604
H  1.38120554 0.63936075 0.04275924
6
MD Step 38
C  -0.32805522 -0.56792857 -0.00756024
H  0.17882030 -1.51546526 0.04616916
H  -1.40610651 -0.62754090 0.04663612
C  0.32587395 0.56610865 -0.00735156
H  -0.12843492 1.52735752 0.04278062
H  1.38171318 0.63733494 0.04210355
6
MD Step 39
C  -0.32809456 -0.56774385 -0.00741185
H  0.17530915 -1.51512146 0.04542520
H  -1.40262503 -0.63037954 0.04581627
C  0.32600009 0.56644267 -0.00723669
H  -0.13052091 1.52588583 0.04196168
H  1.38279458 0.63512002 0.04134931
6
MD Step 40
C  -0.32816546 -0.56760418 -0.00725092
H  0.17196785 -1.51492461 0.04460960
H  -1.39925577 -0.63311251 0.04492032
C  0.32613504 0.56680727 -0.00711222
H  -0.13298633 1.52476617 0.04108222
H  1.38446880 0.63276697 0.04053942
6
MD Step 41
C  -0.32826044 -0.56750417 -0.00707455
H  0.16880816 -1.51492066 0.04370541
H  -1.39609291 -0.63574823 0.04393369
C  0.32628352 0.56720324 -0.00697526
H  -0.13583929 1.52398752 0.04012467
H  1.38668109 0.63026725 0.03965412
6
MD Step 42
C  -0.32837285 -0.56743945 -0.00688085
H  0.16584465 -1.51514582 0.04270140
H  -1.39322228 -0.63829022 0.04284727
C  0.32644970 0.56763095 -0.00682380
H  -0.13907638 1.52353540 0.03907692
H  1.38937030 0.62761870 0.03867932
6
MD Step 43
C  -0.32849879 -0.56740856 -0.00667084
H  0.16310494 -1.51561500 0.04160267
H  -1.39070839 -0.64072613 0.04166777
C  0.32663525 0.56808846 -0.00665839
H  -0.14267201 1.52340292 0.03794318
H  1.39248150 0.62483645 0.03761784
6
MD Step 44
C  -0.32863722 -0.56741290 -0.00644841
H  0.16062870 -1.51632175 0.04043003
H  -1.38859314 -0.64302827 0.04041707
C  0.32683935 0.56857160 -0.00648205
H  -0.14657921 1.52359058 0.03674356
H  1.39596709 0.62195227 0.03648900
6
MD Step 45
C  -0.32877744 -0.56744438 -0.00620697
H  0.15839334 -1.51731220 0.03914633
H  -1.38696860 -0.64522805 0.03906036
C  0.32707098 0.56908647 -0.00628862
H  -0.15080447 1.52403253 0.03543922
H  1.39971395 0.61894056 0.03525193
6
MD Step 46
C  -0.32891652 -0.56750250 -0.00594765
H  0.15641505 -1.51858274 0.03775731
H  -1.38587289 -0.64731382 0.03760447
C  0.32733177 0.56963218 -0.00607878
H  -0.15530646 1.52469955 0.03403492
H  1.40364817 0.61581977 0.03391061
6
MD Step 47
C  -0.32905061 -0.56758568 -0.00567001
H  0.15469704 -1.52013178 0.03626028
H  -1.38534068 -0.64928279 0.03604770
C  0.32762457 0.57020950 -0.00585189
H  -0.16004867 1.52554825 0.03252682
H  1.40768502 0.61260081 0.03246051
6
MD Step 48
C  -0.32918403 -0.56770012 -0.00538148
H  0.15328215 -1.52190687 0.03469633
H  -1.38534922 -0.65108775 0.03443119
C  0.32794452 0.57081187 -0.00561436
H  -0.16494695 1.52657528 0.03095615
H  1.41178402 0.60933962 0.03094307
6
MD Step 49
C  -0.32931425 -0.56784499 -0.00508167
H  0.15216507 -1.52389366 0.03306311
H  -1.38590692 -0.65272602 0.03275298
C  0.32829374 0.57144023 -0.00536567
H  -0.16995896 1.52772975 0.02931979
H  1.41586124 0.60604890 0.02935491
6
MD Step 50
C  -0.32943668 -0.56801705 -0.00476730
H  0.15132029 -1.52608843 0.03134241
H  -1.38702535 -0.65421144 0.03099518
C  0.32867662 0.57209823 -0.00510281
H  -0.17505707 1.52894250 0.02759844
H  1.41981899 0.60272585 0.02767654
6
MD Step 51
C  -0.32955219 -0.56821806 -0.00444010
H  0.15074652 -1.52845409 0.02954413
H  -1.38867462 -0.65552961 0.02916739
C  0.32909234 0.57278463 -0.00482735
H  -0.18018452 1.53017203 0.02580177
H  1.42359229 0.59939633 0.02591790
6
MD Step 52
C  -0.32966584 -0.56845337 -0.00410544
H  0.15045926 -1.53092884 0.02769836
H  -1.39079219 -0.65664590 0.02729907
C  0.32953617 0.57349449 -0.00454410
H  -0.18526404 1.53139775 0.02396055
H  1.42714205 0.59610686 0.02411027
6
MD Step 53
C  -0.32977358 -0.56871898 -0.00375872
H  0.15041473 -1.53350414 0.02577977
H  -1.39336142 -0.65758298 0.02536442
C  0.33001227 0.57423218 -0.00424901
H  -0.19027596 1.53254391 0.02204845
H  1.43037845 0.59284780 0.02222762
6
MD Step 54
C  -0.32987652 -0.56901549 -0.00340010
H  0.15059351 -1.53614175 0.02379002
H  -1.39632884 -0.65833674 0.02336433
C  0.33051969 0.57499712 -0.00394239
H  -0.19517488 1.53356457 0.02006705
H  1.43324624 0.58963661 0.02027203
6
MD Step 55
C  -0.32998350 -0.56935055 -0.00303745
H  0.15101661 -1.53875888 0.02177314
H  -1.39959010 -0.65886050 0.02134188
C  0.33104985 0.57578104 -0.00363143
H  -0.19987437 1.53446026 0.01806185
H  1.43574123 0.58653324 0.01828968
6
MD Step 56
C  -0.33009014 -0.56971851 -0.00266463
H  0.15162471 -1.54135150 0.01969556
H  -1.40311447 -0.65918812 0.01926269
C  0.33160679 0.57658865 -0.00331076
H  -0.20437035 1.53515623 0.01599822
H  1.43778766 0.58351853 0.01624643
6
MD Step 57
C  -0.33019686 -0.57011797 -0.00228035
H  0.15238433 -1.54388867 0.01755068
H  -1.40683974 -0.65932703 0.01711931
C  0.33218949 0.57741956 -0.00297940
H  -0.20863469 1.53560987 0.01386940
H  1.43934594 0.58059988 0.01413604
6
MD Step 58
C  -0.33030680 -0.57054982 -0.00188604
H  0.15327627 -1.54632533 0.01534699
H  -1.41068594 -0.65927045 0.01491939
C  0.33279392 0.57827030 -0.00263882
H  -0.21262781 1.53579918 0.01168417
H  1.44040093 0.57779918 0.01196785
6
MD Step 59
C  -0.33042422 -0.57101572 -0.00148435
H  0.15428785 -1.54861147 0.01309993
H  -1.41456548 -0.65900582 0.01267768
C  0.33341441 0.57913571 -0.00229159
H  -0.21630733 1.53571487 0.00945846
H  1.44095380 0.57514438 0.00975823
6
MD Step 60
C  -0.33055409 -0.57151769 -0.00107882
H  0.15541125 -1.55069503 0.01082979
H  -1.41838717 -0.65851709 0.01041385
C  0.33404408 0.58000931 -0.00194107
H  -0.21963054 1.53535847 0.00721313
H  1.44101966 0.57266728 0.00752842
6
MD Step 61
C  -0.33069672 -0.57205297 -0.00066846
H  0.15661346 -1.55255334 0.00853146
H  -1.42208873 -0.65781568 0.00812233
C  0.33467994 0.58088851 -0.00158647
H  -0.22258547 1.53471167 0.00494279
H  1.44059657 0.57037276 0.00527333
6
MD Step 62
C  -0.33085104 -0.57261723 -0.00025120
H  0.15785605 -1.55417402 0.00619374
H  -1.42561833 -0.65692080 0.00579158
C  0.33531968 0.58177131 -0.00122600
H  -0.22517138 1.53375621 0.00263562
H  1.43968515 0.56825827 0.00298137
6
MD Step 63
C  -0.33102206 -0.57321191 0.00016843
H  0.15913925 -1.55551133 0.00384258
H  -1.42889152 -0.65581516 0.00344739
C  0.33595443 0.58264886 -0.00086387
H  -0.22735473 1.53251796 0.00031799
H  1.43833274 0.56635751 0.00067894
6
MD Step 64
C  -0.33120951 -0.57383312 0.00059087
H  0.16043622 -1.55655304 0.00147571
H  -1.43185886 -0.65451180 0.00108745
C  0.33657979 0.58351673 -0.00049968
H  -0.22913596 1.53100039 -0.00201298
H  1.43656617 0.56467419 -0.00163686
6
MD Step 65
C  -0.33141746 -0.57448116 0.00101167
H  0.16174996 -1.55726371 -0.00088129
H  -1.43444970 -0.65299672 -0.00126253
C  0.33718645 0.58436534 -0.00013755
H  -0.23049225 1.52924150 -0.00433165
H  1.43444851 0.56323878 -0.00394056
6
MD Step 66
C  -0.33164579 -0.57515215 0.00143015
H  0.16306356 -1.55763524 -0.00322453
H  -1.43662330 -0.65127942 -0.00359845
C  0.33776863 0.58518847 0.00022199
H  -0.23142797 1.52726327 -0.00663477
H  1.43202777 0.56205832 -0.00622921
6
MD Step 67
C  -0.33188713 -0.57583498 0.00185261
H  0.16432238 -1.55770497 -0.00558968
H  -1.43838722 -0.64941084 -0.00595575
C  0.33832714 0.58598635 0.00058493
H  -0.23199270 1.52505335 -0.00895977
H  1.42931813 0.56109845 -0.00854050
6
MD Step 68
C  -0.33214156 -0.57652597 0.00227722
H  0.16552059 -1.55746860 -0.00796627
H  -1.43971031 -0.64739605 -0.00832358
C  0.33885495 0.58675109 0.00094970
H  -0.23219394 1.52265187 -0.01129698
H  1.42638672 0.56036997 -0.01086526
6
MD Step 69
C  -0.33241570 -0.57722784 0.00269512
H  0.16669540 -1.55688603 -0.01030342
H  -1.44052882 -0.64519993 -0.01065041
C  0.33933827 0.58746764 0.00130813
H  -0.23200273 1.52014514 -0.01359560
H  1.42334669 0.55992299 -0.01315342
6
MD Step 70
C  -0.33270353 -0.57793095 0.00310981
H  0.16781501 -1.55599419 -0.01262130
H  -1.44085981 -0.64286038 -0.01295601
C  0.33977544 0.58813300 0.00166378
H  -0.23146646 1.51755206 -0.01587753
H  1.42024217 0.55973463 -0.01542744
6
MD Step 71
C  -0.33300539 -0.57863209 0.00351790
H  0.16889012 -1.55479472 -0.01490036
H  -1.44068901 -0.64037571 -0.01522023
C  0.34015840 0.58873731 0.00201368
H  -0.23059602 1.51493566 -0.01812429
H  1.41715946 0.55982065 -0.01766959
6
MD Step 72
C  -0.33331526 -0.57932190 0.00392203
H  0.16989889 -1.55332904 -0.01715594
H  -1.44004610 -0.63778008 -0.01745800
C  0.34048530 0.58927670 0.00236064
H  -0.22944094 1.51232689 -0.02035300
H  1.41414980 0.56016049 -0.01989753
6
MD Step 73
C  -0.33363707 -0.58000107 0.00431444
H  0.17088275 -1.55158167 -0.01934287
H  -1.43890819 -0.63504681 -0.01962333
C  0.34074458 0.58973712 0.00269742
H  -0.22799222 1.50982019 -0.02251933
H  1.41132439 0.56079326 -0.02206793
6
MD Step 74
C  -0.33395910 -0.58065509 0.00470269
H  0.17179555 -1.54963137 -0.02150550
H  -1.43735135 -0.63224007 -0.02176061
C  0.34094036 0.59011997 0.00303174
H  -0.22633341 1.50742075 -0.02466997
H  1.40870032 0.56166697 -0.02422756
6
MD Step 75
C  -0.33428091 -0.58128092 0.00508274
H  0.17266170 -1.54749141 -0.02362018
H  -1.43539072 -0.62935529 -0.02384562
C  0.34106595 0.59041542 0.00335992
H  -0.22448058 1.50520271 -0.02678250
H  1.40635886 0.56279705 -0.02635463
6
MD Step 76
C  -0.33459884 -0.58187266 0.00545351
H  0.17349012 -1.54519531 -0.02568064
H  -1.43306645 -0.62640544 -0.02587184
C  0.34111839 0.59061706 0.00368119
H  -0.22246784 1.50322158 -0.02885216
H  1.40435707 0.56418060 -0.02844469
6
MD Step 77
C  -0.33490435 -0.58241997 0.00581851
H  0.17426423 -1.54280593 -0.02770774
H  -1.43045288 -0.62343068 -0.02786049
C  0.34110008 0.59072365 0.00399934
H  -0.22035624 1.50150318 -0.03090159
H  1.40271639 0.56578665 -0.03051995
6
MD Step 78
C  -0.33519976 -0.58292376 0.00617036
H  0.17503406 -1.54032200 -0.02965741
H  -1.42756480 -0.62040529 -0.02976688
C  0.34100340 0.59072362 0.00430708
H  -0.21814009 1.50013515 -0.03288750
H  1.40151447 0.56764874 -0.03253765
6
MD Step 79
C  -0.33547802 -0.58337608 0.00651075
H  0.17579635 -1.53779758 -0.03153978
H  -1.42447709 -0.61735787 -0.03160171
C  0.34083079 0.59061547 0.00460630
H  -0.21586614 1.49914538 -0.03482127
H  1.40076311 0.56974527 -0.03450837
6
MD Step 80
C  -0.33574152 -0.58377886 0.00683213
H  0.17660480 -1.53523029 -0.03330889
H  -1.42121269 -0.61426000 -0.03331850
C  0.34057625 0.59038914 0.00488917
H  -0.21352164 1.49861179 -0.03665726
H  1.40051876 0.57211023 -0.03638676
6
MD Step 81
C  -0.33597964 -0.58412166 0.00713956
H  0.17743710 -1.53269388 -0.03499501
H  -1.41787508 -0.61115959 -0.03494892
C  0.34024756 0.59004859 0.00516088
H  -0.21116673 1.49852778 -0.03842644
H  1.40074800 0.57470031 -0.03820200
6
MD Step 82
C  -0.33617693 -0.58438977 0.00744274
H  0.17824185 -1.53028960 -0.03665726
H  -1.41459875 -0.60813301 -0.03655498
C  0.33985829 0.58960384 0.00543163
H  -0.20888622 1.49884907 -0.04018855
H  1.40137596 0.57744249 -0.04001061
6
MD Step 83
C  -0.33633618 -0.58458704 0.00773403
H  0.17907342 -1.52800913 -0.03824853
H  -1.41141069 -0.60514883 -0.03808943
C  0.33940488 0.58904820 0.00569309
H  -0.20665335 1.49962910 -0.04189561
H  1.40242395 0.58036958 -0.04176442
6
MD Step 84
C  -0.33645259 -0.58471026 0.00801344
H  0.17993830 -1.52588791 -0.03976840
H  -1.40838315 -0.60222184 -0.03955332
C  0.33889238 0.58838418 0.00594493
H  -0.20448325 1.50086453 -0.04354632
H  1.40385552 0.58346672 -0.04346039
6
MD Step 85
C  -0.33652407 -0.58475931 0.00827877
H  0.18085532 -1.52394364 -0.04120263
H  -1.40557121 -0.59935224 -0.04093348
C  0.33832413 0.58761330 0.00618433
H  -0.20237209 1.50255580 -0.04512498
H  1.40563841 0.58673193 -0.04508158
6
MD Step 86
C  -0.33654317 -0.58472911 0.00853333
H  0.18180667 -1.52222456 -0.04257169
H  -1.40305990 -0.59657437 -0.04225299
C  0.33770985 0.58674431 0.00641454
H  -0.20034591 1.50465840 -0.04665040
H  1.40769696 0.59012743 -0.04664409
6
MD Step 87
C  -0.33651263 -0.58462495 0.00877155
H  0.18282874 -1.52071738 -0.04383968
H  -1.40087079 -0.59386524 -0.04347608
C  0.33705022 0.58577776 0.00662867
H  -0.19836953 1.50717487 -0.04808418
H  1.41000558 0.59367092 -0.04810949
6
MD Step 88
C  -0.33641991 -0.58443712 0.00900270
H  0.18386082 -1.51949862 -0.04506533
H  -1.39911233 -0.59129617 -0.04466597
C  0.33636214 0.58473141 0.00683678
H  -0.19649844 1.51000385 -0.04948266
H  1.41243839 0.59728419 -0.04952978
6
MD Step 89
C  -0.33627119 -0.58417461 0.00921949
H  0.18494515 -1.51853308 -0.04620167
H  -1.39777657 -0.58883179 -0.04577518
C  0.33564493 0.58360636 0.00702992
H  -0.19467885 1.51314221 -0.05079578
H  1.41497286 0.60099391 -0.05085572
6
MD Step 90
C  -0.33606462 -0.58383843 0.00942287
H  0.18606816 -1.51783324 -0.04725483
H  -1.39689789 -0.58648934 -0.04681171
C  0.33490696 0.58241371 0.00720866
H  -0.19290728 1.51652693 -0.05202650
H  1.41753171 0.60477260 -0.05208880
6
MD Step 91
C  -0.33580538 -0.58343654 0.00960827
H  0.18724976 -1.51736981 -0.04819469
H  -1.39646284 -0.58424928 -0.04774513
C  0.33415057 0.58115937 0.00736699
H  -0.19114211 1.52012582 -0.05314144
H  1.42007400 0.60862808 -0.05319643
6
MD Step 92
C  -0.33548934 -0.58296743 0.00978044
H  0.18844608 -1.51716974 -0.04905255
H  -1.39650777 -0.58215289 -0.04860932
C  0.33338835 0.57986030 0.00751010
H  -0.18940162 1.52384133 -0.05416845
H  1.42249877 0.61250599 -0.05420427
6
MD Step 93
C  -0.33512091 -0.58243796 0.00993725
H  0.18965563 -1.51721006 -0.04981474
H  -1.39701192 -0.58019606 -0.04939061
C  0.33262528 0.57852654 0.00763503
H  -0.18765895 1.52761846 -0.05509062
H  1.42475317 0.61639621 -0.05509588
6
MD Step 94
C  -0.33470426 -0.58185450 0.01007764
H  0.19086788 -1.51747018 -0.05047464
H  -1.39794990 -0.57838114 -0.05008233
C  0.33186731 0.57716971 0.00774013
H  -0.18589450 1.53139431 -0.05589822
H  1.42678171 0.62028114 -0.05586192
6
MD Step 95
C  -0.33424360 -0.58122319 0.01020132
H  0.19206515 -1.51793094 -0.05103104
H  -1.39929089 -0.57671530 -0.05068314
C  0.33112106 0.57580256 0.00782482
H  -0.18409498 1.53510115 -0.05658712
H  1.42852895 0.62413750 -0.05649864
6
MD Step 96
C  -0.33374446 -0.58055125 0.01030748
H  0.19323156 -1.51856660 -0.05147959
H  -1.40099126 -0.57520199 -0.05118813
C  0.33039236 0.57443740 0.00788801
H  -0.18224555 1.53867629 -0.05715041
H  1.42994893 0.62794509 -0.05699987
6
MD Step 97
C  -0.33321489 -0.57984814 0.01039374
H  0.19436107 -1.51933798 -0.05180525
H  -1.40298832 -0.57383337 -0.05158075
C  0.32968490 0.57308464 0.00792671
H  -0.18032274 1.54207087 -0.05757100
H  1.43101343 0.63169451 -0.05735004
6
MD Step 98
C  -0.33266336 -0.57912357 0.01045787
H  0.19544649 -1.52020468 -0.05199368
H  -1.40521363 -0.57260170 -0.05184484
C  0.32900210 0.57175457 0.00793808
H  -0.17830626 1.54523950 -0.05783303
H  1.43170106 0.63537601 -0.05753507
6
MD Step 99
C  -0.33208863 -0.57837716 0.01050664
H  0.19641956 -1.52118623 -0.05209239
H  -1.40765524 -0.57155936 -0.05202900
C  0.32835731 0.57046729 0.00793085
H  -0.17623924 1.54808084 -0.05798153
H  1.43193739 0.63891902 -0.05759865
6
MD Step 100
C  -0.33150032 -0.57761937 0.01053746
H  0.19727569 -1.52223811 -0.05208519
H  -1.41023403 -0.57069495 -0.05211483
C  0.32775271 0.56923175 0.00790203
H  -0.17410501 1.55056291 -0.05799961
H  1.43171998 0.64231721 -0.05752590
6
MD Step 101
C  -0.33090870 -0.57686112 0.01054736
H  0.19801396 -1.52331296 -0.05195320
H  -1.41286614 -0.56999346 -0.05208102
C  0.32718945 0.56805575 0.00784824
H  -0.17188732 1.55266336 -0.05786832
H  1.43105823 0.64556805 -0.05729999
6
MD Step 102
C  -0.33032404 -0.57611324 0.01053351
H  0.19863459 -1.52436438 -0.05167788
H  -1.41546802 -0.56943931 -0.05190645
C  0.32666818 0.56694634 0.00776615
H  -0.16957339 1.55436686 -0.05756967
H  1.42997019 0.64866994 -0.05690521
6
MD Step 103
C  -0.32974604 -0.57537568 0.01050233
H  0.19907614 -1.52541056 -0.05130500
H  -1.41802114 -0.56907870 -0.05163720
C  0.32619968 0.56592013 0.00766445
H  -0.16721627 1.55560276 -0.05714821
H  1.42841984 0.65155912 -0.05638551
6
MD Step 104
C  -0.32918693 -0.57466108 0.01044904
H  0.19935623 -1.52639451 -0.05080254
H  -1.42043251 -0.56888058 -0.05123825
C  0.32578104 0.56497993 0.00753749
H  -0.16479609 1.55638536 -0.05657379
H  1.42645702 0.65425061 -0.05571345
6
MD Step 105
C  -0.32865116 -0.57397407 0.01037552
H  0.19944955 -1.52730667 -0.05018452
H  -1.42265837 -0.56885772 -0.05072255
C  0.32541636 0.56413491 0.00738817
H  -0.16234080 1.55669234 -0.05586105
H  1.42409558 0.65671576 -0.05490454
6
MD Step 106
C  -0.32814570 -0.57332180 0.01028111
H  0.19935100 -1.52812252 -0.04944727
H  -1.42464228 -0.56900435 -0.05008484
C  0.32510606 0.56339013 0.00721619
H  -0.15986396 1.55652755 -0.05500795
H  1.42137573 0.65894544 -0.05395820
6
MD Step 107
C  -0.32767874 -0.57271264 0.01016366
H  0.19906881 -1.52881008 -0.04857661
H  -1.42632322 -0.56930339 -0.04930908
C  0.32484805 0.56274761 0.00701933
H  -0.15737161 1.55591395 -0.05400279
H  1.41835655 0.66094304 -0.05286451
6
MD Step 108
C  -0.32725214 -0.57214842 0.01002626
H  0.19857911 -1.52937564 -0.04759413
H  -1.42768189 -0.56977131 -0.04841629
C  0.32464553 0.56221389 0.00680197
H  -0.15490698 1.55484826 -0.05286842
H  1.41507016 0.66267887 -0.05164686
6
MD Step 109
C  -0.32686813 -0.57163133 0.00987120
H  0.19786692 -1.52982310 -0.04651561
H  -1.42870020 -0.57041780 -0.04742167
C  0.32450000 0.56179316 0.00656743
H  -0.15250996 1.55334152 -0.05162241
H  1.41156196 0.66413126 -0.05032349
6
MD Step 110
C  -0.32652777 -0.57116227 0.00970123
H  0.19691708 -1.53016303 -0.04536037
H  -1.42937050 -0.57125467 -0.04634414
C  0.32441282 0.56148876 0.00631972
H  -0.15022577 1.55140998 -0.05028574
H  1.40788107 0.66527752 -0.04891588
6
MD Step 111
C  -0.32623970 -0.57074993 0.00951174
H  0.19576785 -1.53035947 -0.04409677
H  -1.42964231 -0.57224317 -0.04515063
C  0.32437615 0.56129436 0.00605357
H  -0.14805206 1.54912783 -0.04883102
H  1.40413263 0.66614762 -0.04739817
6
MD Step 112
C  -0.32600967 -0.57040004 0.00930007
H  0.19444765 -1.53039301 -0.04270636
H  -1.42948611 -0.57335640 -0.04382184
C  0.32438377 0.56120444 0.00576609
H  -0.14600073 1.54656379 -0.04724369
H  1.40041338 0.66676073 -0.04575681
6
MD Step 113
C  -0.32583656 -0.57011125 0.00906917
H  0.19295045 -1.53028538 -0.04120894
H  -1.42891829 -0.57460361 -0.04237776
C  0.32443540 0.56121841 0.00546134
H  -0.14412156 1.54375582 -0.04554564
H  1.39678559 0.66710050 -0.04401364
6
MD Step 114
C  -0.32572314 -0.56988623 0.00881778
H  0.19130170 -1.53003358 -0.03959543
H  -1.42793519 -0.57596520 -0.04080909
C  0.32452554 0.56132984 0.00513813
H  -0.14243682 1.54077585 -0.04373125
H  1.39334094 0.66718106 -0.04216332
6
MD Step 115
C  -0.32566899 -0.56972440 0.00854690
H  0.18951498 -1.52965270 -0.03787165
H  -1.42655621 -0.57743536 -0.03912194
C  0.32465092 0.56153364 0.00479790
H  -0.14098321 1.53768579 -0.04180913
H  1.39015577 0.66700363 -0.04021424
6
MD Step 116
C  -0.32566678 -0.56961817 0.00826316
H  0.18756889 -1.52919845 -0.03608167
H  -1.42484639 -0.57904466 -0.03736141
C  0.32481454 0.56183002 0.00444892
H  -0.13983362 1.53451355 -0.03982418
H  1.38726652 0.66653348 -0.03821026
6
MD Step 117
C  -0.32572355 -0.56957477 0.00795934
H  0.18553636 -1.52863773 -0.03417616
H  -1.42278635 -0.58073242 -0.03547803
C  0.32500371 0.56220321 0.00408267
H  -0.13896911 1.53138043 -0.03773190
H  1.38479669 0.66582949 -0.03610693
6
MD Step 118
C  -0.32583139 -0.56958622 0.00764138
H  0.18340574 -1.52802617 -0.03219367
H  -1.42045077 -0.58252286 -0.03351152
C  0.32522061 0.56265119 0.00370629
H  -0.13845376 1.52832192 -0.03557164
H  1.38277692 0.66486517 -0.03394229
6
MD Step 119
C  -0.32598868 -0.56965111 0.00730874
H  0.18120930 -1.52737944 -0.03012997
H  -1.41787887 -0.58439819 -0.03145845
C  0.32546044 0.56316457 0.00331922
H  -0.13830716 1.52541404 -0.03334135
H  1.38127119 0.66365734 -0.03171331
6
MD Step 120
C  -0.32619849 -0.56977299 0.00695590
H  0.17901320 -1.52668234 -0.02794785
H  -1.41508353 -0.58630821 -0.02928219
C  0.32571327 0.56372839 0.00291501
H  -0.13851298 1.52276187 -0.03100693
H  1.38036524 0.66225631 -0.02938510
6
MD Step 121
C  -0.32645411 -0.56994562 0.00658597
H  0.17682858 -1.52597667 -0.02566675
H  -1.41213943 -0.58825788 -0.02700337
C  0.32597911 0.56433703 0.00249716
H  -0.13910538 1.52040950 -0.02858838
H  1.38007632 0.66065708 -0.02697624
6
MD Step 122
C  -0.32674901 -0.57016312 0.00620136
H  0.17467161 -1.52530033 -0.02330148
H  -1.40912154 -0.59024774 -0.02463797
C  0.32625777 0.56498438 0.00206826
H  -0.14010864 1.51839838 -0.02610094
H  1.38041212 0.65885963 -0.02450060
6
MD Step 123
C  -0.32707518 -0.57041834 0.00580551
H  0.17255217 -1.52469740 -0.02087321
H  -1.40611445 -0.59228460 -0.02220834
C  0.32655067 0.56566581 0.00163196
H  -0.14154719 1.51675503 -0.02356565
H  1.38135959 0.65685816 -0.02197793
6
MD Step 124
C  -0.32742285 -0.57070248 0.00540329
H  0.17047069 -1.52421987 -0.01841209
H  -1.40321328 -0.59438424 -0.01974576
C  0.32686124 0.56637877 0.00119341
H  -0.14344762 1.51548720 -0.02101204
H  1.38288242 0.65463843 -0.01943654
6
MD Step 125
C  -0.32778749 -0.57101226 0.00499435
H  0.16845936 -1.52388518 -0.01591517
H  -1.40047988 -0.59652999 -0.01724811
C  0.32718780 0.56711591 0.00075195
H  -0.14579704 1.51462458 -0.01843714
H  1.38496342 0.65221962 -0.01687272