 Entering Gaussian System, Link 0=g16
 Initial command:
 /software/gaussian/g16-c01/avx2/g16/l1.exe "/gpfs/fs2/scratch/bweight/software/many_molecule_many_mode_NAMD/src/NAMD/TEST_NVT/TRAJ/traj-51/G16/GS_NEW/Gau-14025.inp" -scrdir="/gpfs/fs2/scratch/bweight/software/many_molecule_many_mode_NAMD/src/NAMD/TEST_NVT/TRAJ/traj-51/G16/GS_NEW/"
 Entering Link 1 = /software/gaussian/g16-c01/avx2/g16/l1.exe PID=     14026.
  
 Copyright (c) 1988-2019, Gaussian, Inc.  All Rights Reserved.
  
 This is part of the Gaussian(R) 16 program.  It is based on
 the Gaussian(R) 09 system (copyright 2009, Gaussian, Inc.),
 the Gaussian(R) 03 system (copyright 2003, Gaussian, Inc.),
 the Gaussian(R) 98 system (copyright 1998, Gaussian, Inc.),
 the Gaussian(R) 94 system (copyright 1995, Gaussian, Inc.),
 the Gaussian 92(TM) system (copyright 1992, Gaussian, Inc.),
 the Gaussian 90(TM) system (copyright 1990, Gaussian, Inc.),
 the Gaussian 88(TM) system (copyright 1988, Gaussian, Inc.),
 the Gaussian 86(TM) system (copyright 1986, Carnegie Mellon
 University), and the Gaussian 82(TM) system (copyright 1983,
 Carnegie Mellon University). Gaussian is a federally registered
 trademark of Gaussian, Inc.
  
 This software contains proprietary and confidential information,
 including trade secrets, belonging to Gaussian, Inc.
  
 This software is provided under written license and may be
 used, copied, transmitted, or stored only in accord with that
 written license.
  
 The following legend is applicable only to US Government
 contracts under FAR:
  
                    RESTRICTED RIGHTS LEGEND
  
 Use, reproduction and disclosure by the US Government is
 subject to restrictions as set forth in subparagraphs (a)
 and (c) of the Commercial Computer Software - Restricted
 Rights clause in FAR 52.227-19.
  
 Gaussian, Inc.
 340 Quinnipiac St., Bldg. 40, Wallingford CT 06492
  
  
 ---------------------------------------------------------------
 Warning -- This program may not be used in any manner that
 competes with the business of Gaussian, Inc. or will provide
 assistance to any competitor of Gaussian, Inc.  The licensee
 of this program is prohibited from giving any competitor of
 Gaussian, Inc. access to this program.  By using this program,
 the user acknowledges that Gaussian, Inc. is engaged in the
 business of creating and licensing software in the field of
 computational chemistry and represents and warrants to the
 licensee that it is not a competitor of Gaussian, Inc. and that
 it will not use this program in any manner prohibited above.
 ---------------------------------------------------------------
  

 Cite this work as:
 Gaussian 16, Revision C.01,
 M. J. Frisch, G. W. Trucks, H. B. Schlegel, G. E. Scuseria, 
 M. A. Robb, J. R. Cheeseman, G. Scalmani, V. Barone, 
 G. A. Petersson, H. Nakatsuji, X. Li, M. Caricato, A. V. Marenich, 
 J. Bloino, B. G. Janesko, R. Gomperts, B. Mennucci, H. P. Hratchian, 
 J. V. Ortiz, A. F. Izmaylov, J. L. Sonnenberg, D. Williams-Young, 
 F. Ding, F. Lipparini, F. Egidi, J. Goings, B. Peng, A. Petrone, 
 T. Henderson, D. Ranasinghe, V. G. Zakrzewski, J. Gao, N. Rega, 
 G. Zheng, W. Liang, M. Hada, M. Ehara, K. Toyota, R. Fukuda, 
 J. Hasegawa, M. Ishida, T. Nakajima, Y. Honda, O. Kitao, H. Nakai, 
 T. Vreven, K. Throssell, J. A. Montgomery, Jr., J. E. Peralta, 
 F. Ogliaro, M. J. Bearpark, J. J. Heyd, E. N. Brothers, K. N. Kudin, 
 V. N. Staroverov, T. A. Keith, R. Kobayashi, J. Normand, 
 K. Raghavachari, A. P. Rendell, J. C. Burant, S. S. Iyengar, 
 J. Tomasi, M. Cossi, J. M. Millam, M. Klene, C. Adamo, R. Cammi, 
 J. W. Ochterski, R. L. Martin, K. Morokuma, O. Farkas, 
 J. B. Foresman, and D. J. Fox, Gaussian, Inc., Wallingford CT, 2019.
 
 ******************************************
 Gaussian 16:  ES64L-G16RevC.01  3-Jul-2019
                11-Jan-2023 
 ******************************************
 %oldchk=../GS_OLD/geometry.chk
 %chk=geometry.chk
 %nprocshared=4
 Will use up to    4 processors via shared memory.
 %mem=5GB
 Copying data from "../GS_OLD/geometry.chk" to current chk file "geometry.chk"
 IOpt=  2 FromEx=T IUOpen= 4 IOptOp= 5 NList=   0 IFRang= 0 IUIn= 4 IUOut= 2.
 -------------------------------------------------------
 # WB97XD/6-311G SCF=XQC FORCE nosym pop=full guess=read
 -------------------------------------------------------
 1/10=7,30=1,38=1/1,3;
 2/12=2,15=1,17=6,18=5,40=1/2;
 3/5=4,6=6,11=2,25=1,30=1,71=1,74=-58,116=-2/1,2,3;
 4/5=1/1;
 5/5=2,8=3,13=1,38=6/2,8;
 6/7=3,28=1/1;
 7/29=1,30=1/1,2,3,16;
 1/10=7,30=1/3;
 99//99;
 -----------
 MD Step 999
 -----------
 Symbolic Z-matrix:
 Charge =  0 Multiplicity = 1
 C                    -0.33668  -0.58214   0.00422 
 H                     0.22556  -1.52608  -0.00942 
 H                    -1.42133  -0.57855  -0.01021 
 C                     0.33216   0.57568   0.00283 
 H                    -0.15281   1.5663   -0.01243 
 H                     1.44285   0.65568  -0.01155 
 

 GradGradGradGradGradGradGradGradGradGradGradGradGradGradGradGradGradGrad
 Berny optimization.
 Initialization pass.
 Trust Radius=3.00D-01 FncErr=1.00D-07 GrdErr=1.00D-07 EigMax=2.50D+02 EigMin=1.00D-04
 Number of steps in this run=      2 maximum allowed number of steps=      2.
 GradGradGradGradGradGradGradGradGradGradGradGradGradGradGradGradGradGrad

                          Input orientation:                          
 ---------------------------------------------------------------------
 Center     Atomic      Atomic             Coordinates (Angstroms)
 Number     Number       Type             X           Y           Z
 ---------------------------------------------------------------------
      1          6           0       -0.336681   -0.582143    0.004221
      2          1           0        0.225557   -1.526081   -0.009415
      3          1           0       -1.421328   -0.578548   -0.010211
      4          6           0        0.332156    0.575682    0.002826
      5          1           0       -0.152807    1.566301   -0.012425
      6          1           0        1.442845    0.655680   -0.011554
 ---------------------------------------------------------------------
                    Distance matrix (angstroms):
                    1          2          3          4          5
     1  C    0.000000
     2  H    1.098780   0.000000
     3  H    1.084749   1.900013   0.000000
     4  C    1.337125   2.104500   2.099315   0.000000
     5  H    2.156363   3.115445   2.491893   1.103064   0.000000
     6  H    2.167757   2.498376   3.118784   1.113659   1.837209
                    6
     6  H    0.000000
 Symmetry turned off by external request.
 Stoichiometry    C2H4
 Framework group  C1[X(C2H4)]
 Deg. of freedom    12
 Full point group                 C1      NOp   1
 Rotational constants (GHZ):         143.5389884          29.7152268          24.6204137
 Standard basis: 6-311G (5D, 7F)
    38 basis functions,    72 primitive gaussians,    38 cartesian basis functions
     8 alpha electrons        8 beta electrons
       nuclear repulsion energy        33.0817879152 Hartrees.
 NAtoms=    6 NActive=    6 NUniq=    6 SFac= 1.00D+00 NAtFMM=   60 NAOKFM=F Big=F
 Integral buffers will be    131072 words long.
 Raffenetti 2 integral format.
 Two-electron integral symmetry is turned off.
 Nuclear repulsion after empirical dispersion term =       33.0809466879 Hartrees.
 One-electron integrals computed using PRISM.
 NBasis=    38 RedAO= T EigKep=  6.41D-03  NBF=    38
 NBsUse=    38 1.00D-06 EigRej= -1.00D+00 NBFU=    38
 Initial guess from the checkpoint file:  "geometry.chk"
 B after Tr=    -0.000250   -0.000356   -0.000497
         Rot=    1.000000    0.000002   -0.000000    0.000004 Ang=   0.00 deg.
 Keep R1 ints in memory in canonical form, NReq=4036876.
 Requested convergence on RMS density matrix=1.00D-08 within  32 cycles.
 Requested convergence on MAX density matrix=1.00D-06.
 Requested convergence on             energy=1.00D-06.
 No special actions if energy rises.
 SCF Done:  E(RwB97XD) =  -78.5555210973     A.U. after    8 cycles
            NFock=  8  Conv=0.52D-08     -V/T= 2.0051
 QCSCF skips out because SCF is already converged.

 **********************************************************************

            Population analysis using the SCF Density.

 **********************************************************************

 Alpha  occ. eigenvalues --  -10.29000 -10.28808  -0.86406  -0.67224  -0.55963
 Alpha  occ. eigenvalues --   -0.50942  -0.43608  -0.35705
 Alpha virt. eigenvalues --    0.08021   0.14095   0.16468   0.17002   0.24077
 Alpha virt. eigenvalues --    0.37166   0.39342   0.40115   0.46364   0.48870
 Alpha virt. eigenvalues --    0.49365   0.59115   0.66559   0.69146   0.77283
 Alpha virt. eigenvalues --    0.77561   0.84492   0.95280   2.23111   2.29069
 Alpha virt. eigenvalues --    2.33304   2.40787   2.67127   2.81826   2.87695
 Alpha virt. eigenvalues --    2.95173   3.14214   3.32068  23.35210  23.70674
     Molecular Orbital Coefficients:
                           1         2         3         4         5
                           O         O         O         O         O
     Eigenvalues --   -10.29000 -10.28808  -0.86406  -0.67224  -0.55963
   1 1   C  1S          0.13323   0.54742  -0.08844   0.06673  -0.00047
   2        2S          0.10985   0.45049  -0.13980   0.10686  -0.00076
   3        2PX         0.00016  -0.00002   0.02596   0.03586   0.13948
   4        2PY         0.00028  -0.00002   0.04668   0.05820  -0.07399
   5        2PZ        -0.00000  -0.00000  -0.00062   0.00084   0.00014
   6        3S          0.00260   0.01441   0.37503  -0.29153   0.00211
   7        3PX        -0.00058   0.00046   0.03450   0.05757   0.21867
   8        3PY        -0.00099   0.00084   0.06166   0.09470  -0.11703
   9        3PZ        -0.00001  -0.00001  -0.00103   0.00151   0.00021
  10        4S          0.00241  -0.01487   0.19186  -0.22500   0.00159
  11        4PX         0.00140  -0.00164   0.00481   0.02289   0.11274
  12        4PY         0.00240  -0.00284   0.00868   0.03930  -0.06132
  13        4PZ         0.00000   0.00004  -0.00035   0.00076   0.00010
  14 2   H  1S         -0.00005  -0.00006   0.05244  -0.08628   0.10359
  15        2S         -0.00029   0.00012   0.05385  -0.10437   0.13120
  16        3S          0.00092   0.00162  -0.00186  -0.01483   0.04233
  17 3   H  1S         -0.00005  -0.00007   0.05414  -0.09030  -0.10722
  18        2S         -0.00029   0.00010   0.05492  -0.10826  -0.13466
  19        3S          0.00095   0.00167  -0.00186  -0.01590  -0.04340
  20 4   C  1S          0.54739  -0.13342  -0.08685  -0.06834  -0.00027
  21        2S          0.45056  -0.10961  -0.13712  -0.10961  -0.00043
  22        2PX        -0.00002  -0.00016  -0.02779   0.03824   0.11599
  23        2PY        -0.00004  -0.00029  -0.04668   0.06857  -0.07356
  24        2PZ        -0.00000   0.00000  -0.00044  -0.00097   0.00014
  25        3S          0.01383  -0.00429   0.36724   0.29956   0.00119
  26        3PX        -0.00017   0.00074  -0.03463   0.06200   0.18150
  27        3PY        -0.00026   0.00128  -0.05801   0.11043  -0.11398
  28        3PZ        -0.00001  -0.00000  -0.00078  -0.00173   0.00022
  29        4S         -0.01174   0.00911   0.18841   0.23797  -0.00012
  30        4PX         0.00077  -0.00196  -0.00550   0.02739   0.10039
  31        4PY         0.00127  -0.00341  -0.00904   0.04713  -0.06203
  32        4PZ         0.00003  -0.00001  -0.00033  -0.00089   0.00011
  33 5   H  1S         -0.00007  -0.00004   0.04981   0.09469  -0.08841
  34        2S         -0.00004  -0.00031   0.05084   0.11266  -0.11120
  35        3S          0.00181   0.00004  -0.00100   0.01703  -0.03564
  36 6   H  1S         -0.00005  -0.00004   0.04841   0.09245   0.08350
  37        2S         -0.00005  -0.00032   0.05005   0.11060   0.10555
  38        3S          0.00176   0.00004  -0.00106   0.01635   0.03417
                           6         7         8         9        10
                           O         O         O         V         V
     Eigenvalues --    -0.50942  -0.43608  -0.35705   0.08021   0.14095
   1 1   C  1S         -0.00271   0.00022  -0.00046   0.00124  -0.03339
   2        2S         -0.00395   0.00038  -0.00076   0.00206  -0.05356
   3        2PX         0.09441  -0.10894  -0.00152   0.00065  -0.03110
   4        2PY         0.16904   0.06507  -0.00251   0.00102  -0.06506
   5        2PZ         0.00222  -0.00002   0.17955  -0.18911  -0.00114
   6        3S          0.01648  -0.00084   0.00221  -0.00624   0.11645
   7        3PX         0.13670  -0.17397  -0.00215   0.00098  -0.03644
   8        3PY         0.24669   0.10453  -0.00353   0.00152  -0.08055
   9        3PZ         0.00353  -0.00002   0.28878  -0.27813  -0.00182
  10        4S         -0.05819  -0.00375   0.00317  -0.00723   1.22791
  11        4PX         0.06855  -0.10876  -0.00177   0.00567  -0.18753
  12        4PY         0.12507   0.06587  -0.00291   0.00932  -0.38000
  13        4PZ         0.00201   0.00001   0.26685  -0.69659  -0.00655
  14 2   H  1S         -0.08165  -0.11378   0.00007   0.00194  -0.01790
  15        2S         -0.11345  -0.17570   0.00091   0.00308  -0.04899
  16        3S         -0.04239  -0.08129   0.00054   0.00822  -0.83603
  17 3   H  1S         -0.07944   0.11116   0.00003   0.00194  -0.01366
  18        2S         -0.10965   0.17060   0.00086   0.00310  -0.03876
  19        3S         -0.04060   0.07862   0.00052   0.00802  -0.76529
  20 4   C  1S         -0.00927  -0.00053  -0.00035  -0.00117  -0.03622
  21        2S         -0.01456  -0.00088  -0.00057  -0.00194  -0.05817
  22        2PX        -0.09838   0.12630   0.00149   0.00076   0.04125
  23        2PY        -0.16126  -0.07462   0.00282   0.00147   0.06097
  24        2PZ         0.00249   0.00014   0.17920   0.18953  -0.00132
  25        3S          0.04641   0.00249   0.00170   0.00583   0.12846
  26        3PX        -0.14586   0.20214   0.00208   0.00117   0.05074
  27        3PY        -0.23723  -0.11849   0.00398   0.00226   0.07216
  28        3PZ         0.00393   0.00021   0.28680   0.27799  -0.00200
  29        4S         -0.02443   0.00353   0.00290   0.00644   1.23903
  30        4PX        -0.07654   0.13021   0.00158   0.00587   0.27027
  31        4PY        -0.12303  -0.07559   0.00311   0.01076   0.41880
  32        4PZ         0.00227   0.00012   0.26731   0.69787  -0.00798
  33 5   H  1S         -0.07340  -0.12595   0.00012  -0.00178  -0.01126
  34        2S         -0.09983  -0.19619   0.00099  -0.00297  -0.03676
  35        3S         -0.03723  -0.09240   0.00055  -0.00774  -0.81974
  36 6   H  1S         -0.07978   0.12551   0.00008  -0.00178  -0.01534
  37        2S         -0.10905   0.19666   0.00092  -0.00299  -0.04679
  38        3S         -0.04089   0.09274   0.00050  -0.00789  -0.89061
                          11        12        13        14        15
                           V         V         V         V         V
     Eigenvalues --     0.16468   0.17002   0.24077   0.37166   0.39342
   1 1   C  1S          0.00119  -0.04568   0.00011   0.00829   0.00072
   2        2S          0.00192  -0.07447   0.00017   0.01089   0.00104
   3        2PX         0.09694  -0.01942   0.09971  -0.03467  -0.02267
   4        2PY        -0.05352  -0.03698  -0.05705  -0.06323   0.01043
   5        2PZ         0.00008  -0.00300   0.00003  -0.00206  -0.00009
   6        3S         -0.00410   0.16900   0.00024   0.03682   0.00187
   7        3PX         0.13869  -0.01068   0.10469  -0.04073  -0.10339
   8        3PY        -0.07773  -0.02390  -0.06101  -0.07922   0.05335
   9        3PZ         0.00011  -0.00418   0.00001  -0.00433  -0.00017
  10        4S         -0.05697   1.43412  -0.02659  -2.42681  -0.15824
  11        4PX         0.58864  -0.11519   1.17167  -1.52262  -0.53931
  12        4PY        -0.31569  -0.20679  -0.67165  -2.64826   0.13225
  13        4PZ         0.00054  -0.01960   0.00066  -0.01787  -0.00126
  14 2   H  1S         -0.02919  -0.02582   0.01423  -0.06212   0.07420
  15        2S         -0.08238  -0.01840  -0.02432  -0.69832   0.75066
  16        3S         -1.03065  -1.00547  -1.53736  -0.26410  -0.30987
  17 3   H  1S          0.02834  -0.02550  -0.01665  -0.05484  -0.07609
  18        2S          0.08112  -0.02153   0.01741  -0.64038  -0.76627
  19        3S          1.10329  -1.01073   1.57334  -0.34679   0.24054
  20 4   C  1S          0.00146   0.04227  -0.00015  -0.01990  -0.00016
  21        2S          0.00233   0.06880  -0.00026  -0.03289  -0.00018
  22        2PX         0.10124  -0.02417  -0.10062  -0.03934  -0.03238
  23        2PY        -0.06162  -0.03786   0.05766  -0.07057   0.01319
  24        2PZ         0.00012   0.00294  -0.00004   0.00145   0.00013
  25        3S         -0.00466  -0.15243   0.00038   0.04783  -0.00129
  26        3PX         0.14559  -0.01972  -0.11512  -0.09190  -0.11191
  27        3PY        -0.08735  -0.02790   0.06453  -0.16718   0.05442
  28        3PZ         0.00017   0.00404  -0.00003   0.00165   0.00024
  29        4S         -0.06760  -1.33832   0.01932   3.20395   0.16315
  30        4PX         0.53068  -0.12351  -1.12372  -1.08622  -0.54914
  31        4PY        -0.33076  -0.20095   0.64994  -1.91237   0.12838
  32        4PZ         0.00077   0.01908  -0.00068   0.01598   0.00095
  33 5   H  1S          0.03145   0.02451   0.00543   0.00613  -0.08192
  34        2S          0.06698   0.02197  -0.03537   0.01313  -0.80986
  35        3S          1.08250   0.93589  -1.53234   0.43910   0.48734
  36 6   H  1S         -0.03170   0.02542  -0.00387   0.00072   0.08834
  37        2S         -0.06778   0.02080   0.03709  -0.03335   0.89190
  38        3S         -0.99127   0.94989   1.50844   0.45330  -0.47222
                          16        17        18        19        20
                           V         V         V         V         V
     Eigenvalues --     0.40115   0.46364   0.48870   0.49365   0.59115
   1 1   C  1S         -0.01949   0.01267   0.04607  -0.00046  -0.00024
   2        2S         -0.03394   0.02927   0.07690  -0.00064  -0.00043
   3        2PX         0.03016  -0.06138  -0.01181   0.00063   0.00093
   4        2PY         0.05451  -0.10615  -0.01384   0.00079   0.00128
   5        2PZ         0.00025  -0.00017  -0.00329  -0.15182  -0.19256
   6        3S          0.07325  -0.33706  -0.08664  -0.00359  -0.00037
   7        3PX         0.10881  -0.23999   0.03716  -0.00005   0.00309
   8        3PY         0.20215  -0.41272   0.07756  -0.00101   0.00431
   9        3PZ        -0.00151  -0.00185  -0.01456  -0.62825  -0.68504
  10        4S          2.94611   0.15403  -3.08590   0.05987   0.03162
  11        4PX         0.37795   0.23866  -0.82733   0.01847   0.00994
  12        4PY         0.67594   0.45268  -1.44268   0.03328   0.01760
  13        4PZ        -0.00024   0.00081   0.04482   0.68681   1.24134
  14 2   H  1S         -0.02412  -0.03217   0.07604  -0.00169  -0.00076
  15        2S         -0.51091  -0.30830   0.90152  -0.01711  -0.00586
  16        3S          0.34980   0.06490  -0.65158   0.01808   0.01055
  17 3   H  1S         -0.02986  -0.03519   0.07345  -0.00164  -0.00072
  18        2S         -0.55905  -0.34401   0.87316  -0.01670  -0.00501
  19        3S          0.35793   0.06714  -0.61150   0.01727   0.01027
  20 4   C  1S          0.00120  -0.00317  -0.05108   0.00171   0.00032
  21        2S         -0.00164   0.00225  -0.08905   0.00308   0.00059
  22        2PX         0.01108   0.05434  -0.02724   0.00020   0.00090
  23        2PY         0.02075   0.09412  -0.05061   0.00026   0.00186
  24        2PZ        -0.00178  -0.00092  -0.00332  -0.15269   0.19235
  25        3S          0.07753  -0.28310   0.23788  -0.01121  -0.00120
  26        3PX        -0.03827   0.23248  -0.05876   0.00042   0.00318
  27        3PY        -0.05805   0.40686  -0.10648   0.00021   0.00648
  28        3PZ        -0.00485  -0.00369  -0.01273  -0.63148   0.68268
  29        4S         -1.17090   0.76046   3.11880  -0.07074  -0.02755
  30        4PX         1.36604  -0.32630  -0.59888   0.01035   0.00970
  31        4PY         2.45317  -0.52929  -1.00962   0.01758   0.01615
  32        4PZ        -0.01672  -0.00746  -0.01092   0.69258  -1.23814
  33 5   H  1S         -0.04422  -0.06592  -0.06353   0.00150   0.00069
  34        2S         -0.82815  -0.68224  -0.81226   0.02170   0.00244
  35        3S         -0.25874   0.26926   0.53331  -0.00780  -0.01018
  36 6   H  1S         -0.03830  -0.06396  -0.06409   0.00153   0.00072
  37        2S         -0.75683  -0.65490  -0.80993   0.02162   0.00287
  38        3S         -0.26630   0.28538   0.55948  -0.00868  -0.01035
                          21        22        23        24        25
                           V         V         V         V         V
     Eigenvalues --     0.66559   0.69146   0.77283   0.77561   0.84492
   1 1   C  1S          0.00093  -0.00055   0.05515   0.06989   0.00098
   2        2S          0.00192  -0.00124   0.11650   0.14902   0.00223
   3        2PX        -0.13396   0.19685  -0.01873   0.11558  -0.00799
   4        2PY         0.07843  -0.11885  -0.03279   0.18673   0.01336
   5        2PZ        -0.00006   0.00014   0.00044   0.00206   0.00008
   6        3S         -0.01528   0.01737  -0.80198  -1.30155  -0.02328
   7        3PX        -0.61946   0.69035  -0.14754   0.45624  -0.22386
   8        3PY         0.35864  -0.41673  -0.25728   0.72779   0.16444
   9        3PZ        -0.00032   0.00051   0.00173   0.00713   0.00025
  10        4S          0.02740  -0.08463   0.84864   2.41923  -0.04686
  11        4PX         1.07144  -0.78916   0.11535  -0.76535   4.55119
  12        4PY        -0.62210   0.47818   0.13444  -0.99687  -2.61747
  13        4PZ         0.00036   0.00033   0.00252  -0.02435   0.00273
  14 2   H  1S          0.02440  -0.05867   0.01215   0.03211  -0.02785
  15        2S          0.14587  -0.62748   0.07989   0.08579  -1.59286
  16        3S         -1.04823   1.09945  -0.16613  -1.08177  -1.23711
  17 3   H  1S         -0.02364   0.05815   0.01208   0.03300   0.03144
  18        2S         -0.16122   0.66583   0.10504   0.05235   1.63719
  19        3S          1.03721  -1.06261  -0.15853  -1.24158   1.24036
  20 4   C  1S          0.00118  -0.00051   0.08614   0.02606   0.00074
  21        2S          0.00239  -0.00095   0.18329   0.05472   0.00151
  22        2PX        -0.14991  -0.18653  -0.09293   0.05787   0.00905
  23        2PY         0.08574   0.10309  -0.16837   0.10675   0.00242
  24        2PZ        -0.00007  -0.00014   0.00231  -0.00066  -0.00008
  25        3S         -0.01707  -0.00050  -1.51881  -0.28557  -0.00783
  26        3PX        -0.67941  -0.63364  -0.33376   0.29920   0.23092
  27        3PY         0.39164   0.34722  -0.61025   0.54872  -0.09492
  28        3PZ        -0.00036  -0.00049   0.00817  -0.00258  -0.00022
  29        4S          0.01303   0.05585   2.70553  -0.05829   0.02684
  30        4PX         1.29848   0.78040   0.49596  -0.27090  -4.15013
  31        4PY        -0.74185  -0.42922   0.97676  -0.73889   2.34858
  32        4PZ         0.00070  -0.00017  -0.02291   0.01318  -0.00236
  33 5   H  1S         -0.02440  -0.05519   0.03469   0.00098  -0.02342
  34        2S         -0.13245  -0.55407   0.08101   0.07411  -1.40364
  35        3S          1.11127   0.99651  -1.14828   0.37386  -1.08653
  36 6   H  1S          0.02513   0.05496   0.03426   0.00183   0.02331
  37        2S          0.12601   0.51776   0.07938   0.01574   1.38637
  38        3S         -1.11518  -1.01452  -1.07356   0.28863   1.09608
                          26        27        28        29        30
                           V         V         V         V         V
     Eigenvalues --     0.95280   2.23111   2.29069   2.33304   2.40787
   1 1   C  1S          0.09602  -0.00988  -0.01462   0.00043  -0.00052
   2        2S          0.19959   0.00202  -0.01441   0.00096  -0.00057
   3        2PX        -0.09156  -0.07193  -0.13288   0.35203  -0.40631
   4        2PY        -0.15872  -0.13655  -0.23236  -0.20020   0.23117
   5        2PZ         0.00017  -0.00587  -0.00819   0.00008  -0.00043
   6        3S         -1.54606  -0.18822  -0.04000  -0.00176  -0.00529
   7        3PX        -0.23586   0.06421   0.20818  -0.42215   0.56685
   8        3PY        -0.40023   0.13812   0.37959   0.24257  -0.32519
   9        3PZ        -0.00091   0.00586   0.01015  -0.00004   0.00051
  10        4S          5.71244  -0.09568  -0.88106   0.00252  -0.02768
  11        4PX         1.21125   0.05773  -0.18957  -0.07252   0.99735
  12        4PY         1.99322   0.07200  -0.36013   0.03229  -0.55411
  13        4PZ        -0.00939   0.00117   0.00385  -0.00017   0.00096
  14 2   H  1S          0.01521  -0.69644  -0.80834  -0.71084   0.64385
  15        2S         -0.28868   0.98634   1.20792   1.10652  -1.45473
  16        3S         -0.09526  -0.29705  -0.48364  -0.46681   0.35675
  17 3   H  1S          0.01550  -0.68785  -0.80442   0.70204  -0.66819
  18        2S         -0.25444   0.97606   1.20625  -1.09824   1.50553
  19        3S         -0.07600  -0.27244  -0.46394   0.45457  -0.34810
  20 4   C  1S         -0.09374  -0.01062   0.01213   0.00048   0.00034
  21        2S         -0.19441  -0.00040   0.01235   0.00070   0.00057
  22        2PX        -0.09294   0.14027  -0.12148   0.29816   0.41943
  23        2PY        -0.16017   0.24439  -0.20331  -0.17267  -0.23988
  24        2PZ         0.00023  -0.00675   0.00789   0.00022   0.00026
  25        3S          1.50083  -0.16570   0.01515   0.00009   0.00016
  26        3PX        -0.22871  -0.18095   0.21046  -0.37243  -0.58788
  27        3PY        -0.40064  -0.30961   0.34472   0.21259   0.33585
  28        3PZ         0.00184   0.00730  -0.01011  -0.00024  -0.00036
  29        4S         -5.68659  -0.18422   0.89007   0.01539   0.01121
  30        4PX         1.10046  -0.01246  -0.19586   0.12714  -0.85616
  31        4PY         1.98489  -0.03210  -0.31224  -0.07148   0.50031
  32        4PZ         0.00451   0.00226  -0.00270  -0.00002  -0.00082
  33 5   H  1S         -0.01803  -0.79945   0.65979   0.70084   0.69356
  34        2S          0.29014   1.16521  -1.01073  -1.00962  -1.46842
  35        3S          0.05639  -0.36048   0.39083   0.51078   0.43191
  36 6   H  1S         -0.01798  -0.79222   0.68307  -0.68807  -0.69057
  37        2S          0.31611   1.15192  -1.04025   0.98732   1.45523
  38        3S          0.06566  -0.36230   0.41959  -0.50803  -0.43989
                          31        32        33        34        35
                           V         V         V         V         V
     Eigenvalues --     2.67127   2.81826   2.87695   2.95173   3.14214
   1 1   C  1S          0.00023   0.00117  -0.01352   0.00007  -0.00979
   2        2S          0.00018   0.00335  -0.04426  -0.00012  -0.03021
   3        2PX         0.00218   0.03378  -0.48207  -0.72082   0.44011
   4        2PY         0.00301   0.05914  -0.87053   0.40235   0.77009
   5        2PZ        -0.92493  -0.93767  -0.06353  -0.00066   0.00232
   6        3S         -0.00069  -0.02766   0.38739   0.00323   0.25459
   7        3PX        -0.00152  -0.05835   0.84874   0.86802  -0.41657
   8        3PY        -0.00199  -0.10137   1.50397  -0.47058  -0.72725
   9        3PZ         0.93992   1.14698   0.07952   0.00088  -0.00310
  10        4S          0.00582   0.06488  -0.88471  -0.01138  -0.50136
  11        4PX        -0.00099   0.04665  -0.71839  -0.66775   0.20377
  12        4PY        -0.00148   0.08155  -1.27836   0.35209   0.35130
  13        4PZ        -0.33816  -0.62252  -0.05008  -0.00071   0.00175
  14 2   H  1S          0.00545  -0.00889   0.25982  -0.37042  -0.20966
  15        2S         -0.00618   0.00539  -0.21484   0.38559   0.15862
  16        3S         -0.00135   0.01893  -0.30083   0.27394   0.05024
  17 3   H  1S          0.00551  -0.00845   0.24751   0.37181  -0.20950
  18        2S         -0.00633   0.00441  -0.19212  -0.38196   0.15833
  19        3S         -0.00161   0.01926  -0.30444  -0.29319   0.05820
  20 4   C  1S          0.00023  -0.00113   0.01364   0.00061  -0.00706
  21        2S          0.00022  -0.00354   0.04857   0.00140  -0.02206
  22        2PX        -0.00337   0.02918  -0.40122  -0.81477  -0.50998
  23        2PY        -0.00657   0.05273  -0.71676   0.45153  -0.90481
  24        2PZ        -0.92474   0.93756   0.06589  -0.00005   0.00665
  25        3S         -0.00127   0.03064  -0.43916  -0.01065   0.19023
  26        3PX         0.00354  -0.05367   0.76487   0.97224   0.55330
  27        3PY         0.00676  -0.09584   1.35566  -0.53091   0.99070
  28        3PZ         0.93995  -1.14685  -0.08321   0.00007  -0.00836
  29        4S          0.00699  -0.06609   0.91380   0.03036  -0.36062
  30        4PX        -0.00042   0.04618  -0.71188  -0.70254  -0.34431
  31        4PY        -0.00111   0.08142  -1.24582   0.37696  -0.62010
  32        4PZ        -0.33817   0.62217   0.05317  -0.00007   0.00658
  33 5   H  1S          0.00509   0.01301  -0.29688   0.42175  -0.27122
  34        2S         -0.00631  -0.01073   0.27168  -0.43071   0.21389
  35        3S         -0.00060  -0.01760   0.28391  -0.24429   0.13433
  36 6   H  1S          0.00516   0.01318  -0.29555  -0.43278  -0.25925
  37        2S         -0.00656  -0.01131   0.27763   0.44155   0.20478
  38        3S         -0.00039  -0.01652   0.26639   0.24476   0.12658
                          36        37        38
                           V         V         V
     Eigenvalues --     3.32068  23.35210  23.70674
   1 1   C  1S         -0.00049  -1.41357  -1.45272
   2        2S         -0.00071   1.50756   1.57101
   3        2PX         0.79357  -0.00650   0.01203
   4        2PY        -0.44276  -0.01048   0.02125
   5        2PZ         0.00063  -0.00024  -0.00012
   6        3S          0.00037  -0.29610  -0.40004
   7        3PX        -1.13406   0.02398  -0.05570
   8        3PY         0.62843   0.03942  -0.09726
   9        3PZ        -0.00095   0.00068   0.00039
  10        4S         -0.01587   0.27540   0.76978
  11        4PX         1.99876  -0.02558   0.13354
  12        4PY        -1.11073  -0.04281   0.23062
  13        4PZ         0.00162  -0.00115  -0.00149
  14 2   H  1S          0.56888   0.01283   0.00709
  15        2S         -0.88956   0.00775  -0.01460
  16        3S         -0.46717  -0.08404  -0.03930
  17 3   H  1S         -0.58198   0.01486   0.00857
  18        2S          0.90823   0.00722  -0.01492
  19        3S          0.49539  -0.08653  -0.03981
  20 4   C  1S          0.00017  -1.44790   1.41833
  21        2S         -0.00006   1.54423  -1.53387
  22        2PX        -0.70080   0.00601   0.01269
  23        2PY         0.40077   0.01093   0.02147
  24        2PZ        -0.00054  -0.00025   0.00005
  25        3S          0.00396  -0.30280   0.39046
  26        3PX         0.99875  -0.02234  -0.05682
  27        3PY        -0.58032  -0.04006  -0.09734
  28        3PZ         0.00081   0.00073  -0.00010
  29        4S         -0.01053   0.27811  -0.76103
  30        4PX        -1.77096   0.02364   0.13139
  31        4PY         1.03555   0.04373   0.22673
  32        4PZ        -0.00140  -0.00117   0.00086
  33 5   H  1S          0.47856   0.01352  -0.00467
  34        2S         -0.74902   0.00807   0.01377
  35        3S         -0.42983  -0.08309   0.03734
  36 6   H  1S         -0.47248   0.01193  -0.00336
  37        2S          0.74214   0.00938   0.01312
  38        3S          0.41803  -0.08107   0.03643
     Density Matrix:
                           1         2         3         4         5
   1 1   C  1S          0.65939
   2        2S          0.56150   0.49198
   3        2PX        -0.00047  -0.00061   0.08440
   4        2PY        -0.00125  -0.00174   0.00370   0.08771
   5        2PZ         0.00004   0.00006  -0.00006  -0.00014   0.06449
   6        3S         -0.08887  -0.15375   0.00244   0.00622  -0.00009
   7        3PX         0.00091   0.00141   0.13064   0.00114  -0.00004
   8        3PY         0.00120   0.00185   0.00116   0.13112  -0.00013
   9        3PZ         0.00008   0.00013  -0.00010  -0.00021   0.10372
  10        4S         -0.07929  -0.11415  -0.01591  -0.02869   0.00027
  11        4PX         0.00025   0.00158   0.06999  -0.00454  -0.00026
  12        4PY         0.00065   0.00310  -0.00456   0.06533  -0.00046
  13        4PZ        -0.00005  -0.00012  -0.00037  -0.00062   0.09584
  14 2   H  1S         -0.02057  -0.03276   0.03481  -0.06289  -0.00051
  15        2S         -0.02298  -0.03676   0.04877  -0.08776  -0.00038
  16        3S          0.00053  -0.00078   0.02036  -0.03308  -0.00000
  17 3   H  1S         -0.02114  -0.03364  -0.07280  -0.00198  -0.00059
  18        2S         -0.02334  -0.03727  -0.10036  -0.00242  -0.00047
  19        3S          0.00058  -0.00072  -0.03814   0.00090  -0.00003
  20 4   C  1S          0.00608   0.00981  -0.01094  -0.01891  -0.00017
  21        2S          0.00976   0.01526  -0.01751  -0.03028  -0.00029
  22        2PX         0.01031   0.01648  -0.01244  -0.03214   0.00022
  23        2PY         0.01799   0.02876  -0.03222  -0.04973   0.00045
  24        2PZ        -0.00023  -0.00037  -0.00016  -0.00022   0.06436
  25        3S         -0.02624  -0.03985   0.04910   0.08499   0.00087
  26        3PX         0.01588   0.02459  -0.01831  -0.04589   0.00029
  27        3PY         0.02767   0.04287  -0.04588  -0.07134   0.00061
  28        3PZ        -0.00039  -0.00062  -0.00028  -0.00039   0.10300
  29        4S          0.00541   0.00400   0.02142   0.03749   0.00110
  30        4PX         0.00307   0.00634  -0.01314  -0.02112   0.00030
  31        4PY         0.00518   0.01081  -0.02116  -0.03763   0.00065
  32        4PZ        -0.00032  -0.00052  -0.00046  -0.00071   0.09600
  33 5   H  1S          0.00419   0.00688  -0.00170  -0.01245  -0.00020
  34        2S          0.00625   0.01038   0.00359  -0.02497   0.00002
  35        3S          0.00317   0.00463   0.00433  -0.01745   0.00006
  36 6   H  1S          0.00413   0.00677  -0.00997  -0.00771  -0.00021
  37        2S          0.00612   0.01019  -0.02346  -0.00935  -0.00001
  38        3S          0.00311   0.00455  -0.01728  -0.00501   0.00003
                           6         7         8         9        10
   6        3S          0.45227
   7        3PX        -0.00196   0.20256
   8        3PY        -0.00150  -0.00493   0.19653
   9        3PZ        -0.00026  -0.00008  -0.00019   0.16682
  10        4S          0.27279  -0.02661  -0.04888   0.00035   0.18216
  11        4PX        -0.00687   0.10886  -0.01037  -0.00043  -0.01521
  12        4PY        -0.01273  -0.01041   0.09836  -0.00073  -0.02952
  13        4PZ         0.00054  -0.00049  -0.00081   0.15414   0.00098
  14 2   H  1S          0.08757   0.05625  -0.09819  -0.00086   0.06963
  15        2S          0.09836   0.07919  -0.13655  -0.00064   0.08257
  16        3S          0.00622   0.03337  -0.05086  -0.00001   0.01160
  17 3   H  1S          0.09000  -0.11395  -0.00129  -0.00097   0.06948
  18        2S          0.09985  -0.15691  -0.00065  -0.00078   0.08085
  19        3S          0.00628  -0.05939   0.00332  -0.00005   0.01040
  20 4   C  1S         -0.02660  -0.01709  -0.02958  -0.00030   0.00511
  21        2S         -0.04023  -0.02657  -0.04601  -0.00049   0.00383
  22        2PX        -0.04611  -0.01764  -0.04548   0.00038  -0.01699
  23        2PY        -0.08049  -0.04563  -0.07073   0.00077  -0.02965
  24        2PZ         0.00110  -0.00022  -0.00028   0.10351   0.00111
  25        3S          0.10227   0.07215   0.12512   0.00146   0.00090
  26        3PX        -0.06647  -0.02610  -0.06472   0.00050  -0.02516
  27        3PY        -0.11595  -0.06478  -0.10140   0.00103  -0.04383
  28        3PZ         0.00182  -0.00039  -0.00052   0.16567   0.00184
  29        4S          0.00197   0.03245   0.05704   0.00183  -0.03228
  30        4PX        -0.02245  -0.01956  -0.02955   0.00050  -0.00611
  31        4PY        -0.03853  -0.02968  -0.05421   0.00107  -0.00986
  32        4PZ         0.00152  -0.00065  -0.00098   0.15440   0.00170
  33 5   H  1S         -0.02043  -0.00057  -0.01778  -0.00030  -0.01429
  34        2S         -0.03099   0.00881  -0.03665   0.00006  -0.01843
  35        3S         -0.01189   0.00827  -0.02625   0.00010  -0.00312
  36 6   H  1S         -0.02008  -0.01498  -0.00918  -0.00031  -0.01442
  37        2S         -0.03043  -0.03590  -0.01028   0.00003  -0.01900
  38        3S         -0.01167  -0.02670  -0.00582   0.00007  -0.00358
                          11        12        13        14        15
  11        4PX         0.05959
  12        4PY        -0.00910   0.05077
  13        4PZ        -0.00062  -0.00101   0.14243
  14 2   H  1S          0.03347  -0.05399  -0.00044   0.08107
  15        2S          0.04798  -0.07489  -0.00015   0.10934   0.14949
  16        3S          0.02071  -0.02771   0.00011   0.03655   0.05218
  17 3   H  1S         -0.06286   0.00176  -0.00050  -0.01328  -0.02449
  18        2S         -0.08694   0.00400  -0.00021  -0.02438  -0.04189
  19        3S         -0.03320   0.00423   0.00008  -0.01770  -0.02668
  20 4   C  1S         -0.00321  -0.00585  -0.00027   0.00423   0.00678
  21        2S         -0.00662  -0.01192  -0.00044   0.00699   0.01132
  22        2PX        -0.01333  -0.01968   0.00050   0.00184  -0.00260
  23        2PY        -0.01978  -0.03658   0.00098   0.01134   0.02417
  24        2PZ        -0.00034  -0.00050   0.09565  -0.00026  -0.00010
  25        3S          0.02339   0.04180   0.00129  -0.02107  -0.03407
  26        3PX        -0.02055  -0.02786   0.00068   0.00109  -0.00698
  27        3PY        -0.02797  -0.05333   0.00135   0.01695   0.03626
  28        3PZ        -0.00056  -0.00084   0.15308  -0.00039  -0.00011
  29        4S          0.00849   0.01622   0.00168  -0.01814  -0.02509
  30        4PX        -0.01498  -0.01224   0.00060  -0.00163  -0.00835
  31        4PY        -0.01233  -0.02957   0.00123   0.01536   0.02740
  32        4PZ        -0.00068  -0.00106   0.14267  -0.00022   0.00010
  33 5   H  1S          0.00222  -0.01580  -0.00014   0.01122   0.02331
  34        2S          0.00956  -0.02744   0.00023   0.02380   0.04437
  35        3S          0.00773  -0.01579   0.00016   0.01668   0.02790
  36 6   H  1S         -0.01471  -0.00555  -0.00015  -0.00911  -0.01818
  37        2S         -0.02838  -0.00476   0.00021  -0.01891  -0.03436
  38        3S         -0.01733  -0.00093   0.00014  -0.01028  -0.01787
                          16        17        18        19        20
  16        3S          0.02085
  17 3   H  1S         -0.01794   0.08250
  18        2S         -0.02683   0.10972   0.14800
  19        3S         -0.01253   0.03590   0.05066   0.01994
  20 4   C  1S          0.00378   0.00431   0.00683   0.00379   0.65948
  21        2S          0.00558   0.00713   0.01139   0.00557   0.56159
  22        2PX        -0.00340   0.00892   0.02210   0.01667   0.00124
  23        2PY         0.01772   0.00737   0.00975   0.00574   0.00188
  24        2PZ         0.00000  -0.00026  -0.00007   0.00003   0.00004
  25        3S         -0.01447  -0.02142  -0.03418  -0.01436  -0.08932
  26        3PX        -0.00684   0.01424   0.03485   0.02604  -0.00045
  27        3PY         0.02667   0.00957   0.01202   0.00724  -0.00106
  28        3PZ         0.00002  -0.00038  -0.00007   0.00005   0.00008
  29        4S         -0.00626  -0.01789  -0.02422  -0.00571  -0.08010
  30        4PX        -0.00697   0.01404   0.02764   0.01712  -0.00020
  31        4PY         0.01610   0.00655   0.00670   0.00202  -0.00017
  32        4PZ         0.00012  -0.00022   0.00013   0.00013  -0.00002
  33 5   H  1S          0.01622  -0.00909  -0.01810  -0.00937  -0.02012
  34        2S          0.02741  -0.01875  -0.03391  -0.01686  -0.02207
  35        3S          0.01466  -0.01017  -0.01756  -0.00895   0.00062
  36 6   H  1S         -0.00949   0.01122   0.02313   0.01584  -0.01979
  37        2S         -0.01726   0.02385   0.04414   0.02691  -0.02202
  38        3S         -0.00919   0.01672   0.02775   0.01442   0.00050
                          21        22        23        24        25
  21        2S          0.49211
  22        2PX         0.00179   0.08264
  23        2PY         0.00269   0.00366   0.08774
  24        2PZ         0.00005   0.00006   0.00008   0.06424
  25        3S         -0.15434  -0.00572  -0.00870  -0.00006   0.45396
  26        3PX        -0.00067   0.12854   0.00192   0.00004  -0.00040
  27        3PY        -0.00160   0.00199   0.13154   0.00002   0.00067
  28        3PZ         0.00014   0.00009   0.00013   0.10281  -0.00027
  29        4S         -0.11572   0.01340   0.02243   0.00029   0.27831
  30        4PX        -0.00146   0.07364  -0.00524   0.00020   0.00619
  31        4PY        -0.00219  -0.00516   0.06741   0.00038   0.00973
  32        4PZ        -0.00006   0.00036   0.00065   0.09582   0.00034
  33 5   H  1S         -0.03204  -0.03341   0.06381  -0.00061   0.08567
  34        2S         -0.03526  -0.04991   0.08854  -0.00049   0.09434
  35        3S         -0.00056  -0.02292   0.03347  -0.00006   0.00552
  36 6   H  1S         -0.03155   0.07115   0.00288  -0.00053   0.08436
  37        2S         -0.03520   0.10130   0.00079  -0.00039   0.09413
  38        3S         -0.00072   0.04071  -0.00334  -0.00002   0.00582
                          26        27        28        29        30
  26        3PX         0.20025
  27        3PY        -0.00234   0.19777
  28        3PZ         0.00005   0.00003   0.16454
  29        4S          0.02499   0.04154   0.00036   0.18593
  30        4PX         0.11519  -0.01073   0.00032   0.01555   0.06735
  31        4PY        -0.01071   0.10190   0.00061   0.02444  -0.01060
  32        4PZ         0.00045   0.00084   0.15335   0.00089   0.00051
  33 5   H  1S         -0.05331   0.09996  -0.00100   0.06656  -0.03468
  34        2S         -0.08011   0.13819  -0.00082   0.07630  -0.05252
  35        3S         -0.03725   0.05157  -0.00009   0.00887  -0.02457
  36 6   H  1S          0.11243   0.00388  -0.00089   0.06701   0.06619
  37        2S          0.15988  -0.00030  -0.00066   0.07819   0.09461
  38        3S          0.06393  -0.00663  -0.00003   0.00999   0.03818
                          31        32        33        34        35
  31        4PY         0.05405
  32        4PZ         0.00100   0.14292
  33 5   H  1S          0.05610  -0.00052   0.08103
  34        2S          0.07773  -0.00023   0.11014   0.15219
  35        3S          0.02918   0.00006   0.03817   0.05535   0.02298
  36 6   H  1S         -0.00186  -0.00047  -0.01234  -0.02613  -0.02015
  37        2S         -0.00647  -0.00016  -0.02626  -0.04886  -0.03208
  38        3S         -0.00663   0.00009  -0.02041  -0.03225  -0.01596
                          36        37        38
  36 6   H  1S          0.07996
  37        2S          0.10969   0.15289
  38        3S          0.03843   0.05612   0.02342
    Full Mulliken population analysis:
                           1         2         3         4         5
   1 1   C  1S          0.65939
   2        2S          0.49324   0.49198
   3        2PX         0.00000   0.00000   0.08440
   4        2PY         0.00000   0.00000   0.00000   0.08771
   5        2PZ         0.00000   0.00000   0.00000   0.00000   0.06449
   6        3S         -0.02925  -0.06439   0.00000   0.00000   0.00000
   7        3PX         0.00000   0.00000   0.08219   0.00000   0.00000
   8        3PY         0.00000   0.00000   0.00000   0.08249   0.00000
   9        3PZ         0.00000   0.00000   0.00000   0.00000   0.06525
  10        4S         -0.01219  -0.02136   0.00000   0.00000   0.00000
  11        4PX         0.00000   0.00000   0.01541   0.00000   0.00000
  12        4PY         0.00000   0.00000   0.00000   0.01439   0.00000
  13        4PZ         0.00000   0.00000   0.00000   0.00000   0.02111
  14 2   H  1S         -0.00023  -0.00033   0.00183   0.00554   0.00000
  15        2S         -0.00167  -0.00320   0.00434   0.01310   0.00000
  16        3S          0.00004  -0.00007   0.00070   0.00190   0.00000
  17 3   H  1S         -0.00026  -0.00037   0.00793  -0.00000   0.00000
  18        2S         -0.00175  -0.00335   0.01773  -0.00000   0.00000
  19        3S          0.00005  -0.00007   0.00254   0.00000   0.00000
  20 4   C  1S          0.00000   0.00000  -0.00002  -0.00006   0.00000
  21        2S          0.00000  -0.00000  -0.00002  -0.00006   0.00000
  22        2PX        -0.00002  -0.00002   0.00011   0.00086   0.00000
  23        2PY        -0.00006  -0.00005   0.00086   0.00198   0.00000
  24        2PZ        -0.00000  -0.00000  -0.00000  -0.00000   0.00042
  25        3S         -0.00059  -0.00100   0.00257   0.00770  -0.00000
  26        3PX        -0.00054  -0.00099   0.00019   0.00556   0.00000
  27        3PY        -0.00163  -0.00298   0.00556   0.01072   0.00000
  28        3PZ        -0.00000  -0.00000  -0.00000  -0.00000   0.00613
  29        4S          0.00034   0.00030   0.00097   0.00295  -0.00000
  30        4PX        -0.00018  -0.00045  -0.00071   0.00146   0.00000
  31        4PY        -0.00052  -0.00133   0.00147   0.00097   0.00000
  32        4PZ        -0.00000  -0.00000  -0.00000  -0.00000   0.00904
  33 5   H  1S          0.00000   0.00000  -0.00000  -0.00000   0.00000
  34        2S          0.00001   0.00002   0.00000  -0.00031  -0.00000
  35        3S          0.00007   0.00013   0.00001  -0.00070  -0.00000
  36 6   H  1S          0.00000   0.00000  -0.00000  -0.00000   0.00000
  37        2S          0.00001   0.00002  -0.00023  -0.00006   0.00000
  38        3S          0.00007   0.00012  -0.00056  -0.00011  -0.00000
                           6         7         8         9        10
   6        3S          0.45227
   7        3PX         0.00000   0.20256
   8        3PY         0.00000   0.00000   0.19653
   9        3PZ         0.00000   0.00000   0.00000   0.16682
  10        4S          0.21133   0.00000   0.00000   0.00000   0.18216
  11        4PX         0.00000   0.07114   0.00000   0.00000   0.00000
  12        4PY         0.00000   0.00000   0.06427   0.00000   0.00000
  13        4PZ         0.00000   0.00000   0.00000   0.10073   0.00000
  14 2   H  1S          0.01600   0.01093   0.03204   0.00000   0.01838
  15        2S          0.04128   0.01977   0.05724   0.00000   0.04753
  16        3S          0.00286   0.00398   0.01017   0.00000   0.00874
  17 3   H  1S          0.01708   0.04439  -0.00000   0.00001   0.01861
  18        2S          0.04281   0.07720  -0.00000   0.00001   0.04705
  19        3S          0.00292   0.01378   0.00000   0.00000   0.00789
  20 4   C  1S         -0.00060  -0.00058  -0.00174   0.00000   0.00032
  21        2S         -0.00101  -0.00107  -0.00320   0.00000   0.00029
  22        2PX         0.00241   0.00018   0.00551   0.00000   0.00077
  23        2PY         0.00729   0.00553   0.01063   0.00000   0.00233
  24        2PZ         0.00000  -0.00000  -0.00000   0.00616   0.00000
  25        3S          0.02185   0.01355   0.04067  -0.00000   0.00034
  26        3PX         0.01248  -0.00127   0.01849   0.00000   0.00388
  27        3PY         0.03769   0.01851   0.02848   0.00000   0.01170
  28        3PZ         0.00000  -0.00000  -0.00000   0.03540   0.00000
  29        4S          0.00075   0.00501   0.01523  -0.00000  -0.02028
  30        4PX         0.00631  -0.00402   0.00585   0.00000   0.00185
  31        4PY         0.01875   0.00587   0.00124   0.00000   0.00517
  32        4PZ         0.00000  -0.00000  -0.00000   0.04939   0.00000
  33 5   H  1S         -0.00005  -0.00000  -0.00019   0.00000  -0.00076
  34        2S         -0.00119   0.00007  -0.00319  -0.00000  -0.00308
  35        3S         -0.00193   0.00011  -0.00422  -0.00000  -0.00112
  36 6   H  1S         -0.00005  -0.00012  -0.00005   0.00000  -0.00075
  37        2S         -0.00113  -0.00250  -0.00050  -0.00000  -0.00312
  38        3S         -0.00187  -0.00350  -0.00053  -0.00000  -0.00127
                          11        12        13        14        15
  11        4PX         0.05959
  12        4PY         0.00000   0.05077
  13        4PZ         0.00000   0.00000   0.14243
  14 2   H  1S          0.00641   0.01736   0.00000   0.08107
  15        2S          0.01548   0.04056   0.00000   0.07724   0.14949
  16        3S          0.00524   0.01177  -0.00000   0.01366   0.04117
  17 3   H  1S          0.02356   0.00000   0.00000  -0.00001  -0.00062
  18        2S          0.05470   0.00001   0.00000  -0.00062  -0.00513
  19        3S          0.01631   0.00001  -0.00000  -0.00195  -0.00769
  20 4   C  1S         -0.00019  -0.00059   0.00000   0.00000   0.00002
  21        2S         -0.00047  -0.00147   0.00000   0.00000   0.00003
  22        2PX        -0.00072   0.00136   0.00000  -0.00000   0.00000
  23        2PY         0.00137   0.00094   0.00000  -0.00000  -0.00036
  24        2PZ        -0.00000  -0.00000   0.00901   0.00000   0.00000
  25        3S          0.00657   0.02034  -0.00000  -0.00007  -0.00152
  26        3PX        -0.00422   0.00551   0.00000  -0.00000   0.00004
  27        3PY         0.00554   0.00122   0.00000  -0.00023  -0.00361
  28        3PZ        -0.00000  -0.00000   0.04896   0.00000   0.00000
  29        4S          0.00257   0.00851  -0.00000  -0.00107  -0.00454
  30        4PX        -0.00722   0.00310   0.00000   0.00001   0.00016
  31        4PY         0.00312  -0.00563   0.00000  -0.00246  -0.01038
  32        4PZ        -0.00000  -0.00000   0.08964   0.00000  -0.00000
  33 5   H  1S          0.00003  -0.00233   0.00000   0.00000   0.00000
  34        2S          0.00029  -0.00982  -0.00000   0.00000   0.00016
  35        3S          0.00031  -0.00728  -0.00000   0.00023   0.00147
  36 6   H  1S         -0.00176  -0.00046   0.00000  -0.00000  -0.00004
  37        2S         -0.00826  -0.00096  -0.00000  -0.00004  -0.00091
  38        3S         -0.00655  -0.00024  -0.00000  -0.00046  -0.00247
                          16        17        18        19        20
  16        3S          0.02085
  17 3   H  1S         -0.00197   0.08250
  18        2S         -0.00773   0.07751   0.14800
  19        3S         -0.00646   0.01342   0.03997   0.01994
  20 4   C  1S          0.00009   0.00000   0.00002   0.00010   0.65948
  21        2S          0.00017   0.00000   0.00003   0.00017   0.49333
  22        2PX         0.00001  -0.00000  -0.00028  -0.00059   0.00000
  23        2PY        -0.00075  -0.00000  -0.00008  -0.00013   0.00000
  24        2PZ        -0.00000   0.00000   0.00000  -0.00000   0.00000
  25        3S         -0.00251  -0.00008  -0.00155  -0.00251  -0.02940
  26        3PX         0.00006  -0.00016  -0.00293  -0.00367   0.00000
  27        3PY        -0.00448  -0.00007  -0.00067  -0.00067   0.00000
  28        3PZ        -0.00000   0.00000   0.00000  -0.00000   0.00000
  29        4S         -0.00236  -0.00107  -0.00442  -0.00216  -0.01232
  30        4PX         0.00017  -0.00189  -0.00881  -0.00679   0.00000
  31        4PY        -0.00761  -0.00058  -0.00141  -0.00053   0.00000
  32        4PZ        -0.00000   0.00000  -0.00000  -0.00000   0.00000
  33 5   H  1S          0.00023  -0.00000  -0.00004  -0.00043  -0.00022
  34        2S          0.00144  -0.00004  -0.00091  -0.00235  -0.00159
  35        3S          0.00247  -0.00046  -0.00245  -0.00286   0.00005
  36 6   H  1S         -0.00043   0.00000   0.00000   0.00022  -0.00020
  37        2S         -0.00239   0.00000   0.00015   0.00141  -0.00154
  38        3S         -0.00293   0.00023   0.00145   0.00242   0.00004
                          21        22        23        24        25
  21        2S          0.49211
  22        2PX         0.00000   0.08264
  23        2PY         0.00000   0.00000   0.08774
  24        2PZ         0.00000   0.00000   0.00000   0.06424
  25        3S         -0.06464   0.00000   0.00000   0.00000   0.45396
  26        3PX         0.00000   0.08086   0.00000   0.00000   0.00000
  27        3PY         0.00000   0.00000   0.08276   0.00000   0.00000
  28        3PZ         0.00000   0.00000   0.00000   0.06468   0.00000
  29        4S         -0.02166   0.00000   0.00000   0.00000   0.21561
  30        4PX         0.00000   0.01622   0.00000   0.00000   0.00000
  31        4PY         0.00000   0.00000   0.01485   0.00000   0.00000
  32        4PZ         0.00000   0.00000   0.00000   0.02110   0.00000
  33 5   H  1S         -0.00031   0.00148   0.00576   0.00000   0.01547
  34        2S         -0.00303   0.00379   0.01375   0.00000   0.03933
  35        3S         -0.00005   0.00067   0.00201   0.00000   0.00253
  36 6   H  1S         -0.00028   0.00681   0.00002   0.00000   0.01480
  37        2S         -0.00295   0.01724   0.00001   0.00000   0.03861
  38        3S         -0.00007   0.00272  -0.00002   0.00000   0.00265
                          26        27        28        29        30
  26        3PX         0.20025
  27        3PY         0.00000   0.19777
  28        3PZ         0.00000   0.00000   0.16454
  29        4S          0.00000   0.00000   0.00000   0.18593
  30        4PX         0.07527   0.00000   0.00000   0.00000   0.06735
  31        4PY         0.00000   0.06659   0.00000   0.00000   0.00000
  32        4PZ         0.00000   0.00000   0.10021   0.00000   0.00000
  33 5   H  1S          0.00883   0.03383   0.00001   0.01749   0.00570
  34        2S          0.01714   0.06039   0.00001   0.04377   0.01456
  35        3S          0.00382   0.01080   0.00000   0.00667   0.00535
  36 6   H  1S          0.04143   0.00010   0.00000   0.01742   0.02466
  37        2S          0.07707  -0.00001   0.00000   0.04447   0.05958
  38        3S          0.01490  -0.00011   0.00000   0.00748   0.01894
                          31        32        33        34        35
  31        4PY         0.05405
  32        4PZ         0.00000   0.14292
  33 5   H  1S          0.01885   0.00000   0.08103
  34        2S          0.04402   0.00000   0.07780   0.15219
  35        3S          0.01298  -0.00000   0.01426   0.04367   0.02298
  36 6   H  1S         -0.00005   0.00000  -0.00001  -0.00082  -0.00240
  37        2S         -0.00029   0.00000  -0.00083  -0.00686  -0.00987
  38        3S         -0.00024  -0.00000  -0.00243  -0.00992  -0.00859
                          36        37        38
  36 6   H  1S          0.07996
  37        2S          0.07748   0.15289
  38        3S          0.01436   0.04428   0.02342
     Gross orbital populations:
                           1
   1 1   C  1S          1.10435
   2        2S          0.88586
   3        2PX         0.22727
   4        2PY         0.23602
   5        2PZ         0.16644
   6        3S          0.79263
   7        3PX         0.56169
   8        3PY         0.55521
   9        3PZ         0.42376
  10        4S          0.50441
  11        4PX         0.25824
  12        4PY         0.21133
  13        4PZ         0.41188
  14 2   H  1S          0.27324
  15        2S          0.46693
  16        3S          0.08601
  17 3   H  1S          0.27764
  18        2S          0.46450
  19        3S          0.08226
  20 4   C  1S          1.10441
  21        2S          0.88584
  22        2PX         0.22202
  23        2PY         0.23637
  24        2PZ         0.16561
  25        3S          0.79269
  26        3PX         0.55199
  27        3PY         0.55719
  28        3PZ         0.41994
  29        4S          0.50561
  30        4PX         0.27649
  31        4PY         0.21689
  32        4PZ         0.41231
  33 5   H  1S          0.27318
  34        2S          0.46930
  35        3S          0.08866
  36 6   H  1S          0.26984
  37        2S          0.47077
  38        3S          0.09120
          Condensed to atoms (all electrons):
               1          2          3          4          5          6
     1  C    5.029793   0.387693   0.388775   0.602329  -0.035115  -0.034381
     2  H    0.387693   0.515546  -0.032180  -0.041206   0.006004  -0.009672
     3  H    0.388775  -0.032180   0.512219  -0.040747  -0.009561   0.005892
     4  C    0.602329  -0.041206  -0.040747   5.059911   0.383875   0.383202
     5  H   -0.035115   0.006004  -0.009561   0.383875   0.527679  -0.041738
     6  H   -0.034381  -0.009672   0.005892   0.383202  -0.041738   0.528511
 Mulliken charges:
               1
     1  C   -0.339094
     2  H    0.173815
     3  H    0.175601
     4  C   -0.347365
     5  H    0.168856
     6  H    0.168185
 Sum of Mulliken charges =   0.00000
 Mulliken charges with hydrogens summed into heavy atoms:
               1
     1  C    0.010323
     4  C   -0.010323
 Electronic spatial extent (au):  <R**2>=             83.6844
 Charge=             -0.0000 electrons
 Dipole moment (field-independent basis, Debye):
    X=              0.0042    Y=              0.0294    Z=             -0.0479  Tot=              0.0563
 Quadrupole moment (field-independent basis, Debye-Ang):
   XX=            -12.2026   YY=            -12.2165   ZZ=            -15.6705
   XY=              0.0163   XZ=             -0.0002   YZ=             -0.0031
 Traceless Quadrupole moment (field-independent basis, Debye-Ang):
   XX=              1.1606   YY=              1.1467   ZZ=             -2.3073
   XY=              0.0163   XZ=             -0.0002   YZ=             -0.0031
 Octapole moment (field-independent basis, Debye-Ang**2):
  XXX=             -0.4033  YYY=             -0.0195  ZZZ=             -0.0631  XYY=              0.2608
  XXY=             -0.0198  XXZ=             -0.0728  XZZ=             -0.0979  YZZ=             -0.0843
  YYZ=             -0.0935  XYZ=             -0.0178
 Hexadecapole moment (field-independent basis, Debye-Ang**3):
 XXXX=            -34.2862 YYYY=            -55.1802 ZZZZ=            -17.7956 XXXY=             -7.2384
 XXXZ=              0.0125 YYYX=            -10.6855 YYYZ=              0.0181 ZZZX=              0.0157
 ZZZY=              0.0307 XXYY=            -16.1773 XXZZ=             -9.9258 YYZZ=            -13.6400
 XXYZ=              0.0070 YYXZ=              0.0016 ZZXY=             -3.2021
 N-N= 3.308094668789D+01 E-N=-2.478742444706D+02  KE= 7.815497957317D+01
 Orbital energies and kinetic energies (alpha):
                                 1                 2
   1         O               -10.290001         15.977994
   2         O               -10.288078         15.980240
   3         O                -0.864057          1.539681
   4         O                -0.672242          1.270676
   5         O                -0.559626          0.942472
   6         O                -0.509422          1.284686
   7         O                -0.436081          1.043081
   8         O                -0.357053          1.038659
   9         V                 0.080206          1.181638
  10         V                 0.140947          0.589355
  11         V                 0.164681          0.594718
  12         V                 0.170025          0.680178
  13         V                 0.240767          0.583358
  14         V                 0.371659          0.845129
  15         V                 0.393417          0.934308
  16         V                 0.401148          0.789104
  17         V                 0.463639          1.193370
  18         V                 0.488698          1.417091
  19         V                 0.493651          1.300993
  20         V                 0.591147          1.652856
  21         V                 0.665587          1.570698
  22         V                 0.691458          2.148378
  23         V                 0.772831          2.452868
  24         V                 0.775605          2.287276
  25         V                 0.844924          1.088534
  26         V                 0.952802          3.430781
  27         V                 2.231106          3.928484
  28         V                 2.290688          4.027071
  29         V                 2.333042          4.305285
  30         V                 2.407873          4.519387
  31         V                 2.671267          6.301414
  32         V                 2.818259          6.308011
  33         V                 2.876949          6.136397
  34         V                 2.951730          6.226977
  35         V                 3.142142          6.820358
  36         V                 3.320681          6.401466
  37         V                23.352100         60.074188
  38         V                23.706742         60.204444
 Total kinetic energy from orbitals= 7.815497957317D+01
 Calling FoFJK, ICntrl=      2127 FMM=F ISym2X=0 I1Cent= 0 IOpClX= 0 NMat=1 NMatS=1 NMatT=0.
 -------------------------------------------------------------------
 Center     Atomic                   Forces (Hartrees/Bohr)
 Number     Number              X              Y              Z
 -------------------------------------------------------------------
      1        6           0.015047696    0.008539973   -0.001932017
      2        1          -0.011051509    0.006062530    0.000974778
      3        1           0.001975122   -0.005909217    0.000874838
      4        6           0.011506669    0.011570251   -0.002094369
      5        1           0.000197123   -0.013040868    0.001058736
      6        1          -0.017675101   -0.007222667    0.001118033
 -------------------------------------------------------------------
 Cartesian Forces:  Max     0.017675101 RMS     0.008531749

 GradGradGradGradGradGradGradGradGradGradGradGradGradGradGradGradGradGrad
 Berny optimization.
 Search for a local minimum.
 Step number   1 out of a maximum of    2
 All quantities printed in internal units (Hartrees-Bohrs-Radians)
 Second derivative matrix not updated -- first step.
 The second derivative matrix:
                          X1        Y1        Z1        X2        Y2
           X1           0.76281
           Y1           0.09626   0.85773
           Z1           0.00277   0.00396   0.17053
           X2          -0.16610   0.09686   0.00097   0.14332
           Y2           0.10247  -0.28042  -0.00352  -0.11604   0.26901
           Z2           0.00157  -0.00445  -0.05456  -0.00143   0.00363
           X3          -0.35421   0.00082  -0.00397   0.00010   0.00006
           Y3          -0.00461  -0.11080  -0.00094   0.03228   0.01922
           Z3          -0.00509  -0.00090  -0.05588   0.00074   0.00029
           X4          -0.26800  -0.17921  -0.00026   0.02269   0.01351
           Y4          -0.17970  -0.47484  -0.00039  -0.01311  -0.00780
           Z4           0.00074   0.00135  -0.09505  -0.00028  -0.00040
           X5           0.02363  -0.01365   0.00031  -0.00000   0.00000
           Y5           0.01156  -0.00668   0.00043   0.00000  -0.00000
           Z5          -0.00026   0.00017   0.01778   0.00012  -0.00006
           X6           0.00188  -0.00108   0.00019  -0.00000   0.00000
           Y6          -0.02599   0.01501   0.00046   0.00000  -0.00000
           Z6           0.00027  -0.00014   0.01717  -0.00012   0.00006
                          Z2        X3        Y3        Z3        X4
           Z2           0.02826
           X3          -0.00014   0.35420
           Y3           0.00080  -0.00093   0.07614
           Z3           0.01057   0.00433   0.00061   0.02923
           X4           0.00024  -0.00009  -0.02675  -0.00023   0.71084
           Y4          -0.00012   0.00005   0.01545   0.00015   0.12485
           Z4           0.01566  -0.00022  -0.00047   0.01615  -0.00256
           X5          -0.00012  -0.00000   0.00000   0.00013  -0.14512
           Y5           0.00008   0.00000  -0.00000  -0.00008   0.09218
           Z5           0.00931   0.00013  -0.00008  -0.00949  -0.00156
           X6          -0.00012  -0.00000   0.00000   0.00013  -0.32033
           Y6           0.00006   0.00000  -0.00000  -0.00006  -0.02458
           Z6          -0.00925  -0.00013   0.00008   0.00942   0.00437
                          Y4        Z4        X5        Y5        Z5
           Y4           0.86418
           Z4          -0.00519   0.17806
           X5           0.08357  -0.00104   0.12386
           Y5          -0.29247   0.00374  -0.10259   0.28317
           Z5           0.00459  -0.05778   0.00139  -0.00399   0.02992
           X6          -0.01566   0.00336  -0.00236  -0.00115   0.00018
           Y6          -0.10452   0.00097   0.03266   0.01598  -0.00063
           Z6           0.00096  -0.05705  -0.00066  -0.00017   0.01025
                          X6        Y6        Z6
           X6           0.32082
           Y6           0.01790   0.07353
           Z6          -0.00373  -0.00080   0.02945
 ITU=  0
     Eigenvalues ---    0.03750   0.04381   0.09441   0.09891   0.13532
     Eigenvalues ---    0.17446   0.26596   0.29024   0.52845   0.69993
     Eigenvalues ---    0.97593   1.56762
 Angle between quadratic step and forces=  33.01 degrees.
 Linear search not attempted -- first point.
 B after Tr=     0.007788    0.008983   -0.004901
         Rot=    1.000000   -0.000027    0.000014   -0.000128 Ang=  -0.02 deg.
 Variable       Old X    -DE/DX   Delta X   Delta X   Delta X     New X
                                 (Linear)    (Quad)   (Total)
    X1       -0.63623   0.01505   0.00000   0.02288   0.03095  -0.60529
    Y1       -1.10009   0.00854   0.00000   0.02518   0.03401  -1.06608
    Z1        0.00798  -0.00193   0.00000  -0.01050  -0.01548  -0.00750
    X2        0.42624  -0.01105   0.00000  -0.04375  -0.03522   0.39102
    Y2       -2.88388   0.00606   0.00000   0.02259   0.03168  -2.85220
    Z2       -0.01779   0.00097   0.00000   0.01287   0.00783  -0.00997
    X3       -2.68592   0.00198   0.00000   0.02807   0.03615  -2.64978
    Y3       -1.09330  -0.00591   0.00000  -0.02598  -0.01767  -1.11097
    Z3       -0.01930   0.00087   0.00000   0.01252   0.00748  -0.01181
    X4        0.62768   0.01151   0.00000   0.00933   0.01684   0.64452
    Y4        1.08788   0.01157   0.00000   0.01202   0.02117   1.10905
    Z4        0.00534  -0.00209   0.00000  -0.00978  -0.01460  -0.00926
    X5       -0.28876   0.00020   0.00000  -0.02050  -0.01346  -0.30222
    Y5        2.95988  -0.01304   0.00000  -0.04169  -0.03278   2.92710
    Z5       -0.02348   0.00106   0.00000   0.01233   0.00758  -0.01590
    X6        2.72658  -0.01768   0.00000  -0.04273  -0.03525   2.69134
    Y6        1.23906  -0.00722   0.00000  -0.04608  -0.03640   1.20265
    Z6       -0.02183   0.00112   0.00000   0.01195   0.00720  -0.01464
         Item               Value     Threshold  Converged?
 Maximum Force            0.017675     0.000450     NO 
 RMS     Force            0.008532     0.000300     NO 
 Maximum Displacement     0.036404     0.001800     NO 
 RMS     Displacement     0.024957     0.001200     NO 
 Predicted change in Energy=-1.676761D-03
 GradGradGradGradGradGradGradGradGradGradGradGradGradGradGradGradGradGrad

 Unable to Open any file for archive entry.
 1\1\GINC-BHD0010\Force\RwB97XD\6-311G\C2H4\BWEIGHT\11-Jan-2023\0\\# WB
 97XD/6-311G SCF=XQC FORCE nosym pop=full guess=read\\MD Step 999\\0,1\
 C,-0.3366807,-0.58214317,0.00422144\H,0.22555697,-1.52608143,-0.009415
 23\H,-1.42132816,-0.57854813,-0.0102109\C,0.33215621,0.57568174,0.0028
 2562\H,-0.15280735,1.5663012,-0.012425\H,1.44284531,0.65568045,-0.0115
 5402\\Version=ES64L-G16RevC.01\HF=-78.5555211\RMSD=5.234e-09\RMSF=8.53
 2e-03\Dipole=0.0016477,0.011569,-0.018828\Quadrupole=0.862865,0.852525
 4,-1.7153904,0.012146,-0.0001374,-0.0022772\PG=C01 [X(C2H4)]\\@
 The archive entry for this job was punched.


 A SOLDIER'S LIFE IS A LIFE OF HONOR, BUT A DOG WOULD NOT LEAD IT.
 -- PRINCE RUPERT, FOUNDER OF THE HUDSON'S BAY COMPANY
 Job cpu time:       0 days  0 hours  0 minutes 26.1 seconds.
 Elapsed time:       0 days  0 hours  0 minutes  9.8 seconds.
 File lengths (MBytes):  RWF=    272 Int=      0 D2E=      0 Chk=     32 Scr=     32
 Normal termination of Gaussian 16 at Wed Jan 11 18:47:30 2023.
