 Entering Gaussian System, Link 0=g16
 Initial command:
 /software/gaussian/g16-c01/avx2/g16/l1.exe "/gpfs/fs2/scratch/bweight/software/many_molecule_many_mode_NAMD/src/NAMD/TEST_NVT/TRAJ/traj-91/G16/GS_NEW/Gau-7453.inp" -scrdir="/gpfs/fs2/scratch/bweight/software/many_molecule_many_mode_NAMD/src/NAMD/TEST_NVT/TRAJ/traj-91/G16/GS_NEW/"
 Entering Link 1 = /software/gaussian/g16-c01/avx2/g16/l1.exe PID=      7454.
  
 Copyright (c) 1988-2019, Gaussian, Inc.  All Rights Reserved.
  
 This is part of the Gaussian(R) 16 program.  It is based on
 the Gaussian(R) 09 system (copyright 2009, Gaussian, Inc.),
 the Gaussian(R) 03 system (copyright 2003, Gaussian, Inc.),
 the Gaussian(R) 98 system (copyright 1998, Gaussian, Inc.),
 the Gaussian(R) 94 system (copyright 1995, Gaussian, Inc.),
 the Gaussian 92(TM) system (copyright 1992, Gaussian, Inc.),
 the Gaussian 90(TM) system (copyright 1990, Gaussian, Inc.),
 the Gaussian 88(TM) system (copyright 1988, Gaussian, Inc.),
 the Gaussian 86(TM) system (copyright 1986, Carnegie Mellon
 University), and the Gaussian 82(TM) system (copyright 1983,
 Carnegie Mellon University). Gaussian is a federally registered
 trademark of Gaussian, Inc.
  
 This software contains proprietary and confidential information,
 including trade secrets, belonging to Gaussian, Inc.
  
 This software is provided under written license and may be
 used, copied, transmitted, or stored only in accord with that
 written license.
  
 The following legend is applicable only to US Government
 contracts under FAR:
  
                    RESTRICTED RIGHTS LEGEND
  
 Use, reproduction and disclosure by the US Government is
 subject to restrictions as set forth in subparagraphs (a)
 and (c) of the Commercial Computer Software - Restricted
 Rights clause in FAR 52.227-19.
  
 Gaussian, Inc.
 340 Quinnipiac St., Bldg. 40, Wallingford CT 06492
  
  
 ---------------------------------------------------------------
 Warning -- This program may not be used in any manner that
 competes with the business of Gaussian, Inc. or will provide
 assistance to any competitor of Gaussian, Inc.  The licensee
 of this program is prohibited from giving any competitor of
 Gaussian, Inc. access to this program.  By using this program,
 the user acknowledges that Gaussian, Inc. is engaged in the
 business of creating and licensing software in the field of
 computational chemistry and represents and warrants to the
 licensee that it is not a competitor of Gaussian, Inc. and that
 it will not use this program in any manner prohibited above.
 ---------------------------------------------------------------
  

 Cite this work as:
 Gaussian 16, Revision C.01,
 M. J. Frisch, G. W. Trucks, H. B. Schlegel, G. E. Scuseria, 
 M. A. Robb, J. R. Cheeseman, G. Scalmani, V. Barone, 
 G. A. Petersson, H. Nakatsuji, X. Li, M. Caricato, A. V. Marenich, 
 J. Bloino, B. G. Janesko, R. Gomperts, B. Mennucci, H. P. Hratchian, 
 J. V. Ortiz, A. F. Izmaylov, J. L. Sonnenberg, D. Williams-Young, 
 F. Ding, F. Lipparini, F. Egidi, J. Goings, B. Peng, A. Petrone, 
 T. Henderson, D. Ranasinghe, V. G. Zakrzewski, J. Gao, N. Rega, 
 G. Zheng, W. Liang, M. Hada, M. Ehara, K. Toyota, R. Fukuda, 
 J. Hasegawa, M. Ishida, T. Nakajima, Y. Honda, O. Kitao, H. Nakai, 
 T. Vreven, K. Throssell, J. A. Montgomery, Jr., J. E. Peralta, 
 F. Ogliaro, M. J. Bearpark, J. J. Heyd, E. N. Brothers, K. N. Kudin, 
 V. N. Staroverov, T. A. Keith, R. Kobayashi, J. Normand, 
 K. Raghavachari, A. P. Rendell, J. C. Burant, S. S. Iyengar, 
 J. Tomasi, M. Cossi, J. M. Millam, M. Klene, C. Adamo, R. Cammi, 
 J. W. Ochterski, R. L. Martin, K. Morokuma, O. Farkas, 
 J. B. Foresman, and D. J. Fox, Gaussian, Inc., Wallingford CT, 2019.
 
 ******************************************
 Gaussian 16:  ES64L-G16RevC.01  3-Jul-2019
                11-Jan-2023 
 ******************************************
 %oldchk=../GS_OLD/geometry.chk
 %chk=geometry.chk
 %nprocshared=4
 Will use up to    4 processors via shared memory.
 %mem=5GB
 Copying data from "../GS_OLD/geometry.chk" to current chk file "geometry.chk"
 IOpt=  2 FromEx=T IUOpen= 4 IOptOp= 5 NList=   0 IFRang= 0 IUIn= 4 IUOut= 2.
 -------------------------------------------------------
 # WB97XD/6-311G SCF=XQC FORCE nosym pop=full guess=read
 -------------------------------------------------------
 1/10=7,30=1,38=1/1,3;
 2/12=2,15=1,17=6,18=5,40=1/2;
 3/5=4,6=6,11=2,25=1,30=1,71=1,74=-58,116=-2/1,2,3;
 4/5=1/1;
 5/5=2,8=3,13=1,38=6/2,8;
 6/7=3,28=1/1;
 7/29=1,30=1/1,2,3,16;
 1/10=7,30=1/3;
 99//99;
 -----------
 MD Step 999
 -----------
 Symbolic Z-matrix:
 Charge =  0 Multiplicity = 1
 C                    -0.33564  -0.58098   0.00794 
 H                     0.21447  -1.5292   -0.02732 
 H                    -1.41934  -0.58652  -0.02754 
 C                     0.33337   0.57678   0.0059 
 H                    -0.16351   1.56687  -0.02988 
 H                     1.44618   0.64963  -0.02946 
 

 GradGradGradGradGradGradGradGradGradGradGradGradGradGradGradGradGradGrad
 Berny optimization.
 Initialization pass.
 Trust Radius=3.00D-01 FncErr=1.00D-07 GrdErr=1.00D-07 EigMax=2.50D+02 EigMin=1.00D-04
 Number of steps in this run=      2 maximum allowed number of steps=      2.
 GradGradGradGradGradGradGradGradGradGradGradGradGradGradGradGradGradGrad

                          Input orientation:                          
 ---------------------------------------------------------------------
 Center     Atomic      Atomic             Coordinates (Angstroms)
 Number     Number       Type             X           Y           Z
 ---------------------------------------------------------------------
      1          6           0       -0.335642   -0.580979    0.007940
      2          1           0        0.214466   -1.529197   -0.027323
      3          1           0       -1.419340   -0.586519   -0.027538
      4          6           0        0.333370    0.576778    0.005902
      5          1           0       -0.163509    1.566869   -0.029885
      6          1           0        1.446178    0.649635   -0.029464
 ---------------------------------------------------------------------
                    Distance matrix (angstroms):
                    1          2          3          4          5
     1  C    0.000000
     2  H    1.096803   0.000000
     3  H    1.084293   1.886256   0.000000
     4  C    1.337155   2.109591   2.103894   0.000000
     5  H    2.155067   3.119054   2.492829   1.108354   0.000000
     6  H    2.165801   2.502884   3.120781   1.115752   1.852677
                    6
     6  H    0.000000
 Symmetry turned off by external request.
 Stoichiometry    C2H4
 Framework group  C1[X(C2H4)]
 Deg. of freedom    12
 Full point group                 C1      NOp   1
 Rotational constants (GHZ):         143.2922358          29.6861599          24.6018632
 Standard basis: 6-311G (5D, 7F)
    38 basis functions,    72 primitive gaussians,    38 cartesian basis functions
     8 alpha electrons        8 beta electrons
       nuclear repulsion energy        33.0629580661 Hartrees.
 NAtoms=    6 NActive=    6 NUniq=    6 SFac= 1.00D+00 NAtFMM=   60 NAOKFM=F Big=F
 Integral buffers will be    131072 words long.
 Raffenetti 2 integral format.
 Two-electron integral symmetry is turned off.
 Nuclear repulsion after empirical dispersion term =       33.0621170972 Hartrees.
 One-electron integrals computed using PRISM.
 NBasis=    38 RedAO= T EigKep=  6.41D-03  NBF=    38
 NBsUse=    38 1.00D-06 EigRej= -1.00D+00 NBFU=    38
 Initial guess from the checkpoint file:  "geometry.chk"
 B after Tr=    -0.000163   -0.000346   -0.000417
         Rot=    1.000000   -0.000004    0.000003    0.000006 Ang=  -0.00 deg.
 Keep R1 ints in memory in canonical form, NReq=4036876.
 Requested convergence on RMS density matrix=1.00D-08 within  32 cycles.
 Requested convergence on MAX density matrix=1.00D-06.
 Requested convergence on             energy=1.00D-06.
 No special actions if energy rises.
 SCF Done:  E(RwB97XD) =  -78.5555064612     A.U. after    8 cycles
            NFock=  8  Conv=0.71D-08     -V/T= 2.0052
 QCSCF skips out because SCF is already converged.

 **********************************************************************

            Population analysis using the SCF Density.

 **********************************************************************

 Alpha  occ. eigenvalues --  -10.29096 -10.28779  -0.86393  -0.67191  -0.55900
 Alpha  occ. eigenvalues --   -0.50973  -0.43591  -0.35708
 Alpha virt. eigenvalues --    0.07987   0.14085   0.16434   0.16989   0.24076
 Alpha virt. eigenvalues --    0.37450   0.39248   0.39896   0.46330   0.48822
 Alpha virt. eigenvalues --    0.49363   0.59108   0.66508   0.69046   0.77203
 Alpha virt. eigenvalues --    0.77604   0.84058   0.95286   2.23175   2.28966
 Alpha virt. eigenvalues --    2.33294   2.40590   2.67129   2.81720   2.87888
 Alpha virt. eigenvalues --    2.95120   3.14099   3.31701  23.35148  23.70642
     Molecular Orbital Coefficients:
                           1         2         3         4         5
                           O         O         O         O         O
     Eigenvalues --   -10.29096 -10.28779  -0.86393  -0.67191  -0.55900
   1 1   C  1S          0.07932   0.55778  -0.08859   0.06653  -0.00053
   2        2S          0.06548   0.45905  -0.14003   0.10657  -0.00087
   3        2PX         0.00016  -0.00001   0.02590   0.03712   0.13802
   4        2PY         0.00028  -0.00000   0.04643   0.06060  -0.07479
   5        2PZ         0.00000  -0.00001  -0.00147   0.00221   0.00016
   6        3S          0.00119   0.01460   0.37556  -0.29076   0.00242
   7        3PX        -0.00063   0.00040   0.03417   0.05939   0.21622
   8        3PY        -0.00107   0.00073   0.06097   0.09813  -0.11795
   9        3PZ        -0.00001  -0.00004  -0.00247   0.00393   0.00023
  10        4S          0.00387  -0.01456   0.19191  -0.22598   0.00225
  11        4PX         0.00155  -0.00148   0.00473   0.02363   0.11185
  12        4PY         0.00268  -0.00256   0.00851   0.04055  -0.06190
  13        4PZ         0.00000   0.00009  -0.00086   0.00196   0.00011
  14 2   H  1S         -0.00004  -0.00006   0.05259  -0.08758   0.10315
  15        2S         -0.00030   0.00009   0.05383  -0.10540   0.13067
  16        3S          0.00076   0.00171  -0.00175  -0.01519   0.04232
  17 3   H  1S         -0.00005  -0.00008   0.05416  -0.09121  -0.10565
  18        2S         -0.00031   0.00008   0.05482  -0.10892  -0.13282
  19        3S          0.00078   0.00175  -0.00173  -0.01616  -0.04302
  20 4   C  1S          0.55779  -0.07951  -0.08671  -0.06856  -0.00016
  21        2S          0.45909  -0.06523  -0.13691  -0.10994  -0.00026
  22        2PX        -0.00001  -0.00016  -0.02791   0.03727   0.11747
  23        2PY        -0.00002  -0.00029  -0.04712   0.06599  -0.07298
  24        2PZ        -0.00000   0.00000  -0.00113  -0.00220   0.00018
  25        3S          0.01416  -0.00292   0.36683   0.30042   0.00074
  26        3PX        -0.00024   0.00072  -0.03504   0.06057   0.18404
  27        3PY        -0.00039   0.00124  -0.05892   0.10680  -0.11346
  28        3PZ        -0.00004  -0.00001  -0.00195  -0.00399   0.00027
  29        4S         -0.01258   0.00790   0.18867   0.23887  -0.00043
  30        4PX         0.00097  -0.00188  -0.00558   0.02658   0.10155
  31        4PY         0.00163  -0.00327  -0.00911   0.04542  -0.06169
  32        4PZ         0.00008  -0.00002  -0.00082  -0.00207   0.00013
  33 5   H  1S         -0.00006  -0.00004   0.04936   0.09296  -0.08900
  34        2S         -0.00000  -0.00031   0.05058   0.11138  -0.11260
  35        3S          0.00178   0.00022  -0.00114   0.01677  -0.03622
  36 6   H  1S         -0.00004  -0.00004   0.04824   0.09170   0.08486
  37        2S         -0.00002  -0.00032   0.04999   0.11020   0.10763
  38        3S          0.00174   0.00022  -0.00119   0.01628   0.03489
                           6         7         8         9        10
                           O         O         O         V         V
     Eigenvalues --    -0.50973  -0.43591  -0.35708   0.07987   0.14085
   1 1   C  1S         -0.00378   0.00011  -0.00114   0.00303  -0.03252
   2        2S         -0.00567   0.00020  -0.00185   0.00503  -0.05213
   3        2PX         0.09495  -0.11007  -0.00370   0.00157  -0.03180
   4        2PY         0.16757   0.06596  -0.00641   0.00278  -0.06372
   5        2PZ         0.00565   0.00007   0.17939  -0.18888  -0.00262
   6        3S          0.02130  -0.00031   0.00542  -0.01522   0.11294
   7        3PX         0.13790  -0.17549  -0.00521   0.00238  -0.03777
   8        3PY         0.24478   0.10576  -0.00906   0.00416  -0.07895
   9        3PZ         0.00896   0.00015   0.28856  -0.27787  -0.00418
  10        4S         -0.05188  -0.00316   0.00762  -0.01734   1.20286
  11        4PX         0.06951  -0.10972  -0.00428   0.01360  -0.19503
  12        4PY         0.12436   0.06636  -0.00752   0.02370  -0.37874
  13        4PZ         0.00511   0.00014   0.26690  -0.69519  -0.01552
  14 2   H  1S         -0.08018  -0.11469   0.00016   0.00475  -0.01602
  15        2S         -0.11082  -0.17724   0.00226   0.00757  -0.04564
  16        3S         -0.04141  -0.08216   0.00133   0.01971  -0.81467
  17 3   H  1S         -0.07933   0.11221   0.00007   0.00476  -0.01269
  18        2S         -0.10896   0.17246   0.00216   0.00756  -0.03825
  19        3S         -0.04039   0.07955   0.00127   0.01919  -0.76223
  20 4   C  1S         -0.00821  -0.00045  -0.00086  -0.00292  -0.03704
  21        2S         -0.01284  -0.00073  -0.00141  -0.00483  -0.05950
  22        2PX        -0.09822   0.12483   0.00371   0.00191   0.04052
  23        2PY        -0.16228  -0.07398   0.00669   0.00335   0.06274
  24        2PZ         0.00592   0.00019   0.17919   0.18943  -0.00345
  25        3S          0.04167   0.00210   0.00415   0.01450   0.13168
  26        3PX        -0.14531   0.20027   0.00519   0.00291   0.04940
  27        3PY        -0.23854  -0.11785   0.00938   0.00513   0.07445
  28        3PZ         0.00936   0.00028   0.28669   0.27762  -0.00524
  29        4S         -0.03110   0.00253   0.00731   0.01653   1.26008
  30        4PX        -0.07577   0.12859   0.00395   0.01468   0.26292
  31        4PY        -0.12316  -0.07530   0.00727   0.02548   0.41970
  32        4PZ         0.00540   0.00017   0.26706   0.69649  -0.02013
  33 5   H  1S         -0.07449  -0.12524   0.00028  -0.00440  -0.01326
  34        2S         -0.10195  -0.19573   0.00236  -0.00731  -0.03938
  35        3S         -0.03805  -0.09216   0.00134  -0.01955  -0.83906
  36 6   H  1S         -0.08049   0.12424   0.00019  -0.00440  -0.01629
  37        2S         -0.11049   0.19511   0.00223  -0.00741  -0.04727
  38        3S         -0.04135   0.09194   0.00125  -0.01989  -0.89314
                          11        12        13        14        15
                           V         V         V         V         V
     Eigenvalues --     0.16434   0.16989   0.24076   0.37450   0.39248
   1 1   C  1S          0.00029  -0.04594   0.00014   0.01010   0.00066
   2        2S          0.00046  -0.07487   0.00021   0.01394   0.00090
   3        2PX         0.09588  -0.02131   0.10041  -0.03623  -0.02270
   4        2PY        -0.05448  -0.03733  -0.05744  -0.06587   0.01071
   5        2PZ        -0.00004  -0.00747  -0.00002  -0.00526  -0.00024
   6        3S         -0.00087   0.16916   0.00022   0.03253   0.00326
   7        3PX         0.13778  -0.01334   0.10635  -0.04544  -0.10204
   8        3PY        -0.07873  -0.02412  -0.06180  -0.08898   0.05482
   9        3PZ        -0.00007  -0.01039  -0.00007  -0.01079  -0.00038
  10        4S         -0.02389   1.45599  -0.02907  -2.65928  -0.16386
  11        4PX         0.57459  -0.12534   1.16636  -1.57422  -0.55677
  12        4PY        -0.31726  -0.21065  -0.67167  -2.74574   0.12453
  13        4PZ        -0.00008  -0.04880   0.00038  -0.04724  -0.00301
  14 2   H  1S         -0.03014  -0.02492   0.01358  -0.05740   0.07466
  15        2S         -0.08249  -0.01734  -0.02233  -0.65938   0.75305
  16        3S         -1.04300  -1.00656  -1.54724  -0.31759  -0.32102
  17 3   H  1S          0.02853  -0.02531  -0.01566  -0.04923  -0.07711
  18        2S          0.08049  -0.02110   0.01610  -0.59066  -0.77988
  19        3S          1.07152  -1.03573   1.58249  -0.39706   0.25215
  20 4   C  1S          0.00164   0.04192  -0.00015  -0.02010  -0.00037
  21        2S          0.00263   0.06825  -0.00026  -0.03298  -0.00057
  22        2PX         0.10211  -0.02443  -0.10019  -0.04067  -0.03229
  23        2PY        -0.06185  -0.03603   0.05745  -0.07373   0.01247
  24        2PZ         0.00026   0.00712   0.00001   0.00375   0.00035
  25        3S         -0.00545  -0.15184   0.00033   0.04319   0.00051
  26        3PX         0.14710  -0.02009  -0.11397  -0.09147  -0.11238
  27        3PY        -0.08779  -0.02562   0.06417  -0.16939   0.05175
  28        3PZ         0.00036   0.00980   0.00004   0.00451   0.00067
  29        4S         -0.06760  -1.31519   0.01833   3.34669   0.17267
  30        4PX         0.54026  -0.12453  -1.12125  -1.18918  -0.53351
  31        4PY        -0.33161  -0.18619   0.64457  -2.10077   0.11748
  32        4PZ         0.00164   0.04625  -0.00039   0.03993   0.00282
  33 5   H  1S          0.03207   0.02467   0.00564   0.01139  -0.08126
  34        2S          0.06940   0.02151  -0.03434   0.07790  -0.80460
  35        3S          1.08672   0.90492  -1.51391   0.44889   0.48901
  36 6   H  1S         -0.03150   0.02606  -0.00462   0.00418   0.08735
  37        2S         -0.06933   0.02245   0.03521   0.01602   0.87738
  38        3S         -0.99476   0.94682   1.49432   0.47515  -0.46431
                          16        17        18        19        20
                           V         V         V         V         V
     Eigenvalues --     0.39896   0.46330   0.48822   0.49363   0.59108
   1 1   C  1S         -0.01797   0.01343  -0.04615  -0.00058  -0.00059
   2        2S         -0.03165   0.03051  -0.07700  -0.00066  -0.00105
   3        2PX         0.02653  -0.06199   0.01118   0.00138   0.00224
   4        2PY         0.04750  -0.10684   0.01328   0.00205   0.00344
   5        2PZ         0.00025  -0.00068   0.00624  -0.15152  -0.19266
   6        3S          0.07469  -0.33785   0.08426  -0.01021  -0.00087
   7        3PX         0.10302  -0.24147  -0.03773   0.00022   0.00745
   8        3PY         0.18886  -0.41416  -0.07735  -0.00050   0.01164
   9        3PZ        -0.00434  -0.00531   0.02792  -0.62729  -0.68552
  10        4S          2.62943   0.03172   3.13959   0.11665   0.07647
  11        4PX         0.22467   0.20017   0.80694   0.03652   0.02479
  12        4PY         0.40125   0.38524   1.41309   0.06530   0.04105
  13        4PZ        -0.00317   0.00228  -0.10111   0.68343   1.24144
  14 2   H  1S         -0.02810  -0.03215  -0.07713  -0.00326  -0.00188
  15        2S         -0.55612  -0.30076  -0.92201  -0.03202  -0.01396
  16        3S          0.30217   0.05051   0.64437   0.03704   0.02578
  17 3   H  1S         -0.03224  -0.03511  -0.07483  -0.00319  -0.00176
  18        2S         -0.58932  -0.33693  -0.90002  -0.03167  -0.01175
  19        3S          0.30266   0.05326   0.60611   0.03565   0.02516
  20 4   C  1S         -0.00144  -0.00395   0.05096   0.00360   0.00078
  21        2S         -0.00595   0.00096   0.08885   0.00651   0.00146
  22        2PX         0.00842   0.05364   0.02787   0.00018   0.00225
  23        2PY         0.01595   0.09372   0.05135   0.00037   0.00427
  24        2PZ        -0.00403  -0.00198   0.00641  -0.15276   0.19225
  25        3S          0.08109  -0.28028  -0.23994  -0.02476  -0.00293
  26        3PX        -0.04319   0.23144   0.05887   0.00025   0.00797
  27        3PY        -0.06896   0.40672   0.10694   0.00037   0.01484
  28        3PZ        -0.01146  -0.00807   0.02374  -0.63143   0.68206
  29        4S         -0.81926   0.84485  -3.06244  -0.13797  -0.06733
  30        4PX         1.23299  -0.37677   0.62092   0.02114   0.02293
  31        4PY         2.20805  -0.62144   1.05017   0.03481   0.04104
  32        4PZ        -0.03503  -0.01783   0.03486   0.69549  -1.23759
  33 5   H  1S         -0.04705  -0.06592   0.06223   0.00287   0.00170
  34        2S         -0.83569  -0.67319   0.78364   0.04231   0.00625
  35        3S         -0.17964   0.29357  -0.54560  -0.01423  -0.02495
  36 6   H  1S         -0.04221  -0.06392   0.06307   0.00296   0.00178
  37        2S         -0.77895  -0.64484   0.78298   0.04217   0.00751
  38        3S         -0.19198   0.30350  -0.56777  -0.01572  -0.02534
                          21        22        23        24        25
                           V         V         V         V         V
     Eigenvalues --     0.66508   0.69046   0.77203   0.77604   0.84058
   1 1   C  1S          0.00067  -0.00067   0.05346   0.07160   0.00119
   2        2S          0.00138  -0.00149   0.11282   0.15266   0.00262
   3        2PX        -0.12489   0.20265  -0.02178   0.11454  -0.01004
   4        2PY         0.07312  -0.12141  -0.03910   0.18667   0.01245
   5        2PZ        -0.00000   0.00012   0.00091   0.00537   0.00019
   6        3S         -0.01084   0.01824  -0.76783  -1.32615  -0.02396
   7        3PX        -0.58975   0.71602  -0.15938   0.44936  -0.22770
   8        3PY         0.34204  -0.42797  -0.28270   0.72480   0.15746
   9        3PZ        -0.00011   0.00052   0.00340   0.01875   0.00086
  10        4S          0.02003  -0.08598   0.77286   2.45319  -0.06315
  11        4PX         1.07780  -0.80098   0.11202  -0.74369   4.48097
  12        4PY        -0.62637   0.47668   0.18476  -1.01805  -2.59251
  13        4PZ        -0.00015   0.00132   0.00831  -0.06129   0.00145
  14 2   H  1S          0.02111  -0.05990   0.01154   0.03204  -0.02658
  15        2S          0.10314  -0.64674   0.08654   0.08680  -1.55789
  16        3S         -1.00705   1.13567  -0.12310  -1.10302  -1.22662
  17 3   H  1S         -0.02059   0.05936   0.01147   0.03290   0.02957
  18        2S         -0.11513   0.68256   0.09664   0.06325   1.59782
  19        3S          0.99917  -1.10527  -0.12914  -1.23874   1.22820
  20 4   C  1S          0.00091  -0.00080   0.08496   0.02836   0.00094
  21        2S          0.00184  -0.00156   0.18081   0.05965   0.00199
  22        2PX        -0.15802  -0.17921  -0.09582   0.05526   0.01172
  23        2PY         0.09054   0.10020  -0.17042   0.10129  -0.00179
  24        2PZ        -0.00002  -0.00017   0.00545  -0.00132  -0.00017
  25        3S         -0.01273   0.00509  -1.50551  -0.32697  -0.01392
  26        3PX        -0.70386  -0.59713  -0.34780   0.28943   0.24467
  27        3PY         0.40529   0.33110  -0.62085   0.52684  -0.11409
  28        3PZ        -0.00017  -0.00061   0.01928  -0.00498  -0.00060
  29        4S          0.00940   0.04352   2.69990   0.02878   0.04723
  30        4PX         1.28862   0.67019   0.53054  -0.26872  -4.18456
  31        4PY        -0.73545  -0.38161   0.97287  -0.68804   2.35423
  32        4PZ         0.00034  -0.00066  -0.05581   0.02951  -0.00093
  33 5   H  1S         -0.02743  -0.05455   0.03480   0.00164  -0.02244
  34        2S         -0.16795  -0.56023   0.07285   0.07160  -1.40420
  35        3S          1.14148   0.93699  -1.13343   0.32734  -1.09519
  36 6   H  1S          0.02791   0.05399   0.03460   0.00247   0.02300
  37        2S          0.16377   0.53067   0.06789   0.02243   1.39668
  38        3S         -1.14431  -0.94054  -1.09327   0.25865   1.10188
                          26        27        28        29        30
                           V         V         V         V         V
     Eigenvalues --     0.95286   2.23175   2.28966   2.33294   2.40590
   1 1   C  1S          0.09576  -0.01036  -0.01454   0.00035  -0.00047
   2        2S          0.19899   0.00118  -0.01479   0.00085  -0.00049
   3        2PX        -0.09162  -0.08024  -0.13328   0.34166  -0.40848
   4        2PY        -0.15875  -0.14930  -0.23084  -0.19510   0.23413
   5        2PZ         0.00022  -0.01524  -0.02012  -0.00021  -0.00054
   6        3S         -1.54107  -0.18521  -0.03366  -0.00222  -0.00484
   7        3PX        -0.23515   0.07614   0.21028  -0.40769   0.56922
   8        3PY        -0.40045   0.15620   0.37770   0.23520  -0.32948
   9        3PZ        -0.00275   0.01528   0.02507   0.00037   0.00058
  10        4S          5.71629  -0.11714  -0.89092   0.00050  -0.03187
  11        4PX         1.19484   0.05644  -0.19204  -0.03979   0.96619
  12        4PY         1.99605   0.06898  -0.35420   0.01487  -0.54289
  13        4PZ        -0.02093   0.00376   0.00918  -0.00030   0.00111
  14 2   H  1S          0.01545  -0.71378  -0.78740  -0.70118   0.66055
  15        2S         -0.28804   1.01536   1.18222   1.07628  -1.46635
  16        3S         -0.08957  -0.30452  -0.46965  -0.46646   0.37408
  17 3   H  1S          0.01554  -0.70592  -0.78735   0.68958  -0.68212
  18        2S         -0.26364   1.00680   1.18437  -1.06329   1.51125
  19        3S         -0.07803  -0.28094  -0.45656   0.45399  -0.36704
  20 4   C  1S         -0.09398  -0.01001   0.01203   0.00036   0.00022
  21        2S         -0.19497   0.00077   0.01184   0.00050   0.00036
  22        2PX        -0.09286   0.13244  -0.12439   0.30862   0.41530
  23        2PY        -0.16004   0.23246  -0.21002  -0.17793  -0.23585
  24        2PZ         0.00038  -0.01580   0.01934   0.00020   0.00013
  25        3S          1.50689  -0.16985   0.01947   0.00015  -0.00028
  26        3PX        -0.22904  -0.16917   0.21396  -0.38801  -0.58309
  27        3PY        -0.39942  -0.29410   0.35558   0.22169   0.33061
  28        3PZ         0.00398   0.01703  -0.02478  -0.00022  -0.00021
  29        4S         -5.69040  -0.15915   0.88440   0.01363   0.01274
  30        4PX         1.11684  -0.01525  -0.19650   0.10346  -0.84973
  31        4PY         1.98466  -0.03077  -0.32397  -0.05967   0.48802
  32        4PZ         0.01345   0.00465  -0.00690  -0.00013  -0.00078
  33 5   H  1S         -0.01808  -0.78605   0.68029   0.71220   0.67813
  34        2S          0.29237   1.14029  -1.03691  -1.03729  -1.44116
  35        3S          0.05972  -0.35774   0.40701   0.51624   0.42742
  36 6   H  1S         -0.01810  -0.77720   0.70199  -0.69969  -0.67761
  37        2S          0.31044   1.12574  -1.06639   1.01597   1.43507
  38        3S          0.06280  -0.35502   0.43003  -0.51212  -0.43202
                          31        32        33        34        35
                           V         V         V         V         V
     Eigenvalues --     2.67129   2.81720   2.87888   2.95120   3.14099
   1 1   C  1S          0.00057   0.00276  -0.01316   0.00004  -0.00957
   2        2S          0.00048   0.00800  -0.04394  -0.00018  -0.02941
   3        2PX         0.00555   0.07923  -0.46822  -0.73177   0.44760
   4        2PY         0.00941   0.13974  -0.84281   0.40551   0.78973
   5        2PZ        -0.92317  -0.92885  -0.15273  -0.00103   0.00776
   6        3S         -0.00206  -0.06636   0.38723   0.00348   0.24757
   7        3PX        -0.00419  -0.13773   0.83262   0.88230  -0.43246
   8        3PY        -0.00736  -0.24052   1.47181  -0.47511  -0.76410
   9        3PZ         0.93786   1.13528   0.19167   0.00148  -0.01008
  10        4S          0.01508   0.15399  -0.87106  -0.01331  -0.48257
  11        4PX        -0.00217   0.11091  -0.71296  -0.66660   0.21832
  12        4PY        -0.00258   0.19397  -1.26380   0.34977   0.38844
  13        4PZ        -0.33739  -0.61407  -0.12163  -0.00120   0.00623
  14 2   H  1S          0.01338  -0.02174   0.26549  -0.37300  -0.21861
  15        2S         -0.01534   0.01368  -0.22351   0.38300   0.16637
  16        3S         -0.00321   0.04458  -0.29745   0.27231   0.06310
  17 3   H  1S          0.01350  -0.02073   0.25322   0.37635  -0.21402
  18        2S         -0.01567   0.01163  -0.20214  -0.38115   0.16060
  19        3S         -0.00382   0.04544  -0.30073  -0.29132   0.06702
  20 4   C  1S          0.00054  -0.00271   0.01366   0.00055  -0.00718
  21        2S          0.00049  -0.00843   0.04796   0.00134  -0.02279
  22        2PX        -0.00820   0.07072  -0.40490  -0.80501  -0.50208
  23        2PY        -0.01428   0.12648  -0.72903   0.44749  -0.88886
  24        2PZ        -0.92621   0.92516   0.15513   0.00083   0.01408
  25        3S         -0.00270   0.07251  -0.43149  -0.01076   0.19778
  26        3PX         0.00835  -0.12891   0.76462   0.95857   0.53624
  27        3PY         0.01435  -0.22851   1.36087  -0.52279   0.95689
  28        3PZ         0.94195  -1.13149  -0.19563  -0.00103  -0.01765
  29        4S          0.01640  -0.15746   0.90486   0.03004  -0.37770
  30        4PX        -0.00075   0.10966  -0.70503  -0.70030  -0.32424
  31        4PY        -0.00170   0.19284  -1.23876   0.37316  -0.58413
  32        4PZ        -0.33951   0.61219   0.12514   0.00069   0.01376
  33 5   H  1S          0.01272   0.02997  -0.29391   0.41965  -0.26165
  34        2S         -0.01567  -0.02440   0.26742  -0.43279   0.20637
  35        3S         -0.00146  -0.04172   0.28123  -0.24015   0.12180
  36 6   H  1S          0.01290   0.03045  -0.29212  -0.42896  -0.25174
  37        2S         -0.01626  -0.02564   0.27179   0.44133   0.19774
  38        3S         -0.00105  -0.03931   0.26488   0.24354   0.11748
                          36        37        38
                           V         V         V
     Eigenvalues --     3.31701  23.35148  23.70642
   1 1   C  1S         -0.00052  -1.41198  -1.45426
   2        2S         -0.00083   1.50580   1.57263
   3        2PX         0.78639  -0.00662   0.01201
   4        2PY        -0.43996  -0.01075   0.02119
   5        2PZ         0.00061  -0.00062  -0.00028
   6        3S          0.00221  -0.29528  -0.40025
   7        3PX        -1.12325   0.02445  -0.05563
   8        3PY         0.62666   0.04038  -0.09708
   9        3PZ        -0.00099   0.00174   0.00083
  10        4S         -0.02476   0.27217   0.77082
  11        4PX         1.96002  -0.02676   0.13274
  12        4PY        -1.10093  -0.04503   0.23021
  13        4PZ         0.00160  -0.00292  -0.00343
  14 2   H  1S          0.56008   0.01325   0.00711
  15        2S         -0.86930   0.00763  -0.01468
  16        3S         -0.46339  -0.08427  -0.03927
  17 3   H  1S         -0.57235   0.01507   0.00851
  18        2S          0.88633   0.00716  -0.01528
  19        3S          0.48697  -0.08642  -0.04007
  20 4   C  1S          0.00013  -1.44944   1.41675
  21        2S         -0.00008   1.54589  -1.53221
  22        2PX        -0.71145   0.00592   0.01273
  23        2PY         0.40281   0.01060   0.02157
  24        2PZ        -0.00042  -0.00059   0.00014
  25        3S          0.00302  -0.30343   0.39039
  26        3PX         1.01192  -0.02196  -0.05694
  27        3PY        -0.58042  -0.03895  -0.09758
  28        3PZ         0.00066   0.00170  -0.00035
  29        4S         -0.00500   0.28103  -0.76060
  30        4PX        -1.77651   0.02261   0.13233
  31        4PY         1.02370   0.04160   0.22739
  32        4PZ        -0.00108  -0.00277   0.00237
  33 5   H  1S          0.48222   0.01270  -0.00428
  34        2S         -0.75154   0.00825   0.01356
  35        3S         -0.42143  -0.08258   0.03721
  36 6   H  1S         -0.47922   0.01158  -0.00322
  37        2S          0.74875   0.00946   0.01281
  38        3S          0.41597  -0.08123   0.03613
     Density Matrix:
                           1         2         3         4         5
   1 1   C  1S          0.65940
   2        2S          0.56152   0.49202
   3        2PX        -0.00051  -0.00067   0.08449
   4        2PY        -0.00128  -0.00177   0.00361   0.08779
   5        2PZ         0.00009   0.00015  -0.00014  -0.00029   0.06444
   6        3S         -0.08893  -0.15385   0.00261   0.00630  -0.00020
   7        3PX         0.00090   0.00139   0.13073   0.00116  -0.00010
   8        3PY         0.00122   0.00187   0.00115   0.13130  -0.00025
   9        3PZ         0.00019   0.00032  -0.00024  -0.00046   0.10366
  10        4S         -0.07933  -0.11421  -0.01543  -0.02780   0.00058
  11        4PX         0.00025   0.00155   0.07026  -0.00455  -0.00064
  12        4PY         0.00061   0.00301  -0.00457   0.06549  -0.00115
  13        4PZ        -0.00013  -0.00030  -0.00090  -0.00155   0.09583
  14 2   H  1S         -0.02058  -0.03277   0.03472  -0.06316  -0.00137
  15        2S         -0.02285  -0.03654   0.04899  -0.08787  -0.00105
  16        3S          0.00056  -0.00072   0.02068  -0.03307  -0.00005
  17 3   H  1S         -0.02109  -0.03356  -0.07290  -0.00201  -0.00145
  18        2S         -0.02317  -0.03701  -0.10058  -0.00204  -0.00112
  19        3S          0.00060  -0.00069  -0.03836   0.00126  -0.00007
  20 4   C  1S          0.00609   0.00982  -0.01090  -0.01882  -0.00045
  21        2S          0.00978   0.01529  -0.01744  -0.03012  -0.00073
  22        2PX         0.01036   0.01655  -0.01241  -0.03214   0.00053
  23        2PY         0.01808   0.02891  -0.03227  -0.04969   0.00096
  24        2PZ        -0.00054  -0.00088  -0.00042  -0.00069   0.06435
  25        3S         -0.02635  -0.04001   0.04893   0.08456   0.00221
  26        3PX         0.01597   0.02474  -0.01823  -0.04579   0.00068
  27        3PY         0.02785   0.04318  -0.04587  -0.07116   0.00126
  28        3PZ        -0.00092  -0.00149  -0.00073  -0.00121   0.10295
  29        4S          0.00539   0.00400   0.02087   0.03635   0.00277
  30        4PX         0.00307   0.00635  -0.01301  -0.02097   0.00075
  31        4PY         0.00524   0.01089  -0.02100  -0.03741   0.00141
  32        4PZ        -0.00079  -0.00127  -0.00115  -0.00194   0.09587
  33 5   H  1S          0.00420   0.00689  -0.00169  -0.01232  -0.00052
  34        2S          0.00635   0.01055   0.00351  -0.02498  -0.00003
  35        3S          0.00326   0.00478   0.00424  -0.01758   0.00010
  36 6   H  1S          0.00414   0.00680  -0.00991  -0.00769  -0.00053
  37        2S          0.00620   0.01032  -0.02347  -0.00942  -0.00005
  38        3S          0.00319   0.00467  -0.01732  -0.00510   0.00008
                           6         7         8         9        10
   6        3S          0.45258
   7        3PX        -0.00189   0.20258
   8        3PY        -0.00156  -0.00470   0.19689
   9        3PZ        -0.00063  -0.00019  -0.00039   0.16673
  10        4S          0.27303  -0.02606  -0.04771   0.00074   0.18178
  11        4PX        -0.00670   0.10922  -0.01027  -0.00105  -0.01489
  12        4PY        -0.01238  -0.01029   0.09864  -0.00184  -0.02868
  13        4PZ         0.00133  -0.00120  -0.00205   0.15415   0.00232
  14 2   H  1S          0.08758   0.05594  -0.09862  -0.00228   0.06928
  15        2S          0.09777   0.07929  -0.13673  -0.00177   0.08153
  16        3S          0.00607   0.03378  -0.05085  -0.00009   0.01117
  17 3   H  1S          0.08976  -0.11408  -0.00148  -0.00238   0.06906
  18        2S          0.09916  -0.15723  -0.00027  -0.00184   0.07992
  19        3S          0.00618  -0.05972   0.00380  -0.00010   0.01011
  20 4   C  1S         -0.02662  -0.01700  -0.02940  -0.00077   0.00518
  21        2S         -0.04028  -0.02642  -0.04570  -0.00124   0.00391
  22        2PX        -0.04630  -0.01762  -0.04555   0.00091  -0.01757
  23        2PY        -0.08092  -0.04580  -0.07079   0.00165  -0.03082
  24        2PZ         0.00263  -0.00057  -0.00092   0.10351   0.00268
  25        3S          0.10260   0.07177   0.12425   0.00370   0.00094
  26        3PX        -0.06689  -0.02603  -0.06467   0.00119  -0.02613
  27        3PY        -0.11686  -0.06493  -0.10133   0.00218  -0.04580
  28        3PZ         0.00437  -0.00100  -0.00163   0.16560   0.00445
  29        4S          0.00176   0.03156   0.05520   0.00461  -0.03255
  30        4PX        -0.02247  -0.01938  -0.02939   0.00125  -0.00652
  31        4PY        -0.03877  -0.02953  -0.05401   0.00234  -0.01083
  32        4PZ         0.00372  -0.00160  -0.00269   0.15421   0.00413
  33 5   H  1S         -0.02051  -0.00066  -0.01770  -0.00076  -0.01495
  34        2S         -0.03153   0.00855  -0.03677   0.00005  -0.01957
  35        3S         -0.01232   0.00809  -0.02646   0.00018  -0.00362
  36 6   H  1S         -0.02018  -0.01492  -0.00927  -0.00077  -0.01498
  37        2S         -0.03083  -0.03593  -0.01053   0.00003  -0.01986
  38        3S         -0.01199  -0.02675  -0.00600   0.00016  -0.00392
                          11        12        13        14        15
  11        4PX         0.05997
  12        4PY        -0.00904   0.05097
  13        4PZ        -0.00150  -0.00259   0.14254
  14 2   H  1S          0.03345  -0.05414  -0.00118   0.08132
  15        2S          0.04823  -0.07493  -0.00045   0.10951   0.14957
  16        3S          0.02099  -0.02773   0.00021   0.03669   0.05238
  17 3   H  1S         -0.06308   0.00176  -0.00121  -0.01314  -0.02474
  18        2S         -0.08735   0.00430  -0.00046  -0.02464  -0.04282
  19        3S         -0.03349   0.00448   0.00022  -0.01800  -0.02727
  20 4   C  1S         -0.00317  -0.00571  -0.00068   0.00423   0.00670
  21        2S         -0.00654  -0.01169  -0.00109   0.00700   0.01118
  22        2PX        -0.01331  -0.01991   0.00123   0.00189  -0.00263
  23        2PY        -0.02004  -0.03669   0.00222   0.01142   0.02416
  24        2PZ        -0.00083  -0.00142   0.09570  -0.00063  -0.00018
  25        3S          0.02318   0.04119   0.00319  -0.02105  -0.03361
  26        3PX        -0.02050  -0.02811   0.00168   0.00104  -0.00720
  27        3PY        -0.02828  -0.05342   0.00304   0.01698   0.03618
  28        3PZ        -0.00136  -0.00233   0.15312  -0.00093  -0.00017
  29        4S          0.00797   0.01502   0.00420  -0.01767  -0.02412
  30        4PX        -0.01486  -0.01233   0.00151  -0.00164  -0.00844
  31        4PY        -0.01239  -0.02954   0.00278   0.01538   0.02734
  32        4PZ        -0.00165  -0.00285   0.14260  -0.00052   0.00033
  33 5   H  1S          0.00207  -0.01576  -0.00038   0.01122   0.02336
  34        2S          0.00931  -0.02754   0.00049   0.02383   0.04453
  35        3S          0.00761  -0.01588   0.00036   0.01671   0.02799
  36 6   H  1S         -0.01468  -0.00578  -0.00039  -0.00907  -0.01816
  37        2S         -0.02844  -0.00515   0.00049  -0.01888  -0.03438
  38        3S         -0.01737  -0.00111   0.00034  -0.01024  -0.01786
                          16        17        18        19        20
  16        3S          0.02099
  17 3   H  1S         -0.01823   0.08260
  18        2S         -0.02743   0.10986   0.14826
  19        3S         -0.01286   0.03611   0.05100   0.02016
  20 4   C  1S          0.00370   0.00431   0.00675   0.00371   0.65947
  21        2S          0.00545   0.00712   0.01125   0.00545   0.56156
  22        2PX        -0.00346   0.00896   0.02209   0.01659   0.00120
  23        2PY         0.01760   0.00743   0.00972   0.00566   0.00189
  24        2PZ         0.00004  -0.00063  -0.00014   0.00007   0.00009
  25        3S         -0.01412  -0.02137  -0.03377  -0.01405  -0.08923
  26        3PX        -0.00700   0.01427   0.03484   0.02594  -0.00048
  27        3PY         0.02651   0.00951   0.01179   0.00706  -0.00102
  28        3PZ         0.00009  -0.00092  -0.00012   0.00013   0.00020
  29        4S         -0.00577  -0.01755  -0.02355  -0.00539  -0.08026
  30        4PX        -0.00704   0.01397   0.02750   0.01701  -0.00020
  31        4PY         0.01601   0.00641   0.00639   0.00185  -0.00021
  32        4PZ         0.00031  -0.00052   0.00036   0.00033  -0.00004
  33 5   H  1S          0.01622  -0.00909  -0.01816  -0.00943  -0.02000
  34        2S          0.02752  -0.01880  -0.03409  -0.01699  -0.02211
  35        3S          0.01473  -0.01018  -0.01765  -0.00900   0.00057
  36 6   H  1S         -0.00952   0.01122   0.02317   0.01584  -0.01980
  37        2S         -0.01732   0.02389   0.04427   0.02698  -0.02215
  38        3S         -0.00921   0.01672   0.02778   0.01445   0.00047
                          21        22        23        24        25
  21        2S          0.49204
  22        2PX         0.00172   0.08242
  23        2PY         0.00271   0.00386   0.08751
  24        2PZ         0.00014   0.00016   0.00024   0.06430
  25        3S         -0.15420  -0.00554  -0.00881  -0.00017   0.45356
  26        3PX        -0.00071   0.12829   0.00203   0.00009  -0.00028
  27        3PY        -0.00155   0.00210   0.13119   0.00012   0.00046
  28        3PZ         0.00033   0.00023   0.00037   0.10287  -0.00067
  29        4S         -0.11599   0.01397   0.02362   0.00077   0.27902
  30        4PX        -0.00149   0.07317  -0.00517   0.00050   0.00632
  31        4PY        -0.00229  -0.00515   0.06707   0.00092   0.01006
  32        4PZ        -0.00014   0.00089   0.00158   0.09578   0.00083
  33 5   H  1S         -0.03186  -0.03337   0.06332  -0.00138   0.08520
  34        2S         -0.03535  -0.04980   0.08845  -0.00108   0.09456
  35        3S         -0.00064  -0.02272   0.03361  -0.00009   0.00569
  36 6   H  1S         -0.03157   0.07091   0.00291  -0.00132   0.08443
  37        2S         -0.03540   0.10114   0.00114  -0.00100   0.09468
  38        3S         -0.00077   0.04056  -0.00300  -0.00006   0.00595
                          26        27        28        29        30
  26        3PX         0.20003
  27        3PY        -0.00248   0.19726
  28        3PZ         0.00012   0.00016   0.16459
  29        4S          0.02570   0.04330   0.00097   0.18781
  30        4PX         0.11455  -0.01080   0.00078   0.01587   0.06669
  31        4PY        -0.01086   0.10141   0.00146   0.02561  -0.01064
  32        4PZ         0.00113   0.00202   0.15324   0.00227   0.00126
  33 5   H  1S         -0.05347   0.09930  -0.00228   0.06712  -0.03460
  34        2S         -0.08025   0.13820  -0.00181   0.07777  -0.05238
  35        3S         -0.03706   0.05183  -0.00015   0.00949  -0.02437
  36 6   H  1S          0.11212   0.00377  -0.00220   0.06758   0.06572
  37        2S          0.15974  -0.00001  -0.00170   0.07931   0.09410
  38        3S          0.06375  -0.00622  -0.00011   0.01031   0.03789
                          31        32        33        34        35
  31        4PY         0.05371
  32        4PZ         0.00234   0.14271
  33 5   H  1S          0.05574  -0.00119   0.08046
  34        2S          0.07771  -0.00048   0.10996   0.15270
  35        3S          0.02929   0.00019   0.03820   0.05562   0.02308
  36 6   H  1S         -0.00190  -0.00116  -0.01242  -0.02602  -0.01995
  37        2S         -0.00631  -0.00045  -0.02614  -0.04847  -0.03176
  38        3S         -0.00644   0.00019  -0.02017  -0.03191  -0.01577
                          36        37        38
  36 6   H  1S          0.07970
  37        2S          0.10957   0.15302
  38        3S          0.03829   0.05600   0.02330
    Full Mulliken population analysis:
                           1         2         3         4         5
   1 1   C  1S          0.65940
   2        2S          0.49326   0.49202
   3        2PX         0.00000   0.00000   0.08449
   4        2PY         0.00000   0.00000   0.00000   0.08779
   5        2PZ         0.00000   0.00000   0.00000   0.00000   0.06444
   6        3S         -0.02928  -0.06443   0.00000   0.00000   0.00000
   7        3PX         0.00000   0.00000   0.08224   0.00000   0.00000
   8        3PY         0.00000   0.00000   0.00000   0.08260   0.00000
   9        3PZ         0.00000   0.00000   0.00000   0.00000   0.06521
  10        4S         -0.01220  -0.02137   0.00000   0.00000   0.00000
  11        4PX         0.00000   0.00000   0.01547   0.00000   0.00000
  12        4PY         0.00000   0.00000   0.00000   0.01442   0.00000
  13        4PZ         0.00000   0.00000   0.00000   0.00000   0.02110
  14 2   H  1S         -0.00023  -0.00033   0.00180   0.00565   0.00000
  15        2S         -0.00167  -0.00319   0.00428   0.01323   0.00001
  16        3S          0.00004  -0.00007   0.00069   0.00191   0.00000
  17 3   H  1S         -0.00026  -0.00037   0.00795   0.00000   0.00001
  18        2S         -0.00174  -0.00333   0.01777   0.00000   0.00001
  19        3S          0.00005  -0.00007   0.00255  -0.00000   0.00000
  20 4   C  1S          0.00000   0.00000  -0.00002  -0.00006   0.00000
  21        2S          0.00000  -0.00000  -0.00002  -0.00006   0.00000
  22        2PX        -0.00002  -0.00002   0.00011   0.00086   0.00000
  23        2PY        -0.00006  -0.00005   0.00086   0.00197   0.00000
  24        2PZ        -0.00000  -0.00000  -0.00000  -0.00000   0.00042
  25        3S         -0.00059  -0.00100   0.00256   0.00766  -0.00000
  26        3PX        -0.00054  -0.00099   0.00019   0.00555   0.00000
  27        3PY        -0.00164  -0.00300   0.00556   0.01069   0.00000
  28        3PZ        -0.00000  -0.00000  -0.00000  -0.00000   0.00613
  29        4S          0.00034   0.00030   0.00095   0.00286  -0.00000
  30        4PX        -0.00018  -0.00045  -0.00070   0.00145   0.00000
  31        4PY        -0.00053  -0.00134   0.00146   0.00096   0.00000
  32        4PZ        -0.00000  -0.00000  -0.00000  -0.00000   0.00903
  33 5   H  1S          0.00000   0.00000  -0.00000  -0.00000   0.00000
  34        2S          0.00001   0.00002   0.00000  -0.00031   0.00000
  35        3S          0.00008   0.00013   0.00001  -0.00070  -0.00000
  36 6   H  1S          0.00000   0.00000  -0.00000  -0.00000   0.00000
  37        2S          0.00001   0.00002  -0.00023  -0.00006   0.00000
  38        3S          0.00007   0.00013  -0.00057  -0.00012  -0.00000
                           6         7         8         9        10
   6        3S          0.45258
   7        3PX         0.00000   0.20258
   8        3PY         0.00000   0.00000   0.19689
   9        3PZ         0.00000   0.00000   0.00000   0.16673
  10        4S          0.21152   0.00000   0.00000   0.00000   0.18178
  11        4PX         0.00000   0.07137   0.00000   0.00000   0.00000
  12        4PY         0.00000   0.00000   0.06446   0.00000   0.00000
  13        4PZ         0.00000   0.00000   0.00000   0.10073   0.00000
  14 2   H  1S          0.01609   0.01069   0.03250   0.00003   0.01833
  15        2S          0.04116   0.01943   0.05775   0.00003   0.04700
  16        3S          0.00280   0.00394   0.01023   0.00000   0.00843
  17 3   H  1S          0.01706   0.04446   0.00000   0.00003   0.01850
  18        2S          0.04254   0.07735   0.00000   0.00003   0.04653
  19        3S          0.00287   0.01385  -0.00000   0.00000   0.00767
  20 4   C  1S         -0.00060  -0.00058  -0.00173   0.00000   0.00033
  21        2S         -0.00101  -0.00106  -0.00318   0.00000   0.00030
  22        2PX         0.00242   0.00018   0.00552   0.00000   0.00080
  23        2PY         0.00733   0.00555   0.01063   0.00000   0.00242
  24        2PZ         0.00000  -0.00000  -0.00000   0.00616   0.00000
  25        3S          0.02192   0.01348   0.04038  -0.00000   0.00036
  26        3PX         0.01256  -0.00126   0.01848   0.00000   0.00403
  27        3PY         0.03798   0.01855   0.02845   0.00000   0.01223
  28        3PZ         0.00000  -0.00000  -0.00000   0.03538   0.00000
  29        4S          0.00067   0.00487   0.01474  -0.00000  -0.02045
  30        4PX         0.00632  -0.00398   0.00582   0.00000   0.00198
  31        4PY         0.01886   0.00585   0.00123   0.00000   0.00568
  32        4PZ         0.00000  -0.00000  -0.00000   0.04932   0.00000
  33 5   H  1S         -0.00005  -0.00000  -0.00019   0.00000  -0.00080
  34        2S         -0.00121   0.00006  -0.00322  -0.00000  -0.00328
  35        3S         -0.00200   0.00010  -0.00426  -0.00000  -0.00130
  36 6   H  1S         -0.00005  -0.00012  -0.00005   0.00000  -0.00078
  37        2S         -0.00115  -0.00252  -0.00051  -0.00000  -0.00327
  38        3S         -0.00192  -0.00352  -0.00055  -0.00000  -0.00140
                          11        12        13        14        15
  11        4PX         0.05997
  12        4PY         0.00000   0.05097
  13        4PZ         0.00000   0.00000   0.14254
  14 2   H  1S          0.00628   0.01752   0.00001   0.08132
  15        2S          0.01524   0.04082   0.00001   0.07736   0.14957
  16        3S          0.00520   0.01184  -0.00000   0.01371   0.04133
  17 3   H  1S          0.02363  -0.00000   0.00001  -0.00001  -0.00066
  18        2S          0.05493  -0.00001   0.00001  -0.00066  -0.00540
  19        3S          0.01644  -0.00001  -0.00000  -0.00202  -0.00797
  20 4   C  1S         -0.00018  -0.00058   0.00000   0.00000   0.00002
  21        2S         -0.00047  -0.00144   0.00000   0.00000   0.00003
  22        2PX        -0.00072   0.00138   0.00000  -0.00000   0.00000
  23        2PY         0.00139   0.00094   0.00000  -0.00000  -0.00036
  24        2PZ        -0.00000  -0.00000   0.00901   0.00000   0.00000
  25        3S          0.00652   0.02004  -0.00000  -0.00007  -0.00148
  26        3PX        -0.00421   0.00557   0.00000  -0.00000   0.00004
  27        3PY         0.00560   0.00122   0.00000  -0.00022  -0.00355
  28        3PZ        -0.00000  -0.00000   0.04897   0.00000   0.00000
  29        4S          0.00242   0.00788  -0.00000  -0.00103  -0.00433
  30        4PX        -0.00716   0.00312   0.00000   0.00001   0.00018
  31        4PY         0.00313  -0.00563   0.00000  -0.00244  -0.01030
  32        4PZ        -0.00000  -0.00000   0.08959   0.00000  -0.00000
  33 5   H  1S          0.00002  -0.00233   0.00000   0.00000   0.00000
  34        2S          0.00027  -0.00987  -0.00000   0.00000   0.00016
  35        3S          0.00028  -0.00733  -0.00000   0.00023   0.00146
  36 6   H  1S         -0.00176  -0.00048   0.00000  -0.00000  -0.00004
  37        2S         -0.00831  -0.00104  -0.00000  -0.00004  -0.00090
  38        3S         -0.00658  -0.00029  -0.00000  -0.00046  -0.00246
                          16        17        18        19        20
  16        3S          0.02099
  17 3   H  1S         -0.00204   0.08260
  18        2S         -0.00802   0.07761   0.14826
  19        3S         -0.00670   0.01349   0.04024   0.02016
  20 4   C  1S          0.00009   0.00000   0.00002   0.00009   0.65947
  21        2S          0.00016   0.00000   0.00003   0.00016   0.49330
  22        2PX         0.00001  -0.00000  -0.00028  -0.00058   0.00000
  23        2PY        -0.00074  -0.00000  -0.00008  -0.00013   0.00000
  24        2PZ        -0.00000   0.00000   0.00000  -0.00000   0.00000
  25        3S         -0.00244  -0.00007  -0.00151  -0.00244  -0.02937
  26        3PX         0.00007  -0.00016  -0.00289  -0.00364   0.00000
  27        3PY        -0.00443  -0.00007  -0.00065  -0.00066   0.00000
  28        3PZ        -0.00000   0.00000   0.00000  -0.00000   0.00000
  29        4S         -0.00216  -0.00104  -0.00426  -0.00204  -0.01234
  30        4PX         0.00019  -0.00187  -0.00870  -0.00671   0.00000
  31        4PY        -0.00755  -0.00057  -0.00134  -0.00048   0.00000
  32        4PZ        -0.00000   0.00000  -0.00000  -0.00000   0.00000
  33 5   H  1S          0.00022  -0.00000  -0.00004  -0.00043  -0.00021
  34        2S          0.00144  -0.00004  -0.00092  -0.00237  -0.00157
  35        3S          0.00247  -0.00046  -0.00246  -0.00288   0.00004
  36 6   H  1S         -0.00043   0.00000   0.00000   0.00022  -0.00020
  37        2S         -0.00238   0.00000   0.00015   0.00141  -0.00155
  38        3S         -0.00292   0.00023   0.00145   0.00242   0.00004
                          21        22        23        24        25
  21        2S          0.49204
  22        2PX         0.00000   0.08242
  23        2PY         0.00000   0.00000   0.08751
  24        2PZ         0.00000   0.00000   0.00000   0.06430
  25        3S         -0.06458   0.00000   0.00000   0.00000   0.45356
  26        3PX         0.00000   0.08071   0.00000   0.00000   0.00000
  27        3PY         0.00000   0.00000   0.08253   0.00000   0.00000
  28        3PZ         0.00000   0.00000   0.00000   0.06472   0.00000
  29        4S         -0.02171   0.00000   0.00000   0.00000   0.21616
  30        4PX         0.00000   0.01611   0.00000   0.00000   0.00000
  31        4PY         0.00000   0.00000   0.01477   0.00000   0.00000
  32        4PZ         0.00000   0.00000   0.00000   0.02109   0.00000
  33 5   H  1S         -0.00030   0.00147   0.00556   0.00000   0.01517
  34        2S         -0.00300   0.00383   0.01357   0.00001   0.03911
  35        3S         -0.00006   0.00068   0.00201   0.00000   0.00260
  36 6   H  1S         -0.00028   0.00672   0.00002   0.00000   0.01472
  37        2S         -0.00295   0.01717   0.00001   0.00001   0.03871
  38        3S         -0.00007   0.00271  -0.00001   0.00000   0.00271
                          26        27        28        29        30
  26        3PX         0.20003
  27        3PY         0.00000   0.19726
  28        3PZ         0.00000   0.00000   0.16459
  29        4S          0.00000   0.00000   0.00000   0.18781
  30        4PX         0.07486   0.00000   0.00000   0.00000   0.06669
  31        4PY         0.00000   0.06627   0.00000   0.00000   0.00000
  32        4PZ         0.00000   0.00000   0.10014   0.00000   0.00000
  33 5   H  1S          0.00894   0.03310   0.00003   0.01754   0.00580
  34        2S          0.01745   0.05987   0.00003   0.04443   0.01482
  35        3S          0.00388   0.01081   0.00000   0.00712   0.00542
  36 6   H  1S          0.04115   0.00009   0.00003   0.01753   0.02448
  37        2S          0.07690  -0.00000   0.00003   0.04503   0.05927
  38        3S          0.01487  -0.00009   0.00000   0.00771   0.01881
                          31        32        33        34        35
  31        4PY         0.05371
  32        4PZ         0.00000   0.14271
  33 5   H  1S          0.01862   0.00001   0.08046
  34        2S          0.04381   0.00001   0.07767   0.15270
  35        3S          0.01299  -0.00000   0.01428   0.04388   0.02308
  36 6   H  1S         -0.00005   0.00001  -0.00001  -0.00078  -0.00233
  37        2S         -0.00026   0.00001  -0.00078  -0.00658  -0.00962
  38        3S         -0.00021  -0.00000  -0.00236  -0.00966  -0.00840
                          36        37        38
  36 6   H  1S          0.07970
  37        2S          0.07740   0.15302
  38        3S          0.01431   0.04418   0.02330
     Gross orbital populations:
                           1
   1 1   C  1S          1.10435
   2        2S          0.88586
   3        2PX         0.22742
   4        2PY         0.23629
   5        2PZ         0.16636
   6        3S          0.79297
   7        3PX         0.56149
   8        3PY         0.55600
   9        3PZ         0.42366
  10        4S          0.50303
  11        4PX         0.25877
  12        4PY         0.21118
  13        4PZ         0.41198
  14 2   H  1S          0.27403
  15        2S          0.46678
  16        3S          0.08588
  17 3   H  1S          0.27797
  18        2S          0.46461
  19        3S          0.08250
  20 4   C  1S          1.10442
  21        2S          0.88584
  22        2PX         0.22150
  23        2PY         0.23565
  24        2PZ         0.16573
  25        3S          0.79209
  26        3PX         0.55156
  27        3PY         0.55589
  28        3PZ         0.42004
  29        4S          0.50900
  30        4PX         0.27559
  31        4PY         0.21664
  32        4PZ         0.41192
  33 5   H  1S          0.27141
  34        2S          0.47034
  35        3S          0.08975
  36 6   H  1S          0.26903
  37        2S          0.47115
  38        3S          0.09134
          Condensed to atoms (all electrons):
               1          2          3          4          5          6
     1  C    5.032403   0.387464   0.388454   0.601971  -0.035862  -0.035073
     2  H    0.387464   0.516659  -0.033476  -0.040319   0.005992  -0.009622
     3  H    0.388454  -0.033476   0.513697  -0.039881  -0.009605   0.005884
     4  C    0.601971  -0.040319  -0.039881   5.057430   0.383585   0.383068
     5  H   -0.035862   0.005992  -0.009605   0.383585   0.527905  -0.040520
     6  H   -0.035073  -0.009622   0.005884   0.383068  -0.040520   0.527785
 Mulliken charges:
               1
     1  C   -0.339357
     2  H    0.173302
     3  H    0.174927
     4  C   -0.345854
     5  H    0.168504
     6  H    0.168478
 Sum of Mulliken charges =  -0.00000
 Mulliken charges with hydrogens summed into heavy atoms:
               1
     1  C    0.008872
     4  C   -0.008872
 Electronic spatial extent (au):  <R**2>=             83.7577
 Charge=             -0.0000 electrons
 Dipole moment (field-independent basis, Debye):
    X=             -0.0008    Y=              0.0175    Z=             -0.1175  Tot=              0.1188
 Quadrupole moment (field-independent basis, Debye-Ang):
   XX=            -12.2086   YY=            -12.2197   ZZ=            -15.6710
   XY=              0.0208   XZ=             -0.0007   YZ=             -0.0019
 Traceless Quadrupole moment (field-independent basis, Debye-Ang):
   XX=              1.1578   YY=              1.1467   ZZ=             -2.3045
   XY=              0.0208   XZ=             -0.0007   YZ=             -0.0019
 Octapole moment (field-independent basis, Debye-Ang**2):
  XXX=             -0.3424  YYY=             -0.0992  ZZZ=             -0.0727  XYY=              0.1667
  XXY=             -0.0318  XXZ=             -0.1578  XZZ=             -0.1005  YZZ=             -0.0994
  YYZ=             -0.2084  XYZ=             -0.0434
 Hexadecapole moment (field-independent basis, Debye-Ang**3):
 XXXX=            -34.3112 YYYY=            -55.2569 ZZZZ=            -17.8140 XXXY=             -7.2296
 XXXZ=              0.0200 YYYX=            -10.7010 YYYZ=              0.0279 ZZZX=              0.0266
 ZZZY=              0.0436 XXYY=            -16.2035 XXZZ=             -9.9310 YYZZ=            -13.6568
 XXYZ=              0.0086 YYXZ=              0.0003 ZZXY=             -3.2037
 N-N= 3.306211709717D+01 E-N=-2.478313550833D+02  KE= 7.814837053989D+01
 Orbital energies and kinetic energies (alpha):
                                 1                 2
   1         O               -10.290961         15.978972
   2         O               -10.287792         15.979458
   3         O                -0.863935          1.539908
   4         O                -0.671907          1.270142
   5         O                -0.558999          0.941673
   6         O                -0.509727          1.283213
   7         O                -0.435908          1.041734
   8         O                -0.357082          1.039085
   9         V                 0.079874          1.181908
  10         V                 0.140850          0.589969
  11         V                 0.164341          0.597071
  12         V                 0.169889          0.680379
  13         V                 0.240760          0.584164
  14         V                 0.374496          0.852781
  15         V                 0.392477          0.932281
  16         V                 0.398956          0.779934
  17         V                 0.463301          1.195123
  18         V                 0.488222          1.418799
  19         V                 0.493631          1.301341
  20         V                 0.591075          1.653472
  21         V                 0.665083          1.571675
  22         V                 0.690462          2.145821
  23         V                 0.772028          2.437218
  24         V                 0.776038          2.302139
  25         V                 0.840581          1.082947
  26         V                 0.952860          3.429592
  27         V                 2.231752          3.924568
  28         V                 2.289661          4.030184
  29         V                 2.332941          4.302149
  30         V                 2.405898          4.514445
  31         V                 2.671290          6.301111
  32         V                 2.817201          6.304317
  33         V                 2.878875          6.138162
  34         V                 2.951197          6.226687
  35         V                 3.140990          6.821565
  36         V                 3.317007          6.401974
  37         V                23.351482         60.074062
  38         V                23.706425         60.204390
 Total kinetic energy from orbitals= 7.814837053989D+01
 Calling FoFJK, ICntrl=      2127 FMM=F ISym2X=0 I1Cent= 0 IOpClX= 0 NMat=1 NMatS=1 NMatT=0.
 -------------------------------------------------------------------
 Center     Atomic                   Forces (Hartrees/Bohr)
 Number     Number              X              Y              Z
 -------------------------------------------------------------------
      1        6           0.013436179    0.007509342   -0.004793901
      2        1          -0.008812258    0.005734544    0.002417917
      3        1           0.001452825   -0.004374754    0.002178847
      4        6           0.010009698    0.012370757   -0.005171577
      5        1           0.003078032   -0.015306009    0.002630656
      6        1          -0.019164476   -0.005933880    0.002738058
 -------------------------------------------------------------------
 Cartesian Forces:  Max     0.019164476 RMS     0.008637498

 GradGradGradGradGradGradGradGradGradGradGradGradGradGradGradGradGradGrad
 Berny optimization.
 Search for a local minimum.
 Step number   1 out of a maximum of    2
 All quantities printed in internal units (Hartrees-Bohrs-Radians)
 Second derivative matrix not updated -- first step.
 The second derivative matrix:
                          X1        Y1        Z1        X2        Y2
           X1           0.76119
           Y1           0.09887   0.86109
           Z1           0.00681   0.01078   0.17205
           X2          -0.16396   0.09605   0.00258   0.14132
           Y2           0.10220  -0.28424  -0.00910  -0.11535   0.27311
           Z2           0.00406  -0.01142  -0.05534  -0.00370   0.00944
           X3          -0.35436  -0.00117  -0.00976  -0.00023  -0.00012
           Y3          -0.00715  -0.11034  -0.00238   0.03252   0.01879
           Z3          -0.01251  -0.00229  -0.05641   0.00184   0.00068
           X4          -0.26800  -0.17923  -0.00083   0.02289   0.01326
           Y4          -0.17970  -0.47474  -0.00141  -0.01323  -0.00766
           Z4           0.00162   0.00288  -0.09456  -0.00073  -0.00101
           X5           0.02340  -0.01352   0.00073  -0.00001   0.00001
           Y5           0.01172  -0.00677   0.00099   0.00001  -0.00000
           Z5          -0.00064   0.00040   0.01731   0.00031  -0.00016
           X6           0.00172  -0.00099   0.00047  -0.00001   0.00001
           Y6          -0.02594   0.01499   0.00112   0.00001  -0.00000
           Z6           0.00066  -0.00035   0.01695  -0.00031   0.00016
                          Z2        X3        Y3        Z3        X4
           Z2           0.02885
           X3          -0.00036   0.35445
           Y3           0.00195   0.00137   0.07610
           Z3           0.01056   0.01063   0.00161   0.02971
           X4           0.00059   0.00016  -0.02675  -0.00058   0.70846
           Y4          -0.00032  -0.00009   0.01546   0.00036   0.12375
           Z4           0.01592  -0.00052  -0.00117   0.01616  -0.00622
           X5          -0.00030  -0.00001   0.00001   0.00030  -0.14533
           Y5           0.00019   0.00001  -0.00000  -0.00019   0.09142
           Z5           0.00927   0.00031  -0.00020  -0.00942  -0.00361
           X6          -0.00030  -0.00001   0.00001   0.00031  -0.31818
           Y6           0.00016   0.00001  -0.00000  -0.00016  -0.02244
           Z6          -0.00925  -0.00031   0.00019   0.00940   0.01064
                          Y4        Z4        X5        Y5        Z5
           Y4           0.85655
           Z4          -0.01157   0.17605
           X5           0.08333  -0.00237   0.12411
           Y5          -0.28554   0.00860  -0.10208   0.27619
           Z5           0.01068  -0.05692   0.00320  -0.00917   0.02961
           X6          -0.01406   0.00822  -0.00216  -0.00107   0.00042
           Y6          -0.10407   0.00228   0.03226   0.01613  -0.00155
           Z6           0.00226  -0.05665  -0.00157  -0.00042   0.01015
                          X6        Y6        Z6
           X6           0.31864
           Y6           0.01612   0.07295
           Z6          -0.00911  -0.00185   0.02940
 ITU=  0
     Eigenvalues ---    0.03739   0.04374   0.09147   0.10115   0.13511
     Eigenvalues ---    0.17384   0.26441   0.28920   0.52765   0.69620
     Eigenvalues ---    0.97289   1.56579
 Angle between quadratic step and forces=  36.00 degrees.
 Linear search not attempted -- first point.
 B after Tr=     0.006326    0.007728   -0.012057
         Rot=    1.000000   -0.000057    0.000030   -0.000130 Ang=  -0.02 deg.
 Variable       Old X    -DE/DX   Delta X   Delta X   Delta X     New X
                                 (Linear)    (Quad)   (Total)
    X1       -0.63427   0.01344   0.00000   0.01999   0.02660  -0.60767
    Y1       -1.09789   0.00751   0.00000   0.02272   0.03029  -1.06760
    Z1        0.01500  -0.00479   0.00000  -0.02573  -0.03795  -0.02294
    X2        0.40528  -0.00881   0.00000  -0.03082  -0.02375   0.38153
    Y2       -2.88976   0.00573   0.00000   0.02324   0.03106  -2.85870
    Z2       -0.05163   0.00242   0.00000   0.03165   0.01929  -0.03235
    X3       -2.68216   0.00145   0.00000   0.02259   0.02921  -2.65296
    Y3       -1.10836  -0.00437   0.00000  -0.01799  -0.01095  -1.11931
    Z3       -0.05204   0.00218   0.00000   0.03066   0.01831  -0.03373
    X4        0.62998   0.01001   0.00000   0.00618   0.01222   0.64219
    Y4        1.08995   0.01237   0.00000   0.00930   0.01720   1.10715
    Z4        0.01115  -0.00517   0.00000  -0.02417  -0.03606  -0.02491
    X5       -0.30899   0.00308   0.00000  -0.00543   0.00015  -0.30884
    Y5        2.96095  -0.01531   0.00000  -0.04625  -0.03860   2.92235
    Z5       -0.05647   0.00263   0.00000   0.03043   0.01868  -0.03779
    X6        2.73288  -0.01916   0.00000  -0.05044  -0.04442   2.68846
    Y6        1.22763  -0.00593   0.00000  -0.03742  -0.02899   1.19864
    Z6       -0.05568   0.00274   0.00000   0.02948   0.01772  -0.03796
         Item               Value     Threshold  Converged?
 Maximum Force            0.019164     0.000450     NO 
 RMS     Force            0.008637     0.000300     NO 
 Maximum Displacement     0.044421     0.001800     NO 
 RMS     Displacement     0.026860     0.001200     NO 
 Predicted change in Energy=-1.782361D-03
 GradGradGradGradGradGradGradGradGradGradGradGradGradGradGradGradGradGrad

 Unable to Open any file for archive entry.
 1\1\GINC-BHD0013\Force\RwB97XD\6-311G\C2H4\BWEIGHT\11-Jan-2023\0\\# WB
 97XD/6-311G SCF=XQC FORCE nosym pop=full guess=read\\MD Step 999\\0,1\
 C,-0.33564182,-0.58097943,0.00794017\H,0.21446551,-1.52919674,-0.02732
 326\H,-1.41933977,-0.58651891,-0.02753842\C,0.33336961,0.57677825,0.00
 590184\H,-0.16350883,1.56686909,-0.02988458\H,1.44617843,0.64963456,-0
 .02946372\\Version=ES64L-G16RevC.01\HF=-78.5555065\RMSD=7.092e-09\RMSF
 =8.637e-03\Dipole=-0.000296,0.0068893,-0.0462093\Quadrupole=0.8608183,
 0.8525516,-1.7133699,0.0154588,-0.0005221,-0.0014128\PG=C01 [X(C2H4)]\
 \@
 The archive entry for this job was punched.


 I DO NOT DEFINE TIME, SPACE, PLACE, AND MOTION, AS BEING WELL KNOWN TO ALL.
                                            -- NEWTON (1642-1726), PRINCIPIA
 Job cpu time:       0 days  0 hours  0 minutes 10.3 seconds.
 Elapsed time:       0 days  0 hours  0 minutes  3.0 seconds.
 File lengths (MBytes):  RWF=    272 Int=      0 D2E=      0 Chk=     32 Scr=     32
 Normal termination of Gaussian 16 at Wed Jan 11 19:43:48 2023.
