6
MD Step 0
C  -0.33763715 -0.58748864 0.00000000
H  0.19552659 -1.51519357 0.00000000
H  -1.40763715 -0.58748864 0.00000000
C  0.33763715 0.58748865 0.00000000
H  -0.19552659 1.51519357 0.00000000
H  1.40763715 0.58748865 0.00000000
6
MD Step 1
C  -0.33800531 -0.58783565 -0.00039448
H  0.19788701 -1.51299400 0.00235175
H  -1.40542144 -0.58520958 0.00234903
C  0.33721690 0.58704717 -0.00039453
H  -0.19318786 1.51769206 0.00235190
H  1.41011698 0.58990704 0.00234919
6
MD Step 2
C  -0.33831694 -0.58808571 -0.00078863
H  0.20026867 -1.51110491 0.00470151
H  -1.40352773 -0.58308144 0.00469616
C  0.33674948 0.58651423 -0.00078870
H  -0.19086732 1.52045615 0.00470171
H  1.41280436 0.59245597 0.00469618
6
MD Step 3
C  -0.33856785 -0.58823728 -0.00118170
H  0.20266580 -1.50954096 0.00704472
H  -1.40200489 -0.58111564 0.00703710
C  0.33624069 0.58589458 -0.00118168
H  -0.18856207 1.52345119 0.00704448
H  1.41563168 0.59512107 0.00703580
6
MD Step 4
C  -0.33875637 -0.58829174 -0.00157473
H  0.20508005 -1.50829897 0.00938745
H  -1.40088165 -0.57931197 0.00937836
C  0.33569484 0.58519218 -0.00157436
H  -0.18625645 1.52664776 0.00938574
H  1.41853925 0.59789770 0.00937316
6
MD Step 5
C  -0.33887584 -0.58824575 -0.00196294
H  0.20747516 -1.50740335 0.01170108
H  -1.40021098 -0.57770398 0.01169194
C  0.33512226 0.58441768 -0.00196181
H  -0.18396779 1.52997713 0.01169611
H  1.42143145 0.60074562 0.01167837
6
MD Step 6
C  -0.33892911 -0.58810553 -0.00235004
H  0.20986231 -1.50682087 0.01400752
H  -1.39998326 -0.57627365 0.01400042
C  0.33452482 0.58357402 -0.00234752
H  -0.18166174 1.53341769 0.01399655
H  1.42426428 0.60367438 0.01397185
6
MD Step 7
C  -0.33891519 -0.58787356 -0.00273496
H  0.21222144 -1.50654029 0.01630014
H  -1.40020535 -0.57503046 0.01629793
C  0.33390919 0.58266961 -0.00273019
H  -0.17933178 1.53691679 0.01627941
H  1.42696730 0.60666437 0.01624533
6
MD Step 8
C  -0.33882757 -0.58754669 -0.00310999
H  0.21449079 -1.50658365 0.01853296
H  -1.40091121 -0.57402217 0.01853937
C  0.33328853 0.58171998 -0.00310190
H  -0.17701049 1.54038100 0.01849764
H  1.42943429 0.60965610 0.01845109
6
MD Step 9
C  -0.33866566 -0.58712750 -0.00347223
H  0.21663516 -1.50693885 0.02068855
H  -1.40209320 -0.57326678 0.02070809
C  0.33267096 0.58073625 -0.00345955
H  -0.17470227 1.54374553 0.02063272
H  1.43159325 0.61261842 0.02056999
6
MD Step 10
C  -0.33843757 -0.58662704 -0.00382641
H  0.21866340 -1.50754342 0.02279493
H  -1.40368570 -0.57273562 0.02283262
C  0.33205666 0.57972216 -0.00380765
H  -0.17236698 1.54699216 0.02271156
H  1.43342448 0.61556563 0.02262854
6
MD Step 11
C  -0.33814463 -0.58604926 -0.00416936
H  0.22053675 -1.50837782 0.02483335
H  -1.40565905 -0.57244548 0.02489477
C  0.33145330 0.57868943 -0.00414291
H  -0.17001235 1.55005792 0.02471446
H  1.43486864 0.61846530 0.02460663
6
MD Step 12
C  -0.33779885 -0.58540856 -0.00450777
H  0.22227475 -1.50936109 0.02684368
H  -1.40791549 -0.57235340 0.02693434
C  0.33085838 0.57763999 -0.00447185
H  -0.16758930 1.55294124 0.02668028
H  1.43593284 0.62134373 0.02654315
6
MD Step 13
C  -0.33739731 -0.58470405 -0.00483251
H  0.22380341 -1.51050445 0.02877181
H  -1.41044418 -0.57250895 0.02889768
C  0.33028480 0.57659143 -0.00478536
H  -0.16514434 1.55555007 0.02855437
H  1.43653801 0.62413351 0.02838294
6
MD Step 14
C  -0.33695564 -0.58395318 -0.00515241
H  0.22515631 -1.51171141 0.03067054
H  -1.41312144 -0.57285383 0.03083683
C  0.32972708 0.57554327 -0.00509216
H  -0.16261968 1.55790349 0.03038865
H  1.43672059 0.62687443 0.03017854
6
MD Step 15
C  -0.33648201 -0.58316573 -0.00546837
H  0.22632121 -1.51293298 0.03254540
H  -1.41586773 -0.57337570 0.03275671
C  0.32918727 0.57450272 -0.00539310
H  -0.16000707 1.55997793 0.03218813
H  1.43647788 0.62955941 0.03193537
6
MD Step 16
C  -0.33597489 -0.58234150 -0.00577107
H  0.22722769 -1.51418138 0.03434175
H  -1.41866256 -0.57412103 0.03460275
C  0.32867718 0.57348670 -0.00567915
H  -0.15736067 1.56169484 0.03389821
H  1.43575526 0.63212166 0.03359849
6
MD Step 17
C  -0.33544021 -0.58148761 -0.00605851
H  0.22785080 -1.51542729 0.03604832
H  -1.42144196 -0.57509188 0.03636304
C  0.32820082 0.57250443 -0.00594850
H  -0.15469425 1.56302466 0.03550758
H  1.43455022 0.63453839 0.03515691
6
MD Step 18
C  -0.33488576 -0.58061282 -0.00633038
H  0.22817831 -1.51663363 0.03766399
H  -1.42413310 -0.57627900 0.03803552
C  0.32776003 0.57156289 -0.00620107
H  -0.15201426 1.56395420 0.03701528
H  1.43287947 0.63679773 0.03661028
6
MD Step 19
C  -0.33432612 -0.57973266 -0.00659342
H  0.22824189 -1.51772529 0.03922895
H  -1.42662511 -0.57763112 0.03965824
C  0.32734920 0.57066160 -0.00644355
H  -0.14928909 1.56451764 0.03846133
H  1.43080945 0.63892983 0.03800035
6
MD Step 20
C  -0.33376493 -0.57885149 -0.00684334
H  0.22801180 -1.51869553 0.04071861
H  -1.42887672 -0.57916038 0.04120583
C  0.32697317 0.56981023 -0.00667206
H  -0.14655422 1.56469086 0.03982184
H  1.42835001 0.64090098 0.03930369
6
MD Step 21
C  -0.33320569 -0.57797345 -0.00707596
H  0.22746225 -1.51954111 0.04210909
H  -1.43085195 -0.58087740 0.04265364
C  0.32663616 0.56901766 -0.00688291
H  -0.14384715 1.56445684 0.04107380
H  1.42551949 0.64267911 0.04049778
6
MD Step 22
C  -0.33265135 -0.57710204 -0.00728690
H  0.22656976 -1.52026436 0.04337546
H  -1.43252243 -0.58279302 0.04397611
C  0.32634210 0.56829216 -0.00707227
H  -0.14120907 1.56380398 0.04219341
H  1.42234290 0.64423213 0.04155924
6
MD Step 23
C  -0.33210781 -0.57624362 -0.00747518
H  0.22533417 -1.52085230 0.04451282
H  -1.43384690 -0.58489752 0.04516712
C  0.32609104 0.56763787 -0.00723962
H  -0.13866393 1.56274720 0.04317685
H  1.41887270 0.64554904 0.04248529
6
MD Step 24
C  -0.33158168 -0.57540522 -0.00764111
H  0.22376593 -1.52128972 0.04552349
H  -1.43478468 -0.58717340 0.04622758
C  0.32588132 0.56705687 -0.00738566
H  -0.13623091 1.56131496 0.04402762
H  1.41517537 0.64662729 0.04328076
6
MD Step 25
C  -0.33108003 -0.57459422 -0.00778601
H  0.22188498 -1.52156036 0.04641592
H  -1.43529733 -0.58959659 0.04716433
C  0.32570980 0.56654939 -0.00751208
H  -0.13392528 1.55954786 0.04475541
H  1.41132942 0.64747160 0.04395693
6
MD Step 26
C  -0.33061167 -0.57381978 -0.00791376
H  0.21972883 -1.52163895 0.04721294
H  -1.43534117 -0.59212858 0.04799803
C  0.32557057 0.56611244 -0.00762289
H  -0.13175000 1.55750622 0.04538421
H  1.40743218 0.64810212 0.04453996
6
MD Step 27
C  -0.33017951 -0.57308500 -0.00802277
H  0.21730696 -1.52153685 0.04790590
H  -1.43491343 -0.59476188 0.04871929
C  0.32546271 0.56574750 -0.00771705
H  -0.12974060 1.55522391 0.04590708
H  1.40355266 0.64850873 0.04502384
6
MD Step 28
C  -0.32979310 -0.57239973 -0.00811923
H  0.21467621 -1.52122646 0.04853074
H  -1.43397691 -0.59744494 0.04936142
C  0.32537761 0.56544789 -0.00780063
H  -0.12788968 1.55278311 0.04636105
H  1.39980550 0.64872661 0.04544835
6
MD Step 29
C  -0.32944802 -0.57175970 -0.00819553
H  0.21181732 -1.52076443 0.04904392
H  -1.43258370 -0.60020516 0.04988192
C  0.32531994 0.56521950 -0.00786704
H  -0.12626896 1.55019013 0.04670480
H  1.39622564 0.64871266 0.04577148
6
MD Step 30
C  -0.32914365 -0.57116450 -0.00824885
H  0.20874115 -1.52018480 0.04942952
H  -1.43076812 -0.60304284 0.05026507
C  0.32528971 0.56506300 -0.00791410
H  -0.12492299 1.54748115 0.04692423
H  1.39287360 0.64845214 0.04597929
6
MD Step 31
C  -0.32888531 -0.57061977 -0.00828348
H  0.20550124 -1.51948570 0.04971222
H  -1.42853344 -0.60591843 0.05053399
C  0.32528018 0.56497177 -0.00794600
H  -0.12385579 1.54473429 0.04704528
H  1.38984684 0.64797160 0.04609948
6
MD Step 32
C  -0.32866882 -0.57012164 -0.00829450
H  0.20210091 -1.51872160 0.04986409
H  -1.42594447 -0.60884496 0.05066198
C  0.32529362 0.56494751 -0.00795864
H  -0.12312236 1.54197567 0.04704183
H  1.38718493 0.64724595 0.04610503
6
MD Step 33
C  -0.32849979 -0.56967620 -0.00828822
H  0.19860844 -1.51788704 0.04992088
H  -1.42301115 -0.61177280 0.05068327
C  0.32532189 0.56498097 -0.00795789
H  -0.12271305 1.53929405 0.04695064
H  1.38498370 0.64631426 0.04603436
6
MD Step 34
C  -0.32837715 -0.56928297 -0.00826475
H  0.19505817 -1.51701480 0.04988289
H  -1.41978711 -0.61468819 0.05059846
C  0.32536320 0.56506861 -0.00794396
H  -0.12265093 1.53674069 0.04677319
H  1.38329423 0.64518082 0.04588882
6
MD Step 35
C  -0.32829254 -0.56893430 -0.00821718
H  0.19144592 -1.51617925 0.04971094
H  -1.41637295 -0.61761738 0.05037087
C  0.32542288 0.56521340 -0.00791081
H  -0.12299527 1.53432397 0.04647154
H  1.38211720 0.64381105 0.04562822
6
MD Step 36
C  -0.32824727 -0.56863249 -0.00814965
H  0.18782986 -1.51539388 0.04942811
H  -1.41281324 -0.62052534 0.05002354
C  0.32549631 0.56540794 -0.00786217
H  -0.12373990 1.53210998 0.04606937
H  1.38150380 0.64223310 0.04527631
6
MD Step 37
C  -0.32824201 -0.56837940 -0.00806633
H  0.18426768 -1.51467290 0.04905718
H  -1.40915804 -0.62337803 0.04957940
C  0.32557947 0.56564500 -0.00780159
H  -0.12487466 1.53015879 0.04558989
H  1.38149198 0.64047542 0.04485614
6
MD Step 38
C  -0.32826898 -0.56816866 -0.00796295
H  0.18076932 -1.51407723 0.04857379
H  -1.40550875 -0.62618933 0.04901655
C  0.32567686 0.56592549 -0.00772520
H  -0.12643155 1.52847638 0.04500893
H  1.38205867 0.63851982 0.04434120
6
MD Step 39
C  -0.32832502 -0.56799880 -0.00784075
H  0.17737387 -1.51363585 0.04798406
H  -1.40193853 -0.62894340 0.04834246
C  0.32578843 0.56624557 -0.00763381
H  -0.12840694 1.52709160 0.04433253
H  1.38319771 0.63637924 0.04373622
6
MD Step 40
C  -0.32840323 -0.56786484 -0.00769726
H  0.17409810 -1.51339580 0.04727365
H  -1.39854156 -0.63164564 0.04754511
C  0.32591804 0.56660520 -0.00752500
H  -0.13081214 1.52600451 0.04354592
H  1.38486922 0.63404683 0.04302423
6
MD Step 41
C  -0.32850238 -0.56776767 -0.00753631
H  0.17099141 -1.51336551 0.04646323
H  -1.39537530 -0.63426692 0.04664632
C  0.32606408 0.56699888 -0.00740183
H  -0.13361762 1.52524176 0.04266928
H  1.38705632 0.63155168 0.04222440
6
MD Step 42
C  -0.32862147 -0.56770857 -0.00736206
H  0.16810206 -1.51354742 0.04557520
H  -1.39249219 -0.63677695 0.04566960
C  0.32622502 0.56742123 -0.00726756
H  -0.13678623 1.52482292 0.04172450
H  1.38973255 0.62892546 0.04135766
6
MD Step 43
C  -0.32875017 -0.56767970 -0.00716878
H  0.16541975 -1.51399448 0.04457684
H  -1.38999520 -0.63920155 0.04458510
C  0.32640881 0.56787669 -0.00711676
H  -0.14033052 1.52470325 0.04067754
H  1.39280561 0.62614537 0.04038743
6
MD Step 44
C  -0.32888453 -0.56767961 -0.00695725
H  0.16296700 -1.51471723 0.04347195
H  -1.38794312 -0.64153021 0.04339827
C  0.32661741 0.56836395 -0.00694978
H  -0.14422088 1.52486655 0.03953119
H  1.39621205 0.62322625 0.03931517
6
MD Step 45
C  -0.32902448 -0.56771066 -0.00673203
H  0.16078302 -1.51569911 0.04228499
H  -1.38636453 -0.64373178 0.04213445
C  0.32684926 0.56887851 -0.00677020
H  -0.14840176 1.52531005 0.03830932
H  1.39990328 0.62020476 0.03816418
6
MD Step 46
C  -0.32915951 -0.56776483 -0.00648610
H  0.15883872 -1.51698144 0.04097676
H  -1.38534172 -0.64583996 0.04075669
C  0.32711342 0.56942705 -0.00657160
H  -0.15287753 1.52595984 0.03697088
H  1.40376174 0.61705446 0.03689153
6
MD Step 47
C  -0.32929501 -0.56784958 -0.00622865
H  0.15719067 -1.51850827 0.03959769
H  -1.38485381 -0.64779767 0.03931542
C  0.32740364 0.57000118 -0.00636176
H  -0.15755792 1.52682727 0.03556647
H  1.40775877 0.61384014 0.03554815
6
MD Step 48
C  -0.32942413 -0.56796006 -0.00595525
H  0.15581536 -1.52029333 0.03812306
H  -1.38494326 -0.64962443 0.03778711
C  0.32772602 0.57060550 -0.00613661
H  -0.16242579 1.52784291 0.03406991
H  1.41178851 0.61055166 0.03410690
6
MD Step 49
C  -0.32955144 -0.56810233 -0.00567277
H  0.15474793 -1.52228080 0.03659076
H  -1.38557552 -0.65127621 0.03620950
C  0.32807576 0.57123396 -0.00590206
H  -0.16739801 1.52899760 0.03251944
H  1.41580993 0.60724275 0.03260634
6
MD Step 50
C  -0.32967196 -0.56827269 -0.00537735
H  0.15395944 -1.52446965 0.03497927
H  -1.38676334 -0.65276985 0.03456148
C  0.32845768 0.57189069 -0.00565458
H  -0.17245039 1.53021962 0.03089247
H  1.41972369 0.60390767 0.03102356
6
MD Step 51
C  -0.32978269 -0.56846901 -0.00506646
H  0.15342480 -1.52684606 0.03327490
H  -1.38849857 -0.65411461 0.03282928
C  0.32887482 0.57257839 -0.00539195
H  -0.17755020 1.53144426 0.02917447
H  1.42344226 0.60054891 0.02934406
6
MD Step 52
C  -0.32988625 -0.56869415 -0.00474273
H  0.15314402 -1.52936297 0.03149250
H  -1.39073165 -0.65529097 0.03102715
C  0.32932489 0.57329464 -0.00511656
H  -0.18263580 1.53263624 0.02738051
H  1.42691264 0.59719804 0.02758338
6
MD Step 53
C  -0.32998547 -0.56895075 -0.00440841
H  0.15311186 -1.53197199 0.02964497
H  -1.39340399 -0.65628198 0.02916723
C  0.32980543 0.57403714 -0.00483051
H  -0.18764850 1.53375971 0.02552380
H  1.43008598 0.59388471 0.02575525
6
MD Step 54
C  -0.33008437 -0.56924213 -0.00406648
H  0.15332440 -1.53461832 0.02774928
H  -1.39644367 -0.65706718 0.02726556
C  0.33031280 0.57480252 -0.00453660
H  -0.19252705 1.53478527 0.02362190
H  1.43292441 0.59064249 0.02387786
6
MD Step 55
C  -0.33018462 -0.56956889 -0.00371712
H  0.15375971 -1.53726169 0.02580695
H  -1.39978739 -0.65764288 0.02532273
C  0.33084547 0.57558977 -0.00423516
H  -0.19722837 1.53567080 0.02167651
H  1.43538142 0.58748888 0.02195348
6
MD Step 56
C  -0.33028608 -0.56992944 -0.00335839
H  0.15438224 -1.53987349 0.02380781
H  -1.40337842 -0.65801843 0.02332769
C  0.33140341 0.57639945 -0.00392467
H  -0.20172424 1.53636607 0.01967726
H  1.43740628 0.58442899 0.01997230
6
MD Step 57
C  -0.33039281 -0.57032590 -0.00299255
H  0.15517877 -1.54240178 0.02176523
H  -1.40713253 -0.65818033 0.02129280
C  0.33198219 0.57722768 -0.00360738
H  -0.20596584 1.53684932 0.01763812
H  1.43898055 0.58149096 0.01794887
6
MD Step 58
C  -0.33051128 -0.57076240 -0.00262443
H  0.15614929 -1.54478203 0.01970645
H  -1.41094979 -0.65810217 0.01924435
C  0.33257456 0.57806770 -0.00328781
H  -0.20989403 1.53711794 0.01558741
H  1.44010840 0.57871614 0.01591219
6
MD Step 59
C  -0.33063939 -0.57123439 -0.00225006
H  0.15724413 -1.54700173 0.01761001
H  -1.41478040 -0.65780890 0.01716011
C  0.33318113 0.57892069 -0.00296258
H  -0.21350369 1.53712495 0.01350314
H  1.44075249 0.57609550 0.01384068
6
MD Step 60
C  -0.33077728 -0.57173921 -0.00186800
H  0.15842785 -1.54903711 0.01546849
H  -1.41856205 -0.65731262 0.01503202
C  0.33379973 0.57978494 -0.00263059
H  -0.21677994 1.53684343 0.01137770
H  1.44089849 0.57363311 0.01172715
6
MD Step 61
C  -0.33093047 -0.57227925 -0.00148268
H  0.15969836 -1.55083478 0.01330709
H  -1.42220235 -0.65659357 0.01288461
C  0.33442233 0.58065266 -0.00229600
H  -0.21967936 1.53628573 0.00923710
H  1.44057422 0.57136482 0.00959805
6
MD Step 62
C  -0.33109479 -0.57284718 -0.00108883
H  0.16099971 -1.55240057 0.01109683
H  -1.42566844 -0.65568891 0.01068854
C  0.33504970 0.58152490 -0.00195417
H  -0.22221881 1.53541519 0.00705143
H  1.43976082 0.56927043 0.00742367
6
MD Step 63
C  -0.33127301 -0.57344229 -0.00068874
H  0.16231961 -1.55370188 0.00885089
H  -1.42888985 -0.65459422 0.00845667
C  0.33567517 0.58239500 -0.00160726
H  -0.22437726 1.53424442 0.00483405
H  1.43849117 0.56737102 0.00521758
6
MD Step 64
C  -0.33146876 -0.57406461 -0.00028602
H  0.16365483 -1.55470319 0.00658999
H  -1.43179463 -0.65329878 0.00620951
C  0.33629056 0.58325459 -0.00125866
H  -0.22613109 1.53280002 0.00260598
H  1.43681424 0.56569391 0.00300090
6
MD Step 65
C  -0.33168012 -0.57470859 0.00012101
H  0.16497374 -1.55540436 0.00430502
H  -1.43434825 -0.65182374 0.00393792
C  0.33689247 0.58410004 -0.00090685
H  -0.22749233 1.53108451 0.00035741
H  1.43475640 0.56423484 0.00076379
6
MD Step 66
C  -0.33191023 -0.57537359 0.00052831
H  0.16627901 -1.55577789 0.00201896
H  -1.43649120 -0.65015883 0.00166493
C  0.33747194 0.58492184 -0.00055553
H  -0.22844539 1.52913905 -0.00188865
H  1.43238409 0.56302046 -0.00147086
6
MD Step 67
C  -0.33215838 -0.57605518 0.00093536
H  0.16755566 -1.55582155 -0.00026488
H  -1.43819214 -0.64831504 -0.00060592
C  0.33802326 0.58571358 -0.00020517
H  -0.22899970 1.52699068 -0.00412953
H  1.42975015 0.56205612 -0.00370063
6
MD Step 68
C  -0.33242590 -0.57675091 0.00133899
H  0.16880576 -1.55552355 -0.00252849
H  -1.43941341 -0.64628954 -0.00285637
C  0.33853820 0.58646604 0.00014143
H  -0.22915456 1.52468683 -0.00634761
H  1.42692797 0.56136043 -0.00590827
6
MD Step 69
C  -0.33270571 -0.57745011 0.00174422
H  0.16998709 -1.55492442 -0.00480029
H  -1.44017316 -0.64412765 -0.00511449
C  0.33901643 0.58717780 0.00048906
H  -0.22896095 1.52223294 -0.00857290
H  1.42394823 0.56090378 -0.00812419
6
MD Step 70
C  -0.33299355 -0.57814498 0.00215270
H  0.17107906 -1.55405028 -0.00708963
H  -1.44047871 -0.64185612 -0.00738925
C  0.33945457 0.58784399 0.00083944
H  -0.22845477 1.51965846 -0.01081606
H  1.42086470 0.56067436 -0.01035952
6
MD Step 71
C  -0.33329651 -0.57883901 0.00255411
H  0.17213244 -1.55286273 -0.00933739
H  -1.44027647 -0.63943284 -0.00962099
C  0.33983788 0.58844802 0.00118307
H  -0.22760637 1.51706626 -0.01301804
H  1.41780322 0.56072803 -0.01255591
6
MD Step 72
C  -0.33360670 -0.57952106 0.00295298
H  0.17311492 -1.55141392 -0.01156955
H  -1.43960768 -0.63690252 -0.01183532
C  0.34016632 0.58898785 0.00152445
H  -0.22647562 1.51447629 -0.01520665
H  1.41480371 0.56103367 -0.01474165
6
MD Step 73
C  -0.33392258 -0.58018652 0.00334698
H  0.17403621 -1.54972037 -0.01377270
H  -1.43848222 -0.63427038 -0.01401835
C  0.34043367 0.58945483 0.00186163
H  -0.22508531 1.51195069 -0.01736970
H  1.41194497 0.56159860 -0.01690515
6
MD Step 74
C  -0.33424255 -0.58083092 0.00373352
H  0.17490994 -1.54780073 -0.01593185
H  -1.43691657 -0.63154027 -0.01615461
C  0.34063400 0.58984028 0.00219238
H  -0.22345869 1.50955450 -0.01949343
H  1.40930464 0.56243064 -0.01903327
6
MD Step 75
C  -0.33456177 -0.58144692 0.00411294
H  0.17573490 -1.54569401 -0.01804894
H  -1.43495232 -0.62873331 -0.01824576
C  0.34076488 0.59013874 0.00251729
H  -0.22163748 1.50733584 -0.02158138
H  1.40693842 0.56351953 -0.02112992
6
MD Step 76
C  -0.33488128 -0.58203338 0.00447941
H  0.17654825 -1.54340541 -0.02008970
H  -1.43260200 -0.62583398 -0.02025694
C  0.34081856 0.59033905 0.00283086
H  -0.21962726 1.50537828 -0.02360026
H  1.40493219 0.56489053 -0.02316246
6
MD Step 77
C  -0.33519410 -0.58258159 0.00483485
H  0.17734320 -1.54098827 -0.02206534
H  -1.42993140 -0.62287269 -0.02219940
C  0.34079582 0.59043838 0.00313520
H  -0.21747923 1.50371701 -0.02556290
H  1.40331715 0.56652223 -0.02514367
6
MD Step 78
C  -0.33549450 -0.58308453 0.00517970
H  0.17812314 -1.53848869 -0.02397844
H  -1.42700396 -0.61987083 -0.02407577
C  0.34069689 0.59043313 0.00343094
H  -0.21523451 1.50239216 -0.02747316
H  1.40212349 0.56840116 -0.02707727
6
MD Step 79
C  -0.33577241 -0.58353137 0.00551852
H  0.17886785 -1.53597824 -0.02585612
H  -1.42391322 -0.61687424 -0.02591401
C  0.34052706 0.59032475 0.00372287
H  -0.21295693 1.50141401 -0.02935965
H  1.40134574 0.57048838 -0.02899092
6
MD Step 80
C  -0.33603190 -0.58392575 0.00584198
H  0.17964135 -1.53344434 -0.02764224
H  -1.42067266 -0.61384415 -0.02765728
C  0.34027856 0.59010146 0.00400149
H  -0.21062343 1.50087060 -0.03116639
H  1.40105141 0.57282795 -0.03082912
6
MD Step 81
C  -0.33626338 -0.58425832 0.00615407
H  0.18042768 -1.53095431 -0.02936064
H  -1.41737967 -0.61082199 -0.02933062
C  0.33995799 0.58976618 0.00427092
H  -0.20828790 1.50076168 -0.03291806
H  1.40121481 0.57538280 -0.03261516
6
MD Step 82
C  -0.33646308 -0.58452597 0.00645326
H  0.18124433 -1.52854008 -0.03100166
H  -1.41409954 -0.60781474 -0.03092495
C  0.33956725 0.58931732 0.00452945
H  -0.20596617 1.50111223 -0.03460509
H  1.40183194 0.57814872 -0.03433861
6
MD Step 83
C  -0.33662040 -0.58471932 0.00674475
H  0.18206691 -1.52627258 -0.03259678
H  -1.41093900 -0.60487014 -0.03247374
C  0.33911597 0.58876151 0.00478245
H  -0.20371078 1.50189651 -0.03625905
H  1.40284559 0.58107939 -0.03602882
6
MD Step 84
C  -0.33673058 -0.58483520 0.00702844
H  0.18290228 -1.52418688 -0.03414518
H  -1.40797002 -0.60200260 -0.03397746
C  0.33860904 0.58810121 0.00502960
H  -0.20153679 1.50311158 -0.03787851
H  1.40422077 0.58416010 -0.03768285
6
MD Step 85
C  -0.33679088 -0.58487283 0.00730276
H  0.18376491 -1.52230483 -0.03563686
H  -1.40525130 -0.59921647 -0.03542724
C  0.33805044 0.58733867 0.00526895
H  -0.19944507 1.50475386 -0.03945237
H  1.40592247 0.58738442 -0.03928838
6
MD Step 86
C  -0.33679664 -0.58482983 0.00756848
H  0.18465269 -1.52065832 -0.03707645
H  -1.40285042 -0.59653001 -0.03682947
C  0.33744711 0.58647993 0.00550103
H  -0.19744629 1.50679524 -0.04098388
H  1.40789302 0.59073035 -0.04084684
6
MD Step 87
C  -0.33675238 -0.58471320 0.00781838
H  0.18561153 -1.51922374 -0.03841831
H  -1.40077707 -0.59391023 -0.03813832
C  0.33679795 0.58552388 0.00571740
H  -0.19549612 1.50924866 -0.04242532
H  1.41011871 0.59422528 -0.04231080
6
MD Step 88
C  -0.33665836 -0.58452589 0.00805003
H  0.18665534 -1.51800208 -0.03964633
H  -1.39906246 -0.59135322 -0.03933828
C  0.33610720 0.58447562 0.00591473
H  -0.19357574 1.51208839 -0.04375837
H  1.41255053 0.59786591 -0.04366151
6
MD Step 89
C  -0.33649794 -0.58425404 0.00827742
H  0.18769037 -1.51709441 -0.04084950
H  -1.39783393 -0.58895987 -0.04052383
C  0.33539703 0.58335915 0.00610856
H  -0.19176796 1.51517526 -0.04506990
H  1.41503005 0.60154258 -0.04498057
6
MD Step 90
C  -0.33628444 -0.58391372 0.00848758
H  0.18879211 -1.51642339 -0.04194469
H  -1.39703424 -0.58665785 -0.04160942
C  0.33466076 0.58217052 0.00628352
H  -0.18998061 1.51853616 -0.04627392
H  1.41757051 0.60531712 -0.04618477
6
MD Step 91
C  -0.33601784 -0.58350757 0.00868080
H  0.18994853 -1.51599143 -0.04293369
H  -1.39668001 -0.58445938 -0.04259799
C  0.33390609 0.58092097 0.00643946
H  -0.18820443 1.52210744 -0.04736946
H  1.42009956 0.60916540 -0.04727234
6
MD Step 92
C  -0.33569827 -0.58303825 0.00885816
H  0.19114016 -1.51580073 -0.04382322
H  -1.39678123 -0.58238113 -0.04349733
C  0.33314153 0.57962335 0.00657714
H  -0.18643378 1.52581644 -0.04836042
H  1.42254101 0.61305751 -0.04824644
6
MD Step 93
C  -0.33532395 -0.58250633 0.00902321
H  0.19232811 -1.51586568 -0.04463713
H  -1.39735321 -0.58045628 -0.04433311
C  0.33237836 0.57829396 0.00670052
H  -0.18467952 1.52957094 -0.04926771
H  1.42480436 0.61694579 -0.04912649
6
MD Step 94
C  -0.33490328 -0.58192230 0.00917118
H  0.19352598 -1.51614132 -0.04534453
H  -1.39834471 -0.57866285 -0.04507317
C  0.33161854 0.57694034 0.00680362
H  -0.18289831 1.53333257 -0.05005794
H  1.42685812 0.62083682 -0.04988059
6
MD Step 95
C  -0.33444230 -0.58129409 0.00930022
H  0.19472658 -1.51659790 -0.04593367
H  -1.39971316 -0.57699744 -0.04570509
C  0.33086699 0.57557350 0.00688397
H  -0.18106677 1.53704427 -0.05071701
H  1.42865682 0.62471778 -0.05049551
6
MD Step 96
C  -0.33394315 -0.58062544 0.00941271
H  0.19589344 -1.51723041 -0.04642093
H  -1.40143484 -0.57548400 -0.04624555
C  0.33013310 0.57420920 0.00694428
H  -0.17919089 1.54062278 -0.05125895
H  1.43013295 0.62854765 -0.05098499
6
MD Step 97
C  -0.33340466 -0.57991645 0.00951459
H  0.19696480 -1.51805543 -0.04684742
H  -1.40350218 -0.57417015 -0.04673705
C  0.32943006 0.57286719 0.00699197
H  -0.17730285 1.54396361 -0.05172222
H  1.43120174 0.63226114 -0.05138603
6
MD Step 98
C  -0.33284167 -0.57918318 0.00959794
H  0.19797087 -1.51899472 -0.04716113
H  -1.40580765 -0.57301054 -0.04712415
C  0.32875500 0.57155145 0.00701738
H  -0.17534530 1.54705914 -0.05205415
H  1.43187900 0.63588605 -0.05164926
6
MD Step 99
C  -0.33226054 -0.57843290 0.00966292
H  0.19888820 -1.52002237 -0.04736423
H  -1.40829253 -0.57201259 -0.04740792
C  0.32811371 0.57027453 0.00702085
H  -0.17331699 1.54985333 -0.05225571
H  1.43213513 0.63939700 -0.05177648
6
MD Step 100
C  -0.33166711 -0.57767217 0.00971040
H  0.19968898 -1.52111670 -0.04746390
H  -1.41089987 -0.57118774 -0.04759451
C  0.32751229 0.56904921 0.00700375
H  -0.17122437 1.55229134 -0.05233315
H  1.43194418 0.64276452 -0.05177470
6
MD Step 101
C  -0.33106801 -0.57690822 0.00974073
H  0.20034991 -1.52225239 -0.04746385
H  -1.41356749 -0.57054299 -0.04768630
C  0.32695575 0.56788700 0.00696684
H  -0.16907340 1.55432871 -0.05228969
H  1.43129276 0.64596374 -0.05164808
6
MD Step 102
C  -0.33047124 -0.57614953 0.00975308
H  0.20085709 -1.52339663 -0.04735974
H  -1.41622508 -0.57007635 -0.04767723
C  0.32644712 0.56679720 0.00690951
H  -0.16686518 1.55593647 -0.05212113
H  1.43018468 0.64897914 -0.05139381
6
MD Step 103
C  -0.32988461 -0.57540432 0.00974674
H  0.20119775 -1.52451842 -0.04714801
H  -1.41880441 -0.56978548 -0.04756205
C  0.32598891 0.56578828 0.00683132
H  -0.16460460 1.55709291 -0.05182442
H  1.42863243 0.65179602 -0.05101020
6
MD Step 104
C  -0.32931722 -0.57468205 0.00971969
H  0.20137033 -1.52557939 -0.04681597
H  -1.42123109 -0.56965799 -0.04732606
C  0.32558147 0.56486614 0.00673022
H  -0.16229060 1.55779363 -0.05138807
H  1.42666673 0.65441041 -0.05048747
6
MD Step 105
C  -0.32877691 -0.57399084 0.00967082
H  0.20136999 -1.52654919 -0.04635681
H  -1.42344076 -0.56968615 -0.04696073
C  0.32522540 0.56403652 0.00660525
H  -0.15993085 1.55803693 -0.05080677
H  1.42432151 0.65681437 -0.04982179
6
MD Step 106
C  -0.32826634 -0.57333347 0.00960322
H  0.20116585 -1.52742877 -0.04579297
H  -1.42540315 -0.56988953 -0.04648796
C  0.32492551 0.56330866 0.00646093
H  -0.15756416 1.55780115 -0.05010348
H  1.42161090 0.65897309 -0.04903649
6
MD Step 107
C  -0.32779865 -0.57272346 0.00951025
H  0.20079667 -1.52815564 -0.04507932
H  -1.42702743 -0.57022078 -0.04585998
C  0.32467458 0.56267953 0.00628936
H  -0.15516636 1.55713963 -0.04923672
H  1.41862366 0.66092056 -0.04809263
6
MD Step 108
C  -0.32737423 -0.57216121 0.00939620
H  0.20023037 -1.52874442 -0.04424576
H  -1.42830384 -0.57070453 -0.04510655
C  0.32447724 0.56215699 0.00609643
H  -0.15278862 1.55604072 -0.04823724
H  1.41538277 0.66261882 -0.04702108
6
MD Step 109
C  -0.32699906 -0.57165284 0.00925978
H  0.19947594 -1.52917556 -0.04328386
H  -1.42919231 -0.57132703 -0.04421813
C  0.32433102 0.56174130 0.00588103
H  -0.15044708 1.55453883 -0.04709924
H  1.41195593 0.66406999 -0.04581718
6
MD Step 110
C  -0.32667485 -0.57120008 0.00910303
H  0.19852391 -1.52945491 -0.04220726
H  -1.42968240 -0.57209499 -0.04320798
C  0.32423647 0.56143494 0.00564606
H  -0.14818133 1.55265495 -0.04583830
H  1.40839559 0.66525660 -0.04449700
6
MD Step 111
C  -0.32639862 -0.57079978 0.00893161
H  0.19734359 -1.52961634 -0.04105450
H  -1.42979609 -0.57303820 -0.04211496
C  0.32419769 0.56124307 0.00539893
H  -0.14605669 1.55039362 -0.04449387
H  1.40473552 0.66613895 -0.04309979
6
MD Step 112
C  -0.32617372 -0.57045531 0.00874482
H  0.19595034 -1.52965454 -0.03982063
H  -1.42952022 -0.57414319 -0.04093363
C  0.32421087 0.56116243 0.00513919
H  -0.14409769 1.54780947 -0.04306389
H  1.40105694 0.66672259 -0.04162412
6
MD Step 113
C  -0.32600292 -0.57016941 0.00854187
H  0.19436341 -1.52956693 -0.03849991
H  -1.42884868 -0.57539476 -0.03965796
C  0.32427155 0.56118831 0.00486622
H  -0.14232906 1.54496472 -0.04154566
H  1.39744540 0.66701608 -0.04006771
6
MD Step 114
C  -0.32588681 -0.56994261 0.00832331
H  0.19259631 -1.52936299 -0.03709543
H  -1.42779200 -0.57678543 -0.03829108
C  0.32437630 0.56131627 0.00458097
H  -0.14078458 1.54191876 -0.03994492
H  1.39397959 0.66702136 -0.03843639
6
MD Step 115
C  -0.32582541 -0.56977483 0.00808956
H  0.19066618 -1.52905464 -0.03560946
H  -1.42636775 -0.57830610 -0.03683549
C  0.32452125 0.56154062 0.00428423
H  -0.13949715 1.53873661 -0.03826656
H  1.39073909 0.66674320 -0.03673492
6
MD Step 116
C  -0.32581998 -0.56966737 0.00783921
H  0.18860494 -1.52864479 -0.03403194
H  -1.42458911 -0.57993503 -0.03528131
C  0.32470028 0.56185275 0.00397453
H  -0.13848704 1.53549882 -0.03650357
H  1.38781354 0.66620027 -0.03495615
6
MD Step 117
C  -0.32586548 -0.56961511 0.00757607
H  0.18641267 -1.52817306 -0.03238740
H  -1.42251088 -0.58168351 -0.03365391
C  0.32491301 0.56224889 0.00365656
H  -0.13780669 1.53225405 -0.03468188
H  1.38525457 0.66537867 -0.03312516
6
MD Step 118
C  -0.32596599 -0.56962240 0.00729481
H  0.18415133 -1.52762197 -0.03063975
H  -1.42013516 -0.58350335 -0.03191744
C  0.32514896 0.56271480 0.00332412
H  -0.13744756 1.52911078 -0.03276904
H  1.38316712 0.66432572 -0.03120924
6
MD Step 119
C  -0.32611412 -0.56968194 0.00700018
H  0.18181883 -1.52704157 -0.02881947
H  -1.41753656 -0.58541090 -0.03010348
C  0.32540906 0.56324672 0.00298282
H  -0.13746292 1.52611068 -0.03079631
H  1.38158219 0.66302407 -0.02923845
6
MD Step 120
C  -0.32630652 -0.56979074 0.00669262
H  0.17944259 -1.52645538 -0.02692852
H  -1.41476743 -0.58739435 -0.02821484
C  0.32568977 0.56383606 0.00263311
H  -0.13787448 1.52332025 -0.02876711
H  1.38054860 0.66148553 -0.02721523
6
MD Step 121
C  -0.32654187 -0.56994802 0.00637009
H  0.17706660 -1.52587224 -0.02495297
H  -1.41186945 -0.58942621 -0.02623844
C  0.32598530 0.56447165 0.00227263
H  -0.13868391 1.52081655 -0.02666918
H  1.38011887 0.65973842 -0.02512636
6
MD Step 122
C  -0.32681775 -0.57015208 0.00603115
H  0.17473165 -1.52530515 -0.02288259
H  -1.40889231 -0.59148256 -0.02416492
C  0.32629102 0.56514317 0.00189958
H  -0.13989110 1.51866605 -0.02449344
H  1.38032832 0.65780796 -0.02296181
6
MD Step 123
C  -0.32712264 -0.57039215 0.00568259
H  0.17242606 -1.52481936 -0.02076013
H  -1.40594142 -0.59359154 -0.02203828
C  0.32661171 0.56584947 0.00152137
H  -0.14154176 1.51687428 -0.02228192
H  1.38114533 0.65566733 -0.02076226
6
MD Step 124
C  -0.32744718 -0.57065977 0.00532893
H  0.17015230 -1.52446451 -0.01861355
H  -1.40310879 -0.59576685 -0.01988755
C  0.32695024 0.56658751 0.00114278
H  -0.14366052 1.51545157 -0.02006201
H  1.38253857 0.65330491 -0.01855401
6
MD Step 125
C  -0.32778799 -0.57095272 0.00496881
H  0.16794873 -1.52425147 -0.01643351
H  -1.40044866 -0.59798555 -0.01770414
C  0.32730363 0.56734883 0.00076207
H  -0.14622833 1.51443442 -0.01782449
H  1.38449987 0.65074665 -0.01632719
6