6
MD Step 0
C  -0.33763715 -0.58748864 0.00000000
H  0.19552659 -1.51519357 0.00000000
H  -1.40763715 -0.58748864 0.00000000
C  0.33763715 0.58748865 0.00000000
H  -0.19552659 1.51519357 0.00000000
H  1.40763715 0.58748865 0.00000000
6
MD Step 1
C  -0.33800571 -0.58783575 -0.00039566
H  0.19788618 -1.51298762 0.00235679
H  -1.40542101 -0.58520801 0.00235360
C  0.33721722 0.58704621 -0.00039402
H  -0.19318990 1.51769022 0.00235134
H  1.41012039 0.58991354 0.00234817
6
MD Step 2
C  -0.33832094 -0.58808907 -0.00079417
H  0.20028601 -1.51107332 0.00473054
H  -1.40350794 -0.58305934 0.00472425
C  0.33674695 0.58650913 -0.00079087
H  -0.19085242 1.52047143 0.00471954
H  1.41283005 0.59248790 0.00471310
6
MD Step 3
C  -0.33857546 -0.58824393 -0.00119164
H  0.20270177 -1.50948425 0.00709803
H  -1.40196590 -0.58107277 0.00708900
C  0.33623530 0.58588531 -0.00118658
H  -0.18852990 1.52348373 0.00708102
H  1.41567941 0.59517863 0.00707097
6
MD Step 4
C  -0.33876355 -0.58829766 -0.00158511
H  0.20511127 -1.50824138 0.00944144
H  -1.40084801 -0.57927204 0.00943050
C  0.33569062 0.58518276 -0.00157805
H  -0.18623051 1.52667364 0.00941740
H  1.41858438 0.59795710 0.00940299
6
MD Step 5
C  -0.33888293 -0.58825125 -0.00197413
H  0.20750410 -1.50734338 0.01175796
H  -1.40018130 -0.57766487 0.01174652
C  0.33511890 0.58440778 -0.00196466
H  -0.18394579 1.52999828 0.01172511
H  1.42147527 0.60080887 0.01170509
6
MD Step 6
C  -0.33893706 -0.58811156 -0.00236304
H  0.20989525 -1.50675329 0.01407325
H  -1.39995227 -0.57622946 0.01406342
C  0.33452139 0.58356270 -0.00235053
H  -0.18163764 1.53343986 0.01402890
H  1.42431187 0.60374725 0.01400145
6
MD Step 7
C  -0.33892292 -0.58787902 -0.00274871
H  0.21225251 -1.50647211 0.01636852
H  -1.40017999 -0.57498747 0.01636319
C  0.33390678 0.58265795 -0.00273234
H  -0.17931167 1.53693353 0.01630895
H  1.42701154 0.60674042 0.01627164
6
MD Step 8
C  -0.33883979 -0.58755626 -0.00312924
H  0.21454858 -1.50648746 0.01863226
H  -1.40086381 -0.57395219 0.01863511
C  0.33328246 0.58170330 -0.00310794
H  -0.17696605 1.54042040 0.01855265
H  1.42950262 0.60976334 0.01850244
6
MD Step 9
C  -0.33868794 -0.58714676 -0.00350265
H  0.21675376 -1.50678201 0.02085247
H  -1.40199119 -0.57313628 0.02086796
C  0.33265565 0.58070898 -0.00347514
H  -0.17459973 1.54384086 0.02074689
H  1.43171805 0.61279019 0.02068014
6
MD Step 10
C  -0.33846589 -0.58665201 -0.00386411
H  0.21882023 -1.50735038 0.02300048
H  -1.40355443 -0.57256787 0.02303381
C  0.33203614 0.57968831 -0.00382895
H  -0.17222912 1.54711958 0.02286195
H  1.43358042 0.61577831 0.02277443
6
MD Step 11
C  -0.33818576 -0.58608681 -0.00422139
H  0.22077408 -1.50810848 0.02512240
H  -1.40545975 -0.57219911 0.02517900
C  0.33142079 0.57864218 -0.00417691
H  -0.16979723 1.55025807 0.02494279
H  1.43509456 0.61875990 0.02483014
6
MD Step 12
C  -0.33785261 -0.58545863 -0.00457429
H  0.22259397 -1.50901671 0.02721720
H  -1.40765176 -0.57202811 0.02730272
C  0.33081403 0.57757946 -0.00451871
H  -0.16729573 1.55321326 0.02698743
H  1.43622544 0.62172004 0.02684509
6
MD Step 13
C  -0.33746465 -0.58476782 -0.00491495
H  0.22421345 -1.51007916 0.02923834
H  -1.41011341 -0.57209715 0.02935886
C  0.33022761 0.57651656 -0.00484648
H  -0.16476358 1.55590007 0.02894869
H  1.43690033 0.62459852 0.02877163
6
MD Step 14
C  -0.33702710 -0.58402145 -0.00524182
H  0.22560454 -1.51126132 0.03117696
H  -1.41278387 -0.57240962 0.03133849
C  0.32966649 0.57546342 -0.00515869
H  -0.16220437 1.55827543 0.03081708
H  1.43709293 0.62737320 0.03060022
6
MD Step 15
C  -0.33655073 -0.58323185 -0.00555836
H  0.22677029 -1.51249880 0.03305400
H  -1.41556814 -0.57293790 0.03326188
C  0.32913018 0.57442467 -0.00545878
H  -0.15959452 1.56033106 0.03261298
H  1.43681583 0.63005226 0.03235170
6
MD Step 16
C  -0.33603998 -0.58240482 -0.00586127
H  0.22767560 -1.51376807 0.03485037
H  -1.41840927 -0.57369303 0.03510954
C  0.32862444 0.57341126 -0.00574360
H  -0.15695293 1.56202411 0.03431712
H  1.43605048 0.63260445 0.03400692
6
MD Step 17
C  -0.33550270 -0.58154932 -0.00615036
H  0.22830614 -1.51502869 0.03656557
H  -1.42123130 -0.57466630 0.03688008
C  0.32815142 0.57243059 -0.00601312
H  -0.15428271 1.56333614 0.03592892
H  1.43480598 0.63501781 0.03556586
6
MD Step 18
C  -0.33494472 -0.58067213 -0.00642330
H  0.22863750 -1.51625524 0.03818646
H  -1.42397237 -0.57586041 0.03855957
C  0.32771492 0.57149163 -0.00626528
H  -0.15160242 1.56424225 0.03743548
H  1.43308779 0.63726854 0.03701604
6
MD Step 19
C  -0.33437372 -0.57978175 -0.00667964
H  0.22865922 -1.51741416 0.03971105
H  -1.42656227 -0.57726586 0.04014485
C  0.32731634 0.57060084 -0.00649989
H  -0.14892237 1.56473513 0.03883518
H  1.43092142 0.63934486 0.03835664
6
MD Step 20
C  -0.33379974 -0.57888891 -0.00692146
H  0.22837875 -1.51846066 0.04115225
H  -1.42892035 -0.57885733 0.04164722
C  0.32695406 0.56976157 -0.00671925
H  -0.14624096 1.56482879 0.04014134
H  1.42835586 0.64125079 0.03960223
6
MD Step 21
C  -0.33323548 -0.57800695 -0.00715390
H  0.22782449 -1.51933647 0.04254082
H  -1.43095414 -0.58059103 0.04309499
C  0.32662302 0.56897350 -0.00692854
H  -0.14354179 1.56456137 0.04138502
H  1.42546571 0.64300902 0.04078593
6
MD Step 22
C  -0.33267933 -0.57713473 -0.00736778
H  0.22694484 -1.52007134 0.04382374
H  -1.43266196 -0.58250555 0.04443527
C  0.32633172 0.56824950 -0.00711940
H  -0.14089398 1.56389391 0.04251473
H  1.42224934 0.64455966 0.04185595
6
MD Step 23
C  -0.33213912 -0.57628054 -0.00756409
H  0.22575085 -1.52064071 0.04500748
H  -1.43399048 -0.58457983 0.04567288
C  0.32607827 0.56759178 -0.00729316
H  -0.13831033 1.56285295 0.04353791
H  1.41877132 0.64590314 0.04282117
6
MD Step 24
C  -0.33162467 -0.57545465 -0.00774650
H  0.22427215 -1.52100997 0.04611383
H  -1.43487959 -0.58677723 0.04682724
C  0.32585772 0.56699921 -0.00745358
H  -0.13579094 1.56148623 0.04447717
H  1.41511756 0.64705618 0.04370641
6
MD Step 25
C  -0.33113007 -0.57465136 -0.00790290
H  0.22245099 -1.52124061 0.04707315
H  -1.43536915 -0.58915120 0.04783006
C  0.32568010 0.56648504 -0.00758982
H  -0.13342823 1.55975643 0.04526522
H  1.41128838 0.64794552 0.04444321
6
MD Step 26
C  -0.33066717 -0.57388290 -0.00804033
H  0.22034326 -1.52128903 0.04792684
H  -1.43539737 -0.59164499 0.04871983
C  0.32553642 0.56604323 -0.00770885
H  -0.13120684 1.55774209 0.04594433
H  1.40739912 0.64860967 0.04507671
6
MD Step 27
C  -0.33023754 -0.57315106 -0.00815586
H  0.21795048 -1.52117445 0.04865836
H  -1.43496956 -0.59425905 0.04947952
C  0.32542708 0.56567658 -0.00780839
H  -0.12917015 1.55546910 0.04649973
H  1.40351078 0.64903050 0.04559283
6
MD Step 28
C  -0.32984527 -0.57246016 -0.00824993
H  0.21529670 -1.52090189 0.04927068
H  -1.43408109 -0.59697446 0.05011098
C  0.32534899 0.56538388 -0.00788927
H  -0.12734334 1.55298701 0.04693600
H  1.39970555 0.64921044 0.04599749
6
MD Step 29
C  -0.32949254 -0.57181256 -0.00832176
H  0.21240170 -1.52048847 0.04975962
H  -1.43274406 -0.59977951 0.05060943
C  0.32530012 0.56516441 -0.00795119
H  -0.12575934 1.55034175 0.04725072
H  1.39605872 0.64914578 0.04628916
6
MD Step 30
C  -0.32918183 -0.57121097 -0.00837171
H  0.20929442 -1.51994962 0.05012754
H  -1.43097359 -0.60265620 0.05097647
C  0.32527729 0.56501572 -0.00799488
H  -0.12444476 1.54758832 0.04744787
H  1.39265050 0.64884029 0.04647286
6
MD Step 31
C  -0.32891426 -0.57065676 -0.00839957
H  0.20600276 -1.51930861 0.05037337
H  -1.42879757 -0.60559026 0.05121072
C  0.32527795 0.56493537 -0.00802050
H  -0.12342917 1.54477992 0.04752805
H  1.38955429 0.64829518 0.04654979
6
MD Step 32
C  -0.32869219 -0.57015262 -0.00840726
H  0.20256871 -1.51858065 0.05050812
H  -1.42624097 -0.60855587 0.05132244
C  0.32529772 0.56491848 -0.00803006
H  -0.12272919 1.54198213 0.04750370
H  1.38685007 0.64752449 0.04653338
6
MD Step 33
C  -0.32850968 -0.56969299 -0.00838878
H  0.19899090 -1.51782956 0.05049752
H  -1.42338257 -0.61157267 0.05127911
C  0.32534006 0.56496739 -0.00801842
H  -0.12240456 1.53921470 0.04734232
H  1.38456542 0.64649784 0.04638977
6
MD Step 34
C  -0.32836598 -0.56927767 -0.00834437
H  0.19530484 -1.51708625 0.05034306
H  -1.42027326 -0.61462530 0.05108255
C  0.32540282 0.56507822 -0.00798605
H  -0.12247735 1.53653109 0.04704664
H  1.38275489 0.64522120 0.04612150
6
MD Step 35
C  -0.32826443 -0.56891071 -0.00827940
H  0.19157521 -1.51635516 0.05007474
H  -1.41694241 -0.61767065 0.05076200
C  0.32547947 0.56524221 -0.00793779
H  -0.12293837 1.53401011 0.04664750
H  1.38149123 0.64372968 0.04576027
6
MD Step 36
C  -0.32820073 -0.56858873 -0.00819186
H  0.18782570 -1.51568351 0.04968101
H  -1.41346720 -0.62070761 0.05030732
C  0.32557098 0.56545757 -0.00787194
H  -0.12381599 1.53168456 0.04613425
H  1.38079366 0.64201753 0.04529411
6
MD Step 37
C  -0.32817301 -0.56831098 -0.00808300
H  0.18409791 -1.51510076 0.04916847
H  -1.40991185 -0.62371769 0.04972601
C  0.32567585 0.56571962 -0.00778956
H  -0.12511628 1.52959961 0.04551402
H  1.38068646 0.64009765 0.04472928
6
MD Step 38
C  -0.32818194 -0.56807951 -0.00795734
H  0.18045102 -1.51461764 0.04856201
H  -1.40632620 -0.62666485 0.04904330
C  0.32579012 0.56602083 -0.00769451
H  -0.12682218 1.52781186 0.04481196
H  1.38119836 0.63800186 0.04409060
6
MD Step 39
C  -0.32822353 -0.56789196 -0.00781505
H  0.17691833 -1.51426830 0.04786180
H  -1.40278761 -0.62953857 0.04826091
C  0.32591457 0.56635821 -0.00758671
H  -0.12893592 1.52634523 0.04402827
H  1.38231886 0.63573778 0.04337672
6
MD Step 40
C  -0.32828857 -0.56774101 -0.00765107
H  0.17350243 -1.51411368 0.04703907
H  -1.39940364 -0.63235815 0.04735301
C  0.32605545 0.56673407 -0.00746147
H  -0.13148303 1.52518590 0.04313372
H  1.38399416 0.63328463 0.04255564
6
MD Step 41
C  -0.32838086 -0.56763257 -0.00747451
H  0.17028237 -1.51413241 0.04614383
H  -1.39620170 -0.63506449 0.04636965
C  0.32620622 0.56713788 -0.00732646
H  -0.13440420 1.52439028 0.04217812
H  1.38623670 0.63070135 0.04167714
6
MD Step 42
C  -0.32849393 -0.56756249 -0.00728371
H  0.16727435 -1.51435945 0.04516608
H  -1.39326718 -0.63765953 0.04530308
C  0.32637085 0.56756975 -0.00717984
H  -0.13769434 1.52394511 0.04115061
H  1.38898591 0.62798740 0.04072830
6
MD Step 43
C  -0.32862192 -0.56752744 -0.00707770
H  0.16449523 -1.51482117 0.04409970
H  -1.39067723 -0.64014200 0.04414935
C  0.32655298 0.56802965 -0.00702039
H  -0.14133857 1.52383189 0.04004407
H  1.39217421 0.62514693 0.03970012
6
MD Step 44
C  -0.32876267 -0.56752779 -0.00685931
H  0.16197915 -1.51551749 0.04295952
H  -1.38848154 -0.64249007 0.04292462
C  0.32675290 0.56851445 -0.00685014
H  -0.14529532 1.52404453 0.03887250
H  1.39574617 0.62220597 0.03860554
6
MD Step 45
C  -0.32890533 -0.56755541 -0.00662190
H  0.15970380 -1.51649522 0.04170812
H  -1.38677433 -0.64473531 0.04159407
C  0.32697975 0.56903035 -0.00666289
H  -0.14957072 1.52451623 0.03759666
H  1.39958643 0.61913887 0.03740308
6
MD Step 46
C  -0.32904864 -0.56761151 -0.00636850
H  0.15769644 -1.51774070 0.04036166
H  -1.38558521 -0.64685534 0.04017487
C  0.32723355 0.56957471 -0.00646094
H  -0.15411214 1.52522756 0.03623191
H  1.40362957 0.61597487 0.03610746
6
MD Step 47
C  -0.32918679 -0.56769267 -0.00609674
H  0.15595001 -1.51926376 0.03890664
H  -1.38496197 -0.64885817 0.03865484
C  0.32751908 0.57015023 -0.00624190
H  -0.15889323 1.52612337 0.03476336
H  1.40777767 0.61271426 0.03470278
6
MD Step 48
C  -0.32931522 -0.56779647 -0.00580490
H  0.15445665 -1.52106413 0.03733318
H  -1.38493555 -0.65074832 0.03702503
C  0.32784019 0.57075910 -0.00600402
H  -0.16388088 1.52714778 0.03317990
H  1.41193627 0.60936184 0.03317731
6
MD Step 49
C  -0.32943389 -0.56792455 -0.00549520
H  0.15322626 -1.52311281 0.03565348
H  -1.38550042 -0.65250795 0.03529782
C  0.32819659 0.57139978 -0.00574909
H  -0.16901732 1.52826432 0.03149326
H  1.41603519 0.60594552 0.03154277
6
MD Step 50
C  -0.32953828 -0.56807379 -0.00516434
H  0.15223388 -1.52540578 0.03384948
H  -1.38666773 -0.65415028 0.03345540
C  0.32859261 0.57207587 -0.00547415
H  -0.17427428 1.52940390 0.02968411
H  1.41997665 0.60246325 0.02977965
6
MD Step 51
C  -0.32963935 -0.56825579 -0.00482446
H  0.15153669 -1.52784701 0.03198852
H  -1.38834794 -0.65560152 0.03156419
C  0.32901769 0.57277616 -0.00518994
H  -0.17953574 1.53058379 0.02782139
H  1.42375479 0.59899978 0.02795776
6
MD Step 52
C  -0.32973633 -0.56847016 -0.00447470
H  0.15111580 -1.53040929 0.03006621
H  -1.39051249 -0.65686157 0.02961937
C  0.32947284 0.57350161 -0.00489574
H  -0.18475910 1.53174851 0.02590028
H  1.42729558 0.59556749 0.02607259
6
MD Step 53
C  -0.32983193 -0.56871951 -0.00411732
H  0.15096638 -1.53304477 0.02809534
H  -1.39310469 -0.65791338 0.02763299
C  0.32995571 0.57424994 -0.00459364
H  -0.18988510 1.53286135 0.02393391
H  1.43054848 0.59219606 0.02413779
6
MD Step 54
C  -0.32992174 -0.56899899 -0.00374660
H  0.15103649 -1.53574804 0.02604495
H  -1.39610338 -0.65878557 0.02557343
C  0.33047084 0.57502616 -0.00427874
H  -0.19490111 1.53384317 0.02189017
H  1.43342488 0.58887055 0.02212159
6
MD Step 55
C  -0.33001554 -0.56931719 -0.00337128
H  0.15135244 -1.53843101 0.02396392
H  -1.39939833 -0.65942589 0.02348848
C  0.33100879 0.57582112 -0.00395897
H  -0.19971517 1.53469947 0.01981963
H  1.43592555 0.58565646 0.02007535
6
MD Step 56
C  -0.33011317 -0.56967253 -0.00298944
H  0.15187914 -1.54106533 0.02184229
H  -1.40293396 -0.65984345 0.02136726
C  0.33156957 0.57663544 -0.00363281
H  -0.20429855 1.53537957 0.01771205
H  1.43799882 0.58255902 0.01798937
6
MD Step 57
C  -0.33021534 -0.57006393 -0.00260003
H  0.15258478 -1.54361858 0.01967474
H  -1.40664638 -0.66004389 0.01920355
C  0.33215197 0.57746851 -0.00329951
H  -0.20862128 1.53584198 0.01556203
H  1.43960597 0.57958736 0.01585878
6
MD Step 58
C  -0.33032463 -0.57049173 -0.00220385
H  0.15344713 -1.54604922 0.01746639
H  -1.41045925 -0.66002353 0.01700161
C  0.33275256 0.57831745 -0.00295998
H  -0.21264673 1.53606094 0.01337489
H  1.44072763 0.57676026 0.01368948
6
MD Step 59
C  -0.33044393 -0.57095625 -0.00180214
H  0.15444586 -1.54831553 0.01522476
H  -1.41429365 -0.65977770 0.01476817
C  0.33336707 0.57917852 -0.00261553
H  -0.21634018 1.53601860 0.01115843
H  1.44135569 0.57409784 0.01148973
6
MD Step 60
C  -0.33057447 -0.57145591 -0.00139463
H  0.15555196 -1.55038744 0.01294883
H  -1.41808090 -0.65931197 0.01250154
C  0.33399230 0.58004893 -0.00226605
H  -0.21968025 1.53569428 0.00891156
H  1.44148224 0.57161045 0.00925886
6
MD Step 61
C  -0.33071715 -0.57198857 -0.00098095
H  0.15673634 -1.55223893 0.01063712
H  -1.42175574 -0.65863398 0.01019973
C  0.33462471 0.58092555 -0.00191137
H  -0.22265099 1.53507287 0.00663258
H  1.44110780 0.56930670 0.00699551
6
MD Step 62
C  -0.33087963 -0.57255844 -0.00056804
H  0.15801191 -1.55380645 0.00832905
H  -1.42521556 -0.65771112 0.00790176
C  0.33525355 0.58179769 -0.00155792
H  -0.22519970 1.53418717 0.00436190
H  1.44028357 0.56723523 0.00474030
6
MD Step 63
C  -0.33106141 -0.57316162 -0.00015487
H  0.15934738 -1.55507673 0.00601916
H  -1.42840910 -0.65655830 0.00560195
C  0.33587536 0.58266199 -0.00120482
H  -0.22732467 1.53303047 0.00209355
H  1.43902322 0.56539784 0.00248740
6
MD Step 64
C  -0.33126122 -0.57379328 0.00025993
H  0.16071102 -1.55604333 0.00370014
H  -1.43129356 -0.65519386 0.00329286
C  0.33648673 0.58351496 -0.00085085
H  -0.22903129 1.53160044 -0.00018045
H  1.43734657 0.56379299 0.00022884
6
MD Step 65
C  -0.33147779 -0.57444851 0.00067729
H  0.16207515 -1.55670246 0.00136705
H  -1.43383072 -0.65363518 0.00096959
C  0.33708365 0.58435233 -0.00049516
H  -0.23032773 1.52990340 -0.00246575
H  1.43528381 0.56242002 -0.00204111
6
MD Step 66
C  -0.33171177 -0.57512417 0.00109566
H  0.16342794 -1.55704144 -0.00097121
H  -1.43597579 -0.65188686 -0.00135881
C  0.33765960 0.58516708 -0.00013912
H  -0.23121328 1.52796593 -0.00475392
H  1.43288669 0.56129079 -0.00431423
6
MD Step 67
C  -0.33196166 -0.57581502 0.00151527
H  0.16474963 -1.55706289 -0.00331563
H  -1.43770190 -0.64996485 -0.00369310
C  0.33820962 0.58595360 0.00021755
H  -0.23170240 1.52581048 -0.00704689
H  1.43020374 0.56040565 -0.00659275
6
MD Step 68
C  -0.33223593 -0.57652559 0.00192564
H  0.16608387 -1.55671311 -0.00560649
H  -1.43892889 -0.64782441 -0.00597311
C  0.33871850 0.58669560 0.00056521
H  -0.23175266 1.52352675 -0.00928449
H  1.42735116 0.55982470 -0.00881703
6
MD Step 69
C  -0.33252576 -0.57724345 0.00233351
H  0.16737801 -1.55604305 -0.00788206
H  -1.43968488 -0.64552156 -0.00823680
C  0.33918762 0.58739338 0.00091032
H  -0.23142588 1.52111012 -0.01150700
H  1.42434985 0.55950769 -0.01102775
6
MD Step 70
C  -0.33283296 -0.57796671 0.00273427
H  0.16864697 -1.55504325 -0.01011592
H  -1.43994124 -0.64304744 -0.01045724
C  0.33960760 0.58803604 0.00124873
H  -0.23072244 1.51862616 -0.01368864
H  1.42128992 0.55947814 -0.01319977
6
MD Step 71
C  -0.33315065 -0.57868505 0.00313172
H  0.16985964 -1.55375785 -0.01232983
H  -1.43972688 -0.64044290 -0.01265582
C  0.33997744 0.58862086 0.00158426
H  -0.22969552 1.51609570 -0.01585299
H  1.41821456 0.55970967 -0.01535713
6
MD Step 72
C  -0.33348205 -0.57939825 0.00351902
H  0.17104893 -1.55217361 -0.01448434
H  -1.43901739 -0.63768723 -0.01479244
C  0.34028619 0.58913471 0.00191063
H  -0.22833964 1.51360474 -0.01796127
H  1.41522983 0.56023621 -0.01746187
6
MD Step 73
C  -0.33382288 -0.58009892 0.00389653
H  0.17220858 -1.55032337 -0.01658141
H  -1.43783889 -0.63480219 -0.01686864
C  0.34053030 0.58957161 0.00222842
H  -0.22669405 1.51119981 -0.02001698
H  1.41239848 0.56104882 -0.01951803
6
MD Step 74
C  -0.33416713 -0.58077822 0.00426593
H  0.17332665 -1.54825176 -0.01863090
H  -1.43623390 -0.63181781 -0.01889400
C  0.34070816 0.58992719 0.00253953
H  -0.22480808 1.50892072 -0.02203164
H  1.40977223 0.56212945 -0.02153751
6
MD Step 75
C  -0.33451031 -0.58142910 0.00462710
H  0.17440390 -1.54599603 -0.02063221
H  -1.43424220 -0.62875365 -0.02086764
C  0.34081704 0.59019560 0.00284414
H  -0.22272180 1.50681817 -0.02400612
H  1.40740894 0.56346962 -0.02352154
6
MD Step 76
C  -0.33484143 -0.58203844 0.00498609
H  0.17540658 -1.54363252 -0.02262101
H  -1.43194732 -0.62566586 -0.02282558
C  0.34086101 0.59037759 0.00314852
H  -0.22051250 1.50490534 -0.02597808
H  1.40532374 0.56502344 -0.02550747
6
MD Step 77
C  -0.33516037 -0.58260424 0.00533796
H  0.17636747 -1.54117406 -0.02456831
H  -1.42937353 -0.62254495 -0.02473843
C  0.34083405 0.59046349 0.00344801
H  -0.21819188 1.50325867 -0.02791949
H  1.40359018 0.56680930 -0.02746763
6
MD Step 78
C  -0.33546060 -0.58311862 0.00568399
H  0.17728395 -1.53867146 -0.02648172
H  -1.42658751 -0.61941801 -0.02661416
C  0.34073710 0.59045053 0.00374414
H  -0.21580744 1.50191415 -0.02983936
H  1.40223607 0.56880804 -0.02941063
6
MD Step 79
C  -0.33574250 -0.58358096 0.00601859
H  0.17819550 -1.53613456 -0.02832782
H  -1.42361905 -0.61627024 -0.02841904
C  0.34056509 0.59032980 0.00403137
H  -0.21336325 1.50094436 -0.03170496
H  1.40132076 0.57104107 -0.03130390
6
MD Step 80
C  -0.33599880 -0.58398355 0.00634367
H  0.17909738 -1.53361796 -0.03011792
H  -1.42054686 -0.61313142 -0.03016516
C  0.34032137 0.59010091 0.00431177
H  -0.21090554 1.50037053 -0.03352859
H  1.40084716 0.57348415 -0.03315880
6
MD Step 81
C  -0.33622640 -0.58432331 0.00665707
H  0.18000953 -1.53115066 -0.03183892
H  -1.41742754 -0.61000610 -0.03183979
C  0.34000612 0.58976043 0.00458310
H  -0.20845228 1.50023103 -0.03529756
H  1.40083111 0.57613687 -0.03496199
6
MD Step 82
C  -0.33642012 -0.58459561 0.00695882
H  0.18093864 -1.52877294 -0.03349068
H  -1.41433203 -0.60691121 -0.03344375
C  0.33962255 0.58930830 0.00484534
H  -0.20603018 1.50054262 -0.03701191
H  1.40126330 0.57898504 -0.03671237
6
MD Step 83
C  -0.33657925 -0.58480072 0.00724484
H  0.18191601 -1.52649722 -0.03504783
H  -1.41130571 -0.60383761 -0.03495199
C  0.33917051 0.58874145 0.00509393
H  -0.20363582 1.50133799 -0.03864586
H  1.40214802 0.58203899 -0.03838357
6
MD Step 84
C  -0.33669753 -0.58493385 0.00751670
H  0.18293740 -1.52436755 -0.03651947
H  -1.40842721 -0.60081011 -0.03637509
C  0.33865639 0.58806399 0.00533027
H  -0.20129527 1.50260514 -0.04020788
H  1.40344324 0.58527358 -0.03998241
6
MD Step 85
C  -0.33676605 -0.58498799 0.00777878
H  0.18397911 -1.52244222 -0.03793265
H  -1.40578999 -0.59787087 -0.03774251
C  0.33809030 0.58728444 0.00555886
H  -0.19904742 1.50430373 -0.04172410
H  1.40507854 0.58864473 -0.04153245
6
MD Step 86
C  -0.33678424 -0.58496474 0.00802815
H  0.18506153 -1.52072893 -0.03926848
H  -1.40343593 -0.59501508 -0.03903617
C  0.33747519 0.58640491 0.00577602
H  -0.19688003 1.50642946 -0.04317394
H  1.40702109 0.59215345 -0.04301231
6
MD Step 87
C  -0.33674490 -0.58485935 0.00826866
H  0.18615989 -1.51927362 -0.04055107
H  -1.40144319 -0.59228034 -0.04028276
C  0.33682167 0.58543606 0.00598568
H  -0.19481920 1.50892519 -0.04457965
H  1.40918772 0.59575668 -0.04444168
6
MD Step 88
C  -0.33665082 -0.58467722 0.00849555
H  0.18730159 -1.51806207 -0.04174989
H  -1.39982638 -0.58964867 -0.04145200
C  0.33613152 0.58438064 0.00618196
H  -0.19283208 1.51177964 -0.04590824
H  1.41154484 0.59946515 -0.04578751
6
MD Step 89
C  -0.33649816 -0.58441721 0.00871100
H  0.18846722 -1.51711905 -0.04287868
H  -1.39863496 -0.58714582 -0.04255975
C  0.33541421 0.58325001 0.00636688
H  -0.19092646 1.51492908 -0.04717088
H  1.41401060 0.60324421 -0.04705908
6
MD Step 90
C  -0.33629104 -0.58408615 0.00891064
H  0.18967661 -1.51642187 -0.04390928
H  -1.39786565 -0.58475497 -0.04357785
C  0.33467232 0.58204954 0.00653489
H  -0.18906534 1.51834486 -0.04833654
H  1.41654308 0.60710025 -0.04822574
6
MD Step 91
C  -0.33602841 -0.58368562 0.00909574
H  0.19091081 -1.51597887 -0.04484981
H  -1.39754055 -0.58249498 -0.04451596
C  0.33391462 0.58079161 0.00668700
H  -0.18724575 1.52195645 -0.04941037
H  1.41906337 0.61100246 -0.04929142
6
MD Step 92
C  -0.33571570 -0.58322362 0.00926246
H  0.19218146 -1.51576021 -0.04567530
H  -1.39763731 -0.58035116 -0.04534866
C  0.33314434 0.57948385 0.00681818
H  -0.18543039 1.52572228 -0.05036445
H  1.42152665 0.61495234 -0.05022903
6
MD Step 93
C  -0.33535084 -0.58270043 0.00941469
H  0.19344766 -1.51578186 -0.04641131
H  -1.39817311 -0.57835865 -0.04610328
C  0.33237311 0.57814292 0.00693264
H  -0.18363159 1.52954767 -0.05122119
H  1.42383982 0.61890026 -0.05105953
6
MD Step 94
C  -0.33493415 -0.58211849 0.00955488
H  0.19467516 -1.51604674 -0.04707482
H  -1.39914539 -0.57654336 -0.04679801
C  0.33161098 0.57678447 0.00703314
H  -0.18185323 1.53334562 -0.05199451
H  1.42592246 0.62280481 -0.05179589
6
MD Step 95
C  -0.33447669 -0.58149084 0.00967653
H  0.19588716 -1.51649459 -0.04762347
H  -1.40048175 -0.57487161 -0.04738834
C  0.33085780 0.57541447 0.00711157
H  -0.18004119 1.53708880 -0.05263979
H  1.42775859 0.62668357 -0.05239585
6
MD Step 96
C  -0.33398494 -0.58082565 0.00977806
H  0.19707359 -1.51709419 -0.04804719
H  -1.40213317 -0.57334116 -0.04786325
C  0.33011859 0.57404436 0.00716579
H  -0.17817478 1.54071950 -0.05314476
H  1.42930591 0.63052189 -0.05284817
6
MD Step 97
C  -0.33345926 -0.58012469 0.00986392
H  0.19818306 -1.51785242 -0.04837686
H  -1.40408388 -0.57198962 -0.04825447
C  0.32940491 0.57269227 0.00720127
H  -0.17627558 1.54414247 -0.05353770
H  1.43048817 0.63426456 -0.05318025
6
MD Step 98
C  -0.33290671 -0.57939628 0.00993301
H  0.19920072 -1.51873734 -0.04860634
H  -1.40627474 -0.57081708 -0.04855468
C  0.32872170 0.57136988 0.00721676
H  -0.17433084 1.54730357 -0.05381082
H  1.43127360 0.63789375 -0.05338534
6
MD Step 99
C  -0.33233722 -0.57865144 0.00998212
H  0.20012635 -1.51970117 -0.04871493
H  -1.40862726 -0.56980845 -0.04874106
C  0.32807103 0.57008604 0.00720837
H  -0.17231611 1.55016842 -0.05394255
H  1.43165307 0.64140679 -0.05344383
6
MD Step 100
C  -0.33175640 -0.57789663 0.01001216
H  0.20093263 -1.52072336 -0.04871003
H  -1.41108784 -0.56897535 -0.04882006
C  0.32745919 0.56885365 0.00717746
H  -0.17023731 1.55268102 -0.05393922
H  1.43159820 0.64477405 -0.05336270
6
MD Step 101
C  -0.33117234 -0.57714071 0.01002197
H  0.20160733 -1.52176941 -0.04858494
H  -1.41358740 -0.56831453 -0.04878325
C  0.32688955 0.56768258 0.00712287
H  -0.16808946 1.55480623 -0.05379383
H  1.43110335 0.64798107 -0.05313639
6
MD Step 102
C  -0.33059014 -0.57638934 0.01001318
H  0.20212120 -1.52282395 -0.04835178
H  -1.41607551 -0.56784011 -0.04864172
C  0.32636808 0.56658490 0.00704693
H  -0.16588894 1.55649788 -0.05351807
H  1.43015347 0.65099611 -0.05277727
6
MD Step 103
C  -0.33001424 -0.57564742 0.00998790
H  0.20244334 -1.52387623 -0.04802631
H  -1.41850652 -0.56756853 -0.04841037
C  0.32590066 0.56557233 0.00695277
H  -0.16365862 1.55771437 -0.05312745
H  1.42873936 0.65378550 -0.05230143
6
MD Step 104
C  -0.32945442 -0.57492520 0.00994337
H  0.20257823 -1.52488390 -0.04759076
H  -1.42080396 -0.56748218 -0.04806926
C  0.32548691 0.56464996 0.00683737
H  -0.16139164 1.55845561 -0.05260550
H  1.42689440 0.65635057 -0.05169427
6
MD Step 105
C  -0.32892050 -0.57423292 0.00987658
H  0.20253496 -1.52580462 -0.04702520
H  -1.42289301 -0.56756021 -0.04759627
C  0.32512534 0.56382138 0.00669735
H  -0.15908199 1.55873229 -0.05193417
H  1.42466328 0.65869673 -0.05093970
6
MD Step 106
C  -0.32841541 -0.57357368 0.00979034
H  0.20228576 -1.52663812 -0.04634999
H  -1.42474349 -0.56781977 -0.04701118
C  0.32482051 0.56309552 0.00653680
H  -0.15676557 1.55852439 -0.05113441
H  1.42206018 0.66079165 -0.05005906
6
MD Step 107
C  -0.32795098 -0.57295973 0.00967909
H  0.20186306 -1.52732997 -0.04552739
H  -1.42627381 -0.56822034 -0.04627387
C  0.32456651 0.56247051 0.00634918
H  -0.15442456 1.55787765 -0.05017186
H  1.41916474 0.66266248 -0.04902027
6
MD Step 108
C  -0.32752953 -0.57239347 0.00954541
H  0.20124777 -1.52788354 -0.04457515
H  -1.42746379 -0.56877427 -0.04540155
C  0.32436601 0.56195224 0.00613811
H  -0.15209749 1.55679209 -0.04906567
H  1.41601012 0.66428378 -0.04784300
6
MD Step 109
C  -0.32714904 -0.57187283 0.00939518
H  0.20040125 -1.52832819 -0.04353423
H  -1.42832311 -0.56951515 -0.04443543
C  0.32422482 0.56154892 0.00591152
H  -0.14984747 1.55525383 -0.04785718
H  1.41261441 0.66560961 -0.04656834
6
MD Step 110
C  -0.32682036 -0.57140891 0.00922218
H  0.19937033 -1.52861483 -0.04236205
H  -1.42878645 -0.57039440 -0.04333118
C  0.32413411 0.56125381 0.00566209
H  -0.14765876 1.55333909 -0.04650822
H  1.40908428 0.66667868 -0.04515995
6
MD Step 111
C  -0.32654671 -0.57100497 0.00902647
H  0.19816296 -1.52873998 -0.04105884
H  -1.42883844 -0.57140397 -0.04208853
C  0.32409153 0.56106575 0.00539029
H  -0.14555883 1.55109018 -0.04502174
H  1.40549030 0.66748981 -0.04362136
6
MD Step 112
C  -0.32632610 -0.57065887 0.00881223
H  0.19676269 -1.52873129 -0.03965288
H  -1.42849943 -0.57256204 -0.04073603
C  0.32409887 0.56098682 0.00510168
H  -0.14360362 1.54852934 -0.04342746
H  1.40188009 0.66801639 -0.04198212
6
MD Step 113
C  -0.32616250 -0.57037462 0.00857755
H  0.19519717 -1.52857919 -0.03813082
H  -1.42775682 -0.57384551 -0.03925997
C  0.32415044 0.56101105 0.00479428
H  -0.14180976 1.54572625 -0.04171547
H  1.39834521 0.66827500 -0.04023282
6
MD Step 114
C  -0.32605592 -0.57015215 0.00832351
H  0.19347736 -1.52829714 -0.03649925
H  -1.42662573 -0.57524983 -0.03766710
C  0.32424347 0.56113451 0.00446966
H  -0.14021372 1.54273687 -0.03989493
H  1.39495941 0.66826461 -0.03838254
6
MD Step 115
C  -0.32600202 -0.56998697 0.00805453
H  0.19159482 -1.52792391 -0.03478723
H  -1.42515131 -0.57679152 -0.03598715
C  0.32437865 0.56135587 0.00413342
H  -0.13887372 1.53959993 -0.03799638
H  1.39177444 0.66796391 -0.03646122
6
MD Step 116
C  -0.32600027 -0.56987852 0.00777092
H  0.18957132 -1.52747359 -0.03299574
H  -1.42335848 -0.57845914 -0.03422147
C  0.32455174 0.56166826 0.00378602
H  -0.13782017 1.53638526 -0.03602345
H  1.38886797 0.66738111 -0.03447215
6
MD Step 117
C  -0.32604484 -0.56982090 0.00747721
H  0.18740267 -1.52699078 -0.03115429
H  -1.42130718 -0.58026832 -0.03240043
C  0.32476320 0.56206867 0.00343303
H  -0.13710987 1.53313701 -0.03400690
H  1.38628642 0.66649789 -0.03244520
6
MD Step 118
C  -0.32613764 -0.56981620 0.00717023
H  0.18513748 -1.52647145 -0.02924074
H  -1.41901276 -0.58218393 -0.03050228
C  0.32500481 0.56254501 0.00307075
H  -0.13674756 1.52995066 -0.03192778
H  1.38412168 0.66534841 -0.03036099
6
MD Step 119
C  -0.32627416 -0.56986008 0.00685218
H  0.18279064 -1.52594827 -0.02726870
H  -1.41653161 -0.58420516 -0.02854146
C  0.32527446 0.56309063 0.00270176
H  -0.13676990 1.52688565 -0.02980117
H  1.38242333 0.66393279 -0.02823364
6
MD Step 120
C  -0.32645288 -0.56995134 0.00652196
H  0.18039953 -1.52543388 -0.02523014
H  -1.41390395 -0.58630977 -0.02651071
C  0.32556672 0.56369509 0.00232479
H  -0.13718893 1.52401971 -0.02762099
H  1.38125293 0.66227358 -0.02605624
6
MD Step 121
C  -0.32667120 -0.57008787 0.00617899
H  0.17799895 -1.52494485 -0.02312041
H  -1.41117773 -0.58847859 -0.02440614
C  0.32587703 0.56434854 0.00193909
H  -0.13801553 1.52142252 -0.02538407
H  1.38065762 0.66039084 -0.02382470
6
MD Step 122
C  -0.32692224 -0.57026331 0.00582635
H  0.17560067 -1.52452119 -0.02095844
H  -1.40842772 -0.59071541 -0.02224771
C  0.32620529 0.56504520 0.00154801
H  -0.13927843 1.51913384 -0.02310971
H  1.38064861 0.65828195 -0.02155722
6
MD Step 123
C  -0.32720169 -0.57047413 0.00546430
H  0.17323402 -1.52418467 -0.01874523
H  -1.40571312 -0.59300647 -0.02003721
C  0.32654885 0.56577673 0.00115170
H  -0.14098290 1.51720285 -0.02079950
H  1.38124129 0.65596266 -0.01925450
6
MD Step 124
C  -0.32750157 -0.57071316 0.00509646
H  0.17090681 -1.52397668 -0.01650290
H  -1.40311475 -0.59535872 -0.01779768
C  0.32690910 0.56653886 0.00075392
H  -0.14314834 1.51564819 -0.01847526
H  1.38241617 0.65342828 -0.01693746
6
MD Step 125
C  -0.32781939 -0.57097894 0.00472099
H  0.16865976 -1.52390270 -0.01421927
H  -1.40067844 -0.59774545 -0.01551750
C  0.32728216 0.56732233 0.00035247
H  -0.14575348 1.51451170 -0.01612512
H  1.38417384 0.65070877 -0.01459368
6