 Entering Gaussian System, Link 0=g16
 Initial command:
 /software/gaussian/g16-c01/avx2/g16/l1.exe "/gpfs/fs2/scratch/bweight/software/many_molecule_many_mode_NAMD/src/NAMD/EXAMPLE_3_BOMD_S2/G16/DIMER/Gau-1410.inp" -scrdir="/gpfs/fs2/scratch/bweight/software/many_molecule_many_mode_NAMD/src/NAMD/EXAMPLE_3_BOMD_S2/G16/DIMER/"
 Entering Link 1 = /software/gaussian/g16-c01/avx2/g16/l1.exe PID=      1411.
  
 Copyright (c) 1988-2019, Gaussian, Inc.  All Rights Reserved.
  
 This is part of the Gaussian(R) 16 program.  It is based on
 the Gaussian(R) 09 system (copyright 2009, Gaussian, Inc.),
 the Gaussian(R) 03 system (copyright 2003, Gaussian, Inc.),
 the Gaussian(R) 98 system (copyright 1998, Gaussian, Inc.),
 the Gaussian(R) 94 system (copyright 1995, Gaussian, Inc.),
 the Gaussian 92(TM) system (copyright 1992, Gaussian, Inc.),
 the Gaussian 90(TM) system (copyright 1990, Gaussian, Inc.),
 the Gaussian 88(TM) system (copyright 1988, Gaussian, Inc.),
 the Gaussian 86(TM) system (copyright 1986, Carnegie Mellon
 University), and the Gaussian 82(TM) system (copyright 1983,
 Carnegie Mellon University). Gaussian is a federally registered
 trademark of Gaussian, Inc.
  
 This software contains proprietary and confidential information,
 including trade secrets, belonging to Gaussian, Inc.
  
 This software is provided under written license and may be
 used, copied, transmitted, or stored only in accord with that
 written license.
  
 The following legend is applicable only to US Government
 contracts under FAR:
  
                    RESTRICTED RIGHTS LEGEND
  
 Use, reproduction and disclosure by the US Government is
 subject to restrictions as set forth in subparagraphs (a)
 and (c) of the Commercial Computer Software - Restricted
 Rights clause in FAR 52.227-19.
  
 Gaussian, Inc.
 340 Quinnipiac St., Bldg. 40, Wallingford CT 06492
  
  
 ---------------------------------------------------------------
 Warning -- This program may not be used in any manner that
 competes with the business of Gaussian, Inc. or will provide
 assistance to any competitor of Gaussian, Inc.  The licensee
 of this program is prohibited from giving any competitor of
 Gaussian, Inc. access to this program.  By using this program,
 the user acknowledges that Gaussian, Inc. is engaged in the
 business of creating and licensing software in the field of
 computational chemistry and represents and warrants to the
 licensee that it is not a competitor of Gaussian, Inc. and that
 it will not use this program in any manner prohibited above.
 ---------------------------------------------------------------
  

 Cite this work as:
 Gaussian 16, Revision C.01,
 M. J. Frisch, G. W. Trucks, H. B. Schlegel, G. E. Scuseria, 
 M. A. Robb, J. R. Cheeseman, G. Scalmani, V. Barone, 
 G. A. Petersson, H. Nakatsuji, X. Li, M. Caricato, A. V. Marenich, 
 J. Bloino, B. G. Janesko, R. Gomperts, B. Mennucci, H. P. Hratchian, 
 J. V. Ortiz, A. F. Izmaylov, J. L. Sonnenberg, D. Williams-Young, 
 F. Ding, F. Lipparini, F. Egidi, J. Goings, B. Peng, A. Petrone, 
 T. Henderson, D. Ranasinghe, V. G. Zakrzewski, J. Gao, N. Rega, 
 G. Zheng, W. Liang, M. Hada, M. Ehara, K. Toyota, R. Fukuda, 
 J. Hasegawa, M. Ishida, T. Nakajima, Y. Honda, O. Kitao, H. Nakai, 
 T. Vreven, K. Throssell, J. A. Montgomery, Jr., J. E. Peralta, 
 F. Ogliaro, M. J. Bearpark, J. J. Heyd, E. N. Brothers, K. N. Kudin, 
 V. N. Staroverov, T. A. Keith, R. Kobayashi, J. Normand, 
 K. Raghavachari, A. P. Rendell, J. C. Burant, S. S. Iyengar, 
 J. Tomasi, M. Cossi, J. M. Millam, M. Klene, C. Adamo, R. Cammi, 
 J. W. Ochterski, R. L. Martin, K. Morokuma, O. Farkas, 
 J. B. Foresman, and D. J. Fox, Gaussian, Inc., Wallingford CT, 2019.
 
 ******************************************
 Gaussian 16:  ES64L-G16RevC.01  3-Jul-2019
                29-Dec-2022 
 ******************************************
 %chk=geometry.chk
 %nprocshared=1
 Will use up to    1 processors via shared memory.
 %mem=10GB
 -----------------------------------------------------------
 # BLYP/STO-3G nosymm iop(2/12=3,3/33=1) guess=only pop=full
 -----------------------------------------------------------
 1/38=1,172=1/1;
 2/12=3,15=1,17=6,18=5,40=1/2;
 3/6=3,11=2,25=1,30=1,33=1,74=402,89=1/1,2;
 4//1;
 6/7=3,28=1/1;
 99/5=2/99;
 ------------
 MD Step 1000
 ------------
 Symbolic Z-matrix:
 Charge =  0 Multiplicity = 1
 Li                    1.75369   1.69546   2.3535 
 H                     2.37457   2.77621   1.24111 
 Li                    1.76309   1.70981   2.34273 
 H                     2.32429   2.69175   1.32982 
 
                          Input orientation:                          
 ---------------------------------------------------------------------
 Center     Atomic      Atomic             Coordinates (Angstroms)
 Number     Number       Type             X           Y           Z
 ---------------------------------------------------------------------
      1          3           0        1.753695    1.695457    2.353501
      2          1           0        2.374573    2.776215    1.241106
      3          3           0        1.763091    1.709812    2.342731
      4          1           0        2.324286    2.691750    1.329819
 ---------------------------------------------------------------------
                    Distance matrix (angstroms):
                    1          2          3          4
     1  Li   0.000000
     2  H    1.670614   0.000000
     3  Li   0.020257   1.650668   0.000000
     4  H    1.538212   0.132413   1.518266   0.000000
 Symmetry turned off by external request.
 Stoichiometry    H2Li2
 Framework group  C1[X(H2Li2)]
 Deg. of freedom     6
 Full point group                 C1      NOp   1
 Rotational constants (GHZ):    11148549.7578633         112.5350033         112.5339442
 Standard basis: STO-3G (5D, 7F)
                         Coordinates in L301:                         
 ---------------------------------------------------------------------
 Center     Atomic      Atomic             Coordinates (Angstroms)
 Number     Number       Type             X           Y           Z
 ---------------------------------------------------------------------
      1          3           0        1.753695    1.695457    2.353501
      2          1           0        2.374573    2.776215    1.241106
      3          3           0        1.763091    1.709812    2.342731
      4          1           0        2.324286    2.691750    1.329819
 ---------------------------------------------------------------------
 FixB: optimizing general contractions.
 Ernie: Thresh=  0.10000D-02 Tol=  0.10000D-05 Strict=F.
 IA=     1 ShT= 0 ShC= 0 NL=   1 NS=   0.
 IA=     1 L=0 SC=0 ISt=    0 NBk=    0 NP=    0 IndPr=    0.
 IA=     1 ShT= 1 ShC= 0 NL=   1 NS=   0.
 IA=     1 L=1 SC=0 ISt=    0 NBk=    0 NP=    0 IndPr=    0.
 IA=     2 ShT= 0 ShC= 0 NL=   1 NS=   0.
 IA=     2 L=0 SC=0 ISt=    0 NBk=    0 NP=    0 IndPr=    0.
 IA=     3 ShT= 0 ShC= 0 NL=   1 NS=   0.
 IA=     3 L=0 SC=0 ISt=    0 NBk=    0 NP=    0 IndPr=    0.
 IA=     3 ShT= 1 ShC= 0 NL=   1 NS=   0.
 IA=     3 L=1 SC=0 ISt=    0 NBk=    0 NP=    0 IndPr=    0.
 IA=     4 ShT= 0 ShC= 0 NL=   1 NS=   0.
 IA=     4 L=0 SC=0 ISt=    0 NBk=    0 NP=    0 IndPr=    0.
 LdAtmC:  AtmChg=     3.000000     1.000000     3.000000     1.000000
 AtZEff=     -1.3500000     -1.0000000     -1.3500000     -1.0000000
    12 basis functions,    36 primitive gaussians,    12 cartesian basis functions
     4 alpha electrons        4 beta electrons
       nuclear repulsion energy       243.0988258651 Hartrees.
 IS=     1 IAt=     1 ISR=     1 T=0 IP=      1 IndIP=      1 IndIPD=      0 C=  8.848563D-01  0.000000D+00                             NZ=T
 IS=     1 IAt=     1 ISR=     1 T=0 IP=      2 IndIP=      2 IndIPD=      1 C=  8.557945D-01  0.000000D+00                             NZ=T
 IS=     1 IAt=     1 ISR=     1 T=0 IP=      3 IndIP=      3 IndIPD=      2 C=  2.667138D-01  0.000000D+00                             NZ=T
 IS=     2 IAt=     1 ISR=     2 T=1 IP=      1 IndIP=      4 IndIPD=      0 C= -5.075852D-02  1.262991D-01                             NZ=T
 IS=     2 IAt=     1 ISR=     2 T=1 IP=      2 IndIP=      5 IndIPD=      1 C=  6.789362D-02  7.942025D-02                             NZ=T
 IS=     2 IAt=     1 ISR=     2 T=1 IP=      3 IndIP=      6 IndIPD=      2 C=  5.124033D-02  1.258150D-02                             NZ=T
 IS=     3 IAt=     2 ISR=     1 T=0 IP=      1 IndIP=      7 IndIPD=      0 C=  2.769344D-01  0.000000D+00                             NZ=T
 IS=     3 IAt=     2 ISR=     1 T=0 IP=      2 IndIP=      8 IndIPD=      1 C=  2.678389D-01  0.000000D+00                             NZ=T
 IS=     3 IAt=     2 ISR=     1 T=0 IP=      3 IndIP=      9 IndIPD=      2 C=  8.347367D-02  0.000000D+00                             NZ=T
 IS=     4 IAt=     3 ISR=     1 T=0 IP=      1 IndIP=     10 IndIPD=      0 C=  8.848563D-01  0.000000D+00                             NZ=T
 IS=     4 IAt=     3 ISR=     1 T=0 IP=      2 IndIP=     11 IndIPD=      1 C=  8.557945D-01  0.000000D+00                             NZ=T
 IS=     4 IAt=     3 ISR=     1 T=0 IP=      3 IndIP=     12 IndIPD=      2 C=  2.667138D-01  0.000000D+00                             NZ=T
 IS=     5 IAt=     3 ISR=     2 T=1 IP=      1 IndIP=     13 IndIPD=      0 C= -5.075852D-02  1.262991D-01                             NZ=T
 IS=     5 IAt=     3 ISR=     2 T=1 IP=      2 IndIP=     14 IndIPD=      1 C=  6.789362D-02  7.942025D-02                             NZ=T
 IS=     5 IAt=     3 ISR=     2 T=1 IP=      3 IndIP=     15 IndIPD=      2 C=  5.124033D-02  1.258150D-02                             NZ=T
 IS=     6 IAt=     4 ISR=     1 T=0 IP=      1 IndIP=     16 IndIPD=      0 C=  2.769344D-01  0.000000D+00                             NZ=T
 IS=     6 IAt=     4 ISR=     1 T=0 IP=      2 IndIP=     17 IndIPD=      1 C=  2.678389D-01  0.000000D+00                             NZ=T
 IS=     6 IAt=     4 ISR=     1 T=0 IP=      3 IndIP=     18 IndIPD=      2 C=  8.347367D-02  0.000000D+00                             NZ=T
 IExCor=  402 DFT=T Ex=B Corr=LYP ExCW=0 ScaHFX=  0.000000
 ScaDFX=  1.000000  1.000000  1.000000  1.000000 ScalE2=  1.000000  1.000000
 IRadAn=      5 IRanWt=     -1 IRanGd=            0 ICorTp=0 IEmpDi=  4
 NAtoms=    4 NActive=    4 NUniq=    4 SFac= 1.00D+00 NAtFMM=   60 NAOKFM=F Big=F
 Integral buffers will be    131072 words long.
 Raffenetti 2 integral format.
 Two-electron integral symmetry is turned off.
 NPDir=0 NMtPBC=     1 NCelOv=     1 NCel=       1 NClECP=     1 NCelD=      1
         NCelK=      1 NCelE2=     1 NClLst=     1 CellRange=     0.0.
 One-electron integrals computed using PRISM.
 Entering OneElI...
 Calculate overlap and kinetic energy integrals
    NBasis =  12  MinDer = 0  MaxDer = 0
 Requested accuracy = 0.1000D-12
 PrmmSu-InSpLW:  IPartL=    0 NPrtUS=    1 NPrtUL=    1 DoSpLW=F IThBeg=    0 IThEnd=    0 NThAct=    1.
 PrSmSu:  IncTry=   512 NBBP=             21 NTPThr=   100 NPartT=    1 Incr=           1 LDynOK=F GPUOK=F.
 PrsmSu:  NPrtUS=   1 ThrOK=F IAlg=2 LenDen=           0 ISkipM=0 DoSpLW=F IThBeg=    0 IThEnd=    0.
 Prism:   IPart=     0 DynPar=F LinDyn=F Incr=           1.
 PRISM was handed  1342172751 working-precision words and    21 shell-pairs
 IPart=  0 NShTot=          21 NBatch=           3 AvBLen=         7.0
 PrSmSu:  NxtVal=              2.
 *** Overlap *** 
                1             2             3             4             5 
      1  0.100000D+01
      2  0.241137D+00  0.100000D+01
      3  0.000000D+00  0.000000D+00  0.100000D+01
      4  0.000000D+00  0.000000D+00  0.000000D+00  0.100000D+01
      5  0.000000D+00  0.000000D+00  0.000000D+00  0.000000D+00  0.100000D+01
      6  0.571818D-01  0.377671D+00  0.185445D+00  0.322803D+00 -0.332253D+00
      7  0.998256D+00  0.241146D+00  0.637423D-02  0.973815D-02 -0.730654D-02
      8  0.241146D+00  0.999950D+00  0.411842D-02  0.629187D-02 -0.472079D-02
      9 -0.637423D-02 -0.411842D-02  0.999866D+00 -0.615797D-04  0.462033D-04
     10 -0.973815D-02 -0.629187D-02 -0.615797D-04  0.999812D+00  0.705865D-04
     11  0.730654D-02  0.472079D-02  0.462033D-04  0.705865D-04  0.999853D+00
     12  0.758648D-01  0.410719D+00  0.194354D+00  0.339356D+00 -0.348686D+00
                6             7             8             9            10 
      6  0.100000D+01
      7  0.596841D-01  0.100000D+01
      8  0.382632D+00  0.241137D+00  0.100000D+01
      9  0.186351D+00  0.000000D+00  0.000000D+00  0.100000D+01
     10  0.324990D+00  0.000000D+00  0.000000D+00  0.000000D+00  0.100000D+01
     11 -0.335724D+00  0.000000D+00  0.000000D+00  0.000000D+00  0.000000D+00
     12  0.984396D+00  0.791426D-01  0.415704D+00  0.194887D+00  0.340998D+00
               11            12 
     11  0.100000D+01
     12 -0.351755D+00  0.100000D+01
 *** Kinetic Energy *** 
                1             2             3             4             5 
      1  0.357679D+01
      2 -0.202374D-01  0.102163D+00
      3  0.000000D+00  0.000000D+00  0.319682D+00
      4  0.000000D+00  0.000000D+00  0.000000D+00  0.319682D+00
      5  0.000000D+00  0.000000D+00  0.000000D+00  0.000000D+00  0.319682D+00
      6 -0.144513D-01  0.375291D-01  0.437748D-01  0.761984D-01 -0.784291D-01
      7  0.355506D+01 -0.201398D-01  0.803327D-02  0.122727D-01 -0.920824D-02
      8 -0.201398D-01  0.102150D+00  0.583275D-03  0.891091D-03 -0.668587D-03
      9 -0.803327D-02 -0.583275D-03  0.319586D+00 -0.439571D-04  0.329811D-04
     10 -0.122727D-01 -0.891091D-03 -0.439571D-04  0.319548D+00  0.503864D-04
     11  0.920824D-02  0.668587D-03  0.329811D-04  0.503864D-04  0.319577D+00
     12 -0.166487D-01  0.463630D-01  0.513426D-01  0.896478D-01 -0.921124D-01
                6             7             8             9            10 
      6  0.760032D+00
      7 -0.148126D-01  0.357679D+01
      8  0.388130D-01 -0.202374D-01  0.102163D+00
      9  0.447541D-01  0.000000D+00  0.000000D+00  0.319682D+00
     10  0.780495D-01  0.000000D+00  0.000000D+00  0.000000D+00  0.319682D+00
     11 -0.806274D-01  0.000000D+00  0.000000D+00  0.000000D+00  0.000000D+00
     12  0.719796D+00 -0.169000D-01  0.477469D-01  0.523471D-01  0.915931D-01
               11            12 
     11  0.319682D+00
     12 -0.944823D-01  0.760032D+00
 Entering OneElI...
 Calculate potential energy integrals
    NBasis =  12  MinDer = 0  MaxDer = 0
 Requested accuracy = 0.1000D-12
 PrmmSu-InSpLW:  IPartL=    0 NPrtUS=    1 NPrtUL=    1 DoSpLW=F IThBeg=    0 IThEnd=    0 NThAct=    1.
 PrSmSu:  IncTry=   512 NBBP=             84 NTPThr=   100 NPartT=    1 Incr=           1 LDynOK=F GPUOK=F.
 PrsmSu:  NPrtUS=   1 ThrOK=F IAlg=2 LenDen=           0 ISkipM=0 DoSpLW=F IThBeg=    0 IThEnd=    0.
 Prism:   IPart=     0 DynPar=F LinDyn=F Incr=           1.
 PRISM was handed  1342172616 working-precision words and    21 shell-pairs
 IPart=  0 NShTot=          84 NBatch=          21 AvBLen=         4.0
 PrSmSu:  NxtVal=              2.
 ***** Potential Energy ***** 
                1             2             3             4             5 
      1  0.165897D+02
      2  0.208675D+01  0.299514D+01
      3  0.250225D-01  0.970991D-01  0.293724D+01
      4  0.408069D-01  0.167860D+00  0.471628D-01  0.299237D+01
      5 -0.364091D-01 -0.169808D+00 -0.484618D-01 -0.844690D-01  0.299699D+01
      6  0.494358D+00  0.138647D+01  0.689591D+00  0.120038D+01 -0.123478D+01
      7  0.165673D+02  0.208892D+01  0.725642D-01  0.113515D+00 -0.911338D-01
      8  0.208692D+01  0.299721D+01  0.106889D+00  0.182964D+00 -0.181472D+00
      9 -0.483807D-01  0.745578D-01  0.293859D+01  0.467345D-01 -0.479964D-01
     10 -0.713139D-01  0.133695D+00  0.469700D-01  0.299359D+01 -0.840193D-01
     11  0.476705D-01 -0.144784D+00 -0.487023D-01 -0.848277D-01  0.299884D+01
     12  0.658701D+00  0.154854D+01  0.743692D+00  0.129786D+01 -0.133300D+01
                6             7             8             9            10 
      6  0.431295D+01
      7  0.510546D+00  0.165981D+02
      8  0.140366D+01  0.208876D+01  0.299953D+01
      9  0.691039D+00 -0.865081D-03  0.843594D-01  0.294104D+01
     10  0.120575D+01  0.135642D-02  0.148820D+00  0.473700D-01  0.299663D+01
     11 -0.124601D+01 -0.703134D-02 -0.156473D+00 -0.488596D-01 -0.853315D-01
     12  0.432520D+01  0.680074D+00  0.156618D+01  0.743417D+00  0.130081D+01
               11            12 
     11  0.300195D+01
     12 -0.134271D+01  0.447496D+01
 ****** Core Hamiltonian ****** 
                1             2             3             4             5 
      1 -0.130129D+02
      2 -0.210699D+01 -0.289297D+01
      3 -0.250225D-01 -0.970991D-01 -0.261756D+01
      4 -0.408069D-01 -0.167860D+00 -0.471628D-01 -0.267269D+01
      5  0.364091D-01  0.169808D+00  0.484618D-01  0.844690D-01 -0.267731D+01
      6 -0.508809D+00 -0.134894D+01 -0.645816D+00 -0.112418D+01  0.115635D+01
      7 -0.130122D+02 -0.210906D+01 -0.645309D-01 -0.101242D+00  0.819256D-01
      8 -0.210706D+01 -0.289506D+01 -0.106306D+00 -0.182073D+00  0.180804D+00
      9  0.403474D-01 -0.751410D-01 -0.261901D+01 -0.467784D-01  0.480294D-01
     10  0.590411D-01 -0.134586D+00 -0.470140D-01 -0.267405D+01  0.840697D-01
     11 -0.384622D-01  0.145452D+00  0.487353D-01  0.848781D-01 -0.267926D+01
     12 -0.675349D+00 -0.150218D+01 -0.692349D+00 -0.120821D+01  0.124089D+01
                6             7             8             9            10 
      6 -0.355292D+01
      7 -0.525359D+00 -0.130213D+02
      8 -0.136485D+01 -0.210900D+01 -0.289736D+01
      9 -0.646285D+00  0.865081D-03 -0.843594D-01 -0.262136D+01
     10 -0.112771D+01 -0.135642D-02 -0.148820D+00 -0.473700D-01 -0.267695D+01
     11  0.116538D+01  0.703134D-02  0.156473D+00  0.488596D-01  0.853315D-01
     12 -0.360540D+01 -0.696974D+00 -0.151844D+01 -0.691070D+00 -0.120922D+01
               11            12 
     11 -0.268227D+01
     12  0.124823D+01 -0.371493D+01
 SVDSVc IOpt=   1 NormSV=T IR=1
 SVDSVc V= 3.36D+00 2.34D+00 2.00D+00 2.00D+00 1.60D+00 6.85D-01 1.41D-02 1.64D-03 1.34D-04 9.37D-05
 SVDSVc V= 8.83D-05 6.86D-06
 TstOVc:  Largest diagonal error= 2.07D-11 IB=1 I=   12.
 TstOVc:  Largest same sym error= 2.00D-12 IB=1 I=   12 J=    9.
 Orthogonalized basis functions: 
                 1             2             3             4             5 
      1   0.899291D-01  0.301326D+00  0.840624D-05 -0.607515D-03  0.399865D+00
      2   0.183001D+00  0.235614D+00  0.737603D-05 -0.388869D-03 -0.311397D+00
      3   0.730940D-01 -0.911473D-01  0.365923D+00  0.285942D+00  0.821517D-01
      4   0.127429D+00 -0.159307D+00 -0.322636D+00  0.203242D+00  0.143224D+00
      5  -0.131022D+00  0.164632D+00 -0.109629D+00  0.356288D+00 -0.147291D+00
      6   0.256983D+00 -0.854804D-01  0.145195D-03 -0.580422D-05 -0.880285D-01
      7   0.919581D-01  0.298236D+00  0.000000D+00  0.592231D-03  0.403276D+00
      8   0.184792D+00  0.233400D+00  0.197136D-05  0.385643D-03 -0.309531D+00
      9   0.724101D-01 -0.936590D-01  0.365923D+00  0.285942D+00  0.804683D-01
     10   0.126510D+00 -0.163202D+00 -0.322636D+00  0.203242D+00  0.140564D+00
     11  -0.130617D+00  0.167683D+00 -0.109629D+00  0.356288D+00 -0.145097D+00
     12   0.264532D+00 -0.791590D-01 -0.138465D-03  0.142608D-04 -0.845010D-01
                 6             7             8             9            10 
      1   0.882892D-01 -0.916640D-01 -0.174541D+02  0.128035D+01 -0.587057D-02
      2  -0.386964D+00 -0.109512D+00  0.714545D+00  0.115350D+01 -0.279685D-01
      3  -0.174430D+00 -0.369720D-01 -0.161746D+00 -0.344672D+02  0.536924D+02
      4  -0.304613D+00 -0.844330D-01 -0.277576D+00 -0.461523D+02 -0.469380D+02
      5   0.314316D+00  0.107300D+00  0.280154D+00  0.199069D+02 -0.158549D+02
      6   0.629775D+00 -0.581276D+01  0.243967D+00 -0.474887D+00  0.283743D-01
      7   0.748916D-01  0.294687D-01  0.174631D+02 -0.568148D+00  0.531178D-02
      8  -0.390173D+00 -0.182209D+00 -0.753077D+00 -0.546899D+00  0.283034D-01
      9  -0.170005D+00 -0.676661D-01  0.334157D-01  0.345978D+02 -0.536923D+02
     10  -0.296436D+00 -0.104470D+00  0.773788D-01  0.463780D+02  0.469382D+02
     11   0.304991D+00  0.839711D-01 -0.120145D+00 -0.201355D+02  0.158547D+02
     12   0.561919D+00  0.608481D+01 -0.130558D+00 -0.169228D+00 -0.281547D-01
                11            12 
      1  -0.672141D+00 -0.112514D+02
      2  -0.739730D+00 -0.269652D+03
      3  -0.282534D+02 -0.204207D+01
      4  -0.898254D+01 -0.353203D+01
      5  -0.690861D+02  0.402468D+01
      6   0.112464D-01 -0.157457D+01
      7   0.468340D+00  0.112830D+02
      8   0.452735D+00  0.269687D+03
      9   0.281616D+02  0.872168D+00
     10   0.882343D+01  0.174589D+01
     11   0.692473D+02 -0.269112D+01
     12   0.429585D+00  0.143876D+01
 NBasis=    12 RedAO= T EigKep=  6.86D-06  NBF=    12
 NBsUse=    12 1.00D-06 EigRej= -1.00D+00 NBFU=    12
 Precomputing XC quadrature grid using
 IXCGrd= 4 IRadAn=           5 IRanWt=          -1 IRanGd=           0 AccXCQ= 0.00D+00.
 SetAtRh:  ITypeU=  23 NETotI=       0 ICharg=  4 NETot=       0.
 StAtR1:  I=    1 I1=    1 IA=  3 C=   3.0 OKShel=TT
                                                  SS
                                                  21
 StAtR1:  I=    2 I1=    2 IA=  1 C=   1.0 OKShel=T
                                                  S
                                                  1
 StAtR1:  I=    3 I1=    3 IA=  3 C=   3.0 OKShel=TT
                                                  SS
                                                  21
 StAtR1:  I=    4 I1=    4 IA=  1 C=   1.0 OKShel=T
                                                  S
                                                  1
          I=    1 IA=  3 I1=    1 NAtG= 0 NE=   3.000 C=   0.000 Err=-3.00D+00
          I=    2 IA=  1 I1=    2 NAtG= 0 NE=   1.000 C=   0.000 Err=-1.00D+00
          I=    3 IA=  3 I1=    3 NAtG= 0 NE=   3.000 C=   0.000 Err=-3.00D+00
          I=    4 IA=  1 I1=    4 NAtG= 0 NE=   1.000 C=   0.000 Err=-1.00D+00
 Generated NRdTot=       0 NPtTot=           0 NUsed=           0 NTot=          32
 NSgBfM=    12    12    12    12    12 MxSgAt=     4 MxSgA2=     4.
 IGWInf( 1) =          32 (NGWInf)
 IGWInf( 2) =           4 (NAtomA)
 IGWInf( 3) =           5 (IRadAn)
 IGWInf( 4) =          -1 (IRanWt)
 IGWInf( 5) =           0 (IRanGd)
 IGWInf( 6) =           2 (IRType)
 IGWInf( 7) =           0 (NRdTot)
 IGWInf( 8) =           0 (NGWTot)
 IGWInf( 9) =       84704 (LGWBtD)
 IGWInf(10) =           0 (NAtBtD)
 IGWInf(11) =           0 (NIRBtD)
 IGWInf(12) =           0 (NRRBtD)
 IGWInf(13) =           1 (NClRep)
 IGWInf(14) =           0 (ICntr3)
 IGWInf(15) =           0 (IPFlag)
 IGWInf(16) =           0 (IGet)  
 IGWInf(17) =           0         
 IGWInf(18) =          12         
 IGWInf(19) =          12         
 IGWInf(20) =          12         
 IGWInf(21) =          12         
 IGWInf(22) =          12         
 IGWInf(23) =           4         
 IGWInf(24) =           4         
 IGWInf(25) =           0         
 IGWInf(26) =           0         
 IGWInf(27) =           0         
 IGWInf(28) =           0         
 IGWInf(29) =           0         
 IGWInf(30) =           0         
 IGWInf(31) =           0         
 IGWInf(32) =           0         
 IAtBtD: 
              1            2            3            4
 ExpMin= 4.81D-02 ExpMax= 1.61D+01 ExpMxC= 1.61D+01 IAcc=3 IRadAn=         5 AccDes= 0.00D+00
 Harris functional with IExCor=  402 and IRadAn=       5 diagonalized for initial guess.
 HarFok:  IExCor=  402 AccDes= 0.00D+00 IRadAn=         5 IDoV= 1 UseB2=F ITyADJ=14
 ICtDFT=  3500011 ScaDFX=  1.000000  1.000000  1.000000  1.000000
 FoFCou: FMM=F IPFlag=           0 FMFlag=      100000 FMFlg1=           0
         NFxFlg=           0 DoJE=T BraDBF=F KetDBF=T FulRan=T
         wScrn=  0.000000 ICntrl=       500 IOpCl=  0 I1Cent=   200000004 NGrid=           0
         NMat0=    1 NMatS0=      1 NMatT0=    0 NMatD0=    1 NMtDS0=    0 NMtDT0=    0
 Symmetry not used in FoFCou.

 **********************************************************************

            Population analysis using the SCF Density.

 **********************************************************************

 Alpha  occ. eigenvalues --   -6.74857  -0.98233  -0.34426  -0.25728
 Alpha virt. eigenvalues --   -0.19852  -0.19638   0.10916   0.17404   0.19548
 Alpha virt. eigenvalues --    0.24202   1.32021   6.95965
     Molecular Orbital Coefficients:
                           1         2         3         4         5
                           O         O         O         O         V
     Eigenvalues --    -6.74857  -0.98233  -0.34426  -0.25728  -0.19852
   1 1   Li 1S          0.60251   0.25202   0.30185  -1.72434  -0.00013
   2        2S         -1.72734 -22.08503 -21.51242  93.01082  -0.00111
   3        2PX        -5.09761  -2.25394   8.16957   2.70228  -2.69389
   4        2PY        -8.35439  -4.65694  12.61007   4.45428   2.33470
   5        2PZ         7.51142   6.15401  -9.74304  -4.08301   0.76803
   6 2   H  1S          0.04917  -0.22350  -0.22277  -0.63902   0.00301
   7 3   Li 1S          0.54788  -0.15947  -0.58266   1.64281   0.00014
   8        2S          1.74564  22.27138  22.32054 -92.71762   0.00141
   9        2PX         5.11709   2.22603  -8.37248  -1.85754   3.43134
  10        2PY         8.38995   4.63042 -12.92255  -3.20879  -2.97429
  11        2PZ        -7.55087  -6.16955   9.98323   3.25244  -0.97760
  12 4   H  1S         -0.18610  -0.97329   0.11224   0.14650  -0.00271
                           6         7         8         9        10
                           V         V         V         V         V
     Eigenvalues --    -0.19638   0.10916   0.17404   0.19548   0.24202
   1 1   Li 1S         -0.23516   1.22931   0.03858   0.00430  -0.11972
   2        2S         12.67629-171.34166  -3.40071  -0.44442  27.94825
   3        2PX         2.51030  -0.45290 -42.39407  53.52160  -8.47911
   4        2PY         2.30724   1.97902 -41.65064 -46.99347  13.01880
   5        2PZ         1.79302  -6.95328 -19.64853 -15.84928 -67.33465
   6 2   H  1S         -0.17034   0.39292   0.05171  -0.00900   0.01868
   7 3   Li 1S          0.21698  -1.27417   0.26621  -0.00395  -0.20334
   8        2S        -12.63099 171.42800   4.04851   0.44453 -28.74220
   9        2PX        -2.88872   0.03955  42.43152 -53.48150   8.40898
  10        2PY        -2.43385  -2.58987  41.74885  46.95455 -13.14727
  11        2PZ        -2.73854   7.36809  19.48451  15.83881  67.47831
  12 4   H  1S          0.01813  -0.69987  -0.41382   0.00889   0.68448
                          11        12
                           V         V
     Eigenvalues --     1.32021   6.95965
   1 1   Li 1S         -1.39396  20.65406
   2        2S         63.56487 169.58312
   3        2PX         4.53091   0.67929
   4        2PY         5.36618   0.52523
   5        2PZ        -2.76853   0.46182
   6 2   H  1S          5.94829   0.97577
   7 3   Li 1S          1.36751 -20.64120
   8        2S        -63.35370-169.51455
   9        2PX        -4.20975   0.19237
  10        2PY        -4.84973   0.81297
  11        2PZ         2.34031  -1.47783
  12 4   H  1S         -6.03834  -1.05718
     Density Matrix:
                           1         2         3         4         5
   1 1   Li 1S          6.98198
   2        2S       -346.96460**********
   3        2PX       -11.66615 268.35475 210.22033
   4        2PY       -20.16321 520.60486 336.27907 540.67487
   5        2PZ        20.35240-638.10787-285.58199-464.91895 411.78209
   6 2   H  1S          2.01591 -99.58560  -6.58743 -10.05121   7.54723
   7 3   Li 1S         -5.43745 335.81833  -5.50842  -7.72884   4.20650
   8        2S        346.55728**********-254.59289-499.65359 622.53519
   9        2PX         8.63984-101.32031-209.04300-333.93654 282.58682
  10        2PY        15.70877-274.42454-334.89636-537.80725 461.04504
  11        2PZ       -17.39839 474.09207 285.48991 464.38135-410.46398
  12 4   H  1S         -1.15228  66.05550   8.91040  16.31029 -18.15834
                           6         7         8         9        10
   6 2   H  1S          1.02070
   7 3   Li 1S         -1.71482   6.72785
   8        2S         98.76933-335.83608**********
   9        2PX         5.61262   8.55059  87.71616 209.37748
  10        2PY         8.61399  12.23260 253.69000 334.78771 538.24132
  11        2PZ        -6.58967  -7.25362-458.62548-283.99611-462.72846
  12 4   H  1S          0.17951   0.45704 -66.15775  -8.66137 -15.97713
                          11        12
  11        2PZ       410.64456
  12 4   H  1S         18.01385   2.03196
    Full Mulliken population analysis:
                           1         2         3         4         5
   1 1   Li 1S          6.98198
   2        2S        -83.66585**********
   3        2PX         0.00000   0.00000 210.22033
   4        2PY         0.00000   0.00000   0.00000 540.67487
   5        2PZ         0.00000   0.00000   0.00000   0.00000 411.78209
   6 2   H  1S          0.11527 -37.61063  -1.22161  -3.24456  -2.50759
   7 3   Li 1S         -5.42797  80.98140  -0.03511  -0.07526  -0.03073
   8        2S         83.57106**********  -1.04852  -3.14375  -2.93886
   9        2PX        -0.05507   0.41728-209.01499   0.02056   0.01306
  10        2PY        -0.15297   1.72664   0.02062-537.70627   0.03254
  11        2PZ        -0.12712   2.23809   0.01319   0.03278-410.40379
  12 4   H  1S         -0.08742  27.13023   1.73177   5.53500   6.33156
                           6         7         8         9        10
   6 2   H  1S          1.02070
   7 3   Li 1S         -0.10235   6.72785
   8        2S         37.79226 -80.98236**********
   9        2PX         1.04592   0.00000   0.00000 209.37748
  10        2PY         2.79946   0.00000   0.00000   0.00000 538.24132
  11        2PZ         2.21231   0.00000   0.00000   0.00000   0.00000
  12 4   H  1S          0.17671   0.03617 -27.50204  -1.68798  -5.44817
                          11        12
  11        2PZ       410.64456
  12 4   H  1S         -6.33646   2.03196
     Gross orbital populations:
                           1
   1 1   Li 1S          1.15190
   2        2S          3.65313
   3        2PX         0.66569
   4        2PY         2.09336
   5        2PZ         2.27827
   6 2   H  1S          0.47588
   7 3   Li 1S          1.09162
   8        2S         -3.22417
   9        2PX         0.11625
  10        2PY        -0.48683
  11        2PZ        -1.72644
  12 4   H  1S          1.91134
          Condensed to atoms (all electrons):
               1          2          3          4
     1  Li*********** -44.469121***********  40.641144
     2  H  -44.469121   1.020697  43.747598   0.176711
     3  Li***********  43.747598*********** -40.938478
     4  H   40.641144   0.176711 -40.938478   2.031965
 Mulliken charges:
               1
     1  Li  -6.842343
     2  H    0.524116
     3  Li   7.229569
     4  H   -0.911342
 Sum of Mulliken charges =   0.00000
 Mulliken charges with hydrogens summed into heavy atoms:
               1
     1  Li  -6.842343
     3  Li   6.842343
 N-N= 2.430988258651D+02 E-N=-6.196658246760D+01  KE= 1.386364243911D+01
 Orbital energies and kinetic energies (alpha):
                                 1                 2
   1         O                -6.748572          4.295990
   2         O                -0.982329          0.972138
   3         O                -0.344255          0.440119
   4         O                -0.257280          1.223574
   5         V                -0.198522          0.320933
   6         V                -0.196383          0.350707
   7         V                 0.109156          0.897937
   8         V                 0.174039          0.838961
   9         V                 0.195480          0.712624
  10         V                 0.242024          1.013288
  11         V                 1.320214          3.121626
  12         V                 6.959655         16.969520
 Total kinetic energy from orbitals= 1.386364243911D+01

 This type of calculation cannot be archived.


 THE REASON MAN'S BEST FRIEND IS A DOG IS BECAUSE
 HE WAGS HIS TAIL INSTEAD OF HIS TONGUE.
 Job cpu time:       0 days  0 hours  0 minutes  0.8 seconds.
 Elapsed time:       0 days  0 hours  0 minutes  1.2 seconds.
 File lengths (MBytes):  RWF=    272 Int=      0 D2E=      0 Chk=     32 Scr=     32
 Normal termination of Gaussian 16 at Thu Dec 29 05:44:50 2022.
