6
MD Step 0
C  -0.33763715 -0.58748864 0.00000000
H  0.19552659 -1.51519357 0.00000000
H  -1.40763715 -0.58748864 0.00000000
C  0.33763715 0.58748865 0.00000000
H  -0.19552659 1.51519357 0.00000000
H  1.40763715 0.58748865 0.00000000
6
MD Step 1
C  -0.33800583 -0.58783577 -0.00039458
H  0.19788259 -1.51299131 0.00235064
H  -1.40541750 -0.58521124 0.00235044
C  0.33721685 0.58704720 -0.00039429
H  -0.19318437 1.51768475 0.00234968
H  1.41012081 0.58991439 0.00234948
6
MD Step 2
C  -0.33831491 -0.58808286 -0.00078576
H  0.20024156 -1.51111793 0.00468099
H  -1.40353828 -0.58310307 0.00468066
C  0.33675246 0.58651735 -0.00078516
H  -0.19087875 1.52042338 0.00467896
H  1.41279361 0.59245231 0.00467846
6
MD Step 3
C  -0.33856233 -0.58823053 -0.00117491
H  0.20261047 -1.50957533 0.00699915
H  -1.40203531 -0.58116278 0.00699905
C  0.33624765 0.58590169 -0.00117388
H  -0.18859426 1.52338780 0.00699559
H  1.41560098 0.59510079 0.00699444
6
MD Step 4
C  -0.33873912 -0.58827280 -0.00155570
H  0.20494711 -1.50840407 0.00926734
H  -1.40098073 -0.57943394 0.00926825
C  0.33571404 0.58521151 -0.00155401
H  -0.18635924 1.52650508 0.00926123
H  1.41843978 0.59781138 0.00925866
6
MD Step 5
C  -0.33885008 -0.58821772 -0.00193470
H  0.20728264 -1.50756057 0.01152442
H  -1.40035835 -0.57788239 0.01152768
C  0.33515053 0.58444605 -0.00193193
H  -0.18412370 1.52977474 0.01151401
H  1.42128339 0.60061156 0.01150877
6
MD Step 6
C  -0.33889620 -0.58806963 -0.00231366
H  0.20961675 -1.50702275 0.01378076
H  -1.40016888 -0.57650141 0.01378838
C  0.33456085 0.58361011 -0.00230922
H  -0.18186493 1.53316428 0.01376344
H  1.42407730 0.60349959 0.01375373
6
MD Step 7
C  -0.33887663 -0.58783107 -0.00269155
H  0.21192959 -1.50677887 0.01602996
H  -1.40041808 -0.57530015 0.01604465
C  0.33395156 0.58271200 -0.00268459
H  -0.17957627 1.53662172 0.01600209
H  1.42675203 0.60645622 0.01598553
6
MD Step 8
C  -0.33878943 -0.58750345 -0.00306520
H  0.21418645 -1.50682382 0.01825305
H  -1.40111226 -0.57429923 0.01827831
C  0.33333126 0.58176268 -0.00305469
H  -0.17726335 1.54008104 0.01820995
H  1.42922889 0.60944913 0.01818354
6
MD Step 9
C  -0.33863453 -0.58708991 -0.00343229
H  0.21635563 -1.50714219 0.02043600
H  -1.40224076 -0.57351325 0.02047606
C  0.33270750 0.58077271 -0.00341697
H  -0.17492716 1.54348081 0.02037190
H  1.43143896 0.61245059 0.02033207
6
MD Step 10
C  -0.33841178 -0.58659325 -0.00378932
H  0.21839720 -1.50772079 0.02255793
H  -1.40378819 -0.57296248 0.02261769
C  0.33208876 0.57975406 -0.00376775
H  -0.17257630 1.54675357 0.02246601
H  1.43331258 0.61542581 0.02240862
6
MD Step 11
C  -0.33812486 -0.58601987 -0.00413560
H  0.22028727 -1.50852568 0.02461484
H  -1.40571133 -0.57264906 0.02469969
C  0.33148032 0.57871602 -0.00410621
H  -0.17020371 1.54985073 0.02448731
H  1.43480423 0.61835697 0.02440783
6
MD Step 12
C  -0.33777929 -0.58537770 -0.00447139
H  0.22200724 -1.50951449 0.02660829
H  -1.40795191 -0.57256830 0.02672386
C  0.33088616 0.57766698 -0.00443248
H  -0.16779836 1.55273207 0.02643647
H  1.43588183 0.62123197 0.02633013
6
MD Step 13
C  -0.33738035 -0.58467412 -0.00479582
H  0.22353236 -1.51064935 0.02853343
H  -1.41045038 -0.57272063 0.02868543
C  0.33031092 0.57661630 -0.00474566
H  -0.16535757 1.55535461 0.02830790
H  1.43651515 0.62403259 0.02816978
6
MD Step 14
C  -0.33693678 -0.58391972 -0.00511087
H  0.22485553 -1.51187469 0.03040222
H  -1.41312455 -0.57308849 0.03059600
C  0.32975602 0.57557038 -0.00504766
H  -0.16286415 1.55769638 0.03011289
H  1.43669935 0.62675777 0.02993828
6
MD Step 15
C  -0.33644988 -0.58311735 -0.00541043
H  0.22592333 -1.51318268 0.03217885
H  -1.41593622 -0.57370056 0.03241980
C  0.32923046 0.57454330 -0.00533254
H  -0.16035082 1.55969263 0.03181544
H  1.43639054 0.62935923 0.03159940
6
MD Step 16
C  -0.33593327 -0.58228200 -0.00570045
H  0.22675546 -1.51449498 0.03389900
H  -1.41877353 -0.57451315 0.03419131
C  0.32873075 0.57353682 -0.00560620
H  -0.15778184 1.56135533 0.03345074
H  1.43562527 0.63186069 0.03318924
6
MD Step 17
C  -0.33539072 -0.58141861 -0.00597665
H  0.22731362 -1.51579532 0.03553798
H  -1.42158508 -0.57554144 0.03588535
C  0.32826311 0.57256236 -0.00586462
H  -0.15518425 1.56264190 0.03499422
H  1.43438850 0.63422621 0.03468337
6
MD Step 18
C  -0.33482969 -0.58053561 -0.00623838
H  0.22758344 -1.51704848 0.03709255
H  -1.42429970 -0.57677816 0.03749766
C  0.32782966 0.57162723 -0.00610737
H  -0.15256654 1.56353719 0.03644279
H  1.43269534 0.63644200 0.03607939
6
MD Step 19
C  -0.33425274 -0.57963639 -0.00648002
H  0.22752429 -1.51825139 0.03853022
H  -1.42687840 -0.57824396 0.03899537
C  0.32743693 0.57074300 -0.00632926
H  -0.14996905 1.56400329 0.03776467
H  1.43054058 0.63846599 0.03734556
6
MD Step 20
C  -0.33367371 -0.57873555 -0.00670758
H  0.22716678 -1.51933641 0.03988700
H  -1.42921815 -0.57989047 0.04041227
C  0.32707944 0.56990916 -0.00653635
H  -0.14736709 1.56407703 0.03899600
H  1.42799591 0.64032533 0.03851985
6
MD Step 21
C  -0.33309543 -0.57783652 -0.00691607
H  0.22648051 -1.52030429 0.04113433
H  -1.43128607 -0.58173251 0.04171921
C  0.32676206 0.56913526 -0.00672421
H  -0.14480269 1.56373743 0.04010929
H  1.42507680 0.64198380 0.03957513
6
MD Step 22
C  -0.33252593 -0.57694788 -0.00710620
H  0.22547163 -1.52112705 0.04227705
H  -1.43302269 -0.58375099 0.04291949
C  0.32648356 0.56842452 -0.00689385
H  -0.14228753 1.56300325 0.04111023
H  1.42183970 0.64343948 0.04051835
6
MD Step 23
C  -0.33197245 -0.57607734 -0.00727832
H  0.22414756 -1.52178371 0.04331782
H  -1.43437825 -0.58592832 0.04401435
C  0.32624257 0.56777971 -0.00704602
H  -0.13983794 1.56189744 0.04200255
H  1.41834597 0.64468935 0.04135454
6
MD Step 24
C  -0.33144632 -0.57523670 -0.00743763
H  0.22254714 -1.52223048 0.04428747
H  -1.43528348 -0.58821856 0.04503205
C  0.32603262 0.56719818 -0.00718595
H  -0.13744483 1.56047691 0.04281785
H  1.41469105 0.64575946 0.04211767
6
MD Step 25
C  -0.33094747 -0.57442621 -0.00757812
H  0.22064769 -1.52249388 0.04515151
H  -1.43574342 -0.59064015 0.04593801
C  0.32585778 0.56668731 -0.00730840
H  -0.13516573 1.55873921 0.04352344
H  1.41091028 0.64661181 0.04277527
6
MD Step 26
C  -0.33047608 -0.57364633 -0.00769470
H  0.21843552 -1.52260019 0.04588111
H  -1.43576680 -0.59320568 0.04670340
C  0.32572088 0.56625276 -0.00740910
H  -0.13305436 1.55669285 0.04409233
H  1.40704874 0.64721505 0.04330051
6
MD Step 27
C  -0.33004357 -0.57290883 -0.00779473
H  0.21597149 -1.52250960 0.04651925
H  -1.43530021 -0.59585652 0.04736834
C  0.32561237 0.56588746 -0.00749527
H  -0.13109504 1.55442252 0.04456841
H  1.40322603 0.64761046 0.04374016
6
MD Step 28
C  -0.32965078 -0.57221481 -0.00787536
H  0.21326068 -1.52224649 0.04704965
H  -1.43435911 -0.59859276 0.04791626
C  0.32553246 0.56559347 -0.00756464
H  -0.12933169 1.55195811 0.04493721
H  1.39950408 0.64778126 0.04408033
6
MD Step 29
C  -0.32929709 -0.57156387 -0.00793290
H  0.21030676 -1.52184470 0.04745167
H  -1.43297307 -0.60141893 0.04832684
C  0.32548199 0.56537286 -0.00761429
H  -0.12781312 1.54932851 0.04518000
H  1.39594028 0.64770728 0.04430233
6
MD Step 30
C  -0.32899440 -0.57096826 -0.00797778
H  0.20719585 -1.52126306 0.04778505
H  -1.43110140 -0.60426028 0.04865645
C  0.32544830 0.56521376 -0.00765401
H  -0.12650892 1.54664488 0.04535729
H  1.39266991 0.64744925 0.04447007
6
MD Step 31
C  -0.32873494 -0.57042047 -0.00800054
H  0.20390340 -1.52057818 0.04799576
H  -1.42882660 -0.60715522 0.04885312
C  0.32543796 0.56512270 -0.00767550
H  -0.12550065 1.54390646 0.04541719
H  1.38971074 0.64695526 0.04453009
6
MD Step 32
C  -0.32851453 -0.56991666 -0.00799635
H  0.20043339 -1.51984428 0.04805636
H  -1.42621383 -0.61011630 0.04889064
C  0.32545324 0.56510135 -0.00767471
H  -0.12484253 1.54113928 0.04533402
H  1.38710143 0.64620066 0.04445578
6
MD Step 33
C  -0.32833508 -0.56945924 -0.00796758
H  0.19683209 -1.51907817 0.04798035
H  -1.42329572 -0.61311593 0.04878200
C  0.32548982 0.56514423 -0.00765399
H  -0.12454673 1.53840954 0.04512236
H  1.38491454 0.64520236 0.04426242
6
MD Step 34
C  -0.32819298 -0.56904517 -0.00791159
H  0.19311861 -1.51832781 0.04775261
H  -1.42014099 -0.61615545 0.04851321
C  0.32554848 0.56525034 -0.00761115
H  -0.12465144 1.53575315 0.04476835
H  1.38318570 0.64394951 0.04393524
6
MD Step 35
C  -0.32809040 -0.56867740 -0.00783254
H  0.18935131 -1.51760457 0.04739668
H  -1.41678652 -0.61919829 0.04810745
C  0.32562395 0.56541212 -0.00755005
H  -0.12515364 1.53324158 0.04429632
H  1.38197910 0.64247052 0.04349894
6
MD Step 36
C  -0.32802983 -0.56835936 -0.00773570
H  0.18559471 -1.51691516 0.04694191
H  -1.41326943 -0.62220275 0.04759367
C  0.32571047 0.56562103 -0.00747538
H  -0.12604084 1.53094773 0.04373620
H  1.38135314 0.64080026 0.04298386
6
MD Step 37
C  -0.32800614 -0.56808707 -0.00761893
H  0.18187146 -1.51630854 0.04637584
H  -1.40967395 -0.62516956 0.04696108
C  0.32580987 0.56587567 -0.00738518
H  -0.12733788 1.52889690 0.04307604
H  1.38131118 0.63893233 0.04237645
6
MD Step 38
C  -0.32801733 -0.56785992 -0.00748401
H  0.17822534 -1.51581135 0.04570792
H  -1.40606635 -0.62807838 0.04622012
C  0.32592093 0.56617123 -0.00728089
H  -0.12904299 1.52712943 0.04232550
H  1.38186476 0.63688278 0.04168539
6
MD Step 39
C  -0.32805943 -0.56767560 -0.00733114
H  0.17469006 -1.51545765 0.04493878
H  -1.40252423 -0.63091850 0.04537292
C  0.32604445 0.56650471 -0.00716249
H  -0.13115791 1.52566907 0.04148512
H  1.38300262 0.63465941 0.04090973
6
MD Step 40
C  -0.32813001 -0.56753356 -0.00716256
H  0.17130874 -1.51526793 0.04408028
H  -1.39911477 -0.63366872 0.04443264
C  0.32617990 0.56687163 -0.00703170
H  -0.13366757 1.52454236 0.04056649
H  1.38471113 0.63228189 0.04005981
6
MD Step 41
C  -0.32822697 -0.56743383 -0.00698112
H  0.16812562 -1.51525601 0.04314780
H  -1.39590082 -0.63630509 0.04341596
C  0.32632664 0.56726739 -0.00689075
H  -0.13654750 1.52377040 0.03958450
H  1.38696703 0.62977407 0.03914932
6
MD Step 42
C  -0.32835068 -0.56737906 -0.00679246
H  0.16519764 -1.51541624 0.04217212
H  -1.39292733 -0.63878889 0.04235461
C  0.32648186 0.56768526 -0.00674427
H  -0.13975177 1.52338057 0.03856951
H  1.38975036 0.62717594 0.03820784
6
MD Step 43
C  -0.32849615 -0.56736676 -0.00659669
H  0.16254713 -1.51576989 0.04115283
H  -1.39026686 -0.64111364 0.04125003
C  0.32664833 0.56812433 -0.00659190
H  -0.14325993 1.52335946 0.03752025
H  1.39299833 0.62449682 0.03723246
6
MD Step 44
C  -0.32865234 -0.56738856 -0.00638739
H  0.16015678 -1.51636927 0.04005368
H  -1.38802234 -0.64330986 0.04006872
C  0.32683506 0.56859029 -0.00642763
H  -0.14708222 1.52364865 0.03639885
H  1.39660253 0.62171065 0.03618294
6
MD Step 45
C  -0.32881663 -0.56744446 -0.00616680
H  0.15805332 -1.51721250 0.03888635
H  -1.38624006 -0.64536022 0.03882372
C  0.32704304 0.56908109 -0.00625304
H  -0.15117550 1.52423021 0.03521607
H  1.40049635 0.61884038 0.03506901
6
MD Step 46
C  -0.32898790 -0.56753584 -0.00593829
H  0.15626577 -1.51828489 0.03766912
H  -1.38494963 -0.64724115 0.03753434
C  0.32727206 0.56959388 -0.00607078
H  -0.15548544 1.52508600 0.03398944
H  1.40461525 0.61591642 0.03390753
6
MD Step 47
C  -0.32915916 -0.56765817 -0.00569856
H  0.15478138 -1.51960304 0.03638313
H  -1.38420703 -0.64896721 0.03618322
C  0.32752799 0.57013243 -0.00587762
H  -0.15999156 1.52615441 0.03269863
H  1.40885421 0.61293253 0.03267705
6
MD Step 48
C  -0.32932576 -0.56780896 -0.00544614
H  0.15359318 -1.52116691 0.03501980
H  -1.38404514 -0.65054290 0.03476272
C  0.32781467 0.57069890 -0.00567196
H  -0.16465999 1.52737969 0.03133392
H  1.41311820 0.60989351 0.03136720
6
MD Step 49
C  -0.32948104 -0.56798342 -0.00517666
H  0.15267376 -1.52298633 0.03355478
H  -1.38449907 -0.65198909 0.03324929
C  0.32813818 0.57129824 -0.00544979
H  -0.16947089 1.52868698 0.02986941
H  1.41729777 0.60678893 0.02995151
6
MD Step 50
C  -0.32962821 -0.56818603 -0.00489529
H  0.15204473 -1.52501147 0.03201669
H  -1.38553562 -0.65327281 0.03167138
C  0.32849519 0.57192622 -0.00521554
H  -0.17434913 1.53005366 0.02833391
H  1.42134121 0.60366246 0.02845907
6
MD Step 51
C  -0.32975943 -0.56840997 -0.00459483
H  0.15165444 -1.52725683 0.03036566
H  -1.38717714 -0.65443125 0.02998926
C  0.32889337 0.57259024 -0.00496279
H  -0.17928905 1.53138696 0.02668581
H  1.42513181 0.60048901 0.02684815
6
MD Step 52
C  -0.32987981 -0.56866060 -0.00428074
H  0.15151870 -1.52966049 0.02863250
H  -1.38936028 -0.65542969 0.02823308
C  0.32932790 0.57328530 -0.00469647
H  -0.18421330 1.53266691 0.02495649
H  1.42863150 0.59731524 0.02515068
6
MD Step 53
C  -0.32999707 -0.56894530 -0.00396052
H  0.15166111 -1.53214555 0.02685912
H  -1.39199816 -0.65622245 0.02644386
C  0.32979152 0.57400421 -0.00442335
H  -0.18903423 1.53388670 0.02318911
H  1.43182064 0.59419917 0.02341046
6
MD Step 54
C  -0.33010532 -0.56925762 -0.00362694
H  0.15201984 -1.53471569 0.02500576
H  -1.39507698 -0.65684802 0.02458115
C  0.33029021 0.57475348 -0.00413708
H  -0.19374945 1.53495885 0.02134260
H  1.43460346 0.59111603 0.02158682
6
MD Step 55
C  -0.33020714 -0.56959893 -0.00328108
H  0.15257743 -1.53732565 0.02307915
H  -1.39852688 -0.65729815 0.02265073
C  0.33082153 0.57553121 -0.00383884
H  -0.19831165 1.53584674 0.01942393
H  1.43694000 0.58808776 0.01968736
6
MD Step 56
C  -0.33031185 -0.56997671 -0.00293067
H  0.15335167 -1.53989194 0.02112286
H  -1.40223377 -0.65752780 0.02069511
C  0.33137632 0.57632875 -0.00353576
H  -0.20263882 1.53655555 0.01747824
H  1.43883672 0.58517311 0.01775793
6
MD Step 57
C  -0.33041942 -0.57038888 -0.00257358
H  0.15430335 -1.54238740 0.01912554
H  -1.40613532 -0.65754925 0.01870197
C  0.33195416 0.57714641 -0.00322609
H  -0.20670867 1.53703916 0.01549401
H  1.44025255 0.58237456 0.01578756
6
MD Step 58
C  -0.33053008 -0.57083326 -0.00220789
H  0.15539367 -1.54478482 0.01707719
H  -1.41016562 -0.65737471 0.01666043
C  0.33255397 0.57798383 -0.00290835
H  -0.21050148 1.53725802 0.01346104
H  1.44115671 0.57969513 0.01376665
6
MD Step 59
C  -0.33064969 -0.57131283 -0.00183759
H  0.15661639 -1.54702571 0.01500055
H  -1.41422494 -0.65698425 0.01459239
C  0.33316864 0.57883449 -0.00258630
H  -0.21396840 1.53721156 0.01140294
H  1.44156108 0.57716999 0.01171933
6
MD Step 60
C  -0.33077965 -0.57182589 -0.00146218
H  0.15794007 -1.54907975 0.01289347
H  -1.41824035 -0.65638485 0.01249501
C  0.33379489 0.57969569 -0.00225969
H  -0.21709062 1.53687973 0.00931756
H  1.44146116 0.57480808 0.00964391
6
MD Step 61
C  -0.33091955 -0.57236877 -0.00107963
H  0.15932477 -1.55092910 0.01074491
H  -1.42215090 -0.65559405 0.01035672
C  0.33443051 0.58056574 -0.00192679
H  -0.21986316 1.53623962 0.00719355
H  1.44085252 0.57260823 0.00752941
6
MD Step 62
C  -0.33107287 -0.57294141 -0.00069221
H  0.16075579 -1.55253519 0.00856814
H  -1.42587518 -0.65460606 0.00819035
C  0.33506884 0.58143832 -0.00158981
H  -0.22226129 1.53529930 0.00504445
H  1.43976458 0.57059255 0.00538964
6
MD Step 63
C  -0.33124191 -0.57354240 -0.00030135
H  0.16221485 -1.55386866 0.00637168
H  -1.42934207 -0.65342142 0.00600418
C  0.33570369 0.58230745 -0.00125017
H  -0.22427018 1.53406841 0.00287879
H  1.43823077 0.56877710 0.00323330
6
MD Step 64
C  -0.33143296 -0.57417416 0.00008692
H  0.16371112 -1.55487887 0.00418984
H  -1.43246092 -0.65201587 0.00383239
C  0.33632424 0.58316231 -0.00091346
H  -0.22585389 1.53258901 0.00073144
H  1.43631904 0.56720257 0.00109532
6
MD Step 65
C  -0.33164688 -0.57483371 0.00047165
H  0.16522673 -1.55554942 0.00202831
H  -1.43517796 -0.65039578 0.00168068
C  0.33692433 0.58399663 -0.00058056
H  -0.22701069 1.53088021 -0.00139223
H  1.43407563 0.56587928 -0.00101899
6
MD Step 66
C  -0.33187981 -0.57551337 0.00085620
H  0.16672104 -1.55589430 -0.00013186
H  -1.43747276 -0.64859393 -0.00046973
C  0.33750182 0.58480798 -0.00024833
H  -0.22776888 1.52894202 -0.00351215
H  1.43152852 0.56479125 -0.00312974
6
MD Step 67
C  -0.33212210 -0.57619974 0.00124936
H  0.16812453 -1.55596408 -0.00234050
H  -1.43936464 -0.64667568 -0.00266840
C  0.33805968 0.58559892 0.00009151
H  -0.22819306 1.52674902 -0.00567999
H  1.42868076 0.56388989 -0.00528890
6
MD Step 68
C  -0.33237860 -0.57689375 0.00164461
H  0.16945766 -1.55572625 -0.00456038
H  -1.44079281 -0.64461887 -0.00487780
C  0.33858614 0.58635683 0.00043297
H  -0.22826421 1.52436971 -0.00785857
H  1.42563011 0.56321307 -0.00745969
6
MD Step 69
C  -0.33265204 -0.57759427 0.00203716
H  0.17073350 -1.55516329 -0.00676406
H  -1.44171501 -0.64241210 -0.00707002
C  0.33907112 0.58707058 0.00077171
H  -0.22797775 1.52186789 -0.01002088
H  1.42246921 0.56278743 -0.00961560
6
MD Step 70
C  -0.33294289 -0.57829805 0.00242404
H  0.17195723 -1.55427335 -0.00893450
H  -1.44210866 -0.64005538 -0.00922754
C  0.33950649 0.58773069 0.00110513
H  -0.22734377 1.51930131 -0.01215069
H  1.41928319 0.56262777 -0.01174101
6
MD Step 71
C  -0.33324484 -0.57899528 0.00280875
H  0.17309935 -1.55309703 -0.01109172
H  -1.44199801 -0.63758695 -0.01136995
C  0.33989062 0.58833394 0.00143675
H  -0.22641363 1.51669404 -0.01426964
H  1.41612095 0.56271022 -0.01385814
6
MD Step 72
C  -0.33356215 -0.57968683 0.00318356
H  0.17419799 -1.55161430 -0.01319115
H  -1.44135107 -0.63498014 -0.01345202
C  0.34021141 0.58886616 0.00175942
H  -0.22517646 1.51413850 -0.01633377
H  1.41309682 0.56307474 -0.01592380
6
MD Step 73
C  -0.33389008 -0.58036486 0.00354949
H  0.17524319 -1.54986044 -0.01523858
H  -1.44019612 -0.63225967 -0.01547909
C  0.34046576 0.58932191 0.00207436
H  -0.22367486 1.51167821 -0.01835038
H  1.41027173 0.56370939 -0.01794590
6
MD Step 74
C  -0.33421913 -0.58101713 0.00391186
H  0.17620197 -1.54790036 -0.01726525
H  -1.43859607 -0.62947624 -0.01748218
C  0.34065553 0.58970030 0.00238704
H  -0.22197899 1.50933207 -0.02035258
H  1.40767684 0.56457562 -0.01995788
6
MD Step 75
C  -0.33454674 -0.58163857 0.00426874
H  0.17708641 -1.54575934 -0.01925984
H  -1.43657913 -0.62663755 -0.01944960
C  0.34077607 0.58999356 0.00269583
H  -0.22011713 1.50716189 -0.02233037
H  1.40538099 0.56567673 -0.02195019
6
MD Step 76
C  -0.33487213 -0.58222628 0.00461608
H  0.17792307 -1.54345300 -0.02119867
H  -1.43416881 -0.62373872 -0.02135725
C  0.34082149 0.59019231 0.00299701
H  -0.21810539 1.50524069 -0.02426120
H  1.40345835 0.56702757 -0.02390075
6
MD Step 77
C  -0.33518866 -0.58277196 0.00495543
H  0.17870758 -1.54103210 -0.02309080
H  -1.43142908 -0.62080768 -0.02321422
C  0.34079228 0.59029330 0.00329234
H  -0.21599227 1.50360589 -0.02615556
H  1.40194095 0.56860935 -0.02582000
6
MD Step 78
C  -0.33549243 -0.58327048 0.00528540
H  0.17945443 -1.53853161 -0.02492802
H  -1.42841317 -0.61785464 -0.02501231
C  0.34068698 0.59029111 0.00358060
H  -0.21380742 1.50230827 -0.02800638
H  1.40086780 0.57041989 -0.02770077
6
MD Step 79
C  -0.33577662 -0.58371431 0.00560731
H  0.18016323 -1.53600346 -0.02671819
H  -1.42519620 -0.61490554 -0.02675985
C  0.34050781 0.59018390 0.00386330
H  -0.21159430 1.50137711 -0.02982262
H  1.40025025 0.57244017 -0.02955139
6
MD Step 80
C  -0.33604184 -0.58410383 0.00591513
H  0.18087890 -1.53345497 -0.02842483
H  -1.42181330 -0.61194105 -0.02842014
C  0.34025052 0.58996326 0.00413426
H  -0.20934858 1.50087977 -0.03156818
H  1.40013220 0.57469503 -0.03133574
6
MD Step 81
C  -0.33628348 -0.58443475 0.00620791
H  0.18161631 -1.53092349 -0.03004181
H  -1.41833402 -0.60897190 -0.02998761
C  0.33991694 0.58962710 0.00439243
H  -0.20709259 1.50084511 -0.03323732
H  1.40051388 0.57717810 -0.03304725
6
MD Step 82
C  -0.33649676 -0.58470316 0.00648492
H  0.18238917 -1.52844630 -0.03156425
H  -1.41483176 -0.60600941 -0.03145808
C  0.33951008 0.58917470 0.00463686
H  -0.20484537 1.50129183 -0.03482512
H  1.40138120 0.57988095 -0.03468000
6
MD Step 83
C  -0.33667034 -0.58489916 0.00675186
H  0.18317128 -1.52609822 -0.03302661
H  -1.41142058 -0.60310386 -0.03286816
C  0.33904042 0.58861332 0.00487338
H  -0.20266059 1.50218932 -0.03636596
H  1.40266794 0.58275483 -0.03626595
6
MD Step 84
C  -0.33680138 -0.58502175 0.00700652
H  0.18398413 -1.52390224 -0.03441484
H  -1.40816437 -0.60025590 -0.03420474
C  0.33851105 0.58794332 0.00509930
H  -0.20053805 1.50354586 -0.03784481
H  1.40434590 0.58579880 -0.03778891
6
MD Step 85
C  -0.33688577 -0.58506908 0.00724829
H  0.18483791 -1.52188754 -0.03572470
H  -1.40513386 -0.59747530 -0.03546495
C  0.33792730 0.58716811 0.00531359
H  -0.19848231 1.50534965 -0.03925616
H  1.40636732 0.58900110 -0.03924186
6
MD Step 86
C  -0.33691763 -0.58503790 0.00747873
H  0.18572765 -1.52009250 -0.03696537
H  -1.40240833 -0.59478452 -0.03665994
C  0.33729732 0.58629470 0.00551748
H  -0.19650643 1.50756543 -0.04060755
H  1.40866275 0.59233553 -0.04063036
6
MD Step 87
C  -0.33689416 -0.58492822 0.00769713
H  0.18666035 -1.51853637 -0.03813187
H  -1.40004583 -0.59219103 -0.03778624
C  0.33662724 0.58532899 0.00570968
H  -0.19460468 1.51016272 -0.04189189
H  1.41117079 0.59578907 -0.04194589
6
MD Step 88
C  -0.33681426 -0.58474197 0.00790185
H  0.18764629 -1.51722740 -0.03921348
H  -1.39808993 -0.58969583 -0.03883438
C  0.33592251 0.58427720 0.00588783
H  -0.19276158 1.51310809 -0.04309600
H  1.41383133 0.59935341 -0.04317427
6
MD Step 89
C  -0.33667711 -0.58448137 0.00809187
H  0.18868943 -1.51617210 -0.04020319
H  -1.39657778 -0.58730297 -0.03979854
C  0.33518941 0.58314728 0.00605016
H  -0.19096194 1.51635666 -0.04421019
H  1.41657773 0.60301548 -0.04430491
6
MD Step 90
C  -0.33647922 -0.58414595 0.00826950
H  0.18976959 -1.51539281 -0.04111537
H  -1.39555663 -0.58503735 -0.04069514
C  0.33443788 0.58195182 0.00619876
H  -0.18920932 1.51983564 -0.04524599
H  1.41932092 0.60673983 -0.04534770
6
MD Step 91
C  -0.33621844 -0.58373646 0.00843667
H  0.19086553 -1.51490445 -0.04196271
H  -1.39505931 -0.58292150 -0.04153880
C  0.33367758 0.58070400 0.00633549
H  -0.18750372 1.52346897 -0.04621311
H  1.42197454 0.61049184 -0.04631083
6
MD Step 92
C  -0.33590683 -0.58326761 0.00858332
H  0.19203121 -1.51463823 -0.04267979
H  -1.39502715 -0.58089935 -0.04226183
C  0.33290493 0.57940459 0.00644801
H  -0.18576625 1.52725518 -0.04704334
H  1.42453296 0.61431427 -0.04712882
6
MD Step 93
C  -0.33554233 -0.58273979 0.00871325
H  0.19322814 -1.51461061 -0.04329143
H  -1.39547939 -0.57900449 -0.04289081
C  0.33213141 0.57807010 0.00654040
H  -0.18400765 1.53110036 -0.04775856
H  1.42690356 0.61815896 -0.04782212
6
MD Step 94
C  -0.33512903 -0.58215924 0.00882554
H  0.19444620 -1.51480276 -0.04379177
H  -1.39639222 -0.57723941 -0.04341981
C  0.33136313 0.57671226 0.00661119
H  -0.18220858 1.53494057 -0.04835030
H  1.42902911 0.62200795 -0.04838261
6
MD Step 95
C  -0.33466773 -0.58152858 0.00892308
H  0.19564796 -1.51521710 -0.04420055
H  -1.39775564 -0.57563150 -0.04386940
C  0.33061026 0.57534732 0.00666368
H  -0.18037618 1.53868719 -0.04883564
H  1.43083278 0.62581744 -0.04882671
6
MD Step 96
C  -0.33416425 -0.58085513 0.00900503
H  0.19681881 -1.51582788 -0.04451307
H  -1.39952424 -0.57418318 -0.04423424
C  0.32987852 0.57398746 0.00669678
H  -0.17849497 1.54227830 -0.04920775
H  1.43226926 0.62956807 -0.04914825
6
MD Step 97
C  -0.33362664 -0.58014817 0.00906926
H  0.19795189 -1.51659738 -0.04471574
H  -1.40163416 -0.57288741 -0.04449922
C  0.32917175 0.57264324 0.00670780
H  -0.17654287 1.54566426 -0.04945147
H  1.43330981 0.63324953 -0.04933350
6
MD Step 98
C  -0.33305626 -0.57940993 0.00912022
H  0.19899540 -1.51752980 -0.04483969
H  -1.40405825 -0.57178064 -0.04469586
C  0.32850084 0.57133234 0.00670237
H  -0.17454443 1.54875570 -0.04959593
H  1.43388975 0.63680749 -0.04941097
6
MD Step 99
C  -0.33246207 -0.57865005 0.00915601
H  0.19993978 -1.51858500 -0.04487335
H  -1.40672031 -0.57085617 -0.04481082
C  0.32786905 0.57006489 0.00667835
H  -0.17248481 1.55151135 -0.04962876
H  1.43399591 0.64023089 -0.04936976
6
MD Step 100
C  -0.33185520 -0.57788018 0.00917314
H  0.20078651 -1.51971100 -0.04479438
H  -1.40952902 -0.57009581 -0.04481919
C  0.32727725 0.56884860 0.00663169
H  -0.17034165 1.55390706 -0.04952753
H  1.43363516 0.64352031 -0.04918965
6
MD Step 101
C  -0.33123910 -0.57710400 0.00917524
H  0.20149020 -1.52090309 -0.04462862
H  -1.41243854 -0.56952780 -0.04474631
C  0.32673383 0.56769844 0.00656725
H  -0.16814294 1.55587815 -0.04931728
H  1.43277620 0.64662968 -0.04889573
6
MD Step 102
C  -0.33062352 -0.57633145 0.00916034
H  0.20204411 -1.52211935 -0.04436418
H  -1.41536477 -0.56914217 -0.04457818
C  0.32624023 0.56662224 0.00648307
H  -0.16588279 1.55740503 -0.04898662
H  1.43143484 0.64955179 -0.04847834
6
MD Step 103
C  -0.33002045 -0.57557471 0.00912445
H  0.20245731 -1.52330467 -0.04397491
H  -1.41821060 -0.56891392 -0.04428594
C  0.32579482 0.56562452 0.00637458
H  -0.16354453 1.55849028 -0.04851091
H  1.42965057 0.65229511 -0.04791513
6
MD Step 104
C  -0.32943536 -0.57483924 0.00906926
H  0.20270262 -1.52444372 -0.04347345
H  -1.42092020 -0.56885492 -0.04388111
C  0.32540180 0.56471511 0.00624441
H  -0.16115250 1.55910664 -0.04790342
H  1.42743415 0.65483139 -0.04722018
6
MD Step 105
C  -0.32887594 -0.57413273 0.00899419
H  0.20277072 -1.52550776 -0.04285686
H  -1.42342649 -0.56896064 -0.04335911
C  0.32506204 0.56390010 0.00609237
H  -0.15871873 1.55925091 -0.04716264
H  1.42482100 0.65714971 -0.04639334
6
MD Step 106
C  -0.32835136 -0.57346441 0.00889696
H  0.20266670 -1.52645892 -0.04211033
H  -1.42565609 -0.56921384 -0.04270333
C  0.32477374 0.56318243 0.00591615
H  -0.15624662 1.55894025 -0.04627605
H  1.42186713 0.65925282 -0.04542371
6
MD Step 107
C  -0.32786819 -0.57284084 0.00877718
H  0.20238591 -1.52727490 -0.04123191
H  -1.42755481 -0.56960873 -0.04191053
C  0.32453648 0.56256584 0.00571580
H  -0.15375475 1.55818796 -0.04524376
H  1.41862438 0.66113286 -0.04431259
6
MD Step 108
C  -0.32743017 -0.57226570 0.00863655
H  0.20191344 -1.52795002 -0.04023316
H  -1.42908916 -0.57015165 -0.04099152
C  0.32435146 0.56205495 0.00549383
H  -0.15127737 1.55700264 -0.04407919
H  1.41513910 0.66277066 -0.04307417
6
MD Step 109
C  -0.32703508 -0.57173655 0.00848157
H  0.20120508 -1.52851440 -0.03915875
H  -1.43026585 -0.57087988 -0.03999111
C  0.32422467 0.56165839 0.00525880
H  -0.14888298 1.55536921 -0.04282742
H  1.41143272 0.66411675 -0.04175344
6
MD Step 110
C  -0.32669121 -0.57126172 0.00830862
H  0.20028797 -1.52893378 -0.03798419
H  -1.43103121 -0.57176241 -0.03888360
C  0.32414985 0.56137213 0.00500674
H  -0.14657505 1.55334866 -0.04146755
H  1.40760119 0.66519217 -0.04033084
6
MD Step 111
C  -0.32640410 -0.57084678 0.00811592
H  0.19918045 -1.52918958 -0.03669725
H  -1.43135197 -0.57277917 -0.03765602
C  0.32412215 0.56119279 0.00473587
H  -0.14437068 1.55099789 -0.03999066
H  1.40373402 0.66600812 -0.03879833
6
MD Step 112
C  -0.32617041 -0.57048813 0.00790918
H  0.19785423 -1.52931664 -0.03533636
H  -1.43125332 -0.57395824 -0.03634715
C  0.32414465 0.56112387 0.00445356
H  -0.14233733 1.54833155 -0.03843612
H  1.39987540 0.66652809 -0.03719513
6
MD Step 113
C  -0.32599764 -0.57019339 0.00768342
H  0.19635543 -1.52928262 -0.03386765
H  -1.43069792 -0.57525667 -0.03492251
C  0.32420785 0.56115588 0.00415416
H  -0.14047333 1.54544159 -0.03677436
H  1.39614299 0.66678893 -0.03549243
6
MD Step 114
C  -0.32588391 -0.56996057 0.00744162
H  0.19468064 -1.52911120 -0.03231066
H  -1.42970982 -0.57668252 -0.03340200
C  0.32431084 0.56128684 0.00384156
H  -0.13882913 1.54237331 -0.03502672
H  1.39260310 0.66677687 -0.03371135
6
MD Step 115
C  -0.32583159 -0.56979211 0.00718213
H  0.19286027 -1.52879895 -0.03065352
H  -1.42829107 -0.57821277 -0.03177390
C  0.32444723 0.56150863 0.00351399
H  -0.13742464 1.53920711 -0.03318455
H  1.38935155 0.66651077 -0.03184320
6
MD Step 116
C  -0.32583301 -0.56968020 0.00691189
H  0.19087107 -1.52840186 -0.02894154
H  -1.42650862 -0.57987928 -0.03008434
C  0.32462009 0.56182153 0.00317979
H  -0.13633439 1.53597050 -0.03129371
H  1.38642504 0.66595478 -0.02993308
6
MD Step 117
C  -0.32588406 -0.56962083 0.00663388
H  0.18871845 -1.52795271 -0.02719344
H  -1.42441116 -0.58168752 -0.02835273
C  0.32482807 0.56222076 0.00284253
H  -0.13560562 1.53271890 -0.02937444
H  1.38388154 0.66510078 -0.02800053
6
MD Step 118
C  -0.32598379 -0.56961332 0.00634747
H  0.18643334 -1.52746334 -0.02540415
H  -1.42203111 -0.58361920 -0.02657464
C  0.32506588 0.56269706 0.00250151
H  -0.13526027 1.52953133 -0.02742392
H  1.38179584 0.66396553 -0.02604205
6
MD Step 119
C  -0.32613012 -0.56965594 0.00605246
H  0.18404556 -1.52695046 -0.02357156
H  -1.41941050 -0.58565844 -0.02474869
C  0.32532899 0.56324125 0.00215652
H  -0.13532002 1.52648249 -0.02544181
H  1.38023125 0.66256410 -0.02405649
6
MD Step 120
C  -0.32632484 -0.56975113 0.00574437
H  0.18161372 -1.52640519 -0.02166587
H  -1.41657024 -0.58776198 -0.02284579
C  0.32560856 0.56383946 0.00180245
H  -0.13577572 1.52367086 -0.02340077
H  1.37926740 0.66093988 -0.02201569
6
MD Step 121
C  -0.32656211 -0.56989366 0.00542541
H  0.17915473 -1.52586254 -0.01970053
H  -1.41357984 -0.58992869 -0.02088034
C  0.32590353 0.56448500 0.00144167
H  -0.13665561 1.52114687 -0.02131483
H  1.37892835 0.65909415 -0.01993263
6
MD Step 122
C  -0.32683557 -0.57007801 0.00509779
H  0.17668613 -1.52535820 -0.01768893
H  -1.41051356 -0.59215735 -0.01886664
C  0.32621337 0.56517143 0.00107652
H  -0.13798236 1.51895368 -0.01919769
H  1.37922387 0.65702886 -0.01781999
6
MD Step 123
C  -0.32713667 -0.57029660 0.00476542
H  0.17421500 -1.52493847 -0.01565519
H  -1.40745965 -0.59445725 -0.01682979
C  0.32653994 0.56589453 0.00071112
H  -0.13978291 1.51711505 -0.01707314
H  1.38013829 0.65473582 -0.01570058
6
MD Step 124
C  -0.32746770 -0.57055301 0.00442149
H  0.17181530 -1.52458187 -0.01355565
H  -1.40444089 -0.59677108 -0.01472677
C  0.32687424 0.56663952 0.00033784
H  -0.14201084 1.51571155 -0.01489869
H  1.38170805 0.65227466 -0.01353127
6
MD Step 125
C  -0.32781437 -0.57083418 0.00407496
H  0.16946169 -1.52436402 -0.01144597
H  -1.40157940 -0.59913950 -0.01261407
C  0.32722455 0.56740876 -0.00003384
H  -0.14471005 1.51471408 -0.01272854
H  1.38385599 0.64960684 -0.01136552
6