56
MD Step 0
C  5.00758906 -0.65379476 0.53551475
C  4.13049906 0.38860524 0.35547475
C  2.84571906 0.20286524 -0.21844525
C  2.50898906 -1.13132476 -0.56544525
C  3.37641906 -2.19835476 -0.39494525
C  4.65777906 -1.98787476 0.15730475
C  1.88090906 1.23798524 -0.41817525
C  0.33630906 -0.47165476 -1.25194525
C  0.63139906 0.90006524 -0.94565525
C  -0.42269094 1.83393524 -1.21544525
H  -0.24133094 2.88652524 -1.03392525
C  -1.64045094 1.43303524 -1.66930525
C  -1.93414094 0.04013524 -1.90676525
C  -0.87921094 -0.89466476 -1.71978525
H  5.97095906 -0.45228476 0.98590475
H  4.42173906 1.38437524 0.66948475
H  3.02535906 -3.18085476 -0.67969525
H  -2.41438094 2.17235524 -1.82023525
H  -1.02908094 -1.95407476 -1.86757525
N  -3.14942094 -0.34827476 -2.31952525
N  5.53186906 -3.02461476 0.33588475
P  -3.91690094 -0.67050476 1.35645475
C  2.19872906 2.64221524 -0.04131525
C  1.47229906 3.28191524 0.97675475
C  3.22673906 3.34471524 -0.69110525
C  1.77337906 4.59529524 1.33734475
H  0.68153906 2.74325524 1.49099475
C  3.51545906 4.66195524 -0.33550525
H  3.78618906 2.86175524 -1.48759525
C  2.79209906 5.28868524 0.68124475
H  1.20854906 5.07510524 2.13145475
H  4.30468906 5.19852524 -0.85479525
H  3.02090906 6.31341524 0.96022475
F  -2.70965094 -1.49495476 0.57668475
F  -2.90373094 -0.36288476 2.58644475
F  -3.40704094 0.71609524 0.60136475
F  -5.10762094 0.16383524 2.07179475
F  -4.40893094 -2.05028476 2.04869475
F  -4.89507094 -0.96469476 0.05771475
C  -4.25812094 0.61222524 -2.38645525
H  -5.16151094 0.07830524 -2.67440525
H  -4.41905094 1.05822524 -1.40351525
H  -4.05491094 1.38319524 -3.13861525
C  -3.45660094 -1.77667476 -2.44635525
H  -4.49267094 -1.88555476 -2.76122525
H  -2.81172094 -2.24018476 -3.20204525
H  -3.33128094 -2.26530476 -1.47762525
C  5.12942906 -4.38319476 -0.00692525
H  5.95831906 -5.06313476 0.19110475
H  4.26573906 -4.71219476 0.58605475
H  4.86959906 -4.46440476 -1.06982525
C  6.83155906 -2.79936476 0.95728475
H  6.73456906 -2.43050476 1.98700475
H  7.37929906 -3.74162476 0.98545475
H  7.42952906 -2.07907476 0.38553475
O  1.28851906 -1.43420476 -1.07825525
56
MD Step 1
C  5.00754264 -0.65441629 0.53455642
C  4.13043336 0.38816599 0.35452820
C  2.84554148 0.20245886 -0.21913859
C  2.50867450 -1.13179924 -0.56590245
C  3.37594562 -2.19898145 -0.39547051
C  4.65744238 -1.98843626 0.15654625
C  1.88088035 1.23765289 -0.41879515
C  0.33585778 -0.47190022 -1.25210554
C  0.63107605 0.89974381 -0.94606821
C  -0.42278185 1.83372618 -1.21572351
H  -0.23021800 2.89840683 -1.02320155
C  -1.64088728 1.43281196 -1.66938425
C  -1.93452474 0.03999600 -1.90655139
C  -0.87984128 -0.89501475 -1.71971047
H  5.98297467 -0.44167283 0.99620831
H  4.43314866 1.39591306 0.67968508
H  3.03533915 -3.17150424 -0.66934166
H  -2.40451949 2.18403407 -1.80941398
H  -1.01893362 -1.94455865 -1.85651989
N  -3.15047917 -0.34877285 -2.31945793
N  5.53117707 -3.02566569 0.33476355
P  -3.91857887 -0.67179846 1.35541466
C  2.19880281 2.64172673 -0.04222972
C  1.47257492 3.28169963 0.97597293
C  3.22684172 3.34412235 -0.69232883
C  1.77387168 4.59516174 1.33635997
H  0.69207816 2.75360440 1.50192740
C  3.51576977 4.66144810 -0.33692065
H  3.79764208 2.87148914 -1.47870692
C  2.79261246 5.28841952 0.67994900
H  1.21962750 5.08661987 2.14234171
H  4.31677930 5.20943093 -0.84601071
H  3.03279059 6.32523829 0.97004519
F  -2.71063421 -1.49578753 0.57619467
F  -2.90425831 -0.36331708 2.58607638
F  -3.40788207 0.71559297 0.60073234
F  -5.10844558 0.16362150 2.07170377
F  -4.40990146 -2.05083057 2.04874678
F  -4.89634837 -0.96531136 0.05749501
C  -4.25870384 0.61222496 -2.38593658
H  -5.15217165 0.08881440 -2.66297153
H  -4.40853257 1.06978124 -1.39094431
H  -4.04436532 1.39489581 -3.12805514
C  -3.45741091 -1.77684572 -2.44569037
H  -4.48365417 -1.87483647 -2.74970724
H  -2.80101158 -2.23002114 -3.19126156
H  -3.32080636 -2.25484579 -1.46483854
C  5.12882874 -4.38392479 -0.00748394
H  5.96953483 -5.05369758 0.20164328
H  4.27522242 -4.70216114 0.59728168
H  4.87945190 -4.45436221 -1.06048795
C  6.83134009 -2.80009623 0.95624936
H  6.74546029 -2.41969453 1.99805289
H  7.39057519 -3.73240436 0.99545886
H  7.44089036 -2.06813098 0.39472936
O  1.28738103 -1.43541852 -1.07911979
56
MD Step 2
C  5.00804789 -0.65496292 0.53385157
C  4.13050397 0.38828585 0.35375387
C  2.84537507 0.20221065 -0.21980965
C  2.50846924 -1.13227251 -0.56633122
C  3.37559580 -2.19937499 -0.39591082
C  4.65714150 -1.98886841 0.15580943
C  1.88101291 1.23745178 -0.41934263
C  0.33537421 -0.47191035 -1.25226469
C  0.63060870 0.89945843 -0.94653201
C  -0.42253578 1.83397586 -1.21583849
H  -0.22009661 2.90783212 -1.01322648
C  -1.64148794 1.43263303 -1.66950137
C  -1.93473593 0.03998700 -1.90630886
C  -0.88051311 -0.89513925 -1.71962878
H  5.99218375 -0.43207152 1.00505367
H  4.44325133 1.40468574 0.68873560
H  3.04247751 -3.16912516 -0.66121066
H  -2.39707523 2.19685285 -1.79934400
H  -1.01026361 -1.94173092 -1.84668787
N  -3.15171260 -0.34926070 -2.31948686
N  5.53068012 -3.02671155 0.33370097
P  -3.92025988 -0.67308053 1.35442905
C  2.19882699 2.64103475 -0.04321237
C  1.47284166 3.28158134 0.97526864
C  3.22703320 3.34361175 -0.69357331
C  1.77423124 4.59527901 1.33565862
H  0.69919656 2.76108103 1.51462506
C  3.51637344 4.66121907 -0.33845818
H  3.81084005 2.87871136 -1.47310852
C  2.79326483 5.28870729 0.67881153
H  1.23030887 5.09744866 2.15303496
H  4.32850470 5.21954086 -0.83750442
H  3.04393104 6.33450505 0.97903777
F  -2.71133711 -1.49681793 0.57552852
F  -2.90455842 -0.36368253 2.58597226
F  -3.40860977 0.71540660 0.59993749
F  -5.10954552 0.16359901 2.07177052
F  -4.41098812 -2.05170340 2.04895456
F  -4.89785690 -0.96600081 0.05697790
C  -4.25895906 0.61276692 -2.38501544
H  -5.14941799 0.09591534 -2.65384132
H  -4.39812318 1.08015700 -1.37988622
H  -4.03410183 1.40712422 -3.11896457
C  -3.45788875 -1.77703219 -2.44465435
H  -4.48089253 -1.86584837 -2.74044339
H  -2.78890708 -2.22207352 -3.18326115
H  -3.31077397 -2.24503716 -1.45215497
C  5.12855943 -4.38471399 -0.00771340
H  5.98086220 -5.04560091 0.21178456
H  4.28144989 -4.69401871 0.60969120
H  4.88731222 -4.44575500 -1.05701130
C  6.83133808 -2.80046134 0.95552039
H  6.75569350 -2.40966716 2.00769864
H  7.40290712 -3.72620209 1.00509759
H  7.45175455 -2.05747231 0.40324364
O  1.28618635 -1.43700390 -1.08006785
56
MD Step 3
C  5.00934993 -0.65531980 0.53353528
C  4.13083721 0.38920276 0.35326448
C  2.84523274 0.20214083 -0.22045389
C  2.50834552 -1.13276216 -0.56674761
C  3.37546303 -2.19934917 -0.39619590
C  4.65692742 -1.98914127 0.15511475
C  1.88128822 1.23736671 -0.41982396
C  0.33485949 -0.47167814 -1.25242865
C  0.63002872 0.89921274 -0.94704155
C  -0.42187576 1.83491034 -1.21572185
H  -0.21212895 2.91132933 -1.00494484
C  -1.64221405 1.43263806 -1.66961786
C  -1.93485444 0.04010501 -1.90607279
C  -0.88115700 -0.89488258 -1.71949586
H  5.99512075 -0.42471747 1.01063460
H  4.45052712 1.40723508 0.69523415
H  3.04563793 -3.17603907 -0.65612813
H  -2.39211736 2.20967142 -1.79027250
H  -1.00383100 -1.94750504 -1.83854584
N  -3.15307808 -0.34966375 -2.31959798
N  5.53047849 -3.02766591 0.33274605
P  -3.92193526 -0.67433611 1.35351464
C  2.19879943 2.64015137 -0.04427005
C  1.47313312 3.28164304 0.97467239
C  3.22734881 3.34325931 -0.69481679
C  1.77443922 4.59580305 1.33536975
H  0.70237020 2.76485571 1.52896232
C  3.51740113 4.66143150 -0.34013439
H  3.82556598 2.88269448 -1.47117942
C  2.79412898 5.28979692 0.67791106
H  1.24133216 5.10593075 2.16167402
H  4.33792708 5.22702741 -0.82856258
H  3.05331185 6.33763335 0.98605197
F  -2.71176425 -1.49804515 0.57468818
F  -2.90464596 -0.36398743 2.58611286
F  -3.40922784 0.71552402 0.59898627
F  -5.11091295 0.16375953 2.07198741
F  -4.41219015 -2.05290020 2.04931335
F  -4.89959608 -0.96676511 0.05616580
C  -4.25861820 0.61421105 -2.38341249
H  -5.15559612 0.09853632 -2.64792841
H  -4.38784027 1.08760071 -1.37316131
H  -4.02487284 1.41839941 -3.11092957
C  -3.45778003 -1.77720207 -2.44297290
H  -4.48621720 -1.85961845 -2.73428757
H  -2.77610116 -2.21691115 -3.17836589
H  -3.30194145 -2.23556329 -1.44172874
C  5.12884361 -4.38556231 -0.00736806
H  5.99057867 -5.03845372 0.22071346
H  4.28408474 -4.68840771 0.62262055
H  4.89236265 -4.43950577 -1.06101975
C  6.83171338 -2.80019873 0.95530800
H  6.76463078 -2.40181448 2.01302505
H  7.41551908 -3.72303979 1.01388081
H  7.46034841 -2.04889590 0.41145380
O  1.28495661 -1.43893587 -1.08108380
56
MD Step 4
C  5.01149091 -0.65540200 0.53364998
C  4.13150705 0.39095207 0.35311131
C  2.84513736 0.20226253 -0.22106358
C  2.50826597 -1.13328312 -0.56717090
C  3.37553039 -2.19903610 -0.39634441
C  4.65685362 -1.98923021 0.15448385
C  1.88167902 1.23737336 -0.42025043
C  0.33432072 -0.47121762 -1.25260359
C  0.62937610 0.89901797 -0.94758716
C  -0.42078867 1.83657803 -1.21534791
H  -0.20702130 2.90753371 -0.99889565
C  -1.64304229 1.43299559 -1.66969550
C  -1.93496431 0.04034702 -1.90587741
C  -0.88174521 -0.89437509 -1.71930609
H  5.99054957 -0.42034356 1.01219426
H  4.45416669 1.40232580 0.69850493
H  3.04502958 -3.19069074 -0.65383909
H  -2.38922504 2.22099500 -1.78234886
H  -0.99984454 -1.96028977 -1.83208788
N  -3.15453323 -0.34991863 -2.31977960
N  5.53065077 -3.02846054 0.33193796
P  -3.92359664 -0.67555135 1.35268636
C  2.19872360 2.63910571 -0.04540371
C  1.47337677 3.28188775 0.97428382
C  3.22788878 3.34307846 -0.69612825
C  1.77452209 4.59683906 1.33555283
H  0.70247668 2.76512233 1.54388544
C  3.51890683 4.66218680 -0.34191976
H  3.84072292 2.88353089 -1.47206472
C  2.79523467 5.29174918 0.67727505
H  1.25294628 5.11093164 2.16713177
H  4.34394027 5.23071256 -0.81898790
H  3.06039408 6.33315937 0.99051446
F  -2.71192556 -1.49946467 0.57367894
F  -2.90453902 -0.36423901 2.58647495
F  -3.40974218 0.71592793 0.59788724
F  -5.11253538 0.16409163 2.07234435
F  -4.41350464 -2.05441185 2.04981567
F  -4.90156090 -0.96760457 0.05506687
C  -4.25770100 0.61667022 -2.38106667
H  -5.16947672 0.09766549 -2.64503628
H  -4.37793580 1.09112614 -1.37204463
H  -4.01737854 1.42737317 -3.10358231
C  -3.45706117 -1.77737105 -2.44058360
H  -4.49815980 -1.85675493 -2.73110577
H  -2.76396069 -2.21453387 -3.17605406
H  -3.29493475 -2.22640411 -1.43501204
C  5.12973844 -4.38649273 -0.00639154
H  5.99733583 -5.03204946 0.22773934
H  4.28378686 -4.68552654 0.63477266
H  4.89450783 -4.43625297 -1.07130175
C  6.83263277 -2.79921235 0.95573677
H  6.77161952 -2.39700066 2.01252562
H  7.42720288 -3.72202888 1.02133503
H  7.46543191 -2.04363988 0.41938714
O  1.28371382 -1.44117911 -1.08215025
56
MD Step 5
C  5.01429796 -0.65516764 0.53413585
C  4.13252211 0.39335515 0.35327427
C  2.84512140 0.20257950 -0.22162822
C  2.50818904 -1.13384657 -0.56762118
C  3.37569503 -2.19881719 -0.39644114
C  4.65697294 -1.98911833 0.15393809
C  1.88215234 1.23744017 -0.42063707
C  0.33376951 -0.47056389 -1.25279593
C  0.62869547 0.89889085 -0.94815611
C  -0.41933141 1.83883337 -1.21474023
H  -0.20492444 2.89742576 -0.99511515
C  -1.64394097 1.43386262 -1.66969450
C  -1.93514354 0.04071305 -1.90575255
C  -0.88228439 -0.89396197 -1.71908042
H  5.97964656 -0.41907641 1.01014819
H  4.45418198 1.39112918 0.69870583
H  3.04192577 -3.20844415 -0.65327474
H  -2.38782654 2.22937759 -1.77567530
H  -0.99808710 -1.97580690 -1.82698856
N  -3.15603791 -0.34997742 -2.32002414
N  5.53124720 -3.02904798 0.33130309
P  -3.92523548 -0.67671384 1.35195670
C  2.19860880 2.63794748 -0.04660731
C  1.47343401 3.28226222 0.97424553
C  3.22879061 3.34303951 -0.69762889
C  1.77455866 4.59841818 1.33617368
H  0.70135186 2.76283269 1.55768292
C  3.52084515 4.66350125 -0.34373337
H  3.85462625 2.88190900 -1.47410196
C  2.79656121 5.29442217 0.67687229
H  1.26478230 5.11206280 2.16931338
H  4.34655318 5.23029415 -0.80920176
H  3.06521805 6.32194802 0.99253360
F  -2.71183644 -1.50106821 0.57250941
F  -2.90425858 -0.36444528 2.58703247
F  -3.41016087 0.71659615 0.59665102
F  -5.11439623 0.16458100 2.07282899
F  -4.41492677 -2.05622339 2.05045148
F  -4.90374202 -0.96851777 0.05369465
C  -4.25647881 0.62000794 -2.37811568
H  -5.18687603 0.09589416 -2.64408609
H  -4.36885785 1.09066364 -1.37603216
H  -4.01213342 1.43316249 -3.09683274
C  -3.45591951 -1.77757575 -2.43762281
H  -4.51260702 -1.85745892 -2.72997117
H  -2.75419905 -2.21452858 -3.17525460
H  -3.29014731 -2.21792856 -1.43240737
C  5.13114690 -4.38752252 -0.00491028
H  6.00050446 -5.02655182 0.23242322
H  4.28186606 -4.68522698 0.64452168
H  4.89426944 -4.43634188 -1.08430024
C  6.83422381 -2.79756569 0.95683464
H  6.77604506 -2.39544065 2.00634070
H  7.43662031 -3.72182743 1.02703863
H  7.46653484 -2.04211937 0.42660374
O  1.28247980 -1.44368917 -1.08324873
56
MD Step 6
C  5.01740526 -0.65462483 0.53483714
C  4.13382256 0.39604170 0.35366310
C  2.84522379 0.20308354 -0.22213624
C  2.50807710 -1.13446237 -0.56811651
C  3.37582979 -2.19913129 -0.39658559
C  4.65733197 -1.98880013 0.15349576
C  1.88267306 1.23753190 -0.42100094
C  0.33321737 -0.46977155 -1.25301353
C  0.62803315 0.89885053 -0.94873413
C  -0.41762585 1.84135455 -1.21396993
H  -0.20542832 2.88416808 -0.99312761
C  -1.64485196 1.43534449 -1.66957389
C  -1.93545432 0.04120612 -1.90572106
C  -0.88279881 -0.89403234 -1.71884602
H  5.96581512 -0.42042445 1.00602825
H  4.45139178 1.37704522 0.69680925
H  3.03794519 -3.22381723 -0.65315293
H  -2.38751698 2.23381318 -1.77034355
H  -0.99816093 -1.98907806 -1.82284890
N  -3.15755480 -0.34980871 -2.32032802
N  5.53228853 -3.02940049 0.33085440
P  -3.92684291 -0.67781302 1.35133540
C  2.19846998 2.63674928 -0.04786685
C  1.47316844 3.28269770 0.97469236
C  3.23018040 3.34310034 -0.69943216
C  1.77467152 4.60048976 1.33710477
H  0.70101141 2.75920442 1.56854539
C  3.52307400 4.66530081 -0.34545260
H  3.86554288 2.87873132 -1.47551119
C  2.79803835 5.29748927 0.67661523
H  1.27590111 5.10972372 2.16918451
H  4.34689598 5.22636991 -0.80018235
H  3.06841159 6.30704419 0.99289647
F  -2.71151765 -1.50284386 0.57119141
F  -2.90382802 -0.36461472 2.58775719
F  -3.41049408 0.71750220 0.59529005
F  -5.11647525 0.16521075 2.07342704
F  -4.41644999 -2.05831435 2.05120833
F  -4.90612617 -0.96950169 0.05206746
C  -4.25531573 0.62392515 -2.37483077
H  -5.20268263 0.09618441 -2.64371205
H  -4.36118246 1.08704827 -1.38293447
H  -4.00938605 1.43553017 -3.09095536
C  -3.45464050 -1.77784441 -2.43435267
H  -4.52464720 -1.86161326 -2.72966305
H  -2.74841247 -2.21630804 -3.17476988
H  -3.28769276 -2.21086101 -1.43320795
C  5.13287485 -4.38864306 -0.00314992
H  6.00029849 -5.02252973 0.23464038
H  4.27977761 -4.68716740 0.65035631
H  4.89247500 -4.43984764 -1.09561384
C  6.83653451 -2.79544447 0.95852934
H  6.77739100 -2.39667949 1.99622505
H  7.44267310 -3.72118816 1.03067770
H  7.46402021 -2.04385606 0.43222308
O  1.28127557 -1.44641370 -1.08436012
56
MD Step 7
C  5.02032338 -0.65382692 0.53553211
C  4.13529292 0.39851828 0.35413525
C  2.84548410 0.20375214 -0.22257779
C  2.50790450 -1.13514261 -0.56867011
C  3.37583606 -2.20030239 -0.39684957
C  4.65796460 -1.98828501 0.15316867
C  1.88320743 1.23761453 -0.42135918
C  0.33267056 -0.46891108 -1.25326695
C  0.62743524 0.89891516 -0.94930655
C  -0.41584030 1.84370587 -1.21314299
H  -0.20768173 2.87241895 -0.99205962
C  -1.64568658 1.43746697 -1.66929510
C  -1.93593512 0.04183034 -1.90579717
C  -0.88331675 -0.89486573 -1.71862133
H  5.95396783 -0.42340719 1.00215833
H  4.44722386 1.36500496 0.69439329
H  3.03443093 -3.23249653 -0.65247446
H  -2.38824876 2.23398712 -1.76644775
H  -0.99969303 -1.99621988 -1.81937732
N  -3.15904947 -0.34939623 -2.32069009
N  5.53376966 -3.02950713 0.33059294
P  -3.92840981 -0.67884056 1.35082948
C  2.19832697 2.63560623 -0.04916010
C  1.47250585 3.28314495 0.97570276
C  3.23212715 3.34323170 -0.70159267
C  1.77500473 4.60293098 1.33815044
H  0.70295218 2.75526943 1.57511279
C  3.52538259 4.66743550 -0.34693553
H  3.87220393 2.87477043 -1.47500304
C  2.79955866 5.30049906 0.67637554
H  1.28499720 5.10496006 2.16852180
H  4.34693954 5.22025242 -0.79325581
H  3.07106635 6.29305415 0.99291380
F  -2.71099489 -1.50477641 0.56973973
F  -2.90327266 -0.36475615 2.58861938
F  -3.41075384 0.71861608 0.59381837
F  -5.11874908 0.16596186 2.07412247
F  -4.41806618 -2.06065915 2.05207159
F  -4.90869666 -0.97055185 0.05020787
C  -4.25451927 0.62806276 -2.37154016
H  -5.21272867 0.10078152 -2.64277899
H  -4.35551495 1.08182843 -1.38933289
H  -4.00909981 1.43490069 -3.08653770
C  -3.45349457 -1.77817950 -2.43107353
H  -4.53032057 -1.86887530 -2.72912570
H  -2.74766740 -2.21932821 -3.17365311
H  -3.28741507 -2.20614076 -1.43581124
C  5.13469971 -4.38981578 -0.00134296
H  5.99767232 -5.02085064 0.23457091
H  4.27867256 -4.69095424 0.65127776
H  4.88994933 -4.44660052 -1.10150176
C  6.83951187 -2.79310527 0.96065622
H  6.77530041 -2.39967486 1.98524801
H  7.44479329 -3.71938430 1.03209884
H  7.45897799 -2.04759572 0.43507744
O  1.28012093 -1.44929410 -1.08546521
56
MD Step 8
C  5.02258156 -0.65284753 0.53600036
C  4.13680026 0.40030879 0.35454074
C  2.84593511 0.20454669 -0.22294805
C  2.50766318 -1.13590391 -0.56928843
C  3.37567077 -2.20244905 -0.39725690
C  4.65888607 -1.98760027 0.15295901
C  1.88372653 1.23766070 -0.42172691
C  0.33212667 -0.46806393 -1.25357000
C  0.62694657 0.89909818 -0.94985917
C  -0.41415475 1.84546609 -1.21237158
H  -0.21068951 2.86687157 -0.99094117
C  -1.64633599 1.44016660 -1.66882740
C  -1.93659564 0.04258860 -1.90598563
C  -0.88386349 -0.89654783 -1.71840978
H  5.94895989 -0.42691304 1.00089369
H  4.44322712 1.35993483 0.69312188
H  3.03212750 -3.23241163 -0.65076382
H  -2.39035938 2.23033262 -1.76407685
H  -1.00245200 -1.99544362 -1.81646861
N  -3.16049077 -0.34873662 -2.32110935
N  5.53566606 -3.02937058 0.33051024
P  -3.92992732 -0.67979074 1.35044350
C  2.19820328 2.63463190 -0.05045744
C  1.47146791 3.28359331 0.97726842
C  3.23461452 3.34343018 -0.70407852
C  1.77568854 4.60557528 1.33909866
H  0.70773889 2.75159236 1.57682626
C  3.52754784 4.66971548 -0.34805618
H  3.87412895 2.87045553 -1.47213565
C  2.80100876 5.30299960 0.67602130
H  1.29075646 5.09912687 2.16936091
H  4.34888970 5.21355489 -0.78973544
H  3.07439362 6.28478160 0.99401213
F  -2.71029796 -1.50684779 0.56817186
F  -2.90261919 -0.36487851 2.58958821
F  -3.41095358 0.71990510 0.59225164
F  -5.12119165 0.16681349 2.07489777
F  -4.41976581 -2.06322761 2.05302461
F  -4.91143384 -0.97166255 0.04814230
C  -4.25426304 0.63209321 -2.36854029
H  -5.21479247 0.11066134 -2.64065174
H  -4.35235021 1.07682806 -1.39154965
H  -4.01098757 1.43222518 -3.08431559
C  -3.45266851 -1.77855758 -2.42804165
H  -4.52762748 -1.87875412 -2.72773456
H  -2.75224151 -2.22323309 -3.17145314
H  -3.28895679 -2.20468321 -1.43820471
C  5.13643321 -4.39098484 0.00033263
H  5.99400463 -5.02244451 0.23262180
H  4.27910982 -4.69624050 0.64705057
H  4.88731634 -4.45621369 -1.09981286
C  6.84300717 -2.79081043 0.96299091
H  6.76964367 -2.40303950 1.97708704
H  7.44308385 -3.71642784 1.03133958
H  7.45293566 -2.05163354 0.43399640
O  1.27903416 -1.45226754 -1.08654522
56
MD Step 9
C  5.02391973 -0.65174073 0.53611734
C  4.13825102 0.40114665 0.35478757
C  2.84659573 0.20541208 -0.22325023
C  2.50736430 -1.13676741 -0.56997036
C  3.37535543 -2.20545751 -0.39777847
C  4.66008889 -1.98679248 0.15285725
C  1.88420912 1.23765438 -0.42211552
C  0.33157411 -0.46731727 -1.25393926
C  0.62660969 0.89940457 -0.95037906
C  -0.41271618 1.84640293 -1.21173352
H  -0.21373089 2.87024036 -0.98915147
C  -1.64669345 1.44330107 -1.66815389
C  -1.93741557 0.04348049 -1.90628182
C  -0.88445803 -0.89894463 -1.71819927
H  5.95341933 -0.43022039 1.00353564
H  4.44037369 1.36459473 0.69398293
H  3.03106692 -3.22408321 -0.64813441
H  -2.39443818 2.22388566 -1.76329268
H  -1.00639864 -1.98739272 -1.81421676
N  -3.16185253 -0.34783784 -2.32158331
N  5.53794032 -3.02900530 0.33059065
P  -3.93138748 -0.68066068 1.35017991
C  2.19812441 2.63395034 -0.05172378
C  1.47017932 3.28407508 0.97928551
C  3.23753330 3.34372015 -0.70676741
C  1.77679681 4.60825469 1.33979185
H  0.71487998 2.74816179 1.57405327
C  3.52941125 4.67196253 -0.34874714
H  3.87173047 2.86579337 -1.46741249
C  2.80231715 5.30471257 0.67547261
H  1.29231257 5.09341581 2.17322020
H  4.35433755 5.20761623 -0.79046227
H  3.07917924 6.28525774 0.99709972
F  -2.70945986 -1.50903764 0.56650771
F  -2.90189515 -0.36499068 2.59063217
F  -3.41110757 0.72133479 0.59060714
F  -5.12377464 0.16774346 2.07573424
F  -4.42153807 -2.06598558 2.05404905
F  -4.91431544 -0.97282706 0.04590075
C  -4.25456317 0.63580774 -2.36599166
H  -5.20894151 0.12537418 -2.63729038
H  -4.35191276 1.07350566 -1.38705657
H  -4.01459029 1.42872162 -3.08492879
C  -3.45223185 -1.77894342 -2.42539594
H  -4.51689417 -1.89068108 -2.72540338
H  -2.76153858 -2.22791875 -3.16830986
H  -3.29187277 -2.20707788 -1.43865274
C  5.13797434 -4.39210092 0.00178714
H  5.99062946 -5.02797699 0.22929954
H  4.28094699 -4.70277766 0.63828588
H  4.88490201 -4.46812332 -1.09036477
C  6.84680670 -2.78874860 0.96531416
H  6.76060415 -2.40547297 1.97485388
H  7.43830028 -3.71307258 1.02862799
H  7.44740572 -2.05433478 0.42820620
O  1.27803162 -1.45526930 -1.08758232
56
MD Step 10
C  5.02441551 -0.65051533 0.53591824
C  4.13962964 0.40110705 0.35488795
C  2.84746697 0.20627891 -0.22349660
C  2.50703610 -1.13775630 -0.57070759
C  3.37497586 -2.20899344 -0.39833544
C  4.66154206 -1.98592560 0.15284196
C  1.88464386 1.23759387 -0.42253138
C  0.33099461 -0.46675880 -1.25439231
C  0.62646296 0.89982822 -0.95085553
C  -0.41160698 1.84659515 -1.21124204
H  -0.21664768 2.88183377 -0.98675165
C  -1.64668345 1.44667869 -1.66727626
C  -1.93834728 0.04450137 -1.90667258
C  -0.88511145 -0.90171746 -1.71796462
H  5.96629741 -0.43333338 1.00958978
H  4.43858972 1.37806858 0.69674703
H  3.03056763 -3.21053545 -0.64526005
H  -2.40105655 2.21596797 -1.76409824
H  -1.01169031 -1.97501751 -1.81289062
N  -3.16311676 -0.34671840 -2.32210728
N  5.54054697 -3.02843704 0.33081283
P  -3.93278396 -0.68145052 1.35003932
C  2.19811590 2.63368539 -0.05292143
C  1.46885167 3.28465855 0.98156661
C  3.24069459 3.34414737 -0.70946376
C  1.77831301 4.61083932 1.34018936
H  0.72295568 2.74443662 1.56799801
C  3.53094538 4.67405604 -0.34903282
H  3.86620615 2.86041415 -1.46214622
C  2.80349298 5.30566427 0.67474622
H  1.28963096 5.08844032 2.18040318
H  4.36351114 5.20300976 -0.79542599
H  3.08533129 6.29422814 1.00204641
F  -2.70851579 -1.51132379 0.56476920
F  -2.90112841 -0.36510131 2.59171951
F  -3.41123044 0.72286980 0.58890365
F  -5.12646793 0.16872868 2.07661226
F  -4.42337098 -2.06889555 2.05512516
F  -4.91731695 -0.97403779 0.04351658
C  -4.25527684 0.63918535 -2.36384041
H  -5.19753718 0.14309927 -2.63325711
H  -4.35404859 1.07240797 -1.37568624
H  -4.01938271 1.42554553 -3.08865326
C  -3.45212283 -1.77930894 -2.42310818
H  -4.50072489 -1.90408105 -2.72258877
H  -2.77417318 -2.23351803 -3.16490111
H  -3.29574858 -2.21332103 -1.43634937
C  5.13934441 -4.39314620 0.00303814
H  5.98836886 -5.03753246 0.22507785
H  4.28340429 -4.71042202 0.62636241
H  4.88270221 -4.48164646 -1.07496877
C  6.85067710 -2.78696356 0.96748760
H  6.74877573 -2.40625279 1.97980909
H  7.43168052 -3.71060141 1.02435182
H  7.44340162 -2.05470950 0.41773783
O  1.27712742 -1.45823538 -1.08856021
56
MD Step 11
C  5.02443603 -0.64914828 0.53557521
C  4.14098446 0.40056625 0.35494475
C  2.84853299 0.20706873 -0.22370698
C  2.50671841 -1.13889083 -0.57148603
C  3.37466944 -2.21255873 -0.39881217
C  4.66319496 -1.98507438 0.15288255
C  1.88503044 1.23749216 -0.42297528
C  0.33036883 -0.46647121 -1.25494491
C  0.62653686 0.90035167 -0.95128141
C  -0.41084633 1.84640105 -1.21084938
H  -0.21977105 2.89788767 -0.98442885
C  -1.64629048 1.45009973 -1.66621712
C  -1.93932172 0.04564291 -1.90713760
C  -0.88582884 -0.90438667 -1.71767358
H  5.98341323 -0.43682538 1.01702622
H  4.43692783 1.39621253 0.70012139
H  3.02938051 -3.19669203 -0.64323523
H  -2.41043011 2.20778575 -1.76640259
H  -1.01862406 -1.96289666 -1.81286826
N  -3.16427689 -0.34540687 -2.32267482
N  5.54343499 -3.02770337 0.33115077
P  -3.93411253 -0.68216336 1.35002056
C  2.19820130 2.63394872 -0.05401341
C  1.46774424 3.28542930 0.98387373
C  3.24386365 3.34476419 -0.71193589
C  1.78012552 4.61325418 1.34038531
H  0.73000419 2.73956531 1.56038773
C  3.53226910 4.67594847 -0.34903236
H  3.85921500 2.85375520 -1.45808708
C  2.80462395 5.30616709 0.67395218
H  1.28360042 5.08411714 2.18978965
H  4.37508935 5.19943213 -0.80369325
H  3.09189405 6.30832431 1.00770607
F  -2.70750222 -1.51368275 0.56297983
F  -2.90034658 -0.36521865 2.59281880
F  -3.41133677 0.72447457 0.58716111
F  -5.12924014 0.16974562 2.07751171
F  -4.42525160 -2.07191752 2.05623226
F  -4.92041190 -0.97528631 0.04102620
C  -4.25612135 0.64240246 -2.36183075
H  -5.18487555 0.16092260 -2.62962169
H  -4.35824506 1.07309157 -1.35978706
H  -4.02487819 1.42348868 -3.09519842
C  -3.45216093 -1.77964786 -2.42098581
H  -4.48351752 -1.91842985 -2.72018023
H  -2.78822947 -2.24029927 -3.16223433
H  -3.30026813 -2.22271687 -1.43170685
C  5.14068635 -4.39414876 0.00421302
H  5.98728017 -5.05045252 0.22031771
H  4.28530643 -4.71908859 0.61318359
H  4.88041150 -4.49605266 -1.05713593
C  6.85440897 -2.78533858 0.96949136
H  6.73521534 -2.40549359 1.99073657
H  7.42463816 -3.71039861 1.01900353
H  7.44115163 -2.05277148 0.40364437
O  1.27633313 -1.46110509 -1.08946464
56
MD Step 12
C  5.02445792 -0.64762250 0.53530867
C  4.14237669 0.40002294 0.35509145
C  2.84976602 0.20770144 -0.22390514
C  2.50645536 -1.14018187 -0.57228775
C  3.37458821 -2.21562158 -0.39908630
C  4.66498496 -1.98431383 0.15294429
C  1.88537975 1.23737492 -0.42344253
C  0.32968366 -0.46652583 -1.25560738
C  0.62684897 0.90094838 -0.95165455
C  -0.41041645 1.84629793 -1.21047907
H  -0.22358080 2.91337287 -0.98310958
C  -1.64557731 1.45339473 -1.66501947
C  -1.94025694 0.04689552 -1.90765108
C  -0.88661890 -0.90646314 -1.71729826
H  5.99949298 -0.44136252 1.02329785
H  4.43420083 1.41365554 0.70244849
H  3.02611648 -3.18791898 -0.64323727
H  -2.42214403 2.20009765 -1.76999425
H  -1.02747787 -1.95577023 -1.81450781
N  -3.16533865 -0.34394097 -2.32327837
N  5.54654842 -3.02685410 0.33157476
P  -3.93537129 -0.68280492 1.35012053
C  2.19840032 2.63482867 -0.05496687
C  1.46710340 3.28645796 0.98597026
C  3.24681097 3.34560555 -0.71397057
C  1.78205837 4.61546767 1.34056865
H  0.73415494 2.73279074 1.55295036
C  3.53359953 4.67764466 -0.34892663
H  3.85236994 2.84538280 -1.45684400
C  2.80583462 5.30666570 0.67324445
H  1.27575858 5.07990337 2.19926615
H  4.38671920 5.19602972 -0.81370648
H  3.09751525 6.32276126 1.01246314
F  -2.70645611 -1.51609014 0.56116418
F  -2.89957650 -0.36535048 2.59389947
F  -3.41144082 0.72611390 0.58540006
F  -5.13205913 0.17077073 2.07841241
F  -4.42716624 -2.07500978 2.05734921
F  -4.92357206 -0.97656350 0.03846854
C  -4.25674847 0.64575657 -2.35962060
H  -5.17609827 0.17551539 -2.62766360
H  -4.36377517 1.07453945 -1.34318487
H  -4.03069963 1.42281829 -3.10366348
C  -3.45210972 -1.77998506 -2.41874641
H  -4.47031082 -1.93324571 -2.71920904
H  -2.80168017 -2.24847813 -3.16129487
H  -3.30520547 -2.23401610 -1.42611259
C  5.14221418 -4.39518134 0.00551742
H  5.98674721 -5.06542793 0.21527009
H  4.28548928 -4.72864691 0.60078515
H  4.87755172 -4.51062259 -1.04130670
C  6.85784799 -2.78366327 0.97139514
H  6.72136418 -2.40398799 2.00446725
H  7.41837885 -3.71338063 1.01311497
H  7.44016957 -2.04946997 0.38786650
O  1.27565748 -1.46382354 -1.09028391
56
MD Step 13
C  5.02489006 -0.64595541 0.53530104
C  4.14383612 0.39991532 0.35543331
C  2.85113234 0.20810269 -0.22411493
C  2.50628781 -1.14162470 -0.57309312
C  3.37483600 -2.21781285 -0.39907569
C  4.66684656 -1.98370810 0.15299410
C  1.88571280 1.23727678 -0.42392380
C  0.32893953 -0.46697577 -1.25638116
C  0.62739909 0.90158655 -0.95197902
C  -0.41028913 1.84670976 -1.21006102
H  -0.22838195 2.92392176 -0.98354861
C  -1.64468235 1.45644384 -1.66374286
C  -1.94106810 0.04825137 -1.90818372
C  -0.88751198 -0.90762844 -1.71683103
H  6.01014628 -0.44730773 1.02632496
H  4.42956047 1.42581298 0.70239221
H  3.01997288 -3.18778756 -0.64599294
H  -2.43509061 2.19310473 -1.77453998
H  -1.03825017 -1.95650071 -1.81796456
N  -3.16631677 -0.34236574 -2.32390944
N  5.54982614 -3.02595077 0.33205261
P  -3.93656049 -0.68338293 1.35033383
C  2.19872744 2.63638113 -0.05575592
C  1.46709563 3.28776168 0.98767783
C  3.24936550 3.34666178 -0.71543007
C  1.78392266 4.61746579 1.34094950
H  0.73434297 2.72394078 1.54683093
C  3.53517011 4.67916516 -0.34890603
H  3.84670160 2.83536303 -1.45926429
C  2.80723753 5.30756346 0.67276308
H  1.26780622 5.07520582 2.20652341
H  4.39590025 5.19191696 -0.82377866
H  3.10099114 6.33323591 1.01486865
F  -2.70541435 -1.51852115 0.55934729
F  -2.89884378 -0.36550395 2.59493256
F  -3.41155650 0.72775316 0.58364104
F  -5.13489268 0.17178084 2.07929461
F  -4.42910079 -2.07812986 2.05845491
F  -4.92676786 -0.97785958 0.03588436
C  -4.25689951 0.64952305 -2.35693815
H  -5.17518397 0.18426723 -2.62831626
H  -4.36987934 1.07572605 -1.32971281
H  -4.03659647 1.42331568 -3.11269024
C  -3.45179531 -1.78038726 -2.41614416
H  -4.46496905 -1.94795893 -2.72037018
H  -2.81287647 -2.25798418 -3.16263550
H  -3.31036811 -2.24572623 -1.42131306
C  5.14412172 -4.39635045 0.00715491
H  5.98584826 -5.08080846 0.21013909
H  4.28327553 -4.73878149 0.59087455
H  4.87373408 -4.52464635 -1.03150237
C  6.86090919 -2.78174869 0.97329094
H  6.70882281 -2.40276844 2.01716844
H  7.41357708 -3.71949899 1.00720161
H  7.43961467 -2.04624446 0.37278131
O  1.27510616 -1.46634389 -1.09100927
56
MD Step 14
C  5.02596915 -0.64420583 0.53564762
C  4.14534362 0.40050931 0.35601550
C  2.85259686 0.20821005 -0.22435723
C  2.50624796 -1.14319590 -0.57388269
C  3.37541226 -2.21908575 -0.39877841
C  4.66871925 -1.98330210 0.15300537
C  1.88605872 1.23723694 -0.42440630
C  0.32815449 -0.46784993 -1.25725683
C  0.62816613 0.90223316 -0.95226560
C  -0.41044059 1.84789691 -1.20955327
H  -0.23414372 2.92702454 -0.98608512