 Entering Gaussian System, Link 0=g16
 Initial command:
 /software/gaussian/g16-c01/avx2/g16/l1.exe "/gpfs/fs2/scratch/bweight/software/many_molecule_many_mode_NAMD/src/NAMD/TEST_NVT/TRAJ/traj-17/G16/GS_NEW/Gau-17831.inp" -scrdir="/gpfs/fs2/scratch/bweight/software/many_molecule_many_mode_NAMD/src/NAMD/TEST_NVT/TRAJ/traj-17/G16/GS_NEW/"
 Entering Link 1 = /software/gaussian/g16-c01/avx2/g16/l1.exe PID=     17832.
  
 Copyright (c) 1988-2019, Gaussian, Inc.  All Rights Reserved.
  
 This is part of the Gaussian(R) 16 program.  It is based on
 the Gaussian(R) 09 system (copyright 2009, Gaussian, Inc.),
 the Gaussian(R) 03 system (copyright 2003, Gaussian, Inc.),
 the Gaussian(R) 98 system (copyright 1998, Gaussian, Inc.),
 the Gaussian(R) 94 system (copyright 1995, Gaussian, Inc.),
 the Gaussian 92(TM) system (copyright 1992, Gaussian, Inc.),
 the Gaussian 90(TM) system (copyright 1990, Gaussian, Inc.),
 the Gaussian 88(TM) system (copyright 1988, Gaussian, Inc.),
 the Gaussian 86(TM) system (copyright 1986, Carnegie Mellon
 University), and the Gaussian 82(TM) system (copyright 1983,
 Carnegie Mellon University). Gaussian is a federally registered
 trademark of Gaussian, Inc.
  
 This software contains proprietary and confidential information,
 including trade secrets, belonging to Gaussian, Inc.
  
 This software is provided under written license and may be
 used, copied, transmitted, or stored only in accord with that
 written license.
  
 The following legend is applicable only to US Government
 contracts under FAR:
  
                    RESTRICTED RIGHTS LEGEND
  
 Use, reproduction and disclosure by the US Government is
 subject to restrictions as set forth in subparagraphs (a)
 and (c) of the Commercial Computer Software - Restricted
 Rights clause in FAR 52.227-19.
  
 Gaussian, Inc.
 340 Quinnipiac St., Bldg. 40, Wallingford CT 06492
  
  
 ---------------------------------------------------------------
 Warning -- This program may not be used in any manner that
 competes with the business of Gaussian, Inc. or will provide
 assistance to any competitor of Gaussian, Inc.  The licensee
 of this program is prohibited from giving any competitor of
 Gaussian, Inc. access to this program.  By using this program,
 the user acknowledges that Gaussian, Inc. is engaged in the
 business of creating and licensing software in the field of
 computational chemistry and represents and warrants to the
 licensee that it is not a competitor of Gaussian, Inc. and that
 it will not use this program in any manner prohibited above.
 ---------------------------------------------------------------
  

 Cite this work as:
 Gaussian 16, Revision C.01,
 M. J. Frisch, G. W. Trucks, H. B. Schlegel, G. E. Scuseria, 
 M. A. Robb, J. R. Cheeseman, G. Scalmani, V. Barone, 
 G. A. Petersson, H. Nakatsuji, X. Li, M. Caricato, A. V. Marenich, 
 J. Bloino, B. G. Janesko, R. Gomperts, B. Mennucci, H. P. Hratchian, 
 J. V. Ortiz, A. F. Izmaylov, J. L. Sonnenberg, D. Williams-Young, 
 F. Ding, F. Lipparini, F. Egidi, J. Goings, B. Peng, A. Petrone, 
 T. Henderson, D. Ranasinghe, V. G. Zakrzewski, J. Gao, N. Rega, 
 G. Zheng, W. Liang, M. Hada, M. Ehara, K. Toyota, R. Fukuda, 
 J. Hasegawa, M. Ishida, T. Nakajima, Y. Honda, O. Kitao, H. Nakai, 
 T. Vreven, K. Throssell, J. A. Montgomery, Jr., J. E. Peralta, 
 F. Ogliaro, M. J. Bearpark, J. J. Heyd, E. N. Brothers, K. N. Kudin, 
 V. N. Staroverov, T. A. Keith, R. Kobayashi, J. Normand, 
 K. Raghavachari, A. P. Rendell, J. C. Burant, S. S. Iyengar, 
 J. Tomasi, M. Cossi, J. M. Millam, M. Klene, C. Adamo, R. Cammi, 
 J. W. Ochterski, R. L. Martin, K. Morokuma, O. Farkas, 
 J. B. Foresman, and D. J. Fox, Gaussian, Inc., Wallingford CT, 2019.
 
 ******************************************
 Gaussian 16:  ES64L-G16RevC.01  3-Jul-2019
                11-Jan-2023 
 ******************************************
 %oldchk=../GS_OLD/geometry.chk
 %chk=geometry.chk
 %nprocshared=4
 Will use up to    4 processors via shared memory.
 %mem=5GB
 Copying data from "../GS_OLD/geometry.chk" to current chk file "geometry.chk"
 IOpt=  2 FromEx=T IUOpen= 4 IOptOp= 5 NList=   0 IFRang= 0 IUIn= 4 IUOut= 2.
 -------------------------------------------------------
 # WB97XD/6-311G SCF=XQC FORCE nosym pop=full guess=read
 -------------------------------------------------------
 1/10=7,30=1,38=1/1,3;
 2/12=2,15=1,17=6,18=5,40=1/2;
 3/5=4,6=6,11=2,25=1,30=1,71=1,74=-58,116=-2/1,2,3;
 4/5=1/1;
 5/5=2,8=3,13=1,38=6/2,8;
 6/7=3,28=1/1;
 7/29=1,30=1/1,2,3,16;
 1/10=7,30=1/3;
 99//99;
 ------------
 MD Step 1000
 ------------
 Symbolic Z-matrix:
 Charge =  0 Multiplicity = 1
 C                    -0.33695  -0.58274   0.00698 
 H                     0.22655  -1.5226   -0.02241 
 H                    -1.4208   -0.58133  -0.02398 
 C                     0.33261   0.57692   0.00517 
 H                    -0.15054   1.56754  -0.02675 
 H                     1.44303   0.65229  -0.02514 
 

 GradGradGradGradGradGradGradGradGradGradGradGradGradGradGradGradGradGrad
 Berny optimization.
 Initialization pass.
 Trust Radius=3.00D-01 FncErr=1.00D-07 GrdErr=1.00D-07 EigMax=2.50D+02 EigMin=1.00D-04
 Number of steps in this run=      2 maximum allowed number of steps=      2.
 GradGradGradGradGradGradGradGradGradGradGradGradGradGradGradGradGradGrad

                          Input orientation:                          
 ---------------------------------------------------------------------
 Center     Atomic      Atomic             Coordinates (Angstroms)
 Number     Number       Type             X           Y           Z
 ---------------------------------------------------------------------
      1          6           0       -0.336947   -0.582743    0.006985
      2          1           0        0.226550   -1.522600   -0.022407
      3          1           0       -1.420801   -0.581325   -0.023982
      4          6           0        0.332609    0.576923    0.005171
      5          1           0       -0.150543    1.567539   -0.026747
      6          1           0        1.443035    0.652286   -0.025135
 ---------------------------------------------------------------------
                    Distance matrix (angstroms):
                    1          2          3          4          5
     1  C    0.000000
     2  H    1.096232   0.000000
     3  H    1.084297   1.897304   0.000000
     4  C    1.339080   2.102381   2.101627   0.000000
     5  H    2.158610   3.113065   2.496233   1.102621   0.000000
     6  H    2.166717   2.491981   3.118229   1.113392   1.837710
                    6
     6  H    0.000000
 Symmetry turned off by external request.
 Stoichiometry    C2H4
 Framework group  C1[X(C2H4)]
 Deg. of freedom    12
 Full point group                 C1      NOp   1
 Rotational constants (GHZ):         143.6082912          29.6649592          24.5939503
 Standard basis: 6-311G (5D, 7F)
    38 basis functions,    72 primitive gaussians,    38 cartesian basis functions
     8 alpha electrons        8 beta electrons
       nuclear repulsion energy        33.0704462387 Hartrees.
 NAtoms=    6 NActive=    6 NUniq=    6 SFac= 1.00D+00 NAtFMM=   60 NAOKFM=F Big=F
 Integral buffers will be    131072 words long.
 Raffenetti 2 integral format.
 Two-electron integral symmetry is turned off.
 Nuclear repulsion after empirical dispersion term =       33.0696047311 Hartrees.
 One-electron integrals computed using PRISM.
 NBasis=    38 RedAO= T EigKep=  6.45D-03  NBF=    38
 NBsUse=    38 1.00D-06 EigRej= -1.00D+00 NBFU=    38
 Initial guess from the checkpoint file:  "geometry.chk"
 B after Tr=    -0.000258   -0.000386   -0.000382
         Rot=    1.000000    0.000002    0.000000    0.000007 Ang=   0.00 deg.
 Keep R1 ints in memory in canonical form, NReq=4036876.
 Requested convergence on RMS density matrix=1.00D-08 within  32 cycles.
 Requested convergence on MAX density matrix=1.00D-06.
 Requested convergence on             energy=1.00D-06.
 No special actions if energy rises.
 SCF Done:  E(RwB97XD) =  -78.5553999999     A.U. after    8 cycles
            NFock=  8  Conv=0.51D-08     -V/T= 2.0051
 QCSCF skips out because SCF is already converged.

 **********************************************************************

            Population analysis using the SCF Density.

 **********************************************************************

 Alpha  occ. eigenvalues --  -10.29019 -10.28805  -0.86374  -0.67261  -0.55974
 Alpha  occ. eigenvalues --   -0.50915  -0.43656  -0.35670
 Alpha virt. eigenvalues --    0.07959   0.14098   0.16495   0.17023   0.24076
 Alpha virt. eigenvalues --    0.37158   0.39360   0.40086   0.46421   0.48897
 Alpha virt. eigenvalues --    0.49391   0.59097   0.66585   0.69169   0.77276
 Alpha virt. eigenvalues --    0.77559   0.84212   0.95122   2.23107   2.29079
 Alpha virt. eigenvalues --    2.33295   2.40708   2.67104   2.81774   2.87836
 Alpha virt. eigenvalues --    2.95149   3.14080   3.31995  23.35283  23.70533
     Molecular Orbital Coefficients:
                           1         2         3         4         5
                           O         O         O         O         O
     Eigenvalues --   -10.29019 -10.28805  -0.86374  -0.67261  -0.55974
   1 1   C  1S          0.11710   0.55109  -0.08843   0.06673  -0.00026
   2        2S          0.09657   0.45352  -0.13979   0.10686  -0.00042
   3        2PX         0.00016  -0.00001   0.02592   0.03563   0.13977
   4        2PY         0.00028  -0.00002   0.04616   0.05859  -0.07377
   5        2PZ        -0.00000  -0.00001  -0.00127   0.00185   0.00028
   6        3S          0.00219   0.01448   0.37503  -0.29158   0.00115
   7        3PX        -0.00059   0.00045   0.03459   0.05720   0.21903
   8        3PY        -0.00101   0.00080   0.06111   0.09512  -0.11660
   9        3PZ        -0.00001  -0.00003  -0.00212   0.00329   0.00042
  10        4S          0.00282  -0.01476   0.19213  -0.22484   0.00028
  11        4PX         0.00144  -0.00161   0.00483   0.02295   0.11282
  12        4PY         0.00247  -0.00274   0.00860   0.03930  -0.06089
  13        4PZ         0.00001   0.00008  -0.00074   0.00164   0.00021
  14 2   H  1S         -0.00004  -0.00006   0.05293  -0.08665   0.10364
  15        2S         -0.00030   0.00012   0.05418  -0.10461   0.13114
  16        3S          0.00087   0.00167  -0.00181  -0.01489   0.04233
  17 3   H  1S         -0.00005  -0.00007   0.05419  -0.09026  -0.10757
  18        2S         -0.00029   0.00009   0.05498  -0.10803  -0.13507
  19        3S          0.00090   0.00169  -0.00188  -0.01579  -0.04351
  20 4   C  1S          0.55108  -0.11729  -0.08675  -0.06844  -0.00022
  21        2S          0.45359  -0.09633  -0.13697  -0.10977  -0.00034
  22        2PX        -0.00002  -0.00017  -0.02750   0.03800   0.11580
  23        2PY        -0.00003  -0.00029  -0.04645   0.06832  -0.07359
  24        2PZ        -0.00000   0.00000  -0.00100  -0.00200   0.00028
  25        3S          0.01394  -0.00387   0.36690   0.30002   0.00087
  26        3PX        -0.00019   0.00073  -0.03427   0.06161   0.18123
  27        3PY        -0.00029   0.00127  -0.05792   0.10997  -0.11398
  28        3PZ        -0.00003  -0.00000  -0.00173  -0.00359   0.00042
  29        4S         -0.01199   0.00872   0.18864   0.23806  -0.00032
  30        4PX         0.00081  -0.00192  -0.00534   0.02702   0.10011
  31        4PY         0.00137  -0.00337  -0.00913   0.04700  -0.06227
  32        4PZ         0.00007  -0.00002  -0.00072  -0.00185   0.00022
  33 5   H  1S         -0.00007  -0.00004   0.04983   0.09481  -0.08835
  34        2S         -0.00003  -0.00031   0.05090   0.11266  -0.11102
  35        3S          0.00181   0.00010  -0.00100   0.01695  -0.03553
  36 6   H  1S         -0.00005  -0.00004   0.04860   0.09221   0.08355
  37        2S         -0.00003  -0.00033   0.05014   0.11035   0.10568
  38        3S          0.00176   0.00008  -0.00106   0.01630   0.03421
                           6         7         8         9        10
                           O         O         O         V         V
     Eigenvalues --    -0.50915  -0.43656  -0.35670   0.07959   0.14098
   1 1   C  1S         -0.00285   0.00026  -0.00098   0.00262  -0.03322
   2        2S         -0.00417   0.00045  -0.00160   0.00435  -0.05328
   3        2PX         0.09372  -0.10929  -0.00329   0.00145  -0.03075
   4        2PY         0.16923   0.06477  -0.00548   0.00227  -0.06480
   5        2PZ         0.00487  -0.00005   0.17940  -0.18903  -0.00242
   6        3S          0.01715  -0.00112   0.00466  -0.01317   0.11579
   7        3PX         0.13584  -0.17438  -0.00466   0.00218  -0.03601
   8        3PY         0.24719   0.10372  -0.00774   0.00339  -0.08028
   9        3PZ         0.00773  -0.00004   0.28857  -0.27803  -0.00386
  10        4S         -0.05677  -0.00348   0.00673  -0.01495   1.22407
  11        4PX         0.06817  -0.10850  -0.00384   0.01232  -0.18527
  12        4PY         0.12540   0.06544  -0.00639   0.02002  -0.37952
  13        4PZ         0.00438   0.00002   0.26716  -0.69426  -0.01394
  14 2   H  1S         -0.08176  -0.11371   0.00013   0.00409  -0.01766
  15        2S         -0.11347  -0.17527   0.00190   0.00641  -0.04890
  16        3S         -0.04245  -0.08084   0.00115   0.01696  -0.83520
  17 3   H  1S         -0.07903   0.11120   0.00007   0.00411  -0.01337
  18        2S         -0.10902   0.17064   0.00183   0.00657  -0.03796
  19        3S         -0.04041   0.07860   0.00111   0.01684  -0.76141
  20 4   C  1S         -0.00925  -0.00053  -0.00076  -0.00250  -0.03639
  21        2S         -0.01453  -0.00088  -0.00123  -0.00413  -0.05845
  22        2PX        -0.09840   0.12657   0.00314   0.00157   0.04167
  23        2PY        -0.16124  -0.07457   0.00586   0.00298   0.06066
  24        2PZ         0.00515   0.00025   0.17905   0.18948  -0.00282
  25        3S          0.04635   0.00251   0.00366   0.01240   0.12916
  26        3PX        -0.14599   0.20234   0.00437   0.00242   0.05134
  27        3PY        -0.23738  -0.11849   0.00823   0.00461   0.07166
  28        3PZ         0.00813   0.00037   0.28654   0.27788  -0.00428
  29        4S         -0.02418   0.00361   0.00618   0.01380   1.24335
  30        4PX        -0.07664   0.13017   0.00333   0.01215   0.27205
  31        4PY        -0.12312  -0.07514   0.00643   0.02230   0.41688
  32        4PZ         0.00472   0.00021   0.26759   0.69558  -0.01695
  33 5   H  1S         -0.07373  -0.12577   0.00024  -0.00379  -0.01132
  34        2S         -0.10028  -0.19588   0.00208  -0.00636  -0.03674
  35        3S         -0.03741  -0.09214   0.00115  -0.01638  -0.82101
  36 6   H  1S         -0.07951   0.12581   0.00016  -0.00380  -0.01553
  37        2S         -0.10874   0.19699   0.00197  -0.00635  -0.04693
  38        3S         -0.04083   0.09271   0.00108  -0.01665  -0.89481
                          11        12        13        14        15
                           V         V         V         V         V
     Eigenvalues --     0.16495   0.17023   0.24076   0.37158   0.39360
   1 1   C  1S          0.00196  -0.04569  -0.00001   0.00867   0.00104
   2        2S          0.00317  -0.07447  -0.00002   0.01152   0.00170
   3        2PX         0.09724  -0.01828   0.09971  -0.03506  -0.02332
   4        2PY        -0.05231  -0.03747  -0.05713  -0.06413   0.00872
   5        2PZ         0.00028  -0.00635   0.00006  -0.00441  -0.00019
   6        3S         -0.00692   0.16866   0.00028   0.03562  -0.00235
   7        3PX         0.13873  -0.00892   0.10480  -0.04220  -0.10665
   8        3PY        -0.07631  -0.02459  -0.06098  -0.08092   0.04639
   9        3PZ         0.00039  -0.00880   0.00001  -0.00916  -0.00029
  10        4S         -0.08042   1.44148  -0.01123  -2.43719  -0.18232
  11        4PX         0.59162  -0.10917   1.17307  -1.52257  -0.53382
  12        4PY        -0.31008  -0.20830  -0.66628  -2.65513   0.15268
  13        4PZ         0.00183  -0.04154   0.00122  -0.04046  -0.00239
  14 2   H  1S         -0.02839  -0.02595   0.01433  -0.06106   0.07468
  15        2S         -0.08111  -0.01839  -0.02363  -0.68551   0.76345
  16        3S         -1.01525  -1.02221  -1.54665  -0.27871  -0.30630
  17 3   H  1S          0.02870  -0.02481  -0.01652  -0.05470  -0.07537
  18        2S          0.08127  -0.02027   0.01774  -0.63804  -0.75395
  19        3S          1.12090  -1.00042   1.57057  -0.34980   0.23497
  20 4   C  1S          0.00089   0.04215  -0.00007  -0.02010   0.00007
  21        2S          0.00140   0.06859  -0.00013  -0.03321   0.00032
  22        2PX         0.10141  -0.02210  -0.10052  -0.04037  -0.03163
  23        2PY        -0.06145  -0.03858   0.05756  -0.07123   0.01438
  24        2PZ         0.00014   0.00616  -0.00006   0.00305   0.00031
  25        3S         -0.00256  -0.15175   0.00039   0.04816  -0.00564
  26        3PX         0.14551  -0.01697  -0.11494  -0.09381  -0.10820
  27        3PY        -0.08729  -0.02888   0.06456  -0.16727   0.06017
  28        3PZ         0.00020   0.00848  -0.00003   0.00349   0.00060
  29        4S         -0.05129  -1.33810   0.00830   3.20378   0.15623
  30        4PX         0.53283  -0.10954  -1.11863  -1.10280  -0.56517
  31        4PY        -0.33083  -0.20423   0.65338  -1.92756   0.10378
  32        4PZ         0.00089   0.04011  -0.00127   0.03211   0.00226
  33 5   H  1S          0.03090   0.02478   0.00543   0.00549  -0.08149
  34        2S          0.06609   0.02292  -0.03549   0.01100  -0.79833
  35        3S          1.07292   0.95402  -1.52765   0.44741   0.48510
  36 6   H  1S         -0.03184   0.02487  -0.00374   0.00198   0.08858
  37        2S         -0.06745   0.01911   0.03721  -0.02063   0.90282
  38        3S         -1.00553   0.92795   1.51053   0.45338  -0.46981
                          16        17        18        19        20
                           V         V         V         V         V
     Eigenvalues --     0.40086   0.46421   0.48897   0.49391   0.59097
   1 1   C  1S         -0.01938   0.01303   0.04595  -0.00089  -0.00052
   2        2S         -0.03378   0.02986   0.07664  -0.00122  -0.00093
   3        2PX         0.02923  -0.06110  -0.01085   0.00131   0.00200
   4        2PY         0.05433  -0.10665  -0.01370   0.00174   0.00294
   5        2PZ         0.00055  -0.00042  -0.00676  -0.15175  -0.19245
   6        3S          0.07318  -0.33734  -0.08411  -0.00796  -0.00077
   7        3PX         0.10576  -0.23856   0.04001  -0.00001   0.00670
   8        3PY         0.20227  -0.41471   0.07957  -0.00176   0.00983
   9        3PZ        -0.00309  -0.00420  -0.02987  -0.62787  -0.68481
  10        4S          2.90305   0.12558  -3.07157   0.12174   0.06671
  11        4PX         0.34836   0.23506  -0.82679   0.03754   0.01975
  12        4PY         0.64804   0.43545  -1.42284   0.06688   0.03638
  13        4PZ        -0.00022   0.00250   0.09301   0.68412   1.24035
  14 2   H  1S         -0.02320  -0.03206   0.07600  -0.00349  -0.00159
  15        2S         -0.50226  -0.30914   0.90935  -0.03552  -0.01211
  16        3S          0.33898   0.05878  -0.64026   0.03687   0.02227
  17 3   H  1S         -0.03205  -0.03402   0.07398  -0.00339  -0.00155
  18        2S         -0.58166  -0.32993   0.87803  -0.03448  -0.01125
  19        3S          0.35816   0.06046  -0.61194   0.03568   0.02179
  20 4   C  1S          0.00104  -0.00364  -0.05096   0.00355   0.00067
  21        2S         -0.00190   0.00143  -0.08891   0.00640   0.00126
  22        2PX         0.01054   0.05464  -0.02845   0.00048   0.00192
  23        2PY         0.02060   0.09322  -0.05129   0.00063   0.00381
  24        2PZ        -0.00374  -0.00185  -0.00685  -0.15269   0.19219
  25        3S          0.07705  -0.28082   0.23982  -0.02365  -0.00255
  26        3PX        -0.04077   0.23451  -0.06268   0.00120   0.00673
  27        3PY        -0.05778   0.40565  -0.10950   0.00092   0.01327
  28        3PZ        -0.01034  -0.00735  -0.02610  -0.63143   0.68216
  29        4S         -1.11972   0.78842   3.08594  -0.14353  -0.05791
  30        4PX         1.34068  -0.32813  -0.58525   0.02018   0.02140
  31        4PY         2.42414  -0.54589  -0.99601   0.03443   0.03445
  32        4PZ        -0.03301  -0.01698  -0.02542   0.69459  -1.23709
  33 5   H  1S         -0.04577  -0.06572  -0.06345   0.00308   0.00150
  34        2S         -0.84309  -0.67930  -0.80852   0.04458   0.00568
  35        3S         -0.24568   0.27182   0.53250  -0.01561  -0.02166
  36 6   H  1S         -0.03716  -0.06497  -0.06296   0.00308   0.00151
  37        2S         -0.74091  -0.66909  -0.80148   0.04402   0.00572
  38        3S         -0.26584   0.29284   0.54987  -0.01693  -0.02188
                          21        22        23        24        25
                           V         V         V         V         V
     Eigenvalues --     0.66585   0.69169   0.77276   0.77559   0.84212
   1 1   C  1S          0.00094  -0.00047   0.04513   0.07668   0.00088
   2        2S          0.00195  -0.00104   0.09511   0.16342   0.00209
   3        2PX        -0.13248   0.19813  -0.03555   0.11167  -0.00742
   4        2PY         0.07701  -0.11929  -0.05875   0.18114   0.01450
   5        2PZ        -0.00011   0.00022   0.00026   0.00465   0.00014
   6        3S         -0.01560   0.01418  -0.61678  -1.39715  -0.02533
   7        3PX        -0.61499   0.69646  -0.21327   0.42997  -0.21926
   8        3PY         0.35363  -0.42015  -0.35540   0.68504   0.16763
   9        3PZ        -0.00062   0.00081   0.00114   0.01625   0.00036
  10        4S          0.02307  -0.05676   0.52599   2.48589   0.02048
  11        4PX         1.07093  -0.78824   0.25270  -0.75800   4.55051
  12        4PY        -0.61748   0.49213   0.26877  -0.97570  -2.58019
  13        4PZ         0.00076   0.00096   0.01284  -0.05138   0.00556
  14 2   H  1S          0.02402  -0.05885   0.00742   0.03348  -0.02710
  15        2S          0.14097  -0.63694   0.05958   0.10495  -1.59042
  16        3S         -1.04097   1.11366  -0.02130  -1.09734  -1.24004
  17 3   H  1S         -0.02308   0.05832   0.00738   0.03406   0.03108
  18        2S         -0.15469   0.66600   0.10235   0.06426   1.63111
  19        3S          1.03051  -1.06989   0.02574  -1.25438   1.23640
  20 4   C  1S          0.00115  -0.00012   0.08143   0.03809   0.00045
  21        2S          0.00235  -0.00019   0.17342   0.08031   0.00082
  22        2PX        -0.15174  -0.18510  -0.09983   0.04477   0.01029
  23        2PY         0.08689   0.10202  -0.18234   0.08269   0.00361
  24        2PZ        -0.00013  -0.00022   0.00491  -0.00064  -0.00017
  25        3S         -0.01781  -0.00476  -1.46056  -0.49953   0.00058
  26        3PX        -0.68509  -0.62712  -0.36883   0.24949   0.23495
  27        3PY         0.39572   0.34275  -0.68183   0.45888  -0.08960
  28        3PZ        -0.00069  -0.00074   0.01741  -0.00262  -0.00039
  29        4S          0.01689   0.04123   2.66362   0.35185  -0.03690
  30        4PX         1.29731   0.77240   0.51110  -0.19549  -4.12192
  31        4PY        -0.74677  -0.40638   1.09112  -0.61414   2.37034
  32        4PZ         0.00123  -0.00086  -0.05137   0.02042  -0.00486
  33 5   H  1S         -0.02503  -0.05466   0.03420   0.00588  -0.02332
  34        2S         -0.14211  -0.55132   0.06662   0.08657  -1.40232
  35        3S          1.11992   0.97843  -1.19993   0.21286  -1.08284
  36 6   H  1S          0.02582   0.05491   0.03355   0.00633   0.02245
  37        2S          0.13335   0.52043   0.08211   0.02061   1.38183
  38        3S         -1.12336  -1.01082  -1.09396   0.13484   1.09802
                          26        27        28        29        30
                           V         V         V         V         V
     Eigenvalues --     0.95122   2.23107   2.29079   2.33295   2.40708
   1 1   C  1S          0.09603  -0.01002  -0.01474   0.00038  -0.00048
   2        2S          0.19958   0.00175  -0.01462   0.00079  -0.00059
   3        2PX        -0.09099  -0.07180  -0.13133   0.35132  -0.40752
   4        2PY        -0.15760  -0.13755  -0.23110  -0.19893   0.22838
   5        2PZ         0.00020  -0.01262  -0.01754   0.00021  -0.00089
   6        3S         -1.54755  -0.18721  -0.03962  -0.00069  -0.00452
   7        3PX        -0.23248   0.06477   0.20611  -0.42055   0.56880
   8        3PY        -0.39484   0.13857   0.37643   0.24022  -0.32004
   9        3PZ        -0.00232   0.01257   0.02181  -0.00013   0.00103
  10        4S          5.71275  -0.10077  -0.88305  -0.00008  -0.01035
  11        4PX         1.21042   0.05387  -0.18554  -0.07064   0.99377
  12        4PY         1.98474   0.07439  -0.35982   0.03038  -0.54332
  13        4PZ        -0.01816   0.00264   0.00793  -0.00029   0.00194
  14 2   H  1S          0.01503  -0.70007  -0.80638  -0.70768   0.64706
  15        2S         -0.28948   0.99326   1.20480   1.10137  -1.45697
  16        3S         -0.10344  -0.29622  -0.48188  -0.46430   0.35919
  17 3   H  1S          0.01555  -0.68914  -0.80248   0.70164  -0.67009
  18        2S         -0.25475   0.97743   1.20541  -1.09562   1.50446
  19        3S         -0.07855  -0.27391  -0.46125   0.45422  -0.35032
  20 4   C  1S         -0.09374  -0.01059   0.01220   0.00052   0.00034
  21        2S         -0.19438  -0.00040   0.01234   0.00071   0.00066
  22        2PX        -0.09221   0.14009  -0.12218   0.29893   0.41674
  23        2PY        -0.15918   0.24288  -0.20228  -0.17403  -0.24171
  24        2PZ         0.00031  -0.01416   0.01669   0.00049   0.00048
  25        3S          1.50234  -0.16541   0.01646   0.00064  -0.00012
  26        3PX        -0.22516  -0.18079   0.21082  -0.37366  -0.58340
  27        3PY        -0.39500  -0.30712   0.34251   0.21439   0.33927
  28        3PZ         0.00348   0.01525  -0.02127  -0.00052  -0.00066
  29        4S         -5.68572  -0.18240   0.88993   0.01674  -0.00254
  30        4PX         1.09233  -0.01198  -0.19956   0.12389  -0.84437
  31        4PY         1.98059  -0.03283  -0.30885  -0.06933   0.50382
  32        4PZ         0.01183   0.00478  -0.00613  -0.00006  -0.00173
  33 5   H  1S         -0.01797  -0.79610   0.66346   0.70375   0.69117
  34        2S          0.29000   1.16023  -1.01753  -1.01549  -1.46254
  35        3S          0.05875  -0.35827   0.39061   0.51183   0.43090
  36 6   H  1S         -0.01793  -0.79159   0.68525  -0.68883  -0.68943
  37        2S          0.31722   1.15056  -1.04217   0.99031   1.45025
  38        3S          0.07313  -0.36212   0.42152  -0.50849  -0.44121
                          31        32        33        34        35
                           V         V         V         V         V
     Eigenvalues --     2.67104   2.81774   2.87836   2.95149   3.14080
   1 1   C  1S          0.00048   0.00243  -0.01335  -0.00001  -0.00998
   2        2S          0.00037   0.00693  -0.04364  -0.00031  -0.03038
   3        2PX         0.00494   0.06995  -0.47505  -0.71974   0.44403
   4        2PY         0.00697   0.12346  -0.86563   0.40548   0.76811
   5        2PZ        -0.92446  -0.93073  -0.13239  -0.00137   0.00569
   6        3S         -0.00143  -0.05695   0.38095   0.00470   0.25411
   7        3PX        -0.00353  -0.12062   0.83657   0.86812  -0.42181
   8        3PY        -0.00470  -0.21101   1.49417  -0.47480  -0.72506
   9        3PZ         0.93975   1.13747   0.16615   0.00184  -0.00731
  10        4S          0.01224   0.13384  -0.87014  -0.01265  -0.49956
  11        4PX        -0.00207   0.09616  -0.71015  -0.66756   0.20973
  12        4PY        -0.00304   0.16942  -1.27024   0.35355   0.34880
  13        4PZ        -0.33826  -0.61577  -0.10522  -0.00147   0.00407
  14 2   H  1S          0.01153  -0.01780   0.25778  -0.37114  -0.20724
  15        2S         -0.01300   0.01041  -0.21161   0.38469   0.15563
  16        3S         -0.00299   0.03966  -0.30249   0.27641   0.04825
  17 3   H  1S          0.01175  -0.01727   0.24762   0.37139  -0.21212
  18        2S         -0.01352   0.00890  -0.19356  -0.38086   0.16122
  19        3S         -0.00341   0.03963  -0.30128  -0.29340   0.06099
  20 4   C  1S          0.00049  -0.00235   0.01356   0.00056  -0.00722
  21        2S          0.00048  -0.00734   0.04804   0.00127  -0.02226
  22        2PX        -0.00694   0.06085  -0.40160  -0.81574  -0.50834
  23        2PY        -0.01336   0.10857  -0.70965   0.44859  -0.90475
  24        2PZ        -0.92492   0.92954   0.13599   0.00008   0.01331
  25        3S         -0.00280   0.06312  -0.43280  -0.00917   0.19053
  26        3PX         0.00734  -0.11153   0.76277   0.97318   0.55059
  27        3PY         0.01384  -0.19741   1.34175  -0.52865   0.98960
  28        3PZ         0.94057  -1.13614  -0.17132  -0.00007  -0.01688
  29        4S          0.01510  -0.13654   0.90095   0.02746  -0.36148
  30        4PX        -0.00082   0.09585  -0.70822  -0.70305  -0.34212
  31        4PY        -0.00227   0.16760  -1.23452   0.37837  -0.61779
  32        4PZ        -0.33869   0.61478   0.10939  -0.00001   0.01341
  33 5   H  1S          0.01087   0.02660  -0.29637   0.42086  -0.27181
  34        2S         -0.01348  -0.02181   0.27197  -0.43028   0.21419
  35        3S         -0.00124  -0.03618   0.28102  -0.24452   0.13522
  36 6   H  1S          0.01101   0.02661  -0.29232  -0.43421  -0.25742
  37        2S         -0.01401  -0.02262   0.27332   0.44324   0.20338
  38        3S         -0.00083  -0.03458   0.26706   0.24483   0.12445
                          36        37        38
                           V         V         V
     Eigenvalues --     3.31995  23.35283  23.70533
   1 1   C  1S         -0.00028  -1.41276  -1.45350
   2        2S         -0.00032   1.50673   1.57176
   3        2PX         0.79433  -0.00656   0.01212
   4        2PY        -0.44186  -0.01075   0.02124
   5        2PZ         0.00129  -0.00052  -0.00024
   6        3S         -0.00236  -0.29612  -0.39960
   7        3PX        -1.13619   0.02396  -0.05552
   8        3PY         0.62575   0.03979  -0.09656
   9        3PZ        -0.00196   0.00148   0.00073
  10        4S          0.00423   0.27531   0.76758
  11        4PX         1.99384  -0.02553   0.13372
  12        4PY        -1.09385  -0.04337   0.22894
  13        4PZ         0.00334  -0.00248  -0.00295
  14 2   H  1S          0.56896   0.01320   0.00754
  15        2S         -0.88484   0.00746  -0.01513
  16        3S         -0.46723  -0.08433  -0.04005
  17 3   H  1S         -0.58002   0.01494   0.00855
  18        2S          0.90119   0.00722  -0.01473
  19        3S          0.49569  -0.08656  -0.03970
  20 4   C  1S          0.00008  -1.44872   1.41747
  21        2S         -0.00021   1.54516  -1.53287
  22        2PX        -0.69950   0.00610   0.01267
  23        2PY         0.40512   0.01108   0.02157
  24        2PZ        -0.00111  -0.00053   0.00013
  25        3S          0.00537  -0.30327   0.38967
  26        3PX         0.99602  -0.02233  -0.05636
  27        3PY        -0.58690  -0.04006  -0.09691
  28        3PZ         0.00168   0.00152  -0.00031
  29        4S         -0.02421   0.27911  -0.75834
  30        4PX        -1.75323   0.02364   0.12989
  31        4PY         1.04326   0.04343   0.22618
  32        4PZ        -0.00293  -0.00246   0.00208
  33 5   H  1S          0.47830   0.01359  -0.00466
  34        2S         -0.74509   0.00813   0.01360
  35        3S         -0.43077  -0.08328   0.03715
  36 6   H  1S         -0.47113   0.01199  -0.00352
  37        2S          0.73658   0.00916   0.01343
  38        3S          0.41522  -0.08103   0.03700
     Density Matrix:
                           1         2         3         4         5
   1 1   C  1S          0.65939
   2        2S          0.56149   0.49198
   3        2PX        -0.00046  -0.00060   0.08443
   4        2PY        -0.00118  -0.00162   0.00355   0.08774
   5        2PZ         0.00008   0.00013  -0.00011  -0.00027   0.06442
   6        3S         -0.08889  -0.15377   0.00242   0.00590  -0.00019
   7        3PX         0.00090   0.00138   0.13070   0.00102  -0.00008
   8        3PY         0.00125   0.00193   0.00106   0.13117  -0.00025
   9        3PZ         0.00017   0.00028  -0.00020  -0.00043   0.10363
  10        4S         -0.07929  -0.11417  -0.01591  -0.02839   0.00054
  11        4PX         0.00028   0.00163   0.06995  -0.00445  -0.00057
  12        4PY         0.00065   0.00307  -0.00453   0.06537  -0.00099
  13        4PZ        -0.00011  -0.00026  -0.00080  -0.00135   0.09591
  14 2   H  1S         -0.02065  -0.03289   0.03507  -0.06296  -0.00113
  15        2S         -0.02300  -0.03678   0.04904  -0.08773  -0.00086
  16        3S          0.00055  -0.00076   0.02038  -0.03301  -0.00002
  17 3   H  1S         -0.02116  -0.03367  -0.07282  -0.00205  -0.00129
  18        2S         -0.02334  -0.03726  -0.10035  -0.00247  -0.00104
  19        3S          0.00059  -0.00070  -0.03815   0.00089  -0.00008
  20 4   C  1S          0.00605   0.00976  -0.01087  -0.01887  -0.00039
  21        2S          0.00972   0.01519  -0.01739  -0.03022  -0.00064
  22        2PX         0.01031   0.01648  -0.01248  -0.03212   0.00043
  23        2PY         0.01792   0.02864  -0.03207  -0.04972   0.00087
  24        2PZ        -0.00047  -0.00076  -0.00038  -0.00056   0.06429
  25        3S         -0.02612  -0.03967   0.04877   0.08488   0.00194
  26        3PX         0.01588   0.02461  -0.01835  -0.04593   0.00055
  27        3PY         0.02758   0.04273  -0.04567  -0.07143   0.00114
  28        3PZ        -0.00079  -0.00128  -0.00067  -0.00099   0.10288
  29        4S          0.00535   0.00392   0.02129   0.03757   0.00238
  30        4PX         0.00307   0.00635  -0.01321  -0.02121   0.00061
  31        4PY         0.00518   0.01080  -0.02122  -0.03762   0.00128
  32        4PZ        -0.00068  -0.00109  -0.00103  -0.00163   0.09605
  33 5   H  1S          0.00418   0.00686  -0.00169  -0.01250  -0.00045
  34        2S          0.00620   0.01030   0.00364  -0.02506   0.00001
  35        3S          0.00315   0.00460   0.00435  -0.01747   0.00010
  36 6   H  1S          0.00413   0.00678  -0.00996  -0.00765  -0.00046
  37        2S          0.00616   0.01026  -0.02345  -0.00934  -0.00003
  38        3S          0.00313   0.00459  -0.01726  -0.00506   0.00006
                           6         7         8         9        10
   6        3S          0.45240
   7        3PX        -0.00189   0.20265
   8        3PY        -0.00172  -0.00491   0.19660
   9        3PZ        -0.00056  -0.00016  -0.00039   0.16670
  10        4S          0.27294  -0.02659  -0.04828   0.00071   0.18195
  11        4PX        -0.00700   0.10878  -0.01011  -0.00093  -0.01538
  12        4PY        -0.01258  -0.01028   0.09838  -0.00159  -0.02909
  13        4PZ         0.00113  -0.00107  -0.00179   0.15427   0.00207
  14 2   H  1S          0.08792   0.05659  -0.09820  -0.00189   0.06944
  15        2S          0.09846   0.07951  -0.13634  -0.00145   0.08206
  16        3S          0.00621   0.03337  -0.05070  -0.00004   0.01138
  17 3   H  1S          0.09007  -0.11395  -0.00147  -0.00211   0.06955
  18        2S          0.09982  -0.15687  -0.00086  -0.00170   0.08084
  19        3S          0.00620  -0.05940   0.00322  -0.00012   0.01037
  20 4   C  1S         -0.02647  -0.01700  -0.02954  -0.00067   0.00505
  21        2S         -0.04004  -0.02643  -0.04596  -0.00108   0.00377
  22        2PX        -0.04615  -0.01773  -0.04558   0.00074  -0.01725
  23        2PY        -0.08017  -0.04549  -0.07079   0.00148  -0.02970
  24        2PZ         0.00226  -0.00053  -0.00074   0.10341   0.00234
  25        3S          0.10181   0.07175   0.12506   0.00324   0.00104
  26        3PX        -0.06662  -0.02620  -0.06500   0.00096  -0.02557
  27        3PY        -0.11560  -0.06460  -0.10164   0.00196  -0.04392
  28        3PZ         0.00375  -0.00093  -0.00133   0.16548   0.00388
  29        4S          0.00208   0.03228   0.05716   0.00396  -0.03209
  30        4PX        -0.02247  -0.01968  -0.02980   0.00101  -0.00624
  31        4PY        -0.03848  -0.02984  -0.05422   0.00211  -0.00998
  32        4PZ         0.00319  -0.00145  -0.00225   0.15450   0.00362
  33 5   H  1S         -0.02036  -0.00058  -0.01781  -0.00065  -0.01429
  34        2S         -0.03077   0.00883  -0.03670   0.00010  -0.01838
  35        3S         -0.01177   0.00826  -0.02624   0.00018  -0.00311
  36 6   H  1S         -0.02014  -0.01497  -0.00921  -0.00067  -0.01459
  37        2S         -0.03067  -0.03588  -0.01045   0.00004  -0.01929
  38        3S         -0.01181  -0.02666  -0.00598   0.00012  -0.00370
                          11        12        13        14        15
  11        4PX         0.05944
  12        4PY        -0.00889   0.05077
  13        4PZ        -0.00134  -0.00222   0.14279
  14 2   H  1S          0.03345  -0.05391  -0.00097   0.08133
  15        2S          0.04786  -0.07468  -0.00035   0.10946   0.14935
  16        3S          0.02059  -0.02760   0.00021   0.03649   0.05200
  17 3   H  1S         -0.06280   0.00167  -0.00107  -0.01328  -0.02450
  18        2S         -0.08682   0.00387  -0.00046  -0.02444  -0.04194
  19        3S         -0.03314   0.00416   0.00018  -0.01775  -0.02669
  20 4   C  1S         -0.00320  -0.00585  -0.00059   0.00423   0.00679
  21        2S         -0.00660  -0.01191  -0.00096   0.00700   0.01134
  22        2PX        -0.01330  -0.01974   0.00103   0.00181  -0.00258
  23        2PY        -0.01976  -0.03674   0.00197   0.01132   0.02412
  24        2PZ        -0.00077  -0.00117   0.09571  -0.00055  -0.00019
  25        3S          0.02331   0.04178   0.00281  -0.02113  -0.03418
  26        3PX        -0.02046  -0.02801   0.00139   0.00111  -0.00685
  27        3PY        -0.02795  -0.05363   0.00271   0.01695   0.03626
  28        3PZ        -0.00126  -0.00194   0.15317  -0.00081  -0.00021
  29        4S          0.00849   0.01621   0.00360  -0.01822  -0.02519
  30        4PX        -0.01494  -0.01237   0.00125  -0.00157  -0.00820
  31        4PY        -0.01250  -0.02965   0.00249   0.01521   0.02715
  32        4PZ        -0.00150  -0.00239   0.14301  -0.00046   0.00024
  33 5   H  1S          0.00214  -0.01589  -0.00032   0.01119   0.02321
  34        2S          0.00943  -0.02756   0.00047   0.02380   0.04426
  35        3S          0.00764  -0.01581   0.00033   0.01667   0.02782
  36 6   H  1S         -0.01459  -0.00557  -0.00034  -0.00913  -0.01817
  37        2S         -0.02819  -0.00485   0.00044  -0.01893  -0.03430
  38        3S         -0.01723  -0.00102   0.00029  -0.01025  -0.01778
                          16        17        18        19        20
  16        3S          0.02072
  17 3   H  1S         -0.01788   0.08254
  18        2S         -0.02675   0.10971   0.14789
  19        3S         -0.01247   0.03588   0.05060   0.01992
  20 4   C  1S          0.00378   0.00430   0.00680   0.00377   0.65948
  21        2S          0.00558   0.00711   0.01133   0.00554   0.56159
  22        2PX        -0.00333   0.00895   0.02215   0.01668   0.00122
  23        2PY         0.01766   0.00737   0.00974   0.00574   0.00183
  24        2PZ         0.00002  -0.00054  -0.00014   0.00006   0.00008
  25        3S         -0.01451  -0.02135  -0.03396  -0.01426  -0.08932
  26        3PX        -0.00667   0.01425   0.03486   0.02603  -0.00046
  27        3PY         0.02662   0.00956   0.01201   0.00725  -0.00107
  28        3PZ         0.00006  -0.00079  -0.00013   0.00012   0.00017
  29        4S         -0.00631  -0.01784  -0.02407  -0.00565  -0.08014
  30        4PX        -0.00684   0.01407   0.02768   0.01711  -0.00020
  31        4PY         0.01597   0.00667   0.00689   0.00211  -0.00017
  32        4PZ         0.00026  -0.00045   0.00028   0.00029  -0.00004
  33 5   H  1S          0.01611  -0.00902  -0.01799  -0.00930  -0.02015
  34        2S          0.02725  -0.01865  -0.03373  -0.01677  -0.02211
  35        3S          0.01457  -0.01010  -0.01746  -0.00889   0.00063
  36 6   H  1S         -0.00944   0.01119   0.02312   0.01584  -0.01980
  37        2S         -0.01713   0.02378   0.04407   0.02689  -0.02201
  38        3S         -0.00910   0.01666   0.02767   0.01439   0.00052
                          21        22        23        24        25
  21        2S          0.49209
  22        2PX         0.00176   0.08264
  23        2PY         0.00261   0.00360   0.08767
  24        2PZ         0.00012   0.00014   0.00018   0.06418
  25        3S         -0.15434  -0.00564  -0.00849  -0.00014   0.45402
  26        3PX        -0.00069   0.12852   0.00188   0.00009  -0.00036
  27        3PY        -0.00163   0.00192   0.13150   0.00006   0.00073
  28        3PZ         0.00029   0.00021   0.00029   0.10271  -0.00057
  29        4S         -0.11581   0.01335   0.02238   0.00064   0.27869
  30        4PX        -0.00144   0.07359  -0.00521   0.00043   0.00608
  31        4PY        -0.00219  -0.00510   0.06742   0.00079   0.00972
  32        4PZ        -0.00013   0.00075   0.00136   0.09588   0.00077
  33 5   H  1S         -0.03209  -0.03332   0.06387  -0.00126   0.08584
  34        2S         -0.03532  -0.04979   0.08858  -0.00100   0.09450
  35        3S         -0.00056  -0.02284   0.03346  -0.00010   0.00550
  36 6   H  1S         -0.03156   0.07118   0.00267  -0.00112   0.08440
  37        2S         -0.03519   0.10138   0.00058  -0.00080   0.09411
  38        3S         -0.00071   0.04073  -0.00336  -0.00003   0.00580
                          26        27        28        29        30
  26        3PX         0.20018
  27        3PY        -0.00236   0.19780
  28        3PZ         0.00011   0.00008   0.16438
  29        4S          0.02488   0.04134   0.00079   0.18623
  30        4PX         0.11506  -0.01067   0.00067   0.01542   0.06723
  31        4PY        -0.01056   0.10195   0.00127   0.02437  -0.01046
  32        4PZ         0.00095   0.00174   0.15344   0.00193   0.00107
  33 5   H  1S         -0.05312   0.10003  -0.00208   0.06666  -0.03454
  34        2S         -0.07982   0.13825  -0.00166   0.07637  -0.05229
  35        3S         -0.03707   0.05156  -0.00017   0.00883  -0.02443
  36 6   H  1S          0.11244   0.00354  -0.00187   0.06694   0.06613
  37        2S          0.15995  -0.00065  -0.00137   0.07809   0.09456
  38        3S          0.06393  -0.00666  -0.00006   0.00996   0.03815
                          31        32        33        34        35
  31        4PY         0.05406
  32        4PZ         0.00206   0.14326
  33 5   H  1S          0.05607  -0.00108   0.08106
  34        2S          0.07765  -0.00045   0.11011   0.15208
  35        3S          0.02911   0.00015   0.03808   0.05521   0.02289
  36 6   H  1S         -0.00195  -0.00098  -0.01236  -0.02617  -0.02014
  37        2S         -0.00650  -0.00032  -0.02627  -0.04885  -0.03203
  38        3S         -0.00657   0.00019  -0.02036  -0.03216  -0.01589
                          36        37        38
  36 6   H  1S          0.07999
  37        2S          0.10974   0.15299
  38        3S          0.03844   0.05613   0.02341
    Full Mulliken population analysis:
                           1         2         3         4         5
   1 1   C  1S          0.65939
   2        2S          0.49324   0.49198
   3        2PX         0.00000   0.00000   0.08443
   4        2PY         0.00000   0.00000   0.00000   0.08774
   5        2PZ         0.00000   0.00000   0.00000   0.00000   0.06442
   6        3S         -0.02926  -0.06440   0.00000   0.00000   0.00000
   7        3PX         0.00000   0.00000   0.08223   0.00000   0.00000
   8        3PY         0.00000   0.00000   0.00000   0.08252   0.00000
   9        3PZ         0.00000   0.00000   0.00000   0.00000   0.06520
  10        4S         -0.01219  -0.02137   0.00000   0.00000   0.00000
  11        4PX         0.00000   0.00000   0.01540   0.00000   0.00000
  12        4PY         0.00000   0.00000   0.00000   0.01440   0.00000
  13        4PZ         0.00000   0.00000   0.00000   0.00000   0.02112
  14 2   H  1S         -0.00023  -0.00033   0.00187   0.00559   0.00000
  15        2S         -0.00168  -0.00322   0.00439   0.01311   0.00000
  16        3S          0.00004  -0.00007   0.00070   0.00189   0.00000
  17 3   H  1S         -0.00026  -0.00037   0.00795  -0.00000   0.00000
  18        2S         -0.00175  -0.00335   0.01774  -0.00000   0.00001
  19        3S          0.00005  -0.00007   0.00254   0.00000   0.00000
  20 4   C  1S          0.00000   0.00000  -0.00002  -0.00006   0.00000
  21        2S          0.00000  -0.00000  -0.00002  -0.00005   0.00000
  22        2PX        -0.00002  -0.00002   0.00011   0.00085   0.00000
  23        2PY        -0.00006  -0.00005   0.00085   0.00196   0.00000
  24        2PZ        -0.00000  -0.00000  -0.00000  -0.00000   0.00041
  25        3S         -0.00058  -0.00099   0.00254   0.00765  -0.00000
  26        3PX        -0.00054  -0.00098   0.00019   0.00554   0.00000
  27        3PY        -0.00161  -0.00295   0.00551   0.01070   0.00000
  28        3PZ        -0.00000  -0.00000  -0.00000  -0.00000   0.00608
  29        4S          0.00034   0.00030   0.00097   0.00295  -0.00000
  30        4PX        -0.00018  -0.00045  -0.00071   0.00147   0.00000
  31        4PY        -0.00052  -0.00133   0.00147   0.00098   0.00000
  32        4PZ        -0.00000  -0.00000  -0.00000  -0.00000   0.00902
  33 5   H  1S          0.00000   0.00000  -0.00000  -0.00000   0.00000
  34        2S          0.00001   0.00002   0.00000  -0.00031  -0.00000
  35        3S          0.00007   0.00013   0.00002  -0.00070  -0.00000
  36 6   H  1S          0.00000   0.00000  -0.00000  -0.00000   0.00000
  37        2S          0.00001   0.00002  -0.00023  -0.00006   0.00000
  38        3S          0.00007   0.00012  -0.00056  -0.00011  -0.00000
                           6         7         8         9        10
   6        3S          0.45240
   7        3PX         0.00000   0.20265
   8        3PY         0.00000   0.00000   0.19660
   9        3PZ         0.00000   0.00000   0.00000   0.16670
  10        4S          0.21145   0.00000   0.00000   0.00000   0.18195
  11        4PX         0.00000   0.07108   0.00000   0.00000   0.00000
  12        4PY         0.00000   0.00000   0.06429   0.00000   0.00000
  13        4PZ         0.00000   0.00000   0.00000   0.10081   0.00000
  14 2   H  1S          0.01618   0.01110   0.03212   0.00002   0.01838
  15        2S          0.04149   0.01997   0.05713   0.00002   0.04732
  16        3S          0.00286   0.00399   0.01012   0.00000   0.00859
  17 3   H  1S          0.01712   0.04441  -0.00000   0.00002   0.01863
  18        2S          0.04283   0.07718  -0.00000   0.00002   0.04706
  19        3S          0.00288   0.01378   0.00000   0.00000   0.00787
  20 4   C  1S         -0.00059  -0.00057  -0.00172   0.00000   0.00032
  21        2S         -0.00099  -0.00105  -0.00317   0.00000   0.00028
  22        2PX         0.00240   0.00019   0.00550   0.00000   0.00078
  23        2PY         0.00722   0.00549   0.01061   0.00000   0.00233
  24        2PZ         0.00000  -0.00000  -0.00000   0.00612   0.00000
  25        3S          0.02165   0.01343   0.04053  -0.00000   0.00039
  26        3PX         0.01247  -0.00126   0.01853   0.00000   0.00394
  27        3PY         0.03747   0.01842   0.02857   0.00000   0.01172
  28        3PZ         0.00000  -0.00000  -0.00000   0.03520   0.00000
  29        4S          0.00079   0.00497   0.01525  -0.00000  -0.02013
  30        4PX         0.00631  -0.00403   0.00590   0.00000   0.00189
  31        4PY         0.01872   0.00591   0.00129   0.00000   0.00524
  32        4PZ         0.00000  -0.00000  -0.00000   0.04932   0.00000
  33 5   H  1S         -0.00005  -0.00000  -0.00019   0.00000  -0.00076
  34        2S         -0.00117   0.00007  -0.00318  -0.00000  -0.00306
  35        3S         -0.00191   0.00011  -0.00421  -0.00000  -0.00112
  36 6   H  1S         -0.00005  -0.00012  -0.00005   0.00000  -0.00076
  37        2S         -0.00114  -0.00251  -0.00051  -0.00000  -0.00317
  38        3S         -0.00189  -0.00350  -0.00055  -0.00000  -0.00132
                          11        12        13        14        15
  11        4PX         0.05944
  12        4PY         0.00000   0.05077
  13        4PZ         0.00000   0.00000   0.14279
  14 2   H  1S          0.00644   0.01731   0.00001   0.08133
  15        2S          0.01550   0.04035   0.00001   0.07732   0.14935
  16        3S          0.00523   0.01169  -0.00000   0.01364   0.04103
  17 3   H  1S          0.02353   0.00000   0.00001  -0.00001  -0.00063
  18        2S          0.05460   0.00000   0.00001  -0.00063  -0.00516
  19        3S          0.01627   0.00000  -0.00000  -0.00196  -0.00771
  20 4   C  1S         -0.00019  -0.00059   0.00000   0.00000   0.00002
  21        2S         -0.00047  -0.00146   0.00000   0.00000   0.00003
  22        2PX        -0.00072   0.00137   0.00000  -0.00000   0.00000
  23        2PY         0.00137   0.00096   0.00000  -0.00000  -0.00037
  24        2PZ        -0.00000  -0.00000   0.00899   0.00000   0.00000
  25        3S          0.00655   0.02032  -0.00000  -0.00007  -0.00154
  26        3PX        -0.00419   0.00555   0.00000  -0.00000   0.00003
  27        3PY         0.00554   0.00128   0.00000  -0.00023  -0.00362
  28        3PZ        -0.00000  -0.00000   0.04889   0.00000   0.00000
  29        4S          0.00257   0.00851  -0.00000  -0.00108  -0.00457
  30        4PX        -0.00719   0.00313   0.00000   0.00001   0.00016
  31        4PY         0.00317  -0.00560   0.00000  -0.00244  -0.01031
  32        4PZ        -0.00000  -0.00000   0.08973   0.00000  -0.00000
  33 5   H  1S          0.00003  -0.00233   0.00000   0.00000   0.00000
  34        2S          0.00029  -0.00983  -0.00000   0.00000   0.00016
  35        3S          0.00030  -0.00728  -0.00000   0.00023   0.00147
  36 6   H  1S         -0.00175  -0.00046   0.00000  -0.00000  -0.00004
  37        2S         -0.00822  -0.00098  -0.00000  -0.00004  -0.00093
  38        3S         -0.00652  -0.00027  -0.00000  -0.00047  -0.00248
                          16        17        18        19        20
  16        3S          0.02072
  17 3   H  1S         -0.00197   0.08254
  18        2S         -0.00773   0.07749   0.14789
  19        3S         -0.00644   0.01341   0.03992   0.01992
  20 4   C  1S          0.00010   0.00000   0.00002   0.00009   0.65948
  21        2S          0.00017   0.00000   0.00003   0.00017   0.49332
  22        2PX         0.00001  -0.00000  -0.00028  -0.00059   0.00000
  23        2PY        -0.00075  -0.00000  -0.00008  -0.00013   0.00000
  24        2PZ        -0.00000   0.00000   0.00000  -0.00000   0.00000
  25        3S         -0.00253  -0.00007  -0.00153  -0.00248  -0.02940
  26        3PX         0.00006  -0.00016  -0.00292  -0.00366   0.00000
  27        3PY        -0.00448  -0.00007  -0.00066  -0.00067   0.00000
  28        3PZ        -0.00000   0.00000   0.00000  -0.00000   0.00000
  29        4S         -0.00238  -0.00106  -0.00437  -0.00214  -0.01232
  30        4PX         0.00016  -0.00189  -0.00879  -0.00677   0.00000
  31        4PY        -0.00756  -0.00059  -0.00144  -0.00055   0.00000
  32        4PZ        -0.00000   0.00000  -0.00000  -0.00000   0.00000
  33 5   H  1S          0.00023  -0.00000  -0.00004  -0.00042  -0.00022
  34        2S          0.00144  -0.00004  -0.00090  -0.00233  -0.00159
  35        3S          0.00246  -0.00046  -0.00242  -0.00284   0.00005
  36 6   H  1S         -0.00043   0.00000   0.00000   0.00022  -0.00020
  37        2S         -0.00239   0.00000   0.00015   0.00141  -0.00154
  38        3S         -0.00291   0.00023   0.00145   0.00242   0.00004
                          21        22        23        24        25
  21        2S          0.49209
  22        2PX         0.00000   0.08264
  23        2PY         0.00000   0.00000   0.08767
  24        2PZ         0.00000   0.00000   0.00000   0.06418
  25        3S         -0.06464   0.00000   0.00000   0.00000   0.45402
  26        3PX         0.00000   0.08085   0.00000   0.00000   0.00000
  27        3PY         0.00000   0.00000   0.08273   0.00000   0.00000
  28        3PZ         0.00000   0.00000   0.00000   0.06462   0.00000
  29        4S         -0.02167   0.00000   0.00000   0.00000   0.21590
  30        4PX         0.00000   0.01621   0.00000   0.00000   0.00000
  31        4PY         0.00000   0.00000   0.01485   0.00000   0.00000
  32        4PZ         0.00000   0.00000   0.00000   0.02112   0.00000
  33 5   H  1S         -0.00031   0.00147   0.00578   0.00000   0.01552
  34        2S         -0.00304   0.00377   0.01377   0.00000   0.03943
  35        3S         -0.00005   0.00067   0.00201   0.00000   0.00252
  36 6   H  1S         -0.00028   0.00682   0.00002   0.00000   0.01482
  37        2S         -0.00295   0.01726   0.00001   0.00000   0.03862
  38        3S         -0.00007   0.00272  -0.00002   0.00000   0.00264
                          26        27        28        29        30
  26        3PX         0.20018
  27        3PY         0.00000   0.19780
  28        3PZ         0.00000   0.00000   0.16438
  29        4S          0.00000   0.00000   0.00000   0.18623
  30        4PX         0.07519   0.00000   0.00000   0.00000   0.06723
  31        4PY         0.00000   0.06662   0.00000   0.00000   0.00000
  32        4PZ         0.00000   0.00000   0.10027   0.00000   0.00000
  33 5   H  1S          0.00878   0.03389   0.00002   0.01753   0.00566
  34        2S          0.01703   0.06046   0.00002   0.04382   0.01445
  35        3S          0.00379   0.01080   0.00000   0.00665   0.00530
  36 6   H  1S          0.04145   0.00009   0.00002   0.01741   0.02464
  37        2S          0.07712  -0.00002   0.00002   0.04443   0.05954
  38        3S          0.01490  -0.00011   0.00000   0.00746   0.01892
                          31        32        33        34        35
  31        4PY         0.05406
  32        4PZ         0.00000   0.14326
  33 5   H  1S          0.01885   0.00001   0.08106
  34        2S          0.04399   0.00001   0.07778   0.15208
  35        3S          0.01295  -0.00000   0.01423   0.04356   0.02289
  36 6   H  1S         -0.00005   0.00001  -0.00001  -0.00082  -0.00240
  37        2S         -0.00028   0.00001  -0.00083  -0.00685  -0.00985
  38        3S         -0.00022  -0.00000  -0.00242  -0.00989  -0.00855
                          36        37        38
  36 6   H  1S          0.07999
  37        2S          0.07752   0.15299
  38        3S          0.01436   0.04429   0.02341
     Gross orbital populations:
                           1
   1 1   C  1S          1.10435
   2        2S          0.88586
   3        2PX         0.22736
   4        2PY         0.23605
   5        2PZ         0.16628
   6        3S          0.79278
   7        3PX         0.56192
   8        3PY         0.55539
   9        3PZ         0.42342
  10        4S          0.50429
  11        4PX         0.25807
  12        4PY         0.21111
  13        4PZ         0.41236
  14 2   H  1S          0.27406
  15        2S          0.46660
  16        3S          0.08545
  17 3   H  1S          0.27776
  18        2S          0.46433
  19        3S          0.08217
  20 4   C  1S          1.10441
  21        2S          0.88584
  22        2PX         0.22200
  23        2PY         0.23616
  24        2PZ         0.16545
  25        3S          0.79269
  26        3PX         0.55188
  27        3PY         0.55716
  28        3PZ         0.41952
  29        4S          0.50632
  30        4PX         0.27618
  31        4PY         0.21721
  32        4PZ         0.41274
  33 5   H  1S          0.27327
  34        2S          0.46915
  35        3S          0.08843
  36 6   H  1S          0.26994
  37        2S          0.47087
  38        3S          0.09117
          Condensed to atoms (all electrons):
               1          2          3          4          5          6
     1  C    5.030311   0.387886   0.388699   0.601895  -0.035040  -0.034522
     2  H    0.387886   0.515366  -0.032249  -0.041187   0.005995  -0.009696
     3  H    0.388699  -0.032249   0.511992  -0.040626  -0.009446   0.005885
     4  C    0.601895  -0.041187  -0.040626   5.060477   0.383795   0.383215
     5  H   -0.035040   0.005995  -0.009446   0.383795   0.527170  -0.041623
     6  H   -0.034522  -0.009696   0.005885   0.383215  -0.041623   0.528720
 Mulliken charges:
               1
     1  C   -0.339229
     2  H    0.173886
     3  H    0.175744
     4  C   -0.347570
     5  H    0.169149
     6  H    0.168020
 Sum of Mulliken charges =   0.00000
 Mulliken charges with hydrogens summed into heavy atoms:
               1
     1  C    0.010400
     4  C   -0.010400
 Electronic spatial extent (au):  <R**2>=             83.7171
 Charge=              0.0000 electrons
 Dipole moment (field-independent basis, Debye):
    X=              0.0056    Y=              0.0274    Z=             -0.1018  Tot=              0.1056
 Quadrupole moment (field-independent basis, Debye-Ang):
   XX=            -12.2035   YY=            -12.2181   ZZ=            -15.6700
   XY=              0.0145   XZ=              0.0004   YZ=             -0.0042
 Traceless Quadrupole moment (field-independent basis, Debye-Ang):
   XX=              1.1604   YY=              1.1458   ZZ=             -2.3062
   XY=              0.0145   XZ=              0.0004   YZ=             -0.0042
 Octapole moment (field-independent basis, Debye-Ang**2):
  XXX=             -0.4150  YYY=             -0.0128  ZZZ=             -0.0685  XYY=              0.2473
  XXY=             -0.0405  XXZ=             -0.1379  XZZ=             -0.1019  YZZ=             -0.0904
  YYZ=             -0.1813  XYZ=             -0.0378
 Hexadecapole moment (field-independent basis, Debye-Ang**3):
 XXXX=            -34.2980 YYYY=            -55.2048 ZZZZ=            -17.8143 XXXY=             -7.2685
 XXXZ=              0.0198 YYYX=            -10.7064 YYYZ=              0.0226 ZZZX=              0.0227
 ZZZY=              0.0451 XXYY=            -16.1854 XXZZ=             -9.9269 YYZZ=            -13.6386
 XXYZ=              0.0103 YYXZ=             -0.0008 ZZXY=             -3.2099
 N-N= 3.306960473113D+01 E-N=-2.478504877224D+02  KE= 7.815456447974D+01
 Orbital energies and kinetic energies (alpha):
                                 1                 2
   1         O               -10.290189         15.978324
   2         O               -10.288046         15.980025
   3         O                -0.863745          1.537303
   4         O                -0.672608          1.271734
   5         O                -0.559743          0.942932
   6         O                -0.509152          1.284641
   7         O                -0.436558          1.044107
   8         O                -0.356698          1.038218
   9         V                 0.079587          1.182221
  10         V                 0.140983          0.588834
  11         V                 0.164947          0.593567
  12         V                 0.170227          0.679207
  13         V                 0.240761          0.583031
  14         V                 0.371576          0.848394
  15         V                 0.393595          0.933800
  16         V                 0.400864          0.789173
  17         V                 0.464211          1.194679
  18         V                 0.488967          1.416954
  19         V                 0.493911          1.302326
  20         V                 0.590970          1.652007
  21         V                 0.665846          1.572738
  22         V                 0.691688          2.147211
  23         V                 0.772765          2.396312
  24         V                 0.775588          2.347790
  25         V                 0.842119          1.085722
  26         V                 0.951224          3.420005
  27         V                 2.231067          3.928973
  28         V                 2.290792          4.027001
  29         V                 2.332948          4.306112
  30         V                 2.407078          4.518235
  31         V                 2.671041          6.300663
  32         V                 2.817740          6.305927
  33         V                 2.878359          6.139972
  34         V                 2.951490          6.225773
  35         V                 3.140798          6.820311
  36         V                 3.319952          6.402165
  37         V                23.352834         60.074903
  38         V                23.705328         60.203260
 Total kinetic energy from orbitals= 7.815456447974D+01
 Calling FoFJK, ICntrl=      2127 FMM=F ISym2X=0 I1Cent= 0 IOpClX= 0 NMat=1 NMatS=1 NMatT=0.
 -------------------------------------------------------------------
 Center     Atomic                   Forces (Hartrees/Bohr)
 Number     Number              X              Y              Z
 -------------------------------------------------------------------
      1        6           0.015636845    0.011673823   -0.004033395
      2        1          -0.010325829    0.004548057    0.002027491
      3        1           0.001668680   -0.005728888    0.001847589
      4        6           0.010475904    0.009181069   -0.004451019
      5        1           0.000049628   -0.012828029    0.002239846
      6        1          -0.017505227   -0.006846032    0.002369489
 -------------------------------------------------------------------
 Cartesian Forces:  Max     0.017505227 RMS     0.008530453

 GradGradGradGradGradGradGradGradGradGradGradGradGradGradGradGradGradGrad
 Berny optimization.
 Search for a local minimum.
 Step number   1 out of a maximum of    2
 All quantities printed in internal units (Hartrees-Bohrs-Radians)
 Second derivative matrix not updated -- first step.
 The second derivative matrix:
                          X1        Y1        Z1        X2        Y2
           X1           0.76314
           Y1           0.09358   0.85576
           Z1           0.00610   0.00908   0.16988
           X2          -0.16759   0.09828   0.00216   0.14493
           Y2           0.10388  -0.28180  -0.00767  -0.11747   0.27034
           Z2           0.00343  -0.00965  -0.05443  -0.00313   0.00790
           X3          -0.35450   0.00038  -0.00854  -0.00000   0.00001
           Y3          -0.00516  -0.11084  -0.00205   0.03228   0.01930
           Z3          -0.01091  -0.00197  -0.05593   0.00159   0.00062
           X4          -0.26647  -0.17757  -0.00077   0.02268   0.01358
           Y4          -0.17784  -0.47147  -0.00122  -0.01309  -0.00784
           Z4           0.00136   0.00250  -0.09409  -0.00061  -0.00085
           X5           0.02363  -0.01364   0.00066  -0.00001   0.00000
           Y5           0.01151  -0.00664   0.00089   0.00000  -0.00000
           Z5          -0.00053   0.00033   0.01771   0.00026  -0.00013
           X6           0.00178  -0.00103   0.00039  -0.00001   0.00000
           Y6          -0.02596   0.01499   0.00097   0.00000  -0.00000
           Z6           0.00054  -0.00029   0.01687  -0.00025   0.00013
                          Z2        X3        Y3        Z3        X4
           Z2           0.02835
           X3          -0.00030   0.35453
           Y3           0.00173  -0.00040   0.07612
           Z3           0.01058   0.00930   0.00134   0.02933
           X4           0.00053  -0.00002  -0.02672  -0.00051   0.70938
           Y4          -0.00028   0.00001   0.01543   0.00032   0.12225
           Z4           0.01540  -0.00046  -0.00101   0.01613  -0.00523
           X5          -0.00027  -0.00001   0.00000   0.00027  -0.14499
           Y5           0.00017   0.00000  -0.00000  -0.00017   0.09205
           Z5           0.00924   0.00027  -0.00017  -0.00942  -0.00327
           X6          -0.00026  -0.00001   0.00000   0.00026  -0.32058
           Y6           0.00014   0.00000  -0.00000  -0.00014  -0.02359
           Z6          -0.00914  -0.00027   0.00017   0.00932   0.00926
                          Y4        Z4        X5        Y5        Z5
           Y4           0.86108
           Z4          -0.01047   0.17693
           X5           0.08342  -0.00217   0.12364
           Y5          -0.29294   0.00784  -0.10248   0.28369
           Z5           0.00968  -0.05776   0.00290  -0.00838   0.03000
           X6          -0.01475   0.00712  -0.00226  -0.00109   0.00037
           Y6          -0.10425   0.00200   0.03269   0.01590  -0.00133
           Z6           0.00197  -0.05662  -0.00139  -0.00035   0.01023
                          X6        Y6        Z6
           X6           0.32108
           Y6           0.01686   0.07336
           Z6          -0.00789  -0.00163   0.02934
 ITU=  0
     Eigenvalues ---    0.03717   0.04386   0.09218   0.10062   0.13521
     Eigenvalues ---    0.17478   0.26360   0.29109   0.52990   0.70182
     Eigenvalues ---    0.97783   1.55956
 Angle between quadratic step and forces=  35.53 degrees.
 Linear search not attempted -- first point.
 B after Tr=     0.008029    0.008845   -0.010464
         Rot=    1.000000   -0.000052    0.000029   -0.000114 Ang=  -0.01 deg.
 Variable       Old X    -DE/DX   Delta X   Delta X   Delta X     New X
                                 (Linear)    (Quad)   (Total)
    X1       -0.63674   0.01564   0.00000   0.02407   0.03235  -0.60439
    Y1       -1.10122   0.01167   0.00000   0.02666   0.03536  -1.06586
    Z1        0.01320  -0.00403   0.00000  -0.02233  -0.03294  -0.01974
    X2        0.42812  -0.01033   0.00000  -0.04373  -0.03504   0.39307
    Y2       -2.87730   0.00455   0.00000   0.01613   0.02506  -2.85223
    Z2       -0.04234   0.00203   0.00000   0.02731   0.01658  -0.02576
    X3       -2.68492   0.00167   0.00000   0.02748   0.03576  -2.64916
    Y3       -1.09855  -0.00573   0.00000  -0.02100  -0.01276  -1.11130
    Z3       -0.04532   0.00185   0.00000   0.02683   0.01610  -0.02922
    X4        0.62854   0.01048   0.00000   0.00914   0.01692   0.64546
    Y4        1.09023   0.00918   0.00000   0.00998   0.01898   1.10920
    Z4        0.00977  -0.00445   0.00000  -0.02097  -0.03128  -0.02151
    X5       -0.28448   0.00005   0.00000  -0.02311  -0.01575  -0.30023
    Y5        2.96222  -0.01283   0.00000  -0.04293  -0.03415   2.92807
    Z5       -0.05054   0.00224   0.00000   0.02623   0.01605  -0.03449
    X6        2.72694  -0.01751   0.00000  -0.04200  -0.03424   2.69270
    Y6        1.23264  -0.00685   0.00000  -0.04195  -0.03249   1.20015
    Z6       -0.04750   0.00237   0.00000   0.02568   0.01549  -0.03200
         Item               Value     Threshold  Converged?
 Maximum Force            0.017505     0.000450     NO 
 RMS     Force            0.008530     0.000300     NO 
 Maximum Displacement     0.035764     0.001800     NO 
 RMS     Displacement     0.026852     0.001200     NO 
 Predicted change in Energy=-1.772906D-03
 GradGradGradGradGradGradGradGradGradGradGradGradGradGradGradGradGradGrad

 Unable to Open any file for archive entry.
 1\1\GINC-BHD0004\Force\RwB97XD\6-311G\C2H4\BWEIGHT\11-Jan-2023\0\\# WB
 97XD/6-311G SCF=XQC FORCE nosym pop=full guess=read\\MD Step 1000\\0,1
 \C,-0.33694705,-0.58274307,0.00698462\H,0.22654983,-1.52259999,-0.0224
 0655\H,-1.42080068,-0.58132541,-0.02398165\C,0.33260916,0.57692322,0.0
 0517103\H,-0.1505427,1.56753878,-0.02674673\H,1.44303453,0.65228604,-0
 .02513509\\Version=ES64L-G16RevC.01\HF=-78.5554\RMSD=5.108e-09\RMSF=8.
 530e-03\Dipole=0.002203,0.0107892,-0.0400597\Quadrupole=0.8627081,0.85
 18676,-1.7145756,0.0108009,0.0002816,-0.0031413\PG=C01 [X(C2H4)]\\@
 The archive entry for this job was punched.


 KNOWING HOW CONTENTED, FREE, AND JOYFUL IS LIFE IN
 THE REALMS OF SCIENCE, ONE FERVENTLY WISHES THAT
 MANY WOULD ENTER HER PORTALS.
   --  DMITRI IVANOVICH MENDELEEV
 "FIRST PRINCIPLES OF CHEMISTRY", LONGMANS, GREEN,
 AND CO.  LONDON, 1891
 Job cpu time:       0 days  0 hours  1 minutes  8.3 seconds.
 Elapsed time:       0 days  0 hours  0 minutes 23.5 seconds.
 File lengths (MBytes):  RWF=    272 Int=      0 D2E=      0 Chk=     32 Scr=     32
 Normal termination of Gaussian 16 at Wed Jan 11 18:30:37 2023.
