 Entering Gaussian System, Link 0=g16
 Initial command:
 /software/gaussian/g16-c01/avx2/g16/l1.exe "/gpfs/fs2/scratch/bweight/software/many_molecule_many_mode_NAMD/src/NAMD/TEST_NVT/TRAJ/traj-90/G16/GS_NEW/Gau-22595.inp" -scrdir="/gpfs/fs2/scratch/bweight/software/many_molecule_many_mode_NAMD/src/NAMD/TEST_NVT/TRAJ/traj-90/G16/GS_NEW/"
 Entering Link 1 = /software/gaussian/g16-c01/avx2/g16/l1.exe PID=     22596.
  
 Copyright (c) 1988-2019, Gaussian, Inc.  All Rights Reserved.
  
 This is part of the Gaussian(R) 16 program.  It is based on
 the Gaussian(R) 09 system (copyright 2009, Gaussian, Inc.),
 the Gaussian(R) 03 system (copyright 2003, Gaussian, Inc.),
 the Gaussian(R) 98 system (copyright 1998, Gaussian, Inc.),
 the Gaussian(R) 94 system (copyright 1995, Gaussian, Inc.),
 the Gaussian 92(TM) system (copyright 1992, Gaussian, Inc.),
 the Gaussian 90(TM) system (copyright 1990, Gaussian, Inc.),
 the Gaussian 88(TM) system (copyright 1988, Gaussian, Inc.),
 the Gaussian 86(TM) system (copyright 1986, Carnegie Mellon
 University), and the Gaussian 82(TM) system (copyright 1983,
 Carnegie Mellon University). Gaussian is a federally registered
 trademark of Gaussian, Inc.
  
 This software contains proprietary and confidential information,
 including trade secrets, belonging to Gaussian, Inc.
  
 This software is provided under written license and may be
 used, copied, transmitted, or stored only in accord with that
 written license.
  
 The following legend is applicable only to US Government
 contracts under FAR:
  
                    RESTRICTED RIGHTS LEGEND
  
 Use, reproduction and disclosure by the US Government is
 subject to restrictions as set forth in subparagraphs (a)
 and (c) of the Commercial Computer Software - Restricted
 Rights clause in FAR 52.227-19.
  
 Gaussian, Inc.
 340 Quinnipiac St., Bldg. 40, Wallingford CT 06492
  
  
 ---------------------------------------------------------------
 Warning -- This program may not be used in any manner that
 competes with the business of Gaussian, Inc. or will provide
 assistance to any competitor of Gaussian, Inc.  The licensee
 of this program is prohibited from giving any competitor of
 Gaussian, Inc. access to this program.  By using this program,
 the user acknowledges that Gaussian, Inc. is engaged in the
 business of creating and licensing software in the field of
 computational chemistry and represents and warrants to the
 licensee that it is not a competitor of Gaussian, Inc. and that
 it will not use this program in any manner prohibited above.
 ---------------------------------------------------------------
  

 Cite this work as:
 Gaussian 16, Revision C.01,
 M. J. Frisch, G. W. Trucks, H. B. Schlegel, G. E. Scuseria, 
 M. A. Robb, J. R. Cheeseman, G. Scalmani, V. Barone, 
 G. A. Petersson, H. Nakatsuji, X. Li, M. Caricato, A. V. Marenich, 
 J. Bloino, B. G. Janesko, R. Gomperts, B. Mennucci, H. P. Hratchian, 
 J. V. Ortiz, A. F. Izmaylov, J. L. Sonnenberg, D. Williams-Young, 
 F. Ding, F. Lipparini, F. Egidi, J. Goings, B. Peng, A. Petrone, 
 T. Henderson, D. Ranasinghe, V. G. Zakrzewski, J. Gao, N. Rega, 
 G. Zheng, W. Liang, M. Hada, M. Ehara, K. Toyota, R. Fukuda, 
 J. Hasegawa, M. Ishida, T. Nakajima, Y. Honda, O. Kitao, H. Nakai, 
 T. Vreven, K. Throssell, J. A. Montgomery, Jr., J. E. Peralta, 
 F. Ogliaro, M. J. Bearpark, J. J. Heyd, E. N. Brothers, K. N. Kudin, 
 V. N. Staroverov, T. A. Keith, R. Kobayashi, J. Normand, 
 K. Raghavachari, A. P. Rendell, J. C. Burant, S. S. Iyengar, 
 J. Tomasi, M. Cossi, J. M. Millam, M. Klene, C. Adamo, R. Cammi, 
 J. W. Ochterski, R. L. Martin, K. Morokuma, O. Farkas, 
 J. B. Foresman, and D. J. Fox, Gaussian, Inc., Wallingford CT, 2019.
 
 ******************************************
 Gaussian 16:  ES64L-G16RevC.01  3-Jul-2019
                11-Jan-2023 
 ******************************************
 %oldchk=../GS_OLD/geometry.chk
 %chk=geometry.chk
 %nprocshared=4
 Will use up to    4 processors via shared memory.
 %mem=5GB
 Copying data from "../GS_OLD/geometry.chk" to current chk file "geometry.chk"
 IOpt=  2 FromEx=T IUOpen= 4 IOptOp= 5 NList=   0 IFRang= 0 IUIn= 4 IUOut= 2.
 -------------------------------------------------------
 # WB97XD/6-311G SCF=XQC FORCE nosym pop=full guess=read
 -------------------------------------------------------
 1/10=7,30=1,38=1/1,3;
 2/12=2,15=1,17=6,18=5,40=1/2;
 3/5=4,6=6,11=2,25=1,30=1,71=1,74=-58,116=-2/1,2,3;
 4/5=1/1;
 5/5=2,8=3,13=1,38=6/2,8;
 6/7=3,28=1/1;
 7/29=1,30=1/1,2,3,16;
 1/10=7,30=1/3;
 99//99;
 -----------
 MD Step 999
 -----------
 Symbolic Z-matrix:
 Charge =  0 Multiplicity = 1
 C                    -0.33733  -0.58412   0.0092 
 H                     0.229    -1.51824  -0.03268 
 H                    -1.42045  -0.56842  -0.03328 
 C                     0.3318    0.57437   0.00548 
 H                    -0.15104   1.57523  -0.03664 
 H                     1.44492   0.6641   -0.03572 
 

 GradGradGradGradGradGradGradGradGradGradGradGradGradGradGradGradGradGrad
 Berny optimization.
 Initialization pass.
 Trust Radius=3.00D-01 FncErr=1.00D-07 GrdErr=1.00D-07 EigMax=2.50D+02 EigMin=1.00D-04
 Number of steps in this run=      2 maximum allowed number of steps=      2.
 GradGradGradGradGradGradGradGradGradGradGradGradGradGradGradGradGradGrad

                          Input orientation:                          
 ---------------------------------------------------------------------
 Center     Atomic      Atomic             Coordinates (Angstroms)
 Number     Number       Type             X           Y           Z
 ---------------------------------------------------------------------
      1          6           0       -0.337333   -0.584119    0.009199
      2          1           0        0.228995   -1.518239   -0.032680
      3          1           0       -1.420455   -0.568422   -0.033283
      4          6           0        0.331803    0.574373    0.005476
      5          1           0       -0.151040    1.575228   -0.036638
      6          1           0        1.444924    0.664103   -0.035716
 ---------------------------------------------------------------------
                    Distance matrix (angstroms):
                    1          2          3          4          5
     1  C    0.000000
     2  H    1.093189   0.000000
     3  H    1.084068   1.903375   0.000000
     4  C    1.337856   2.095484   2.092341   0.000000
     5  H    2.167853   3.116726   2.491317   1.112035   0.000000
     6  H    2.176354   2.498222   3.119218   1.117492   1.837730
                    6
     6  H    0.000000
 Symmetry turned off by external request.
 Stoichiometry    C2H4
 Framework group  C1[X(C2H4)]
 Deg. of freedom    12
 Full point group                 C1      NOp   1
 Rotational constants (GHZ):         143.0255655          29.6830112          24.5959080
 Standard basis: 6-311G (5D, 7F)
    38 basis functions,    72 primitive gaussians,    38 cartesian basis functions
     8 alpha electrons        8 beta electrons
       nuclear repulsion energy        33.0549555153 Hartrees.
 NAtoms=    6 NActive=    6 NUniq=    6 SFac= 1.00D+00 NAtFMM=   60 NAOKFM=F Big=F
 Integral buffers will be    131072 words long.
 Raffenetti 2 integral format.
 Two-electron integral symmetry is turned off.
 Nuclear repulsion after empirical dispersion term =       33.0541123512 Hartrees.
 One-electron integrals computed using PRISM.
 NBasis=    38 RedAO= T EigKep=  6.41D-03  NBF=    38
 NBsUse=    38 1.00D-06 EigRej= -1.00D+00 NBFU=    38
 Initial guess from the checkpoint file:  "geometry.chk"
 B after Tr=    -0.000154   -0.000249   -0.000421
         Rot=    1.000000    0.000002   -0.000001    0.000004 Ang=   0.00 deg.
 Keep R1 ints in memory in canonical form, NReq=4036876.
 Requested convergence on RMS density matrix=1.00D-08 within  32 cycles.
 Requested convergence on MAX density matrix=1.00D-06.
 Requested convergence on             energy=1.00D-06.
 No special actions if energy rises.
 SCF Done:  E(RwB97XD) =  -78.5544190766     A.U. after    8 cycles
            NFock=  8  Conv=0.60D-08     -V/T= 2.0052
 QCSCF skips out because SCF is already converged.

 **********************************************************************

            Population analysis using the SCF Density.

 **********************************************************************

 Alpha  occ. eigenvalues --  -10.29129 -10.28789  -0.86408  -0.67172  -0.55981
 Alpha  occ. eigenvalues --   -0.50902  -0.43536  -0.35704
 Alpha virt. eigenvalues --    0.07958   0.14059   0.16427   0.16977   0.24053
 Alpha virt. eigenvalues --    0.36942   0.39303   0.40287   0.46269   0.48931
 Alpha virt. eigenvalues --    0.49367   0.59097   0.66496   0.69088   0.77140
 Alpha virt. eigenvalues --    0.77583   0.83855   0.95202   2.23076   2.29123
 Alpha virt. eigenvalues --    2.33295   2.40489   2.67113   2.81674   2.87773
 Alpha virt. eigenvalues --    2.95073   3.14142   3.31694  23.35125  23.70585
     Molecular Orbital Coefficients:
                           1         2         3         4         5
                           O         O         O         O         O
     Eigenvalues --   -10.29129 -10.28789  -0.86408  -0.67172  -0.55981
   1 1   C  1S          0.07354   0.55857  -0.08879   0.06627  -0.00036
   2        2S          0.06073   0.45970  -0.14038   0.10611  -0.00060
   3        2PX         0.00016   0.00001   0.02608   0.03524   0.14066
   4        2PY         0.00028   0.00002   0.04632   0.05834  -0.07745
   5        2PZ         0.00000  -0.00001  -0.00184   0.00261   0.00018
   6        3S          0.00104   0.01463   0.37664  -0.28945   0.00167
   7        3PX        -0.00062   0.00040   0.03490   0.05663   0.22083
   8        3PY        -0.00107   0.00072   0.06172   0.09463  -0.12217
   9        3PZ        -0.00001  -0.00005  -0.00308   0.00463   0.00026
  10        4S          0.00396  -0.01455   0.19256  -0.22334   0.00157
  11        4PX         0.00156  -0.00148   0.00478   0.02261   0.11296
  12        4PY         0.00269  -0.00257   0.00850   0.03892  -0.06313
  13        4PZ        -0.00000   0.00011  -0.00103   0.00230   0.00012
  14 2   H  1S         -0.00004  -0.00007   0.05353  -0.08662   0.10705
  15        2S         -0.00030   0.00009   0.05474  -0.10458   0.13531
  16        3S          0.00076   0.00174  -0.00196  -0.01492   0.04368
  17 3   H  1S         -0.00004  -0.00008   0.05466  -0.08933  -0.10892
  18        2S         -0.00030   0.00008   0.05546  -0.10724  -0.13691
  19        3S          0.00077   0.00177  -0.00196  -0.01566  -0.04423
  20 4   C  1S          0.55859  -0.07374  -0.08642  -0.06876  -0.00013
  21        2S          0.45975  -0.06048  -0.13642  -0.11031  -0.00020
  22        2PX        -0.00000  -0.00017  -0.02782   0.03873   0.11433
  23        2PY         0.00000  -0.00029  -0.04730   0.06817  -0.06987
  24        2PZ        -0.00000   0.00000  -0.00124  -0.00261   0.00019
  25        3S          0.01416  -0.00277   0.36536   0.30156   0.00056
  26        3PX        -0.00024   0.00072  -0.03449   0.06271   0.17875
  27        3PY        -0.00040   0.00124  -0.05844   0.11009  -0.10857
  28        3PZ        -0.00004  -0.00001  -0.00216  -0.00473   0.00029
  29        4S         -0.01258   0.00780   0.18800   0.24104  -0.00036
  30        4PX         0.00097  -0.00187  -0.00558   0.02773   0.09986
  31        4PY         0.00163  -0.00324  -0.00930   0.04760  -0.05996
  32        4PZ         0.00008  -0.00001  -0.00095  -0.00248   0.00015
  33 5   H  1S         -0.00005  -0.00005   0.04851   0.09406  -0.08455
  34        2S         -0.00000  -0.00032   0.04984   0.11247  -0.10667
  35        3S          0.00176   0.00022  -0.00097   0.01697  -0.03422
  36 6   H  1S         -0.00004  -0.00005   0.04770   0.09316   0.08139
  37        2S         -0.00001  -0.00032   0.04941   0.11165   0.10287
  38        3S          0.00173   0.00022  -0.00102   0.01662   0.03322
                           6         7         8         9        10
                           O         O         O         V         V
     Eigenvalues --    -0.50902  -0.43536  -0.35704   0.07958   0.14059
   1 1   C  1S         -0.00221   0.00007  -0.00146   0.00366  -0.03230
   2        2S         -0.00315   0.00013  -0.00238   0.00608  -0.05179
   3        2PX         0.09575  -0.10655  -0.00436   0.00187  -0.03285
   4        2PY         0.16829   0.06353  -0.00753   0.00322  -0.06325
   5        2PZ         0.00664   0.00007   0.17941  -0.18877  -0.00325
   6        3S          0.01428  -0.00017   0.00696  -0.01836   0.11201
   7        3PX         0.13892  -0.17007  -0.00617   0.00279  -0.03957
   8        3PY         0.24525   0.10178  -0.01065   0.00476  -0.07852
   9        3PZ         0.01054   0.00014   0.28882  -0.27777  -0.00521
  10        4S         -0.06007  -0.00236   0.00923  -0.02176   1.20710
  11        4PX         0.06982  -0.10694  -0.00521   0.01618  -0.19205
  12        4PY         0.12395   0.06410  -0.00906   0.02783  -0.36337
  13        4PZ         0.00601   0.00013   0.26686  -0.69370  -0.01909
  14 2   H  1S         -0.08091  -0.11143   0.00014   0.00579  -0.01675
  15        2S         -0.11245  -0.17143   0.00265   0.00923  -0.04649
  16        3S         -0.04205  -0.07911   0.00156   0.02378  -0.80006
  17 3   H  1S         -0.08034   0.10941   0.00003   0.00579  -0.01432
  18        2S         -0.11114   0.16765   0.00250   0.00922  -0.04096
  19        3S         -0.04130   0.07706   0.00148   0.02329  -0.76139
  20 4   C  1S         -0.00975  -0.00037  -0.00091  -0.00335  -0.03734
  21        2S         -0.01534  -0.00061  -0.00149  -0.00554  -0.06000
  22        2PX        -0.09680   0.12818   0.00439   0.00224   0.03968
  23        2PY        -0.16159  -0.07562   0.00798   0.00404   0.06326
  24        2PZ         0.00707   0.00025   0.17902   0.18947  -0.00392
  25        3S          0.04876   0.00175   0.00442   0.01663   0.13311
  26        3PX        -0.14348   0.20532   0.00611   0.00346   0.04801
  27        3PY        -0.23837  -0.12049   0.01118   0.00625   0.07504
  28        3PZ         0.01117   0.00037   0.28616   0.27759  -0.00595
  29        4S         -0.02254   0.00206   0.00844   0.01775   1.25400
  30        4PX        -0.07533   0.13350   0.00455   0.01722   0.26547
  31        4PY        -0.12419  -0.07806   0.00848   0.03032   0.43423
  32        4PZ         0.00647   0.00024   0.26727   0.69552  -0.02308
  33 5   H  1S         -0.07401  -0.12752   0.00039  -0.00502  -0.01303
  34        2S         -0.10106  -0.19973   0.00284  -0.00840  -0.04033
  35        3S         -0.03788  -0.09450   0.00161  -0.02244  -0.85112
  36 6   H  1S         -0.07874   0.12659   0.00027  -0.00501  -0.01525
  37        2S         -0.10777   0.19903   0.00266  -0.00848  -0.04599
  38        3S         -0.04047   0.09423   0.00149  -0.02271  -0.89070
                          11        12        13        14        15
                           V         V         V         V         V
     Eigenvalues --     0.16427   0.16977   0.24053   0.36942   0.39303
   1 1   C  1S          0.00047  -0.04645   0.00010   0.00755  -0.00016
   2        2S          0.00075  -0.07573   0.00015   0.00959  -0.00045
   3        2PX         0.09481  -0.02025   0.10020  -0.03445  -0.01994
   4        2PY        -0.05381  -0.03666  -0.05734  -0.06163   0.01204
   5        2PZ         0.00003  -0.00893   0.00001  -0.00615  -0.00017
   6        3S         -0.00164   0.17198   0.00022   0.03916   0.00449
   7        3PX         0.13611  -0.01168   0.10484  -0.03935  -0.09695
   8        3PY        -0.07778  -0.02279  -0.06061  -0.07406   0.06011
   9        3PZ         0.00004  -0.01247  -0.00004  -0.01315  -0.00042
  10        4S         -0.02506   1.46677  -0.02139  -2.29792  -0.03020
  11        4PX         0.58404  -0.11841   1.17348  -1.48635  -0.51105
  12        4PY        -0.32479  -0.20784  -0.67560  -2.58583   0.19145
  13        4PZ         0.00037  -0.05814   0.00065  -0.05431  -0.00255
  14 2   H  1S         -0.02907  -0.02560   0.01580  -0.06357   0.07205
  15        2S         -0.08516  -0.01878  -0.01987  -0.70366   0.72330
  16        3S         -1.04967  -1.02234  -1.55250  -0.25557  -0.25915
  17 3   H  1S          0.02820  -0.02563  -0.01739  -0.05839  -0.07542
  18        2S          0.08402  -0.02091   0.01473  -0.66110  -0.76934
  19        3S          1.08068  -1.03207   1.57935  -0.31134   0.23442
  20 4   C  1S          0.00096   0.04139  -0.00012  -0.02012  -0.00008
  21        2S          0.00153   0.06735  -0.00021  -0.03343  -0.00020
  22        2PX         0.10369  -0.02364  -0.10060  -0.03896  -0.03276
  23        2PY        -0.06174  -0.03761   0.05768  -0.06982   0.01570
  24        2PZ         0.00021   0.00830  -0.00003   0.00389   0.00015
  25        3S         -0.00307  -0.14885   0.00032   0.05363   0.00192
  26        3PX         0.14888  -0.01930  -0.11630  -0.09209  -0.11223
  27        3PY        -0.08788  -0.02848   0.06578  -0.16670   0.05445
  28        3PZ         0.00030   0.01140  -0.00001   0.00391   0.00019
  29        4S         -0.04269  -1.30600   0.01327   3.11109   0.07772
  30        4PX         0.53614  -0.11839  -1.11100  -1.03660  -0.47718
  31        4PY        -0.32263  -0.19044   0.63930  -1.81582   0.23137
  32        4PZ         0.00133   0.05390  -0.00071   0.04502   0.00105
  33 5   H  1S          0.03226   0.02492   0.00315   0.00347  -0.08510
  34        2S          0.06666   0.02246  -0.03828  -0.01512  -0.85356
  35        3S          1.06354   0.90836  -1.50668   0.42821   0.51502
  36 6   H  1S         -0.03215   0.02570  -0.00239  -0.00106   0.08741
  37        2S         -0.06694   0.02269   0.03875  -0.05099   0.86813
  38        3S         -1.00532   0.92811   1.49230   0.44554  -0.51507
                          16        17        18        19        20
                           V         V         V         V         V
     Eigenvalues --     0.40287   0.46269   0.48931   0.49367   0.59097
   1 1   C  1S         -0.02000   0.01509  -0.04458  -0.00297  -0.00065
   2        2S         -0.03463   0.03322  -0.07383  -0.00456  -0.00114
   3        2PX         0.03272  -0.06207   0.00687   0.00184   0.00252
   4        2PY         0.05679  -0.10703   0.00737   0.00259   0.00391
   5        2PZ         0.00110  -0.00063   0.01533  -0.15078  -0.19264
   6        3S          0.06964  -0.33843   0.06118  -0.00951  -0.00199
   7        3PX         0.11656  -0.23676  -0.05592  -0.00335   0.00832
   8        3PY         0.20450  -0.40694  -0.10630  -0.00740   0.01302
   9        3PZ        -0.00333  -0.00616   0.06576  -0.62397  -0.68575
  10        4S          3.11620   0.01491   3.04942   0.29274   0.09394
  11        4PX         0.47569   0.20363   0.83811   0.08805   0.02955
  12        4PY         0.79816   0.38098   1.46270   0.15534   0.05010
  13        4PZ        -0.00215   0.00665  -0.15600   0.67406   1.24147
  14 2   H  1S         -0.02579  -0.02734  -0.07623  -0.00789  -0.00223
  15        2S         -0.52781  -0.25777  -0.90863  -0.08555  -0.01785
  16        3S          0.37955   0.02017   0.63858   0.07781   0.03075
  17 3   H  1S         -0.02533  -0.02974  -0.07444  -0.00772  -0.00213
  18        2S         -0.51272  -0.28613  -0.89066  -0.08424  -0.01587
  19        3S          0.37077   0.02494   0.61167   0.07512   0.03027
  20 4   C  1S          0.00231  -0.00640   0.05079   0.00694   0.00099
  21        2S          0.00018  -0.00341   0.08914   0.01243   0.00185
  22        2PX         0.01346   0.05216   0.03047   0.00189   0.00277
  23        2PY         0.02261   0.09103   0.05469   0.00332   0.00522
  24        2PZ        -0.00517  -0.00288   0.01542  -0.15226   0.19215
  25        3S          0.07655  -0.26557  -0.25956  -0.04377  -0.00452
  26        3PX        -0.03170   0.22701   0.07478   0.00474   0.00981
  27        3PY        -0.05693   0.39792   0.13251   0.00791   0.01827
  28        3PZ        -0.01382  -0.01108   0.06055  -0.62958   0.68148
  29        4S         -1.37629   0.89297  -3.02352  -0.31942  -0.07863
  30        4PX         1.45618  -0.34092   0.55758   0.05119   0.02801
  31        4PY         2.55382  -0.56559   0.94246   0.08593   0.04874
  32        4PZ        -0.04595  -0.02355   0.00296   0.69833  -1.23683
  33 5   H  1S         -0.03936  -0.07034   0.05972   0.00654   0.00199
  34        2S         -0.78651  -0.73057   0.77082   0.09091   0.00616
  35        3S         -0.29191   0.31545  -0.51950  -0.04374  -0.02951
  36 6   H  1S         -0.03981  -0.06881   0.05998   0.00661   0.00204
  37        2S         -0.78555  -0.70869   0.76552   0.09027   0.00704
  38        3S         -0.27864   0.32403  -0.53343  -0.04577  -0.02981
                          21        22        23        24        25
                           V         V         V         V         V
     Eigenvalues --     0.66496   0.69088   0.77140   0.77583   0.83855
   1 1   C  1S          0.00048  -0.00052   0.04901   0.07428   0.00102
   2        2S          0.00098  -0.00115   0.10330   0.15833   0.00224
   3        2PX        -0.12521   0.20369  -0.02835   0.11141  -0.01127
   4        2PY         0.07300  -0.12083  -0.04960   0.18419   0.01138
   5        2PZ        -0.00003   0.00015   0.00082   0.00636   0.00016
   6        3S         -0.00787   0.01380  -0.68426  -1.36493  -0.02029
   7        3PX        -0.58810   0.72255  -0.18330   0.43119  -0.23300
   8        3PY         0.34047  -0.42780  -0.32030   0.70620   0.15310
   9        3PZ        -0.00025   0.00063   0.00327   0.02206   0.00069
  10        4S          0.01654  -0.06196   0.61910   2.46038  -0.04482
  11        4PX         1.03415  -0.80824   0.13801  -0.70395   4.56039
  12        4PY        -0.59942   0.47720   0.22544  -1.00991  -2.63012
  13        4PZ         0.00004   0.00098   0.01327  -0.07186   0.00259
  14 2   H  1S          0.02206  -0.05993   0.00913   0.03328  -0.02773
  15        2S          0.12213  -0.66431   0.08725   0.08883  -1.61101
  16        3S         -1.00478   1.13298  -0.06897  -1.12258  -1.25064
  17 3   H  1S         -0.02165   0.05951   0.00904   0.03388   0.03025
  18        2S         -0.13176   0.68969   0.09383   0.06897   1.64150
  19        3S          0.99791  -1.10952  -0.06841  -1.22631   1.25221
  20 4   C  1S          0.00070  -0.00059   0.08321   0.03377   0.00075
  21        2S          0.00140  -0.00115   0.17715   0.07114   0.00160
  22        2PX        -0.15781  -0.17816  -0.09975   0.05086   0.00856
  23        2PY         0.09057   0.10034  -0.17637   0.09204  -0.00132
  24        2PZ        -0.00007  -0.00020   0.00652  -0.00130  -0.00014
  25        3S         -0.00964   0.00387  -1.48448  -0.42368  -0.01142
  26        3PX        -0.70543  -0.59386  -0.36743   0.27482   0.22825
  27        3PY         0.40634   0.33222  -0.65110   0.49442  -0.11097
  28        3PZ        -0.00039  -0.00069   0.02317  -0.00512  -0.00043
  29        4S          0.00584   0.03069   2.71382   0.20473   0.03007
  30        4PX         1.33080   0.70448   0.55806  -0.27691  -4.07448
  31        4PY        -0.76135  -0.40025   1.01225  -0.64719   2.30253
  32        4PZ         0.00083  -0.00036  -0.06729   0.03166  -0.00205
  33 5   H  1S         -0.02669  -0.05399   0.03458   0.00426  -0.02093
  34        2S         -0.14839  -0.53051   0.06569   0.06791  -1.35791
  35        3S          1.14213   0.94571  -1.14007   0.26237  -1.05974
  36 6   H  1S          0.02704   0.05359   0.03441   0.00489   0.02157
  37        2S          0.14570   0.50870   0.06314   0.02994   1.35442
  38        3S         -1.14345  -0.94908  -1.10888   0.21253   1.06650
                          26        27        28        29        30
                           V         V         V         V         V
     Eigenvalues --     0.95202   2.23076   2.29123   2.33295   2.40489
   1 1   C  1S          0.09628  -0.00994  -0.01499   0.00024  -0.00035
   2        2S          0.20016   0.00208  -0.01488   0.00062  -0.00034
   3        2PX        -0.09121  -0.06637  -0.13309   0.35608  -0.40159
   4        2PY        -0.15804  -0.12414  -0.23023  -0.20351   0.23015
   5        2PZ         0.00047  -0.01781  -0.02447  -0.00012  -0.00064
   6        3S         -1.55192  -0.19025  -0.04134  -0.00152  -0.00398
   7        3PX        -0.23301   0.05587   0.21000  -0.42458   0.56130
   8        3PY        -0.39880   0.11675   0.37394   0.24428  -0.32415
   9        3PZ        -0.00281   0.01774   0.03028   0.00025   0.00072
  10        4S          5.71641  -0.09540  -0.88155  -0.00041  -0.02461
  11        4PX         1.18852   0.05829  -0.19659  -0.09057   0.98411
  12        4PY         2.00847   0.07973  -0.35793   0.04527  -0.55620
  13        4PZ        -0.02725   0.00376   0.01126  -0.00030   0.00126
  14 2   H  1S          0.01477  -0.68884  -0.81504  -0.70836   0.64901
  15        2S         -0.27692   0.97418   1.21811   1.11224  -1.46250
  16        3S         -0.09602  -0.28652  -0.48234  -0.45753   0.35366
  17 3   H  1S          0.01484  -0.68066  -0.81629   0.69866  -0.66717
  18        2S         -0.25980   0.96397   1.22163  -1.10112   1.49905
  19        3S         -0.08782  -0.26726  -0.47282   0.44712  -0.34907
  20 4   C  1S         -0.09350  -0.01012   0.01166   0.00029   0.00016
  21        2S         -0.19385   0.00025   0.01151   0.00035   0.00029
  22        2PX        -0.09277   0.14506  -0.11771   0.29450   0.41881
  23        2PY        -0.16003   0.25441  -0.19879  -0.17001  -0.23834
  24        2PZ         0.00064  -0.01874   0.02241   0.00035   0.00023
  25        3S          1.49746  -0.16443   0.01561   0.00047  -0.00060
  26        3PX        -0.22778  -0.18938   0.20470  -0.37219  -0.58871
  27        3PY        -0.39595  -0.33005   0.34226   0.21321   0.33481
  28        3PZ         0.00508   0.02049  -0.02883  -0.00041  -0.00035
  29        4S         -5.68021  -0.17898   0.88440   0.01170   0.00895
  30        4PX         1.11585  -0.01131  -0.18837   0.14466  -0.81721
  31        4PY         1.96239  -0.02218  -0.31288  -0.08345   0.46879
  32        4PZ         0.01347   0.00601  -0.00752  -0.00005  -0.00092
  33 5   H  1S         -0.01834  -0.80385   0.65297   0.70318   0.69215
  34        2S          0.30165   1.17254  -0.99961  -1.00575  -1.44413
  35        3S          0.05948  -0.37161   0.39239   0.52040   0.45028
  36 6   H  1S         -0.01840  -0.79752   0.67160  -0.69070  -0.69291
  37        2S          0.31268   1.16196  -1.02486   0.98519   1.44161
  38        3S          0.05949  -0.36902   0.41171  -0.51575  -0.45366
                          31        32        33        34        35
                           V         V         V         V         V
     Eigenvalues --     2.67113   2.81674   2.87773   2.95073   3.14142
   1 1   C  1S          0.00069   0.00331  -0.01314  -0.00003  -0.01012
   2        2S          0.00058   0.00933  -0.04275  -0.00025  -0.03097
   3        2PX         0.00604   0.09612  -0.48467  -0.71059   0.42994
   4        2PY         0.00981   0.16912  -0.86770   0.39460   0.75759
   5        2PZ        -0.92333  -0.92377  -0.17950  -0.00112   0.00715
   6        3S         -0.00249  -0.07613   0.37248   0.00351   0.25919
   7        3PX        -0.00428  -0.16441   0.84347   0.85611  -0.39836
   8        3PY        -0.00703  -0.28704   1.48875  -0.46409  -0.70413
   9        3PZ         0.93823   1.12879   0.22484   0.00155  -0.00949
  10        4S          0.01788   0.18113  -0.85981  -0.01298  -0.51219
  11        4PX        -0.00280   0.13046  -0.70994  -0.65722   0.18601
  12        4PY        -0.00390   0.22830  -1.25608   0.34908   0.32994
  13        4PZ        -0.33774  -0.60982  -0.14205  -0.00124   0.00500
  14 2   H  1S          0.01601  -0.02175   0.25086  -0.36035  -0.20738
  15        2S         -0.01798   0.01102  -0.20226   0.37255   0.15717
  16        3S         -0.00445   0.05394  -0.30091   0.28128   0.04521
  17 3   H  1S          0.01616  -0.02078   0.24103   0.36348  -0.20306
  18        2S         -0.01836   0.00909  -0.18542  -0.37143   0.15286
  19        3S         -0.00494   0.05429  -0.30138  -0.29637   0.04811
  20 4   C  1S          0.00062  -0.00318   0.01360   0.00045  -0.00661
  21        2S          0.00057  -0.01003   0.04839   0.00112  -0.02093
  22        2PX        -0.01001   0.08041  -0.38367  -0.82208  -0.51863
  23        2PY        -0.01795   0.14402  -0.68898   0.46020  -0.91404
  24        2PZ        -0.92588   0.92012   0.18328   0.00049   0.01874
  25        3S         -0.00323   0.08683  -0.43715  -0.00908   0.18192
  26        3PX         0.01035  -0.14897   0.74031   0.97805   0.56950
  27        3PY         0.01839  -0.26407   1.31377  -0.53856   1.00920
  28        3PZ         0.94173  -1.12471  -0.23141  -0.00064  -0.02351
  29        4S          0.01919  -0.18591   0.90253   0.02542  -0.34540
  30        4PX        -0.00131   0.12858  -0.69487  -0.70574  -0.36078
  31        4PY        -0.00289   0.22603  -1.21977   0.38050  -0.64116
  32        4PZ        -0.33951   0.60735   0.14806   0.00043   0.01893
  33 5   H  1S          0.01463   0.03760  -0.29829   0.43018  -0.27373
  34        2S         -0.01835  -0.03210   0.27876  -0.44217   0.21832
  35        3S         -0.00120  -0.04765   0.27149  -0.23324   0.13708
  36 6   H  1S          0.01480   0.03792  -0.29586  -0.43794  -0.26641
  37        2S         -0.01892  -0.03310   0.28066   0.44919   0.21264
  38        3S         -0.00083  -0.04540   0.25869   0.23665   0.13414
                          36        37        38
                           V         V         V
     Eigenvalues --     3.31694  23.35125  23.70585
   1 1   C  1S         -0.00039  -1.40607  -1.46000
   2        2S         -0.00064   1.49950   1.57882
   3        2PX         0.80298  -0.00647   0.01206
   4        2PY        -0.45177  -0.01068   0.02117
   5        2PZ         0.00075  -0.00073  -0.00037
   6        3S          0.00179  -0.29427  -0.40171
   7        3PX        -1.14553   0.02399  -0.05565
   8        3PY         0.64336   0.04012  -0.09693
   9        3PZ        -0.00119   0.00205   0.00114
  10        4S         -0.01941   0.27253   0.77110
  11        4PX         1.98863  -0.02595   0.13315
  12        4PY        -1.12281  -0.04421   0.23095
  13        4PZ         0.00197  -0.00351  -0.00438
  14 2   H  1S          0.57976   0.01345   0.00804
  15        2S         -0.89638   0.00738  -0.01495
  16        3S         -0.47646  -0.08505  -0.03984
  17 3   H  1S         -0.58887   0.01477   0.00905
  18        2S          0.90925   0.00714  -0.01540
  19        3S          0.49488  -0.08659  -0.04042
  20 4   C  1S          0.00008  -1.45518   1.41082
  21        2S         -0.00010   1.55201  -1.52577
  22        2PX        -0.69187   0.00601   0.01275
  23        2PY         0.39254   0.01067   0.02172
  24        2PZ        -0.00058  -0.00069   0.00013
  25        3S          0.00246  -0.30443   0.38842
  26        3PX         0.98585  -0.02214  -0.05680
  27        3PY        -0.56523  -0.03903  -0.09759
  28        3PZ         0.00088   0.00200  -0.00026
  29        4S         -0.00543   0.28032  -0.75812
  30        4PX        -1.72601   0.02305   0.13155
  31        4PY         0.99321   0.04184   0.22625
  32        4PZ        -0.00147  -0.00320   0.00246
  33 5   H  1S          0.45931   0.01237  -0.00355
  34        2S         -0.71349   0.00865   0.01336
  35        3S         -0.41073  -0.08178   0.03671
  36 6   H  1S         -0.45737   0.01154  -0.00276
  37        2S          0.71216   0.00960   0.01270
  38        3S          0.40756  -0.08077   0.03581
     Density Matrix:
                           1         2         3         4         5
   1 1   C  1S          0.65938
   2        2S          0.56149   0.49198
   3        2PX        -0.00046  -0.00060   0.08449
   4        2PY        -0.00109  -0.00149   0.00350   0.08793
   5        2PZ         0.00011   0.00016  -0.00017  -0.00035   0.06449
   6        3S         -0.08884  -0.15371   0.00243   0.00554  -0.00021
   7        3PX         0.00088   0.00136   0.13084   0.00088  -0.00014
   8        3PY         0.00128   0.00196   0.00089   0.13132  -0.00033
   9        3PZ         0.00022   0.00036  -0.00029  -0.00057   0.10381
  10        4S         -0.07923  -0.11402  -0.01633  -0.02912   0.00064
  11        4PX         0.00033   0.00170   0.06983  -0.00442  -0.00082
  12        4PY         0.00071   0.00319  -0.00441   0.06511  -0.00145
  13        4PZ        -0.00019  -0.00043  -0.00106  -0.00182   0.09585
  14 2   H  1S         -0.02081  -0.03313   0.03505  -0.06312  -0.00165
  15        2S         -0.02316  -0.03703   0.04852  -0.08776  -0.00126
  16        3S          0.00056  -0.00074   0.01993  -0.03291  -0.00006
  17 3   H  1S         -0.02119  -0.03372  -0.07279  -0.00163  -0.00175
  18        2S         -0.02341  -0.03740  -0.10021  -0.00231  -0.00137
  19        3S          0.00058  -0.00073  -0.03799   0.00071  -0.00010
  20 4   C  1S          0.00607   0.00979  -0.01099  -0.01902  -0.00050
  21        2S          0.00973   0.01523  -0.01759  -0.03044  -0.00081
  22        2PX         0.01024   0.01636  -0.01245  -0.03213   0.00065
  23        2PY         0.01784   0.02852  -0.03222  -0.04972   0.00121
  24        2PZ        -0.00068  -0.00110  -0.00045  -0.00073   0.06432
  25        3S         -0.02615  -0.03973   0.04940   0.08553   0.00246
  26        3PX         0.01572   0.02434  -0.01838  -0.04587   0.00084
  27        3PY         0.02738   0.04241  -0.04590  -0.07146   0.00158
  28        3PZ        -0.00115  -0.00185  -0.00080  -0.00130   0.10281
  29        4S          0.00550   0.00411   0.02186   0.03814   0.00330
  30        4PX         0.00299   0.00622  -0.01316  -0.02121   0.00085
  31        4PY         0.00514   0.01073  -0.02122  -0.03786   0.00164
  32        4PZ        -0.00097  -0.00158  -0.00133  -0.00222   0.09598
  33 5   H  1S          0.00416   0.00682  -0.00163  -0.01255  -0.00058
  34        2S          0.00619   0.01028   0.00370  -0.02517   0.00001
  35        3S          0.00310   0.00454   0.00439  -0.01759   0.00014
  36 6   H  1S          0.00413   0.00676  -0.01011  -0.00774  -0.00059
  37        2S          0.00609   0.01012  -0.02369  -0.00936  -0.00001
  38        3S          0.00305   0.00446  -0.01738  -0.00497   0.00011
                           6         7         8         9        10
   6        3S          0.45221
   7        3PX        -0.00180   0.20291
   8        3PY        -0.00186  -0.00528   0.19662
   9        3PZ        -0.00068  -0.00026  -0.00052   0.16712
  10        4S          0.27234  -0.02718  -0.04906   0.00081   0.18177
  11        4PX        -0.00719   0.10862  -0.01015  -0.00133  -0.01583
  12        4PY        -0.01301  -0.01014   0.09787  -0.00233  -0.02957
  13        4PZ         0.00178  -0.00142  -0.00243   0.15431   0.00278
  14 2   H  1S          0.08855   0.05663  -0.09831  -0.00273   0.06989
  15        2S          0.09911   0.07877  -0.13621  -0.00212   0.08258
  16        3S          0.00621   0.03267  -0.05050  -0.00011   0.01146
  17 3   H  1S          0.09019  -0.11395  -0.00068  -0.00287   0.06975
  18        2S          0.10021  -0.15668  -0.00044  -0.00226   0.08143
  19        3S          0.00631  -0.05915   0.00300  -0.00015   0.01068
  20 4   C  1S         -0.02657  -0.01720  -0.02979  -0.00085   0.00516
  21        2S         -0.04017  -0.02676  -0.04635  -0.00137   0.00395
  22        2PX        -0.04574  -0.01761  -0.04552   0.00112  -0.01654
  23        2PY        -0.07981  -0.04571  -0.07069   0.00207  -0.02896
  24        2PZ         0.00327  -0.00062  -0.00099   0.10354   0.00314
  25        3S          0.10204   0.07279   0.12618   0.00412   0.00042
  26        3PX        -0.06575  -0.02614  -0.06477   0.00145  -0.02437
  27        3PY        -0.11470  -0.06494  -0.10153   0.00272  -0.04265
  28        3PZ         0.00542  -0.00111  -0.00177   0.16550   0.00522
  29        4S          0.00175   0.03322   0.05814   0.00547  -0.03274
  30        4PX        -0.02211  -0.01954  -0.02971   0.00142  -0.00566
  31        4PY        -0.03826  -0.02980  -0.05448   0.00272  -0.00948
  32        4PZ         0.00463  -0.00186  -0.00309   0.15451   0.00490
  33 5   H  1S         -0.02026  -0.00050  -0.01782  -0.00084  -0.01409
  34        2S         -0.03071   0.00893  -0.03679   0.00013  -0.01823
  35        3S         -0.01169   0.00834  -0.02640   0.00025  -0.00303
  36 6   H  1S         -0.02002  -0.01511  -0.00923  -0.00086  -0.01412
  37        2S         -0.03020  -0.03615  -0.01031   0.00010  -0.01846
  38        3S         -0.01144  -0.02683  -0.00580   0.00021  -0.00326
                          11        12        13        14        15
  11        4PX         0.05927
  12        4PY        -0.00871   0.05028
  13        4PZ        -0.00185  -0.00318   0.14252
  14 2   H  1S          0.03331  -0.05369  -0.00141   0.08158
  15        2S          0.04730  -0.07420  -0.00054   0.10935   0.14857
  16        3S          0.02020  -0.02731   0.00025   0.03616   0.05131
  17 3   H  1S         -0.06274   0.00184  -0.00147  -0.01337  -0.02425
  18        2S         -0.08665   0.00377  -0.00060  -0.02417  -0.04102
  19        3S         -0.03298   0.00394   0.00024  -0.01746  -0.02603
  20 4   C  1S         -0.00328  -0.00586  -0.00076   0.00426   0.00685
  21        2S         -0.00672  -0.01195  -0.00122   0.00705   0.01145
  22        2PX        -0.01367  -0.01954   0.00147   0.00189  -0.00236
  23        2PY        -0.01963  -0.03657   0.00269   0.01117   0.02397
  24        2PZ        -0.00102  -0.00171   0.09562  -0.00079  -0.00026
  25        3S          0.02370   0.04194   0.00358  -0.02128  -0.03448
  26        3PX        -0.02113  -0.02764   0.00200   0.00118  -0.00662
  27        3PY        -0.02774  -0.05347   0.00367   0.01685   0.03617
  28        3PZ        -0.00167  -0.00281   0.15285  -0.00116  -0.00029
  29        4S          0.00888   0.01642   0.00496  -0.01852  -0.02552
  30        4PX        -0.01535  -0.01217   0.00172  -0.00158  -0.00820
  31        4PY        -0.01220  -0.02980   0.00323   0.01541   0.02754
  32        4PZ        -0.00202  -0.00344   0.14272  -0.00067   0.00034
  33 5   H  1S          0.00255  -0.01588  -0.00040   0.01119   0.02313
  34        2S          0.01004  -0.02764   0.00063   0.02388   0.04429
  35        3S          0.00794  -0.01590   0.00045   0.01682   0.02801
  36 6   H  1S         -0.01502  -0.00551  -0.00042  -0.00908  -0.01793
  37        2S         -0.02888  -0.00471   0.00061  -0.01894  -0.03410
  38        3S         -0.01757  -0.00089   0.00042  -0.01032  -0.01780
                          16        17        18        19        20
  16        3S          0.02033
  17 3   H  1S         -0.01762   0.08252
  18        2S         -0.02615   0.10959   0.14757
  19        3S         -0.01210   0.03572   0.05028   0.01971
  20 4   C  1S          0.00385   0.00431   0.00688   0.00385   0.65950
  21        2S          0.00568   0.00714   0.01149   0.00567   0.56159
  22        2PX        -0.00319   0.00874   0.02182   0.01655   0.00126
  23        2PY         0.01762   0.00729   0.00987   0.00595   0.00206
  24        2PZ         0.00002  -0.00078  -0.00022   0.00005   0.00011
  25        3S         -0.01473  -0.02151  -0.03455  -0.01466  -0.08935
  26        3PX        -0.00652   0.01407   0.03455   0.02587  -0.00045
  27        3PY         0.02661   0.00953   0.01227   0.00754  -0.00093
  28        3PZ         0.00007  -0.00115  -0.00023   0.00011   0.00024
  29        4S         -0.00636  -0.01836  -0.02500  -0.00604  -0.08042
  30        4PX        -0.00686   0.01400   0.02762   0.01712  -0.00015
  31        4PY         0.01619   0.00642   0.00665   0.00209  -0.00016
  32        4PZ         0.00034  -0.00066   0.00036   0.00036  -0.00001
  33 5   H  1S          0.01602  -0.00909  -0.01794  -0.00919  -0.01981
  34        2S          0.02724  -0.01887  -0.03388  -0.01671  -0.02190
  35        3S          0.01465  -0.01027  -0.01763  -0.00893   0.00058
  36 6   H  1S         -0.00926   0.01119   0.02297   0.01571  -0.01968
  37        2S         -0.01696   0.02391   0.04406   0.02679  -0.02194
  38        3S         -0.00909   0.01680   0.02782   0.01442   0.00050
                          21        22        23        24        25
  21        2S          0.49208
  22        2PX         0.00182   0.08233
  23        2PY         0.00295   0.00391   0.08732
  24        2PZ         0.00016   0.00017   0.00027   0.06421
  25        3S         -0.15437  -0.00579  -0.00948  -0.00021   0.45407
  26        3PX        -0.00067   0.12811   0.00225   0.00009  -0.00041
  27        3PY        -0.00140   0.00231   0.13114   0.00010  -0.00002
  28        3PZ         0.00040   0.00026   0.00042   0.10264  -0.00081
  29        4S         -0.11631   0.01309   0.02223   0.00098   0.28023
  30        4PX        -0.00138   0.07414  -0.00542   0.00054   0.00596
  31        4PY        -0.00217  -0.00540   0.06783   0.00099   0.00960
  32        4PZ        -0.00011   0.00105   0.00187   0.09580   0.00080
  33 5   H  1S         -0.03157  -0.03310   0.06326  -0.00161   0.08442
  34        2S         -0.03500  -0.05006   0.08844  -0.00126   0.09360
  35        3S         -0.00061  -0.02333   0.03375  -0.00011   0.00553
  36 6   H  1S         -0.03137   0.07087   0.00312  -0.00153   0.08390
  37        2S         -0.03507   0.10133   0.00095  -0.00114   0.09377
  38        3S         -0.00072   0.04095  -0.00343  -0.00007   0.00576
                          26        27        28        29        30
  26        3PX         0.19971
  27        3PY        -0.00191   0.19757
  28        3PZ         0.00011   0.00013   0.16408
  29        4S          0.02456   0.04164   0.00124   0.18849
  30        4PX         0.11605  -0.01109   0.00084   0.01516   0.06859
  31        4PY        -0.01114   0.10278   0.00157   0.02482  -0.01127
  32        4PZ         0.00132   0.00236   0.15314   0.00266   0.00142
  33 5   H  1S         -0.05290   0.09942  -0.00267   0.06646  -0.03510
  34        2S         -0.08045   0.13847  -0.00212   0.07681  -0.05370
  35        3S         -0.03795   0.05215  -0.00017   0.00915  -0.02539
  36 6   H  1S          0.11207   0.00430  -0.00255   0.06686   0.06656
  37        2S          0.16006  -0.00005  -0.00195   0.07804   0.09559
  38        3S          0.06436  -0.00682  -0.00012   0.00980   0.03884
                          31        32        33        34        35
  31        4PY         0.05510
  32        4PZ         0.00265   0.14297
  33 5   H  1S          0.05649  -0.00139   0.08017
  34        2S          0.07891  -0.00057   0.10993   0.15325
  35        3S          0.02993   0.00023   0.03859   0.05644   0.02366
  36 6   H  1S         -0.00198  -0.00134  -0.01224  -0.02630  -0.02046
  37        2S         -0.00688  -0.00050  -0.02640  -0.04961  -0.03279
  38        3S         -0.00701   0.00025  -0.02063  -0.03290  -0.01644
                          36        37        38
  36 6   H  1S          0.07961
  37        2S          0.10963   0.15345
  38        3S          0.03864   0.05668   0.02381
    Full Mulliken population analysis:
                           1         2         3         4         5
   1 1   C  1S          0.65938
   2        2S          0.49324   0.49198
   3        2PX         0.00000   0.00000   0.08449
   4        2PY         0.00000   0.00000   0.00000   0.08793
   5        2PZ         0.00000   0.00000   0.00000   0.00000   0.06449
   6        3S         -0.02924  -0.06438   0.00000   0.00000   0.00000
   7        3PX         0.00000   0.00000   0.08231   0.00000   0.00000
   8        3PY         0.00000   0.00000   0.00000   0.08262   0.00000
   9        3PZ         0.00000   0.00000   0.00000   0.00000   0.06531
  10        4S         -0.01218  -0.02134   0.00000   0.00000   0.00000
  11        4PX         0.00000   0.00000   0.01538   0.00000   0.00000
  12        4PY         0.00000   0.00000   0.00000   0.01434   0.00000
  13        4PZ         0.00000   0.00000   0.00000   0.00000   0.02111
  14 2   H  1S         -0.00024  -0.00034   0.00191   0.00566   0.00001
  15        2S         -0.00170  -0.00326   0.00440   0.01312   0.00001
  16        3S          0.00004  -0.00007   0.00069   0.00188   0.00000
  17 3   H  1S         -0.00026  -0.00037   0.00795  -0.00000   0.00001
  18        2S         -0.00176  -0.00337   0.01771  -0.00001   0.00001
  19        3S          0.00005  -0.00007   0.00253   0.00000   0.00000
  20 4   C  1S          0.00000   0.00000  -0.00002  -0.00006   0.00000
  21        2S          0.00000  -0.00000  -0.00002  -0.00006   0.00000
  22        2PX        -0.00002  -0.00002   0.00011   0.00085   0.00000
  23        2PY        -0.00006  -0.00005   0.00086   0.00197   0.00000
  24        2PZ        -0.00000  -0.00000  -0.00000  -0.00000   0.00042
  25        3S         -0.00059  -0.00099   0.00258   0.00773  -0.00000
  26        3PX        -0.00053  -0.00098   0.00019   0.00555   0.00000
  27        3PY        -0.00160  -0.00294   0.00555   0.01073   0.00000
  28        3PZ        -0.00000  -0.00000  -0.00000  -0.00000   0.00611
  29        4S          0.00035   0.00031   0.00099   0.00300  -0.00000
  30        4PX        -0.00017  -0.00044  -0.00071   0.00147   0.00000
  31        4PY        -0.00052  -0.00132   0.00147   0.00098   0.00000
  32        4PZ        -0.00000  -0.00000  -0.00000  -0.00000   0.00903
  33 5   H  1S          0.00000   0.00000  -0.00000  -0.00000   0.00000
  34        2S          0.00001   0.00002   0.00000  -0.00030  -0.00000
  35        3S          0.00007   0.00012   0.00001  -0.00069  -0.00000
  36 6   H  1S          0.00000   0.00000  -0.00000  -0.00000   0.00000
  37        2S          0.00001   0.00002  -0.00023  -0.00006   0.00000
  38        3S          0.00007   0.00012  -0.00056  -0.00011  -0.00000
                           6         7         8         9        10
   6        3S          0.45221
   7        3PX         0.00000   0.20291
   8        3PY         0.00000   0.00000   0.19662
   9        3PZ         0.00000   0.00000   0.00000   0.16712
  10        4S          0.21098   0.00000   0.00000   0.00000   0.18177
  11        4PX         0.00000   0.07098   0.00000   0.00000   0.00000
  12        4PY         0.00000   0.00000   0.06395   0.00000   0.00000
  13        4PZ         0.00000   0.00000   0.00000   0.10083   0.00000
  14 2   H  1S          0.01643   0.01126   0.03223   0.00004   0.01856
  15        2S          0.04195   0.01998   0.05698   0.00004   0.04774
  16        3S          0.00287   0.00394   0.01003   0.00000   0.00866
  17 3   H  1S          0.01715   0.04441  -0.00000   0.00004   0.01869
  18        2S          0.04301   0.07706  -0.00000   0.00004   0.04741
  19        3S          0.00293   0.01371   0.00001   0.00000   0.00811
  20 4   C  1S         -0.00060  -0.00058  -0.00175   0.00000   0.00033
  21        2S         -0.00100  -0.00107  -0.00322   0.00000   0.00030
  22        2PX         0.00239   0.00018   0.00551   0.00000   0.00075
  23        2PY         0.00722   0.00553   0.01061   0.00000   0.00228
  24        2PZ         0.00000  -0.00000  -0.00000   0.00615   0.00000
  25        3S          0.02177   0.01365   0.04097  -0.00000   0.00016
  26        3PX         0.01233  -0.00127   0.01849   0.00000   0.00376
  27        3PY         0.03724   0.01854   0.02852   0.00000   0.01139
  28        3PZ         0.00001  -0.00000  -0.00000   0.03530   0.00000
  29        4S          0.00066   0.00512   0.01552  -0.00000  -0.02056
  30        4PX         0.00621  -0.00401   0.00588   0.00000   0.00171
  31        4PY         0.01861   0.00590   0.00126   0.00000   0.00497
  32        4PZ         0.00001  -0.00000  -0.00000   0.04938   0.00001
  33 5   H  1S         -0.00005  -0.00000  -0.00018   0.00000  -0.00073
  34        2S         -0.00114   0.00007  -0.00311  -0.00000  -0.00299
  35        3S         -0.00187   0.00011  -0.00420  -0.00000  -0.00108
  36 6   H  1S         -0.00005  -0.00012  -0.00005   0.00000  -0.00072
  37        2S         -0.00109  -0.00246  -0.00049  -0.00000  -0.00299
  38        3S         -0.00181  -0.00348  -0.00053  -0.00000  -0.00115
                          11        12        13        14        15
  11        4PX         0.05927
  12        4PY         0.00000   0.05028
  13        4PZ         0.00000   0.00000   0.14252
  14 2   H  1S          0.00646   0.01718   0.00002   0.08158
  15        2S          0.01544   0.03994   0.00001   0.07724   0.14857
  16        3S          0.00516   0.01151  -0.00000   0.01351   0.04048
  17 3   H  1S          0.02350   0.00001   0.00002  -0.00001  -0.00061
  18        2S          0.05447   0.00003   0.00001  -0.00061  -0.00498
  19        3S          0.01618   0.00003  -0.00000  -0.00191  -0.00748
  20 4   C  1S         -0.00019  -0.00059   0.00000   0.00000   0.00002
  21        2S         -0.00048  -0.00147   0.00000   0.00000   0.00003
  22        2PX        -0.00074   0.00135   0.00000  -0.00000   0.00000
  23        2PY         0.00136   0.00095   0.00000  -0.00000  -0.00037
  24        2PZ        -0.00000  -0.00000   0.00900   0.00000   0.00000
  25        3S          0.00666   0.02040  -0.00001  -0.00008  -0.00158
  26        3PX        -0.00434   0.00547   0.00000  -0.00000   0.00003
  27        3PY         0.00549   0.00124   0.00000  -0.00024  -0.00368
  28        3PZ        -0.00000  -0.00000   0.04885   0.00000   0.00000
  29        4S          0.00269   0.00861  -0.00001  -0.00111  -0.00468
  30        4PX        -0.00740   0.00308   0.00000   0.00001   0.00015
  31        4PY         0.00309  -0.00566   0.00000  -0.00250  -0.01053
  32        4PZ        -0.00000  -0.00000   0.08962   0.00000  -0.00000
  33 5   H  1S          0.00003  -0.00230   0.00000   0.00000   0.00000
  34        2S          0.00031  -0.00976  -0.00000   0.00000   0.00016
  35        3S          0.00031  -0.00729  -0.00000   0.00023   0.00147
  36 6   H  1S         -0.00177  -0.00045   0.00000  -0.00000  -0.00004
  37        2S         -0.00831  -0.00095  -0.00000  -0.00004  -0.00090
  38        3S         -0.00659  -0.00023  -0.00000  -0.00047  -0.00246
                          16        17        18        19        20
  16        3S          0.02033
  17 3   H  1S         -0.00193   0.08252
  18        2S         -0.00751   0.07741   0.14757
  19        3S         -0.00622   0.01335   0.03967   0.01971
  20 4   C  1S          0.00010   0.00000   0.00002   0.00010   0.65950
  21        2S          0.00017   0.00000   0.00003   0.00017   0.49332
  22        2PX         0.00001  -0.00000  -0.00029  -0.00059   0.00000
  23        2PY        -0.00075  -0.00000  -0.00009  -0.00014   0.00000
  24        2PZ        -0.00000   0.00000   0.00000  -0.00000   0.00000
  25        3S         -0.00259  -0.00008  -0.00160  -0.00258  -0.02941
  26        3PX         0.00005  -0.00017  -0.00297  -0.00368   0.00000
  27        3PY        -0.00450  -0.00007  -0.00069  -0.00070   0.00000
  28        3PZ        -0.00000   0.00000   0.00000  -0.00000   0.00000
  29        4S         -0.00242  -0.00111  -0.00460  -0.00230  -0.01237
  30        4PX         0.00016  -0.00191  -0.00889  -0.00683   0.00000
  31        4PY        -0.00768  -0.00057  -0.00140  -0.00054   0.00000
  32        4PZ        -0.00000   0.00000  -0.00000  -0.00000   0.00000
  33 5   H  1S          0.00022  -0.00000  -0.00004  -0.00042  -0.00020
  34        2S          0.00143  -0.00004  -0.00092  -0.00233  -0.00154
  35        3S          0.00247  -0.00047  -0.00246  -0.00286   0.00005
  36 6   H  1S         -0.00042   0.00000   0.00000   0.00022  -0.00019
  37        2S         -0.00235   0.00000   0.00015   0.00140  -0.00153
  38        3S         -0.00289   0.00023   0.00145   0.00242   0.00004
                          21        22        23        24        25
  21        2S          0.49208
  22        2PX         0.00000   0.08233
  23        2PY         0.00000   0.00000   0.08732
  24        2PZ         0.00000   0.00000   0.00000   0.06421
  25        3S         -0.06465   0.00000   0.00000   0.00000   0.45407
  26        3PX         0.00000   0.08060   0.00000   0.00000   0.00000
  27        3PY         0.00000   0.00000   0.08251   0.00000   0.00000
  28        3PZ         0.00000   0.00000   0.00000   0.06458   0.00000
  29        4S         -0.02177   0.00000   0.00000   0.00000   0.21710
  30        4PX         0.00000   0.01633   0.00000   0.00000   0.00000
  31        4PY         0.00000   0.00000   0.01494   0.00000   0.00000
  32        4PZ         0.00000   0.00000   0.00000   0.02110   0.00000
  33 5   H  1S         -0.00028   0.00139   0.00550   0.00001   0.01487
  34        2S         -0.00295   0.00372   0.01361   0.00001   0.03849
  35        3S         -0.00006   0.00068   0.00203   0.00000   0.00252
  36 6   H  1S         -0.00027   0.00666   0.00002   0.00001   0.01456
  37        2S         -0.00291   0.01714   0.00001   0.00001   0.03824
  38        3S         -0.00007   0.00273  -0.00002   0.00000   0.00262
                          26        27        28        29        30
  26        3PX         0.19971
  27        3PY         0.00000   0.19757
  28        3PZ         0.00000   0.00000   0.16408
  29        4S          0.00000   0.00000   0.00000   0.18849
  30        4PX         0.07583   0.00000   0.00000   0.00000   0.06859
  31        4PY         0.00000   0.06717   0.00000   0.00000   0.00000
  32        4PZ         0.00000   0.00000   0.10007   0.00000   0.00000
  33 5   H  1S          0.00851   0.03316   0.00004   0.01731   0.00570
  34        2S          0.01690   0.06030   0.00004   0.04375   0.01472
  35        3S          0.00385   0.01096   0.00000   0.00685   0.00548
  36 6   H  1S          0.04094   0.00013   0.00003   0.01731   0.02475
  37        2S          0.07687  -0.00000   0.00003   0.04426   0.06014
  38        3S          0.01499  -0.00013   0.00000   0.00732   0.01928
                          31        32        33        34        35
  31        4PY         0.05510
  32        4PZ         0.00000   0.14297
  33 5   H  1S          0.01900   0.00002   0.08017
  34        2S          0.04483   0.00001   0.07765   0.15325
  35        3S          0.01339  -0.00000   0.01442   0.04453   0.02366
  36 6   H  1S         -0.00006   0.00002  -0.00001  -0.00083  -0.00244
  37        2S         -0.00035   0.00001  -0.00083  -0.00695  -0.01008
  38        3S         -0.00028  -0.00000  -0.00246  -0.01012  -0.00885
                          36        37        38
  36 6   H  1S          0.07961
  37        2S          0.07744   0.15345
  38        3S          0.01444   0.04472   0.02381
     Gross orbital populations:
                           1
   1 1   C  1S          1.10434
   2        2S          0.88586
   3        2PX         0.22760
   4        2PY         0.23653
   5        2PZ         0.16649
   6        3S          0.79275
   7        3PX         0.56266
   8        3PY         0.55568
   9        3PZ         0.42426
  10        4S          0.50384
  11        4PX         0.25697
  12        4PY         0.20967
  13        4PZ         0.41198
  14 2   H  1S          0.27480
  15        2S          0.46548
  16        3S          0.08437
  17 3   H  1S          0.27768
  18        2S          0.46389
  19        3S          0.08191
  20 4   C  1S          1.10443
  21        2S          0.88584
  22        2PX         0.22108
  23        2PY         0.23523
  24        2PZ         0.16548
  25        3S          0.79222
  26        3PX         0.55016
  27        3PY         0.55595
  28        3PZ         0.41913
  29        4S          0.50872
  30        4PX         0.27915
  31        4PY         0.21932
  32        4PZ         0.41222
  33 5   H  1S          0.27050
  34        2S          0.47081
  35        3S          0.09088
  36 6   H  1S          0.26873
  37        2S          0.47137
  38        3S          0.09202
          Condensed to atoms (all electrons):
               1          2          3          4          5          6
     1  C    5.028783   0.388518   0.389235   0.600719  -0.034628  -0.033994
     2  H    0.388518   0.512951  -0.031257  -0.041971   0.005985  -0.009572
     3  H    0.389235  -0.031257   0.510641  -0.041480  -0.009548   0.005883
     4  C    0.600719  -0.041971  -0.041480   5.066673   0.382665   0.382313
     5  H   -0.034628   0.005985  -0.009548   0.382665   0.530282  -0.042565
     6  H   -0.033994  -0.009572   0.005883   0.382313  -0.042565   0.530062
 Mulliken charges:
               1
     1  C   -0.338633
     2  H    0.175345
     3  H    0.176526
     4  C   -0.348919
     5  H    0.167809
     6  H    0.167873
 Sum of Mulliken charges =   0.00000
 Mulliken charges with hydrogens summed into heavy atoms:
               1
     1  C    0.013237
     4  C   -0.013237
 Electronic spatial extent (au):  <R**2>=             83.7754
 Charge=              0.0000 electrons
 Dipole moment (field-independent basis, Debye):
    X=              0.0091    Y=              0.0291    Z=             -0.1392  Tot=              0.1425
 Quadrupole moment (field-independent basis, Debye-Ang):
   XX=            -12.2128   YY=            -12.2328   ZZ=            -15.6748
   XY=              0.0095   XZ=              0.0002   YZ=             -0.0020
 Traceless Quadrupole moment (field-independent basis, Debye-Ang):
   XX=              1.1607   YY=              1.1407   ZZ=             -2.3013
   XY=              0.0095   XZ=              0.0002   YZ=             -0.0020
 Octapole moment (field-independent basis, Debye-Ang**2):
  XXX=             -0.4424  YYY=             -0.0699  ZZZ=             -0.0466  XYY=              0.3144
  XXY=             -0.0247  XXZ=             -0.1763  XZZ=             -0.1018  YZZ=             -0.1219
  YYZ=             -0.2362  XYZ=             -0.0512
 Hexadecapole moment (field-independent basis, Debye-Ang**3):
 XXXX=            -34.3655 YYYY=            -55.3071 ZZZZ=            -17.8319 XXXY=             -7.2598
 XXXZ=              0.0392 YYYX=            -10.6970 YYYZ=              0.0506 ZZZX=              0.0433
 ZZZY=              0.0763 XXYY=            -16.2117 XXZZ=             -9.9399 YYZZ=            -13.6617
 XXYZ=              0.0172 YYXZ=             -0.0010 ZZXY=             -3.2055
 N-N= 3.305411235119D+01 E-N=-2.478110245800D+02  KE= 7.814552558627D+01
 Orbital energies and kinetic energies (alpha):
                                 1                 2
   1         O               -10.291288         15.979251
   2         O               -10.287894         15.979292
   3         O                -0.864083          1.538982
   4         O                -0.671722          1.269473
   5         O                -0.559810          0.942389
   6         O                -0.509018          1.283708
   7         O                -0.435362          1.040659
   8         O                -0.357043          1.039008
   9         V                 0.079579          1.182345
  10         V                 0.140587          0.591294
  11         V                 0.164269          0.596900
  12         V                 0.169774          0.681547
  13         V                 0.240530          0.585529
  14         V                 0.369417          0.843975
  15         V                 0.393026          0.932999
  16         V                 0.402868          0.794451
  17         V                 0.462691          1.200205
  18         V                 0.489313          1.406071
  19         V                 0.493672          1.302984
  20         V                 0.590967          1.653161
  21         V                 0.664956          1.571337
  22         V                 0.690877          2.145362
  23         V                 0.771401          2.414352
  24         V                 0.775828          2.324369
  25         V                 0.838553          1.080258
  26         V                 0.952020          3.426333
  27         V                 2.230759          3.929444
  28         V                 2.291228          4.023023
  29         V                 2.332952          4.305801
  30         V                 2.404890          4.508721
  31         V                 2.671126          6.300775
  32         V                 2.816736          6.302804
  33         V                 2.877735          6.144103
  34         V                 2.950727          6.227273
  35         V                 3.141417          6.819107
  36         V                 3.316937          6.403033
  37         V                23.351248         60.074229
  38         V                23.705852         60.203962
 Total kinetic energy from orbitals= 7.814552558627D+01
 Calling FoFJK, ICntrl=      2127 FMM=F ISym2X=0 I1Cent= 0 IOpClX= 0 NMat=1 NMatS=1 NMatT=0.
 -------------------------------------------------------------------
 Center     Atomic                   Forces (Hartrees/Bohr)
 Number     Number              X              Y              Z
 -------------------------------------------------------------------
      1        6           0.015086079    0.014109878   -0.005709280
      2        1          -0.010371111    0.002358702    0.002769913
      3        1           0.001450785   -0.007307302    0.002554799
      4        6           0.011831363    0.017369268   -0.006016983
      5        1           0.001388218   -0.017936927    0.003162460
      6        1          -0.019385334   -0.008593620    0.003239092
 -------------------------------------------------------------------
 Cartesian Forces:  Max     0.019385334 RMS     0.010311186

 GradGradGradGradGradGradGradGradGradGradGradGradGradGradGradGradGradGrad
 Berny optimization.
 Search for a local minimum.
 Step number   1 out of a maximum of    2
 All quantities printed in internal units (Hartrees-Bohrs-Radians)
 Second derivative matrix not updated -- first step.
 The second derivative matrix:
                          X1        Y1        Z1        X2        Y2
           X1           0.76631
           Y1           0.08966   0.85911
           Z1           0.00793   0.01262   0.16972
           X2          -0.17026   0.10025   0.00318   0.14721
           Y2           0.10539  -0.28306  -0.01106  -0.11938   0.27158
           Z2           0.00501  -0.01389  -0.05482  -0.00461   0.01136
           X3          -0.35450   0.00364  -0.01179   0.00038   0.00025
           Y3          -0.00138  -0.11097  -0.00283   0.03222   0.01942
           Z3          -0.01516  -0.00270  -0.05563   0.00229   0.00091
           X4          -0.26717  -0.17877  -0.00071   0.02269   0.01373
           Y4          -0.17911  -0.47349  -0.00118  -0.01311  -0.00793
           Z4           0.00218   0.00388  -0.09410  -0.00086  -0.00122
           X5           0.02350  -0.01357   0.00086  -0.00001   0.00001
           Y5           0.01131  -0.00653   0.00115   0.00001  -0.00000
           Z5          -0.00077   0.00050   0.01754   0.00037  -0.00019
           X6           0.00212  -0.00122   0.00054  -0.00001   0.00001
           Y6          -0.02586   0.01494   0.00129   0.00001  -0.00000
           Z6           0.00081  -0.00042   0.01728  -0.00037   0.00019
                          Z2        X3        Y3        Z3        X4
           Z2           0.02874
           X3          -0.00038   0.35451
           Y3           0.00246  -0.00411   0.07612
           Z3           0.01059   0.01280   0.00177   0.02939
           X4           0.00067  -0.00036  -0.02675  -0.00063   0.70108
           Y4          -0.00034   0.00021   0.01544   0.00042   0.12966
           Z4           0.01549  -0.00063  -0.00140   0.01565  -0.00744
           X5          -0.00034  -0.00001   0.00001   0.00034  -0.14060
           Y5           0.00023   0.00001  -0.00001  -0.00023   0.08824
           Z5           0.00923   0.00036  -0.00024  -0.00934  -0.00407
           X6          -0.00036  -0.00001   0.00001   0.00036  -0.31564
           Y6           0.00018   0.00001  -0.00000  -0.00018  -0.02611
           Z6          -0.00923  -0.00036   0.00024   0.00934   0.01219
                          Y4        Z4        X5        Y5        Z5
           Y4           0.85461
           Z4          -0.01386   0.17754
           X5           0.07955  -0.00268   0.11980
           Y5          -0.28496   0.00992  -0.09829   0.27599
           Z5           0.01228  -0.05738   0.00359  -0.01064   0.02986
           X6          -0.01719   0.00944  -0.00267  -0.00127   0.00051
           Y6          -0.10367   0.00268   0.03230   0.01551  -0.00172
           Z6           0.00267  -0.05720  -0.00177  -0.00043   0.01009
                          X6        Y6        Z6
           X6           0.31622
           Y6           0.01966   0.07323
           Z6          -0.01049  -0.00225   0.02972
 ITU=  0
     Eigenvalues ---    0.03723   0.04365   0.09030   0.10170   0.13484
     Eigenvalues ---    0.17345   0.26314   0.29041   0.52598   0.69234
     Eigenvalues ---    0.97611   1.56067
 Angle between quadratic step and forces=  37.20 degrees.
 Linear search not attempted -- first point.
 B after Tr=     0.008448    0.012240   -0.014421
         Rot=    1.000000   -0.000126    0.000070   -0.000118 Ang=  -0.02 deg.
 Variable       Old X    -DE/DX   Delta X   Delta X   Delta X     New X
                                 (Linear)    (Quad)   (Total)
    X1       -0.63747   0.01509   0.00000   0.02432   0.03302  -0.60445
    Y1       -1.10382   0.01411   0.00000   0.03243   0.04453  -1.05930
    Z1        0.01738  -0.00571   0.00000  -0.03159  -0.04637  -0.02898
    X2        0.43274  -0.01037   0.00000  -0.04604  -0.03691   0.39582
    Y2       -2.86906   0.00236   0.00000   0.01209   0.02443  -2.84463
    Z2       -0.06176   0.00277   0.00000   0.03844   0.02336  -0.03840
    X3       -2.68427   0.00145   0.00000   0.02531   0.03402  -2.65025
    Y3       -1.07416  -0.00731   0.00000  -0.03428  -0.02266  -1.09682
    Z3       -0.06290   0.00255   0.00000   0.03732   0.02225  -0.04065
    X4        0.62702   0.01183   0.00000   0.01064   0.01883   0.64584
    Y4        1.08541   0.01737   0.00000   0.01829   0.03068   1.11609
    Z4        0.01035  -0.00602   0.00000  -0.02806  -0.04211  -0.03176
    X5       -0.28542   0.00139   0.00000  -0.01990  -0.01213  -0.29756
    Y5        2.97675  -0.01794   0.00000  -0.05163  -0.03945   2.93730
    Z5       -0.06924   0.00316   0.00000   0.03574   0.02201  -0.04723
    X6        2.73051  -0.01939   0.00000  -0.04499  -0.03682   2.69369
    Y6        1.25497  -0.00859   0.00000  -0.05042  -0.03753   1.21744
    Z6       -0.06749   0.00324   0.00000   0.03460   0.02086  -0.04663
         Item               Value     Threshold  Converged?
 Maximum Force            0.019385     0.000450     NO 
 RMS     Force            0.010311     0.000300     NO 
 Maximum Displacement     0.046366     0.001800     NO 
 RMS     Displacement     0.031929     0.001200     NO 
 Predicted change in Energy=-2.520327D-03
 GradGradGradGradGradGradGradGradGradGradGradGradGradGradGradGradGradGrad

 Unable to Open any file for archive entry.
 1\1\GINC-BHD0014\Force\RwB97XD\6-311G\C2H4\BWEIGHT\11-Jan-2023\0\\# WB
 97XD/6-311G SCF=XQC FORCE nosym pop=full guess=read\\MD Step 999\\0,1\
 C,-0.33733261,-0.58411884,0.00919892\H,0.22899519,-1.51823935,-0.03267
 95\H,-1.42045454,-0.56842233,-0.03328306\C,0.33180314,0.57437285,0.005
 47615\H,-0.15103972,1.57522814,-0.03663796\H,1.4449244,0.66410334,-0.0
 3571626\\Version=ES64L-G16RevC.01\HF=-78.5544191\RMSD=5.969e-09\RMSF=1
 .031e-02\Dipole=0.0035672,0.0114318,-0.0547799\Quadrupole=0.8629221,0.
 848072,-1.7109941,0.0070315,0.0001477,-0.001465\PG=C01 [X(C2H4)]\\@
 The archive entry for this job was punched.


 IN THE LONG RUN, DIGGING FOR TRUTH HAS ALWAYS PROVED NOT ONLY 
 MORE INTERESTING BUT MORE PROFITABLE THAN DIGGING FOR GOLD.

                             -- GEORGE R. HARRISON
 Job cpu time:       0 days  0 hours  0 minutes 11.6 seconds.
 Elapsed time:       0 days  0 hours  0 minutes  3.1 seconds.
 File lengths (MBytes):  RWF=    272 Int=      0 D2E=      0 Chk=     32 Scr=     32
 Normal termination of Gaussian 16 at Wed Jan 11 19:43:41 2023.
