 Entering Gaussian System, Link 0=g16
 Initial command:
 /software/gaussian/g16-c01/avx2/g16/l1.exe "/gpfs/fs2/scratch/bweight/software/many_molecule_many_mode_NAMD/src/NAMD/TEST_NVT/TRAJ/traj-62/G16/GS_NEW/Gau-26256.inp" -scrdir="/gpfs/fs2/scratch/bweight/software/many_molecule_many_mode_NAMD/src/NAMD/TEST_NVT/TRAJ/traj-62/G16/GS_NEW/"
 Entering Link 1 = /software/gaussian/g16-c01/avx2/g16/l1.exe PID=     26257.
  
 Copyright (c) 1988-2019, Gaussian, Inc.  All Rights Reserved.
  
 This is part of the Gaussian(R) 16 program.  It is based on
 the Gaussian(R) 09 system (copyright 2009, Gaussian, Inc.),
 the Gaussian(R) 03 system (copyright 2003, Gaussian, Inc.),
 the Gaussian(R) 98 system (copyright 1998, Gaussian, Inc.),
 the Gaussian(R) 94 system (copyright 1995, Gaussian, Inc.),
 the Gaussian 92(TM) system (copyright 1992, Gaussian, Inc.),
 the Gaussian 90(TM) system (copyright 1990, Gaussian, Inc.),
 the Gaussian 88(TM) system (copyright 1988, Gaussian, Inc.),
 the Gaussian 86(TM) system (copyright 1986, Carnegie Mellon
 University), and the Gaussian 82(TM) system (copyright 1983,
 Carnegie Mellon University). Gaussian is a federally registered
 trademark of Gaussian, Inc.
  
 This software contains proprietary and confidential information,
 including trade secrets, belonging to Gaussian, Inc.
  
 This software is provided under written license and may be
 used, copied, transmitted, or stored only in accord with that
 written license.
  
 The following legend is applicable only to US Government
 contracts under FAR:
  
                    RESTRICTED RIGHTS LEGEND
  
 Use, reproduction and disclosure by the US Government is
 subject to restrictions as set forth in subparagraphs (a)
 and (c) of the Commercial Computer Software - Restricted
 Rights clause in FAR 52.227-19.
  
 Gaussian, Inc.
 340 Quinnipiac St., Bldg. 40, Wallingford CT 06492
  
  
 ---------------------------------------------------------------
 Warning -- This program may not be used in any manner that
 competes with the business of Gaussian, Inc. or will provide
 assistance to any competitor of Gaussian, Inc.  The licensee
 of this program is prohibited from giving any competitor of
 Gaussian, Inc. access to this program.  By using this program,
 the user acknowledges that Gaussian, Inc. is engaged in the
 business of creating and licensing software in the field of
 computational chemistry and represents and warrants to the
 licensee that it is not a competitor of Gaussian, Inc. and that
 it will not use this program in any manner prohibited above.
 ---------------------------------------------------------------
  

 Cite this work as:
 Gaussian 16, Revision C.01,
 M. J. Frisch, G. W. Trucks, H. B. Schlegel, G. E. Scuseria, 
 M. A. Robb, J. R. Cheeseman, G. Scalmani, V. Barone, 
 G. A. Petersson, H. Nakatsuji, X. Li, M. Caricato, A. V. Marenich, 
 J. Bloino, B. G. Janesko, R. Gomperts, B. Mennucci, H. P. Hratchian, 
 J. V. Ortiz, A. F. Izmaylov, J. L. Sonnenberg, D. Williams-Young, 
 F. Ding, F. Lipparini, F. Egidi, J. Goings, B. Peng, A. Petrone, 
 T. Henderson, D. Ranasinghe, V. G. Zakrzewski, J. Gao, N. Rega, 
 G. Zheng, W. Liang, M. Hada, M. Ehara, K. Toyota, R. Fukuda, 
 J. Hasegawa, M. Ishida, T. Nakajima, Y. Honda, O. Kitao, H. Nakai, 
 T. Vreven, K. Throssell, J. A. Montgomery, Jr., J. E. Peralta, 
 F. Ogliaro, M. J. Bearpark, J. J. Heyd, E. N. Brothers, K. N. Kudin, 
 V. N. Staroverov, T. A. Keith, R. Kobayashi, J. Normand, 
 K. Raghavachari, A. P. Rendell, J. C. Burant, S. S. Iyengar, 
 J. Tomasi, M. Cossi, J. M. Millam, M. Klene, C. Adamo, R. Cammi, 
 J. W. Ochterski, R. L. Martin, K. Morokuma, O. Farkas, 
 J. B. Foresman, and D. J. Fox, Gaussian, Inc., Wallingford CT, 2019.
 
 ******************************************
 Gaussian 16:  ES64L-G16RevC.01  3-Jul-2019
                11-Jan-2023 
 ******************************************
 %oldchk=../GS_OLD/geometry.chk
 %chk=geometry.chk
 %nprocshared=4
 Will use up to    4 processors via shared memory.
 %mem=5GB
 Copying data from "../GS_OLD/geometry.chk" to current chk file "geometry.chk"
 IOpt=  2 FromEx=T IUOpen= 4 IOptOp= 5 NList=   0 IFRang= 0 IUIn= 4 IUOut= 2.
 -------------------------------------------------------
 # WB97XD/6-311G SCF=XQC FORCE nosym pop=full guess=read
 -------------------------------------------------------
 1/10=7,30=1,38=1/1,3;
 2/12=2,15=1,17=6,18=5,40=1/2;
 3/5=4,6=6,11=2,25=1,30=1,71=1,74=-58,116=-2/1,2,3;
 4/5=1/1;
 5/5=2,8=3,13=1,38=6/2,8;
 6/7=3,28=1/1;
 7/29=1,30=1/1,2,3,16;
 1/10=7,30=1/3;
 99//99;
 ------------
 MD Step 1000
 ------------
 Symbolic Z-matrix:
 Charge =  0 Multiplicity = 1
 C                    -0.33708  -0.58229   0.00106 
 H                     0.23491  -1.52355   0.00884 
 H                    -1.4263   -0.58496   0.00813 
 C                     0.33279   0.57791   0.00065 
 H                    -0.14345   1.56475   0.00627 
 H                     1.4365    0.64645   0.0069 
 

 GradGradGradGradGradGradGradGradGradGradGradGradGradGradGradGradGradGrad
 Berny optimization.
 Initialization pass.
 Trust Radius=3.00D-01 FncErr=1.00D-07 GrdErr=1.00D-07 EigMax=2.50D+02 EigMin=1.00D-04
 Number of steps in this run=      2 maximum allowed number of steps=      2.
 GradGradGradGradGradGradGradGradGradGradGradGradGradGradGradGradGradGrad

                          Input orientation:                          
 ---------------------------------------------------------------------
 Center     Atomic      Atomic             Coordinates (Angstroms)
 Number     Number       Type             X           Y           Z
 ---------------------------------------------------------------------
      1          6           0       -0.337083   -0.582290    0.001061
      2          1           0        0.234909   -1.523546    0.008839
      3          1           0       -1.426302   -0.584964    0.008130
      4          6           0        0.332793    0.577913    0.000650
      5          1           0       -0.143451    1.564748    0.006274
      6          1           0        1.436500    0.646447    0.006899
 ---------------------------------------------------------------------
                    Distance matrix (angstroms):
                    1          2          3          4          5
     1  C    0.000000
     2  H    1.101452   0.000000
     3  H    1.089246   1.908025   0.000000
     4  C    1.339703   2.103753   2.108733   0.000000
     5  H    2.155758   3.111385   2.503392   1.095757   0.000000
     6  H    2.157644   2.480462   3.116411   1.105851   1.827436
                    6
     6  H    0.000000
 Symmetry turned off by external request.
 Stoichiometry    C2H4
 Framework group  C1[X(C2H4)]
 Deg. of freedom    12
 Full point group                 C1      NOp   1
 Rotational constants (GHZ):         143.6678609          29.6744901          24.5948840
 Standard basis: 6-311G (5D, 7F)
    38 basis functions,    72 primitive gaussians,    38 cartesian basis functions
     8 alpha electrons        8 beta electrons
       nuclear repulsion energy        33.0769354684 Hartrees.
 NAtoms=    6 NActive=    6 NUniq=    6 SFac= 1.00D+00 NAtFMM=   60 NAOKFM=F Big=F
 Integral buffers will be    131072 words long.
 Raffenetti 2 integral format.
 Two-electron integral symmetry is turned off.
 Nuclear repulsion after empirical dispersion term =       33.0760934401 Hartrees.
 One-electron integrals computed using PRISM.
 NBasis=    38 RedAO= T EigKep=  6.45D-03  NBF=    38
 NBsUse=    38 1.00D-06 EigRej= -1.00D+00 NBFU=    38
 Initial guess from the checkpoint file:  "geometry.chk"
 B after Tr=    -0.000278   -0.000377   -0.000351
         Rot=    1.000000   -0.000001    0.000002    0.000005 Ang=  -0.00 deg.
 Keep R1 ints in memory in canonical form, NReq=4036876.
 Requested convergence on RMS density matrix=1.00D-08 within  32 cycles.
 Requested convergence on MAX density matrix=1.00D-06.
 Requested convergence on             energy=1.00D-06.
 No special actions if energy rises.
 SCF Done:  E(RwB97XD) =  -78.5557752102     A.U. after    8 cycles
            NFock=  8  Conv=0.50D-08     -V/T= 2.0051
 QCSCF skips out because SCF is already converged.

 **********************************************************************

            Population analysis using the SCF Density.

 **********************************************************************

 Alpha  occ. eigenvalues --  -10.28938 -10.28839  -0.86358  -0.67297  -0.55988
 Alpha  occ. eigenvalues --   -0.50881  -0.43717  -0.35652
 Alpha virt. eigenvalues --    0.07975   0.14103   0.16526   0.17040   0.24087
 Alpha virt. eigenvalues --    0.37059   0.39447   0.40093   0.46518   0.48870
 Alpha virt. eigenvalues --    0.49402   0.59098   0.66621   0.69216   0.77422
 Alpha virt. eigenvalues --    0.77444   0.84622   0.95077   2.23113   2.29158
 Alpha virt. eigenvalues --    2.33233   2.40858   2.67092   2.81871   2.87730
 Alpha virt. eigenvalues --    2.95227   3.14090   3.32260  23.35353  23.70500
     Molecular Orbital Coefficients:
                           1         2         3         4         5
                           O         O         O         O         O
     Eigenvalues --   -10.28938 -10.28839  -0.86358  -0.67297  -0.55988
   1 1   C  1S          0.48487  -0.28692  -0.08795   0.06730  -0.00007
   2        2S          0.39916  -0.23597  -0.13902   0.10776  -0.00011
   3        2PX         0.00010   0.00013   0.02632   0.03459   0.13873
   4        2PY         0.00017   0.00022   0.04641   0.05671  -0.07172
   5        2PZ         0.00000  -0.00000   0.00025  -0.00048   0.00002
   6        3S          0.01210  -0.00817   0.37303  -0.29411   0.00024
   7        3PX        -0.00007  -0.00074   0.03518   0.05577   0.21753
   8        3PY        -0.00009  -0.00128   0.06134   0.09257  -0.11365
   9        3PZ         0.00001  -0.00000   0.00044  -0.00085   0.00003
  10        4S         -0.00893   0.01203   0.19177  -0.22633  -0.00122
  11        4PX        -0.00023   0.00217   0.00516   0.02280   0.11273
  12        4PY        -0.00036   0.00366   0.00880   0.03838  -0.05961
  13        4PZ        -0.00001   0.00001   0.00016  -0.00041   0.00002
  14 2   H  1S         -0.00007   0.00001   0.05225  -0.08571   0.10168
  15        2S         -0.00011  -0.00030   0.05367  -0.10412   0.12902
  16        3S          0.00180  -0.00049  -0.00181  -0.01474   0.04156
  17 3   H  1S         -0.00008   0.00000   0.05319  -0.08976  -0.10638
  18        2S         -0.00014  -0.00027   0.05433  -0.10787  -0.13377
  19        3S          0.00183  -0.00046  -0.00192  -0.01558  -0.04291
  20 4   C  1S          0.28676   0.48497  -0.08721  -0.06790  -0.00003
  21        2S          0.23619   0.39904  -0.13770  -0.10890  -0.00002
  22        2PX        -0.00013   0.00010  -0.02686   0.03923   0.11693
  23        2PY        -0.00023   0.00018  -0.04582   0.07011  -0.07567
  24        2PZ        -0.00000   0.00000   0.00025   0.00035   0.00002
  25        3S          0.00662   0.01292   0.36880   0.29763  -0.00006
  26        3PX         0.00042  -0.00062  -0.03339   0.06325   0.18284
  27        3PY         0.00074  -0.00107  -0.05728   0.11226  -0.11697
  28        3PZ         0.00000   0.00001   0.00040   0.00064   0.00003
  29        4S         -0.00172  -0.01476   0.18904   0.23541  -0.00140
  30        4PX        -0.00087   0.00186  -0.00501   0.02729   0.10019
  31        4PY        -0.00157   0.00329  -0.00895   0.04787  -0.06387
  32        4PZ        -0.00001  -0.00001   0.00016   0.00034   0.00002
  33 5   H  1S         -0.00008  -0.00003   0.05074   0.09576  -0.09061
  34        2S         -0.00025   0.00018   0.05166   0.11299  -0.11331
  35        3S          0.00132   0.00127  -0.00096   0.01696  -0.03618
  36 6   H  1S         -0.00007  -0.00002   0.04987   0.09294   0.08497
  37        2S         -0.00026   0.00021   0.05105   0.11061   0.10713
  38        3S          0.00127   0.00127  -0.00096   0.01640   0.03473
                           6         7         8         9        10
                           O         O         O         V         V
     Eigenvalues --    -0.50881  -0.43717  -0.35652   0.07975   0.14103
   1 1   C  1S         -0.00243   0.00036   0.00024  -0.00061  -0.03490
   2        2S         -0.00349   0.00062   0.00040  -0.00100  -0.05603
   3        2PX         0.09315  -0.11040   0.00070  -0.00034  -0.03014
   4        2PY         0.17018   0.06547   0.00138  -0.00075  -0.06671
   5        2PZ        -0.00123  -0.00007   0.17949  -0.18934   0.00075
   6        3S          0.01531  -0.00168  -0.00117   0.00301   0.12270
   7        3PX         0.13494  -0.17675   0.00098  -0.00050  -0.03458
   8        3PY         0.24867   0.10482   0.00198  -0.00111  -0.08221
   9        3PZ        -0.00193  -0.00012   0.28843  -0.27817   0.00115
  10        4S         -0.06006  -0.00405  -0.00150   0.00398   1.25949
  11        4PX         0.06751  -0.10963   0.00084  -0.00279  -0.18260
  12        4PY         0.12623   0.06667   0.00173  -0.00524  -0.38976
  13        4PZ        -0.00110  -0.00009   0.26724  -0.69525   0.00438
  14 2   H  1S         -0.08233  -0.11495  -0.00002  -0.00096  -0.01965
  15        2S         -0.11484  -0.17750  -0.00043  -0.00154  -0.05207
  16        3S         -0.04302  -0.08183  -0.00024  -0.00400  -0.86823
  17 3   H  1S         -0.07939   0.11177   0.00000  -0.00096  -0.01464
  18        2S         -0.11006   0.17203  -0.00040  -0.00160  -0.03927
  19        3S         -0.04079   0.07938  -0.00023  -0.00400  -0.77944
  20 4   C  1S         -0.00969  -0.00060   0.00014   0.00051  -0.03479
  21        2S         -0.01525  -0.00102   0.00023   0.00085  -0.05585
  22        2PX        -0.09940   0.12567  -0.00070  -0.00032   0.04168
  23        2PY        -0.16014  -0.07458  -0.00111  -0.00041   0.05842
  24        2PZ        -0.00098   0.00002   0.17906   0.18948   0.00040
  25        3S          0.04824   0.00300  -0.00066  -0.00258   0.12278
  26        3PX        -0.14758   0.20012  -0.00099  -0.00049   0.05184
  27        3PY        -0.23571  -0.11836  -0.00153  -0.00066   0.06918
  28        3PZ        -0.00156   0.00004   0.28687   0.27826   0.00065
  29        4S         -0.02019   0.00372  -0.00133  -0.00226   1.21066
  30        4PX        -0.07759   0.12825  -0.00072  -0.00254   0.27338
  31        4PY        -0.12244  -0.07409  -0.00110  -0.00404   0.40578
  32        4PZ        -0.00090   0.00003   0.26793   0.69615   0.00239
  33 5   H  1S         -0.07262  -0.12509  -0.00007   0.00078  -0.00936
  34        2S         -0.09824  -0.19395  -0.00045   0.00127  -0.03370
  35        3S         -0.03662  -0.09105  -0.00027   0.00330  -0.78949
  36 6   H  1S         -0.07938   0.12543  -0.00005   0.00077  -0.01419
  37        2S         -0.10813   0.19527  -0.00042   0.00122  -0.04596
  38        3S         -0.04068   0.09148  -0.00025   0.00327  -0.87719
                          11        12        13        14        15
                           V         V         V         V         V
     Eigenvalues --     0.16526   0.17040   0.24087   0.37059   0.39447
   1 1   C  1S          0.00205  -0.04477   0.00018   0.00824   0.00169
   2        2S          0.00331  -0.07299   0.00029   0.01085   0.00295
   3        2PX         0.09948  -0.01863  -0.09885  -0.03458  -0.02619
   4        2PY        -0.05238  -0.03577   0.05682  -0.06445   0.00616
   5        2PZ        -0.00000   0.00145  -0.00005   0.00110   0.00004
   6        3S         -0.00714   0.16576  -0.00029   0.03510  -0.00940
   7        3PX         0.14157  -0.00959  -0.10410  -0.04164  -0.11445
   8        3PY        -0.07628  -0.02311   0.06068  -0.08053   0.03553
   9        3PZ        -0.00000   0.00200  -0.00007   0.00231   0.00003
  10        4S         -0.08689   1.39542  -0.00957  -2.39433  -0.23970
  11        4PX         0.60159  -0.11319  -1.17375  -1.49991  -0.52190
  12        4PY        -0.30851  -0.19240   0.65528  -2.62519   0.14076
  13        4PZ        -0.00005   0.00937  -0.00048   0.01114   0.00024
  14 2   H  1S         -0.02815  -0.02641  -0.01352  -0.06269   0.07544
  15        2S         -0.07901  -0.01800   0.02711  -0.69591   0.77839
  16        3S         -1.01809  -0.98081   1.53279  -0.25408  -0.33350
  17 3   H  1S          0.02859  -0.02540   0.01602  -0.05605  -0.07543
  18        2S          0.07964  -0.02273  -0.02099  -0.65111  -0.74436
  19        3S          1.13134  -0.98413  -1.54366  -0.32844   0.24374
  20 4   C  1S          0.00137   0.04315  -0.00010  -0.01972   0.00018
  21        2S          0.00217   0.07021  -0.00013  -0.03255   0.00072
  22        2PX         0.09863  -0.02296   0.10101  -0.04031  -0.02985
  23        2PY        -0.06148  -0.03969  -0.05778  -0.06969   0.01533
  24        2PZ         0.00002  -0.00128   0.00005  -0.00057  -0.00009
  25        3S         -0.00419  -0.15508  -0.00033   0.04577  -0.01227
  26        3PX         0.14155  -0.01799   0.11483  -0.09412  -0.10309
  27        3PY        -0.08691  -0.02949  -0.06465  -0.16437   0.06828
  28        3PZ         0.00003  -0.00177   0.00006  -0.00046  -0.00020
  29        4S         -0.06985  -1.38426   0.01274   3.15981   0.18061
  30        4PX         0.52281  -0.11504   1.12462  -1.08644  -0.62078
  31        4PY        -0.33480  -0.22045  -0.66804  -1.88327   0.05501
  32        4PZ         0.00011  -0.00846   0.00045  -0.00593  -0.00076
  33 5   H  1S          0.03059   0.02398  -0.00648   0.00404  -0.08066
  34        2S          0.06623   0.02229   0.03423  -0.00542  -0.78127
  35        3S          1.08254   0.98702   1.54774   0.44606   0.46555
  36 6   H  1S         -0.03100   0.02450   0.00471   0.00229   0.08830
  37        2S         -0.06666   0.01711  -0.03507  -0.02503   0.91555
  38        3S         -0.99032   0.96109  -1.54500   0.44511  -0.43422
                          16        17        18        19        20
                           V         V         V         V         V
     Eigenvalues --     0.40093   0.46518   0.48870   0.49402   0.59098
   1 1   C  1S         -0.01990  -0.01009   0.04705   0.00040   0.00011
   2        2S         -0.03462  -0.02502   0.07905   0.00062   0.00020
   3        2PX         0.02900   0.05910  -0.01398  -0.00039  -0.00040
   4        2PY         0.05638   0.10554  -0.02063  -0.00072  -0.00083
   5        2PZ        -0.00018  -0.00020   0.00214  -0.15234  -0.19226
   6        3S          0.07458   0.33276  -0.11026   0.00115   0.00017
   7        3PX         0.10300   0.23659   0.02598  -0.00003  -0.00136
   8        3PY         0.20710   0.41993   0.05190  -0.00038  -0.00281
   9        3PZ         0.00036  -0.00127   0.00919  -0.62975  -0.68364
  10        4S          2.93478  -0.33679  -3.02201  -0.04097  -0.01429
  11        4PX         0.36036  -0.31012  -0.83211  -0.01260  -0.00421
  12        4PY         0.70329  -0.54760  -1.40747  -0.02109  -0.00706
  13        4PZ         0.00026  -0.00012  -0.02233   0.68903   1.23923
  14 2   H  1S         -0.02044   0.03756   0.07336   0.00105   0.00035
  15        2S         -0.47177   0.37410   0.87578   0.01123   0.00238
  16        3S          0.34672  -0.11320  -0.63940  -0.01123  -0.00497
  17 3   H  1S         -0.03421   0.03749   0.07224   0.00103   0.00036
  18        2S         -0.59918   0.36604   0.84017   0.01079   0.00255
  19        3S          0.38243  -0.10836  -0.62343  -0.01101  -0.00489
  20 4   C  1S          0.00182   0.00023  -0.05078  -0.00099  -0.00016
  21        2S         -0.00062  -0.00730  -0.08805  -0.00176  -0.00029
  22        2PX         0.01064  -0.05741  -0.02656  -0.00023  -0.00046
  23        2PY         0.02173  -0.09586  -0.04587  -0.00048  -0.00065
  24        2PZ         0.00071  -0.00025   0.00218  -0.15249   0.19233
  25        3S          0.07462   0.29617   0.21586   0.00577   0.00059
  26        3PX        -0.04180  -0.24247  -0.05114  -0.00042  -0.00158
  27        3PY        -0.05272  -0.41134  -0.08347  -0.00105  -0.00226
  28        3PZ         0.00205  -0.00109   0.00848  -0.63109   0.68323
  29        4S         -1.15067  -0.58969   3.17742   0.04732   0.01287
  30        4PX         1.35232   0.26082  -0.58566  -0.00785  -0.00469
  31        4PY         2.46615   0.45454  -1.01784  -0.01295  -0.00832
  32        4PZ         0.00488  -0.00322   0.00353   0.69063  -1.23798
  33 5   H  1S         -0.04678   0.06032  -0.06801  -0.00099  -0.00033
  34        2S         -0.85872   0.62101  -0.86406  -0.01369  -0.00157
  35        3S         -0.26279  -0.21736   0.54418   0.00627   0.00466
  36 6   H  1S         -0.03403   0.06163  -0.06618  -0.00096  -0.00032
  37        2S         -0.70860   0.64013  -0.85436  -0.01343  -0.00129
  38        3S         -0.30207  -0.24328   0.54925   0.00642   0.00469
                          21        22        23        24        25
                           V         V         V         V         V
     Eigenvalues --     0.66621   0.69216   0.77422   0.77444   0.84622
   1 1   C  1S          0.00106   0.00070   0.03880   0.07969   0.00087
   2        2S          0.00225   0.00145   0.08172   0.16973   0.00219
   3        2PX        -0.14709  -0.18749  -0.04456   0.10923  -0.00531
   4        2PY         0.08542   0.11353  -0.07242   0.17566   0.01683
   5        2PZ        -0.00007  -0.00010   0.00009  -0.00121  -0.00004
   6        3S         -0.01947  -0.01528  -0.50645  -1.43716  -0.03194
   7        3PX        -0.66377  -0.64579  -0.24945   0.41544  -0.21804
   8        3PY         0.38055   0.39352  -0.40579   0.65142   0.18085
   9        3PZ        -0.00028  -0.00034   0.00040  -0.00424  -0.00022
  10        4S          0.02758   0.02789   0.36249   2.51847   0.12133
  11        4PX         1.09883   0.72544   0.35495  -0.76416   4.59400
  12        4PY        -0.63102  -0.48530   0.33874  -0.92660  -2.53514
  13        4PZ         0.00060   0.00088  -0.00389   0.01229   0.00143
  14 2   H  1S          0.02853   0.05691   0.00439   0.03426  -0.02686
  15        2S          0.19324   0.60818   0.03563   0.10865  -1.59391
  16        3S         -1.10468  -1.04625   0.05876  -1.07182  -1.23322
  17 3   H  1S         -0.02731  -0.05602   0.00471   0.03479   0.03218
  18        2S         -0.21259  -0.62744   0.10298   0.05722   1.63779
  19        3S          1.09059   0.98223   0.13787  -1.25234   1.22707
  20 4   C  1S          0.00127  -0.00021   0.07849   0.04464   0.00044
  21        2S          0.00264  -0.00044   0.16725   0.09416   0.00065
  22        2PX        -0.13732   0.19633  -0.10276   0.03648   0.00936
  23        2PY         0.07946  -0.10805  -0.18856   0.06842   0.00761
  24        2PZ        -0.00006   0.00008  -0.00089  -0.00000   0.00002
  25        3S         -0.02036   0.00773  -1.41969  -0.61396   0.00760
  26        3PX        -0.63788   0.68270  -0.38455   0.21738   0.22692
  27        3PY         0.37292  -0.37263  -0.71792   0.40540  -0.07081
  28        3PZ        -0.00025   0.00029  -0.00312  -0.00009   0.00013
  29        4S          0.01723  -0.01519   2.60682   0.54535  -0.14201
  30        4PX         1.26225  -0.89920   0.50072  -0.12361  -4.11356
  31        4PY        -0.74094   0.45120   1.16595  -0.54028   2.43163
  32        4PZ         0.00047  -0.00078   0.00998  -0.00316  -0.00134
  33 5   H  1S         -0.02069   0.05614   0.03314   0.00880  -0.02505
  34        2S         -0.09483   0.56064   0.06603   0.10422  -1.42242
  35        3S          1.06365  -1.06281  -1.23863   0.12458  -1.09367
  36 6   H  1S          0.02179  -0.05688   0.03253   0.00886   0.02320
  37        2S          0.08830  -0.53775   0.10183   0.02297   1.39718
  38        3S         -1.06410   1.11669  -1.10098   0.03751   1.11580
                          26        27        28        29        30
                           V         V         V         V         V
     Eigenvalues --     0.95077   2.23113   2.29158   2.33233   2.40858
   1 1   C  1S          0.09602  -0.00944  -0.01436   0.00042   0.00049
   2        2S          0.19955   0.00260  -0.01362   0.00075   0.00073
   3        2PX        -0.09099  -0.07052  -0.13047   0.35837   0.40696
   4        2PY        -0.15735  -0.13755  -0.23232  -0.20133  -0.22169
   5        2PZ         0.00006   0.00305   0.00429   0.00015   0.00004
   6        3S         -1.54823  -0.18817  -0.04439   0.00098   0.00424
   7        3PX        -0.23196   0.06510   0.20521  -0.43440  -0.56986
   8        3PY        -0.39214   0.14181   0.37954   0.24636   0.30925
   9        3PZ         0.00079  -0.00311  -0.00539  -0.00023  -0.00011
  10        4S          5.70991  -0.08213  -0.87131  -0.00326  -0.01522
  11        4PX         1.22819   0.04926  -0.17817  -0.08393  -1.00899
  12        4PY         1.97410   0.07122  -0.36722   0.03308   0.53269
  13        4PZ         0.00271  -0.00066  -0.00143   0.00003  -0.00012
  14 2   H  1S          0.01531  -0.69524  -0.81258  -0.72074  -0.62982
  15        2S         -0.29514   0.98480   1.20837   1.12850   1.43358
  16        3S         -0.10957  -0.29842  -0.49073  -0.47521  -0.35186
  17 3   H  1S          0.01618  -0.67910  -0.80936   0.71794   0.65298
  18        2S         -0.25041   0.96005   1.21558  -1.12673  -1.48260
  19        3S         -0.07025  -0.27489  -0.46468   0.46529   0.33976
  20 4   C  1S         -0.09376  -0.01137   0.01262   0.00057  -0.00034
  21        2S         -0.19440  -0.00167   0.01329   0.00068  -0.00082
  22        2PX        -0.09181   0.14208  -0.12329   0.29133  -0.41868
  23        2PY        -0.15876   0.24256  -0.19911  -0.17178   0.24905
  24        2PZ         0.00004   0.00269  -0.00330   0.00005  -0.00016
  25        3S          1.50208  -0.16344   0.01357   0.00190   0.00067
  26        3PX        -0.22437  -0.18060   0.21071  -0.35775   0.58321
  27        3PY        -0.39462  -0.30212   0.33559   0.20797  -0.35022
  28        3PZ        -0.00048  -0.00280   0.00415  -0.00009   0.00023
  29        4S         -5.69173  -0.20422   0.89679   0.02079   0.02829
  30        4PX         1.07522  -0.01686  -0.20541   0.12967   0.86014
  31        4PY         1.99036  -0.03779  -0.29975  -0.07376  -0.53186
  32        4PZ        -0.00384  -0.00099   0.00156   0.00008   0.00013
  33 5   H  1S         -0.01771  -0.79995   0.65542   0.69153  -0.70662
  34        2S          0.28408   1.16735  -1.00973  -0.99179   1.49656
  35        3S          0.05547  -0.35372   0.38005   0.49950  -0.42883
  36 6   H  1S         -0.01742  -0.80056   0.67936  -0.66953   0.70480
  37        2S          0.32046   1.16633  -1.03282   0.95732  -1.48311
  38        3S          0.08490  -0.35980   0.41874  -0.49266   0.44221
                          31        32        33        34        35
                           V         V         V         V         V
     Eigenvalues --     2.67092   2.81871   2.87730   2.95227   3.14090
   1 1   C  1S         -0.00012   0.00055  -0.01378  -0.00011  -0.00990
   2        2S         -0.00011   0.00156  -0.04451  -0.00066  -0.03030
   3        2PX        -0.00123   0.01542  -0.47285  -0.72007   0.44630
   4        2PY        -0.00278   0.02874  -0.88074   0.40847   0.76292
   5        2PZ        -0.92670   0.93751   0.03071  -0.00011  -0.00196
   6        3S          0.00059  -0.01274   0.38706   0.00829   0.25437
   7        3PX         0.00111  -0.02661   0.83445   0.86746  -0.42329
   8        3PY         0.00264  -0.04847   1.51481  -0.47361  -0.71549
   9        3PZ         0.94262  -1.14658  -0.03875   0.00007   0.00234
  10        4S         -0.00335   0.03010  -0.88511  -0.01804  -0.50255
  11        4PX         0.00020   0.02116  -0.70907  -0.67728   0.20945
  12        4PY        -0.00017   0.03857  -1.28342   0.35250   0.33932
  13        4PZ        -0.33951   0.62251   0.02469  -0.00004  -0.00131
  14 2   H  1S         -0.00260  -0.00381   0.25806  -0.37643  -0.20273
  15        2S          0.00296   0.00215  -0.21077   0.39589   0.15269
  16        3S          0.00057   0.00894  -0.30533   0.27022   0.04199
  17 3   H  1S         -0.00267  -0.00377   0.24918   0.37578  -0.21306
  18        2S          0.00313   0.00188  -0.19620  -0.39171   0.16263
  19        3S          0.00064   0.00870  -0.29740  -0.28890   0.06164
  20 4   C  1S         -0.00009  -0.00051   0.01344   0.00050  -0.00753
  21        2S         -0.00007  -0.00162   0.04795   0.00118  -0.02264
  22        2PX         0.00139   0.01371  -0.40818  -0.81886  -0.50450
  23        2PY         0.00170   0.02312  -0.71333   0.44051  -0.91011
  24        2PZ        -0.92289  -0.94132  -0.02942  -0.00056  -0.00203
  25        3S          0.00033   0.01400  -0.43279  -0.00835   0.19105
  26        3PX        -0.00128  -0.02515   0.77514   0.98202   0.54733
  27        3PY        -0.00145  -0.04281   1.35155  -0.52128   1.00004
  28        3PZ         0.93795   1.15035   0.03678   0.00067   0.00268
  29        4S         -0.00263  -0.03012   0.89998   0.02778  -0.36001
  30        4PX        -0.00010   0.02171  -0.71769  -0.70460  -0.33856
  31        4PY        -0.00029   0.03681  -1.24387   0.37283  -0.62919
  32        4PZ        -0.33703  -0.62372  -0.02314  -0.00047  -0.00224
  33 5   H  1S         -0.00233   0.00618  -0.29842   0.41399  -0.27795
  34        2S          0.00284  -0.00511   0.27365  -0.41873   0.21893
  35        3S          0.00035  -0.00810   0.28512  -0.25198   0.14281
  36 6   H  1S         -0.00235   0.00602  -0.28845  -0.43372  -0.25516
  37        2S          0.00295  -0.00513   0.26667   0.43714   0.19913
  38        3S          0.00028  -0.00795   0.27596   0.25539   0.12376
                          36        37        38
                           V         V         V
     Eigenvalues --     3.32260  23.35353  23.70500
   1 1   C  1S         -0.00010  -1.42074  -1.44568
   2        2S          0.00006   1.51534   1.56333
   3        2PX         0.79404  -0.00640   0.01231
   4        2PY        -0.43443  -0.01048   0.02137
   5        2PZ         0.00017   0.00013   0.00004
   6        3S         -0.00606  -0.29841  -0.39762
   7        3PX        -1.13518   0.02317  -0.05584
   8        3PY         0.61225   0.03850  -0.09657
   9        3PZ        -0.00021  -0.00037  -0.00010
  10        4S          0.03330   0.28037   0.76431
  11        4PX         2.01264  -0.02351   0.13544
  12        4PY        -1.07147  -0.04050   0.22811
  13        4PZ         0.00038   0.00062   0.00050
  14 2   H  1S          0.56483   0.01254   0.00702
  15        2S         -0.88524   0.00756  -0.01512
  16        3S         -0.45867  -0.08359  -0.04019
  17 3   H  1S         -0.57689   0.01428   0.00763
  18        2S          0.90350   0.00774  -0.01359
  19        3S          0.49362  -0.08607  -0.03847
  20 4   C  1S         -0.00015  -1.44091   1.42543
  21        2S         -0.00065   1.53678  -1.54138
  22        2PX        -0.69997   0.00640   0.01248
  23        2PY         0.41017   0.01152   0.02144
  24        2PZ        -0.00018   0.00010  -0.00004
  25        3S          0.00941  -0.30127   0.39123
  26        3PX         0.99735  -0.02328  -0.05577
  27        3PY        -0.59814  -0.04152  -0.09642
  28        3PZ         0.00024  -0.00029   0.00013
  29        4S         -0.05492   0.27445  -0.76005
  30        4PX        -1.76480   0.02565   0.12781
  31        4PY         1.08083   0.04634   0.22624
  32        4PZ        -0.00042   0.00046  -0.00059
  33 5   H  1S          0.48603   0.01450  -0.00535
  34        2S         -0.76003   0.00795   0.01362
  35        3S         -0.44612  -0.08418   0.03725
  36 6   H  1S         -0.47947   0.01302  -0.00461
  37        2S          0.75119   0.00858   0.01449
  38        3S          0.42483  -0.08164   0.03854
     Density Matrix:
                           1         2         3         4         5
   1 1   C  1S          0.65939
   2        2S          0.56147   0.49192
   3        2PX        -0.00050  -0.00066   0.08400
   4        2PY        -0.00126  -0.00173   0.00372   0.08752
   5        2PZ        -0.00001  -0.00002   0.00002   0.00004   0.06444
   6        3S         -0.08886  -0.15370   0.00258   0.00622   0.00002
   7        3PX         0.00087   0.00133   0.13023   0.00118   0.00002
   8        3PY         0.00120   0.00185   0.00128   0.13086   0.00002
   9        3PZ        -0.00003  -0.00006   0.00004   0.00006   0.10355
  10        4S         -0.07947  -0.11449  -0.01620  -0.02867  -0.00008
  11        4PX         0.00027   0.00164   0.06991  -0.00448   0.00014
  12        4PY         0.00062   0.00303  -0.00462   0.06542   0.00027
  13        4PZ         0.00003   0.00007   0.00017   0.00032   0.09594
  14 2   H  1S         -0.02050  -0.03265   0.03508  -0.06253   0.00032
  15        2S         -0.02297  -0.03676   0.04921  -0.08766   0.00028
  16        3S          0.00051  -0.00082   0.02047  -0.03316   0.00005
  17 3   H  1S         -0.02104  -0.03348  -0.07240  -0.00237   0.00029
  18        2S         -0.02338  -0.03733  -0.10021  -0.00294   0.00023
  19        3S          0.00055  -0.00075  -0.03821   0.00072   0.00002
  20 4   C  1S          0.00604   0.00973  -0.01078  -0.01885   0.00009
  21        2S          0.00969   0.01515  -0.01725  -0.03020   0.00015
  22        2PX         0.01037   0.01659  -0.01253  -0.03220  -0.00007
  23        2PY         0.01791   0.02862  -0.03192  -0.04972  -0.00009
  24        2PZ         0.00010   0.00016   0.00010   0.00022   0.06428
  25        3S         -0.02604  -0.03954   0.04831   0.08482  -0.00046
  26        3PX         0.01599   0.02478  -0.01833  -0.04618  -0.00009
  27        3PY         0.02760   0.04274  -0.04548  -0.07153  -0.00010
  28        3PZ         0.00016   0.00027   0.00017   0.00037   0.10299
  29        4S          0.00534   0.00392   0.02126   0.03805  -0.00056
  30        4PX         0.00310   0.00638  -0.01335  -0.02136  -0.00011
  31        4PY         0.00516   0.01078  -0.02133  -0.03761  -0.00014
  32        4PZ         0.00016   0.00025   0.00023   0.00049   0.09619
  33 5   H  1S          0.00418   0.00685  -0.00176  -0.01253   0.00010
  34        2S          0.00613   0.01017   0.00362  -0.02497   0.00002
  35        3S          0.00312   0.00453   0.00437  -0.01736  -0.00001
  36 6   H  1S          0.00415   0.00681  -0.00985  -0.00761   0.00010
  37        2S          0.00618   0.01031  -0.02320  -0.00932   0.00001
  38        3S          0.00313   0.00460  -0.01706  -0.00508  -0.00002
                           6         7         8         9        10
   6        3S          0.45222
   7        3PX        -0.00172   0.20223
   8        3PY        -0.00146  -0.00474   0.19616
   9        3PZ         0.00010   0.00003   0.00005   0.16639
  10        4S          0.27397  -0.02708  -0.04885  -0.00008   0.18371
  11        4PX        -0.00711   0.10892  -0.01018   0.00022  -0.01578
  12        4PY        -0.01247  -0.01053   0.09849   0.00043  -0.02947
  13        4PZ        -0.00029   0.00023   0.00043   0.15416  -0.00042
  14 2   H  1S          0.08731   0.05677  -0.09761   0.00053   0.06941
  15        2S          0.09843   0.08004  -0.13635   0.00047   0.08263
  16        3S          0.00635   0.03363  -0.05095   0.00007   0.01166
  17 3   H  1S          0.08962  -0.11349  -0.00196   0.00047   0.06992
  18        2S          0.09997  -0.15692  -0.00157   0.00037   0.08181
  19        3S          0.00625  -0.05961   0.00299   0.00003   0.01063
  20 4   C  1S         -0.02640  -0.01688  -0.02950   0.00016   0.00501
  21        2S         -0.03995  -0.02622  -0.04591   0.00025   0.00370
  22        2PX        -0.04653  -0.01790  -0.04571  -0.00014  -0.01742
  23        2PY        -0.08012  -0.04518  -0.07072  -0.00017  -0.02927
  24        2PZ        -0.00047   0.00014   0.00032   0.10329  -0.00049
  25        3S          0.10150   0.07106   0.12495  -0.00075   0.00110
  26        3PX        -0.06720  -0.02632  -0.06539  -0.00017  -0.02580
  27        3PY        -0.11561  -0.06417  -0.10170  -0.00019  -0.04326
  28        3PZ        -0.00080   0.00024   0.00053   0.16549  -0.00081
  29        4S          0.00214   0.03221   0.05786  -0.00092  -0.03197
  30        4PX        -0.02260  -0.02000  -0.03004  -0.00019  -0.00618
  31        4PY        -0.03846  -0.02994  -0.05416  -0.00024  -0.00953
  32        4PZ        -0.00073   0.00033   0.00069   0.15456  -0.00079
  33 5   H  1S         -0.02032  -0.00055  -0.01779   0.00015  -0.01393
  34        2S         -0.03034   0.00899  -0.03651   0.00001  -0.01767
  35        3S         -0.01152   0.00838  -0.02606  -0.00002  -0.00281
  36 6   H  1S         -0.02028  -0.01492  -0.00917   0.00014  -0.01463
  37        2S         -0.03089  -0.03567  -0.01045  -0.00000  -0.01933
  38        3S         -0.01189  -0.02645  -0.00603  -0.00003  -0.00372
                          11        12        13        14        15
  11        4PX         0.05967
  12        4PY        -0.00915   0.05100
  13        4PZ         0.00031   0.00060   0.14284
  14 2   H  1S          0.03364  -0.05389   0.00028   0.08081
  15        2S          0.04830  -0.07509   0.00016   0.10941   0.15012
  16        3S          0.02081  -0.02789  -0.00001   0.03669   0.05253
  17 3   H  1S         -0.06275   0.00159   0.00024  -0.01332  -0.02449
  18        2S         -0.08710   0.00377   0.00010  -0.02447  -0.04202
  19        3S         -0.03332   0.00417  -0.00003  -0.01779  -0.02685
  20 4   C  1S         -0.00320  -0.00593   0.00012   0.00422   0.00685
  21        2S         -0.00660  -0.01202   0.00020   0.00699   0.01146
  22        2PX        -0.01310  -0.01974  -0.00022   0.00172  -0.00266
  23        2PY        -0.01961  -0.03678  -0.00030   0.01132   0.02421
  24        2PZ         0.00019   0.00040   0.09570   0.00012   0.00002
  25        3S          0.02328   0.04201  -0.00059  -0.02112  -0.03457
  26        3PX        -0.02004  -0.02812  -0.00029   0.00114  -0.00672
  27        3PY        -0.02772  -0.05375  -0.00039   0.01701   0.03645
  28        3PZ         0.00030   0.00065   0.15333   0.00018   0.00002
  29        4S          0.00877   0.01685  -0.00080  -0.01841  -0.02577
  30        4PX        -0.01481  -0.01241  -0.00026  -0.00154  -0.00808
  31        4PY        -0.01258  -0.02964  -0.00035   0.01506   0.02701
  32        4PZ         0.00034   0.00073   0.14321   0.00009  -0.00008
  33 5   H  1S          0.00208  -0.01597   0.00008   0.01118   0.02321
  34        2S          0.00940  -0.02757  -0.00007   0.02375   0.04419
  35        3S          0.00763  -0.01578  -0.00006   0.01660   0.02776
  36 6   H  1S         -0.01431  -0.00544   0.00007  -0.00921  -0.01837
  37        2S         -0.02769  -0.00465  -0.00009  -0.01893  -0.03439
  38        3S         -0.01698  -0.00096  -0.00007  -0.01018  -0.01769
                          16        17        18        19        20
  16        3S          0.02100
  17 3   H  1S         -0.01785   0.08200
  18        2S         -0.02682   0.10954   0.14838
  19        3S         -0.01258   0.03594   0.05092   0.02011
  20 4   C  1S          0.00380   0.00428   0.00677   0.00375   0.65948
  21        2S          0.00564   0.00707   0.01127   0.00550   0.56161
  22        2PX        -0.00336   0.00910   0.02245   0.01691   0.00115
  23        2PY         0.01779   0.00739   0.00973   0.00571   0.00171
  24        2PZ        -0.00001   0.00012   0.00003  -0.00001  -0.00002
  25        3S         -0.01474  -0.02118  -0.03372  -0.01413  -0.08936
  26        3PX        -0.00660   0.01436   0.03515   0.02628  -0.00052
  27        3PY         0.02683   0.00961   0.01201   0.00720  -0.00115
  28        3PZ        -0.00003   0.00018   0.00002  -0.00002  -0.00004
  29        4S         -0.00660  -0.01782  -0.02414  -0.00570  -0.07986
  30        4PX        -0.00678   0.01424   0.02797   0.01726  -0.00019
  31        4PY         0.01596   0.00692   0.00725   0.00224  -0.00018
  32        4PZ        -0.00006   0.00010  -0.00007  -0.00005   0.00000
  33 5   H  1S          0.01618  -0.00895  -0.01796  -0.00934  -0.02036
  34        2S          0.02726  -0.01844  -0.03356  -0.01677  -0.02218
  35        3S          0.01455  -0.00999  -0.01735  -0.00889   0.00068
  36 6   H  1S         -0.00956   0.01119   0.02326   0.01601  -0.02000
  37        2S         -0.01720   0.02360   0.04401   0.02699  -0.02202
  38        3S         -0.00906   0.01647   0.02749   0.01436   0.00058
                          21        22        23        24        25
  21        2S          0.49215
  22        2PX         0.00164   0.08321
  23        2PY         0.00242   0.00336   0.08790
  24        2PZ        -0.00003  -0.00003  -0.00006   0.06412
  25        3S         -0.15443  -0.00531  -0.00795   0.00006   0.45429
  26        3PX        -0.00079   0.12915   0.00167  -0.00002  -0.00005
  27        3PY        -0.00174   0.00165   0.13184  -0.00004   0.00112
  28        3PZ        -0.00007  -0.00005  -0.00009   0.10274   0.00015
  29        4S         -0.11532   0.01293   0.02181  -0.00018   0.27724
  30        4PX        -0.00139   0.07350  -0.00516  -0.00008   0.00586
  31        4PY        -0.00219  -0.00498   0.06747  -0.00013   0.00971
  32        4PZ         0.00002  -0.00017  -0.00028   0.09595  -0.00012
  33 5   H  1S         -0.03241  -0.03340   0.06441   0.00020   0.08668
  34        2S         -0.03541  -0.04962   0.08865   0.00012   0.09474
  35        3S         -0.00049  -0.02268   0.03325  -0.00002   0.00536
  36 6   H  1S         -0.03186   0.07179   0.00232   0.00024   0.08519
  37        2S         -0.03521   0.10156   0.00012   0.00018   0.09423
  38        3S         -0.00064   0.04054  -0.00349   0.00001   0.00573
                          26        27        28        29        30
  26        3PX         0.20075
  27        3PY        -0.00254   0.19828
  28        3PZ        -0.00002  -0.00006   0.16460
  29        4S          0.02411   0.04019  -0.00025   0.18360
  30        4PX         0.11465  -0.01052  -0.00012   0.01471   0.06656
  31        4PY        -0.01022   0.10197  -0.00020   0.02363  -0.01008
  32        4PZ        -0.00021  -0.00035   0.15373  -0.00046  -0.00022
  33 5   H  1S         -0.05304   0.10073   0.00034   0.06653  -0.03425
  34        2S         -0.07922   0.13818   0.00021   0.07557  -0.05156
  35        3S         -0.03666   0.05120  -0.00003   0.00848  -0.02399
  36 6   H  1S          0.11313   0.00301   0.00040   0.06651   0.06609
  37        2S          0.15983  -0.00132   0.00030   0.07689   0.09386
  38        3S          0.06346  -0.00681   0.00001   0.00954   0.03764
                          31        32        33        34        35
  31        4PY         0.05389
  32        4PZ        -0.00035   0.14357
  33 5   H  1S          0.05615   0.00016   0.08175
  34        2S          0.07716   0.00001   0.11021   0.15108
  35        3S          0.02873  -0.00007   0.03781   0.05445   0.02247
  36 6   H  1S         -0.00200   0.00021  -0.01239  -0.02616  -0.02012
  37        2S         -0.00646   0.00008  -0.02619  -0.04850  -0.03174
  38        3S         -0.00644  -0.00004  -0.02023  -0.03175  -0.01563
                          36        37        38
  36 6   H  1S          0.08076
  37        2S          0.11001   0.15228
  38        3S          0.03826   0.05549   0.02301
    Full Mulliken population analysis:
                           1         2         3         4         5
   1 1   C  1S          0.65939
   2        2S          0.49322   0.49192
   3        2PX         0.00000   0.00000   0.08400
   4        2PY         0.00000   0.00000   0.00000   0.08752
   5        2PZ         0.00000   0.00000   0.00000   0.00000   0.06444
   6        3S         -0.02925  -0.06437   0.00000   0.00000   0.00000
   7        3PX         0.00000   0.00000   0.08193   0.00000   0.00000
   8        3PY         0.00000   0.00000   0.00000   0.08233   0.00000
   9        3PZ         0.00000   0.00000   0.00000   0.00000   0.06514
  10        4S         -0.01222  -0.02143   0.00000   0.00000   0.00000
  11        4PX         0.00000   0.00000   0.01540   0.00000   0.00000
  12        4PY         0.00000   0.00000   0.00000   0.01441   0.00000
  13        4PZ         0.00000   0.00000   0.00000   0.00000   0.02113
  14 2   H  1S         -0.00022  -0.00032   0.00185   0.00541   0.00000
  15        2S         -0.00166  -0.00318   0.00443   0.01298   0.00000
  16        3S          0.00004  -0.00008   0.00071   0.00189   0.00000
  17 3   H  1S         -0.00025  -0.00036   0.00774   0.00000   0.00000
  18        2S         -0.00174  -0.00332   0.01761   0.00000   0.00000
  19        3S          0.00004  -0.00007   0.00255  -0.00000   0.00000
  20 4   C  1S          0.00000   0.00000  -0.00002  -0.00006  -0.00000
  21        2S          0.00000  -0.00000  -0.00002  -0.00005  -0.00000
  22        2PX        -0.00002  -0.00002   0.00011   0.00085  -0.00000
  23        2PY        -0.00006  -0.00005   0.00084   0.00195  -0.00000
  24        2PZ         0.00000   0.00000   0.00000   0.00000   0.00041
  25        3S         -0.00058  -0.00098   0.00251   0.00763   0.00000
  26        3PX        -0.00054  -0.00099   0.00019   0.00557  -0.00000
  27        3PY        -0.00161  -0.00295   0.00548   0.01071  -0.00000
  28        3PZ         0.00000   0.00000   0.00000   0.00000   0.00608
  29        4S          0.00034   0.00030   0.00096   0.00299   0.00000
  30        4PX        -0.00018  -0.00045  -0.00072   0.00148  -0.00000
  31        4PY        -0.00052  -0.00132   0.00148   0.00098  -0.00000
  32        4PZ         0.00000   0.00000   0.00000   0.00000   0.00903
  33 5   H  1S          0.00000   0.00000  -0.00000  -0.00000   0.00000
  34        2S          0.00001   0.00002   0.00000  -0.00031   0.00000
  35        3S          0.00007   0.00012   0.00002  -0.00069  -0.00000
  36 6   H  1S          0.00000   0.00000  -0.00000  -0.00000   0.00000
  37        2S          0.00001   0.00002  -0.00024  -0.00007   0.00000
  38        3S          0.00007   0.00013  -0.00056  -0.00012  -0.00000
                           6         7         8         9        10
   6        3S          0.45222
   7        3PX         0.00000   0.20223
   8        3PY         0.00000   0.00000   0.19616
   9        3PZ         0.00000   0.00000   0.00000   0.16639
  10        4S          0.21224   0.00000   0.00000   0.00000   0.18371
  11        4PX         0.00000   0.07117   0.00000   0.00000   0.00000
  12        4PY         0.00000   0.00000   0.06436   0.00000   0.00000
  13        4PZ         0.00000   0.00000   0.00000   0.10074   0.00000
  14 2   H  1S          0.01584   0.01114   0.03153   0.00000   0.01827
  15        2S          0.04114   0.02025   0.05676   0.00000   0.04746
  16        3S          0.00292   0.00407   0.01015   0.00000   0.00878
  17 3   H  1S          0.01681   0.04386   0.00000   0.00000   0.01864
  18        2S          0.04257   0.07701   0.00000   0.00000   0.04744
  19        3S          0.00289   0.01385  -0.00000   0.00000   0.00805
  20 4   C  1S         -0.00059  -0.00057  -0.00172  -0.00000   0.00032
  21        2S         -0.00099  -0.00104  -0.00316  -0.00000   0.00028
  22        2PX         0.00242   0.00019   0.00551  -0.00000   0.00079
  23        2PY         0.00721   0.00545   0.01059  -0.00000   0.00230
  24        2PZ        -0.00000   0.00000   0.00000   0.00610  -0.00000
  25        3S          0.02156   0.01328   0.04045   0.00000   0.00042
  26        3PX         0.01256  -0.00126   0.01864  -0.00000   0.00397
  27        3PY         0.03743   0.01829   0.02860  -0.00000   0.01154
  28        3PZ        -0.00000   0.00000   0.00000   0.03515  -0.00000
  29        4S          0.00081   0.00496   0.01544   0.00000  -0.02005
  30        4PX         0.00634  -0.00409   0.00595  -0.00000   0.00187
  31        4PY         0.01870   0.00593   0.00131  -0.00000   0.00500
  32        4PZ        -0.00000   0.00000   0.00000   0.04930  -0.00000
  33 5   H  1S         -0.00005  -0.00000  -0.00019   0.00000  -0.00074
  34        2S         -0.00117   0.00007  -0.00319   0.00000  -0.00295
  35        3S         -0.00187   0.00012  -0.00419  -0.00000  -0.00101
  36 6   H  1S         -0.00005  -0.00013  -0.00005   0.00000  -0.00078
  37        2S         -0.00118  -0.00256  -0.00052  -0.00000  -0.00322
  38        3S         -0.00193  -0.00350  -0.00055  -0.00000  -0.00134
                          11        12        13        14        15
  11        4PX         0.05967
  12        4PY         0.00000   0.05100
  13        4PZ         0.00000   0.00000   0.14284
  14 2   H  1S          0.00654   0.01723   0.00000   0.08081
  15        2S          0.01582   0.04046   0.00000   0.07728   0.15012
  16        3S          0.00535   0.01180  -0.00000   0.01371   0.04144
  17 3   H  1S          0.02351  -0.00000   0.00000  -0.00001  -0.00061
  18        2S          0.05484  -0.00001   0.00000  -0.00060  -0.00505
  19        3S          0.01640  -0.00001  -0.00000  -0.00194  -0.00767
  20 4   C  1S         -0.00019  -0.00060  -0.00000   0.00000   0.00002
  21        2S         -0.00047  -0.00148  -0.00000   0.00000   0.00003
  22        2PX        -0.00071   0.00137  -0.00000  -0.00000   0.00000
  23        2PY         0.00136   0.00096  -0.00000  -0.00000  -0.00037
  24        2PZ         0.00000   0.00000   0.00899   0.00000   0.00000
  25        3S          0.00654   0.02043   0.00000  -0.00007  -0.00155
  26        3PX        -0.00410   0.00557  -0.00000  -0.00000   0.00003
  27        3PY         0.00549   0.00130  -0.00000  -0.00023  -0.00363
  28        3PZ         0.00000   0.00000   0.04891   0.00000   0.00000
  29        4S          0.00266   0.00884   0.00000  -0.00109  -0.00467
  30        4PX        -0.00712   0.00315  -0.00000   0.00001   0.00014
  31        4PY         0.00319  -0.00558  -0.00000  -0.00241  -0.01024
  32        4PZ         0.00000   0.00000   0.08981   0.00000  -0.00000
  33 5   H  1S          0.00003  -0.00236   0.00000   0.00000   0.00000
  34        2S          0.00030  -0.00987  -0.00000   0.00000   0.00016
  35        3S          0.00032  -0.00727  -0.00000   0.00023   0.00147
  36 6   H  1S         -0.00174  -0.00046   0.00000  -0.00000  -0.00005
  37        2S         -0.00816  -0.00095  -0.00000  -0.00005  -0.00096
  38        3S         -0.00645  -0.00025  -0.00000  -0.00047  -0.00251
                          16        17        18        19        20
  16        3S          0.02100
  17 3   H  1S         -0.00194   0.08200
  18        2S         -0.00767   0.07737   0.14838
  19        3S         -0.00645   0.01343   0.04018   0.02011
  20 4   C  1S          0.00010   0.00000   0.00002   0.00009   0.65948
  21        2S          0.00017   0.00000   0.00003   0.00016   0.49335
  22        2PX         0.00001  -0.00000  -0.00028  -0.00059   0.00000
  23        2PY        -0.00075  -0.00000  -0.00008  -0.00013   0.00000
  24        2PZ        -0.00000   0.00000   0.00000  -0.00000   0.00000
  25        3S         -0.00256  -0.00007  -0.00149  -0.00244  -0.02941
  26        3PX         0.00005  -0.00016  -0.00289  -0.00368   0.00000
  27        3PY        -0.00451  -0.00007  -0.00065  -0.00067   0.00000
  28        3PZ        -0.00000   0.00000   0.00000  -0.00000   0.00000
  29        4S         -0.00249  -0.00104  -0.00434  -0.00214  -0.01228
  30        4PX         0.00015  -0.00189  -0.00881  -0.00680   0.00000
  31        4PY        -0.00755  -0.00061  -0.00151  -0.00058   0.00000
  32        4PZ        -0.00000   0.00000  -0.00000  -0.00000   0.00000
  33 5   H  1S          0.00023  -0.00000  -0.00004  -0.00042  -0.00023
  34        2S          0.00144  -0.00004  -0.00088  -0.00230  -0.00162
  35        3S          0.00246  -0.00045  -0.00238  -0.00281   0.00005
  36 6   H  1S         -0.00044   0.00000   0.00000   0.00022  -0.00021
  37        2S         -0.00244   0.00000   0.00015   0.00142  -0.00157
  38        3S         -0.00293   0.00023   0.00144   0.00242   0.00005
                          21        22        23        24        25
  21        2S          0.49215
  22        2PX         0.00000   0.08321
  23        2PY         0.00000   0.00000   0.08790
  24        2PZ         0.00000   0.00000   0.00000   0.06412
  25        3S         -0.06468   0.00000   0.00000   0.00000   0.45429
  26        3PX         0.00000   0.08125   0.00000   0.00000   0.00000
  27        3PY         0.00000   0.00000   0.08295   0.00000   0.00000
  28        3PZ         0.00000   0.00000   0.00000   0.06463   0.00000
  29        4S         -0.02158   0.00000   0.00000   0.00000   0.21478
  30        4PX         0.00000   0.01619   0.00000   0.00000   0.00000
  31        4PY         0.00000   0.00000   0.01486   0.00000   0.00000
  32        4PZ         0.00000   0.00000   0.00000   0.02113   0.00000
  33 5   H  1S         -0.00033   0.00151   0.00602   0.00000   0.01597
  34        2S         -0.00310   0.00376   0.01393   0.00000   0.03995
  35        3S         -0.00005   0.00066   0.00200  -0.00000   0.00247
  36 6   H  1S         -0.00030   0.00712   0.00001   0.00000   0.01527
  37        2S         -0.00301   0.01747   0.00000   0.00000   0.03912
  38        3S         -0.00006   0.00270  -0.00001   0.00000   0.00262
                          26        27        28        29        30
  26        3PX         0.20075
  27        3PY         0.00000   0.19828
  28        3PZ         0.00000   0.00000   0.16460
  29        4S          0.00000   0.00000   0.00000   0.18360
  30        4PX         0.07492   0.00000   0.00000   0.00000   0.06656
  31        4PY         0.00000   0.06663   0.00000   0.00000   0.00000
  32        4PZ         0.00000   0.00000   0.10045   0.00000   0.00000
  33 5   H  1S          0.00880   0.03465   0.00000   0.01762   0.00557
  34        2S          0.01683   0.06083   0.00000   0.04360   0.01412
  35        3S          0.00371   0.01073  -0.00000   0.00641   0.00515
  36 6   H  1S          0.04233   0.00007   0.00000   0.01743   0.02467
  37        2S          0.07749  -0.00004   0.00000   0.04401   0.05910
  38        3S          0.01477  -0.00010   0.00000   0.00717   0.01863
                          31        32        33        34        35
  31        4PY         0.05389
  32        4PZ         0.00000   0.14357
  33 5   H  1S          0.01894   0.00000   0.08175
  34        2S          0.04379   0.00000   0.07785   0.15108
  35        3S          0.01277  -0.00000   0.01413   0.04296   0.02247
  36 6   H  1S         -0.00005   0.00000  -0.00001  -0.00085  -0.00243
  37        2S         -0.00025   0.00000  -0.00085  -0.00695  -0.00986
  38        3S         -0.00020  -0.00000  -0.00244  -0.00987  -0.00847
                          36        37        38
  36 6   H  1S          0.08076
  37        2S          0.07771   0.15228
  38        3S          0.01430   0.04378   0.02301
     Gross orbital populations:
                           1
   1 1   C  1S          1.10436
   2        2S          0.88586
   3        2PX         0.22624
   4        2PY         0.23539
   5        2PZ         0.16623
   6        3S          0.79220
   7        3PX         0.56065
   8        3PY         0.55419
   9        3PZ         0.42282
  10        4S          0.50735
  11        4PX         0.25964
  12        4PY         0.21206
  13        4PZ         0.41242
  14 2   H  1S          0.27244
  15        2S          0.46786
  16        3S          0.08664
  17 3   H  1S          0.27610
  18        2S          0.46532
  19        3S          0.08311
  20 4   C  1S          1.10439
  21        2S          0.88584
  22        2PX         0.22349
  23        2PY         0.23686
  24        2PZ         0.16538
  25        3S          0.79345
  26        3PX         0.55383
  27        3PY         0.55852
  28        3PZ         0.41983
  29        4S          0.50223
  30        4PX         0.27393
  31        4PY         0.21664
  32        4PZ         0.41331
  33 5   H  1S          0.27541
  34        2S          0.46761
  35        3S          0.08682
  36 6   H  1S          0.27234
  37        2S          0.46968
  38        3S          0.08955
          Condensed to atoms (all electrons):
               1          2          3          4          5          6
     1  C    5.031097   0.387350   0.388066   0.602252  -0.034772  -0.034574
     2  H    0.387350   0.516797  -0.031937  -0.041425   0.006005  -0.009848
     3  H    0.388066  -0.031937   0.512457  -0.040625  -0.009324   0.005892
     4  C    0.602252  -0.041425  -0.040625   5.058768   0.384499   0.384222
     5  H   -0.034772   0.006005  -0.009324   0.384499   0.525165  -0.041733
     6  H   -0.034574  -0.009848   0.005892   0.384222  -0.041733   0.527619
 Mulliken charges:
               1
     1  C   -0.339420
     2  H    0.173058
     3  H    0.175470
     4  C   -0.347689
     5  H    0.170159
     6  H    0.168422
 Sum of Mulliken charges =  -0.00000
 Mulliken charges with hydrogens summed into heavy atoms:
               1
     1  C    0.009108
     4  C   -0.009108
 Electronic spatial extent (au):  <R**2>=             83.6797
 Charge=             -0.0000 electrons
 Dipole moment (field-independent basis, Debye):
    X=              0.0124    Y=              0.0342    Z=              0.0223  Tot=              0.0427
 Quadrupole moment (field-independent basis, Debye-Ang):
   XX=            -12.1921   YY=            -12.2175   ZZ=            -15.6713
   XY=              0.0107   XZ=             -0.0004   YZ=             -0.0036
 Traceless Quadrupole moment (field-independent basis, Debye-Ang):
   XX=              1.1682   YY=              1.1428   ZZ=             -2.3110
   XY=              0.0107   XZ=             -0.0004   YZ=             -0.0036
 Octapole moment (field-independent basis, Debye-Ang**2):
  XXX=             -0.4257  YYY=              0.0939  ZZZ=             -0.0874  XYY=              0.2773
  XXY=             -0.0490  XXZ=              0.0036  XZZ=             -0.0870  YZZ=             -0.0583
  YYZ=              0.0128  XYZ=              0.0078
 Hexadecapole moment (field-independent basis, Debye-Ang**3):
 XXXX=            -34.2487 YYYY=            -55.1720 ZZZZ=            -17.8038 XXXY=             -7.2658
 XXXZ=             -0.0012 YYYX=            -10.7016 YYYZ=              0.0055 ZZZX=              0.0027
 ZZZY=              0.0113 XXYY=            -16.1703 XXZZ=             -9.9205 YYZZ=            -13.6311
 XXYZ=              0.0023 YYXZ=              0.0048 ZZXY=             -3.2058
 N-N= 3.307609344005D+01 E-N=-2.478670648268D+02  KE= 7.815791771379D+01
 Orbital energies and kinetic energies (alpha):
                                 1                 2
   1         O               -10.289385         15.976038
   2         O               -10.288394         15.982245
   3         O                -0.863582          1.536309
   4         O                -0.672971          1.272778
   5         O                -0.559881          0.942513
   6         O                -0.508807          1.285331
   7         O                -0.437168          1.046105
   8         O                -0.356522          1.037640
   9         V                 0.079747          1.182087
  10         V                 0.141032          0.588485
  11         V                 0.165265          0.591315
  12         V                 0.170402          0.678631
  13         V                 0.240866          0.581841
  14         V                 0.370590          0.846285
  15         V                 0.394468          0.935190
  16         V                 0.400930          0.792498
  17         V                 0.465181          1.188663
  18         V                 0.488701          1.422232
  19         V                 0.494022          1.302293
  20         V                 0.590978          1.651146
  21         V                 0.666210          1.575166
  22         V                 0.692156          2.146567
  23         V                 0.774219          2.367685
  24         V                 0.774440          2.377971
  25         V                 0.846217          1.091921
  26         V                 0.950769          3.416923
  27         V                 2.231129          3.931219
  28         V                 2.291575          4.026021
  29         V                 2.332330          4.307213
  30         V                 2.408579          4.522320
  31         V                 2.670923          6.300687
  32         V                 2.818706          6.309247
  33         V                 2.877296          6.137178
  34         V                 2.952275          6.225663
  35         V                 3.140896          6.819877
  36         V                 3.322598          6.402385
  37         V                23.353533         60.075205
  38         V                23.705004         60.202885
 Total kinetic energy from orbitals= 7.815791771379D+01
 Calling FoFJK, ICntrl=      2127 FMM=F ISym2X=0 I1Cent= 0 IOpClX= 0 NMat=1 NMatS=1 NMatT=0.
 -------------------------------------------------------------------
 Center     Atomic                   Forces (Hartrees/Bohr)
 Number     Number              X              Y              Z
 -------------------------------------------------------------------
      1        6           0.014679335    0.009726312    0.000990239
      2        1          -0.012490416    0.006991903   -0.000490804
      3        1           0.005121269   -0.005689682   -0.000436768
      4        6           0.007953424    0.004488959    0.000838558
      5        1          -0.002067339   -0.009262678   -0.000436286
      6        1          -0.013196272   -0.006254814   -0.000464939
 -------------------------------------------------------------------
 Cartesian Forces:  Max     0.014679335 RMS     0.007313785

 GradGradGradGradGradGradGradGradGradGradGradGradGradGradGradGradGradGrad
 Berny optimization.
 Search for a local minimum.
 Step number   1 out of a maximum of    2
 All quantities printed in internal units (Hartrees-Bohrs-Radians)
 Second derivative matrix not updated -- first step.
 The second derivative matrix:
                          X1        Y1        Z1        X2        Y2
           X1           0.75631
           Y1           0.09536   0.84845
           Z1          -0.00136  -0.00264   0.16840
           X2          -0.16673   0.09705  -0.00060   0.14434
           Y2           0.10238  -0.27622   0.00196  -0.11599   0.26472
           Z2          -0.00091   0.00242  -0.05350   0.00084  -0.00203
           X3          -0.34897  -0.00058   0.00190  -0.00008  -0.00005
           Y3          -0.00599  -0.11026   0.00053   0.03191   0.01939
           Z3           0.00247   0.00051  -0.05553  -0.00040  -0.00015
           X4          -0.26604  -0.17715   0.00026   0.02247   0.01365
           Y4          -0.17710  -0.47042   0.00051  -0.01297  -0.00788
           Z4          -0.00020  -0.00030  -0.09421   0.00015   0.00022
           X5           0.02380  -0.01374  -0.00012  -0.00000   0.00000
           Y5           0.01149  -0.00663  -0.00016   0.00000  -0.00000
           Z5           0.00012  -0.00006   0.01810  -0.00006   0.00004
           X6           0.00162  -0.00094  -0.00008  -0.00000   0.00000
           Y6          -0.02614   0.01509  -0.00020   0.00000  -0.00000
           Z6          -0.00011   0.00007   0.01674   0.00006  -0.00004
                          Z2        X3        Y3        Z3        X4
           Z2           0.02772
           X3           0.00007   0.34898
           Y3          -0.00040   0.00067   0.07552
           Z3           0.01050  -0.00208  -0.00036   0.02885
           X4          -0.00011   0.00007  -0.02659   0.00011   0.71929
           Y4           0.00007  -0.00004   0.01535  -0.00006   0.11909
           Z4           0.01511   0.00011   0.00023   0.01634   0.00110
           X5           0.00005  -0.00000   0.00000  -0.00005  -0.14679
           Y5          -0.00003   0.00000  -0.00000   0.00003   0.09399
           Z5           0.00924  -0.00006   0.00003  -0.00947   0.00058
           X6           0.00005  -0.00000   0.00000  -0.00005  -0.32899
           Y6          -0.00003   0.00000  -0.00000   0.00003  -0.02300
           Z6          -0.00908   0.00006  -0.00003   0.00931  -0.00195
                          Y4        Z4        X5        Y5        Z5
           Y4           0.86887
           Z4           0.00166   0.17793
           X5           0.08499   0.00037   0.12505
           Y5          -0.30053  -0.00144  -0.10448   0.29113
           Z5          -0.00181  -0.05846  -0.00050   0.00153   0.03020
           X6          -0.01397  -0.00153  -0.00207  -0.00100  -0.00008
           Y6          -0.10539  -0.00037   0.03323   0.01604   0.00028
           Z6          -0.00037  -0.05672   0.00026   0.00007   0.01040
                          X6        Y6        Z6
           X6           0.32944
           Y6           0.01591   0.07426
           Z6           0.00169   0.00030   0.02935
 ITU=  0
     Eigenvalues ---    0.03711   0.04391   0.09531   0.09787   0.13530
     Eigenvalues ---    0.17562   0.26422   0.29121   0.53078   0.70731
     Eigenvalues ---    0.97709   1.55877
 Angle between quadratic step and forces=  30.91 degrees.
 Linear search not attempted -- first point.
 B after Tr=     0.008122    0.007458    0.002290
         Rot=    1.000000    0.000028   -0.000016   -0.000117 Ang=   0.01 deg.
 Variable       Old X    -DE/DX   Delta X   Delta X   Delta X     New X
                                 (Linear)    (Quad)   (Total)
    X1       -0.63699   0.01468   0.00000   0.02460   0.03297  -0.60402
    Y1       -1.10037   0.00973   0.00000   0.02426   0.03157  -1.06880
    Z1        0.00201   0.00099   0.00000   0.00513   0.00750   0.00951
    X2        0.44391  -0.01249   0.00000  -0.05660  -0.04780   0.39611
    Y2       -2.87908   0.00699   0.00000   0.01834   0.02589  -2.85320
    Z2        0.01670  -0.00049   0.00000  -0.00622  -0.00378   0.01292
    X3       -2.69532   0.00512   0.00000   0.03927   0.04765  -2.64767
    Y3       -1.10542  -0.00569   0.00000  -0.01740  -0.01056  -1.11599
    Z3        0.01536  -0.00044   0.00000  -0.00601  -0.00358   0.01179
    X4        0.62889   0.00795   0.00000   0.00900   0.01687   0.64576
    Y4        1.09210   0.00449   0.00000   0.00664   0.01424   1.10634
    Z4        0.00123   0.00084   0.00000   0.00434   0.00654   0.00777
    X5       -0.27108  -0.00207   0.00000  -0.03565  -0.02821  -0.29930
    Y5        2.95694  -0.00926   0.00000  -0.03906  -0.03168   2.92527
    Z5        0.01186  -0.00044   0.00000  -0.00558  -0.00344   0.00842
    X6        2.71459  -0.01320   0.00000  -0.02932  -0.02147   2.69312
    Y6        1.22161  -0.00625   0.00000  -0.03754  -0.02946   1.19215
    Z6        0.01304  -0.00046   0.00000  -0.00539  -0.00325   0.00979
         Item               Value     Threshold  Converged?
 Maximum Force            0.014679     0.000450     NO 
 RMS     Force            0.007314     0.000300     NO 
 Maximum Displacement     0.047804     0.001800     NO 
 RMS     Displacement     0.024929     0.001200     NO 
 Predicted change in Energy=-1.455115D-03
 GradGradGradGradGradGradGradGradGradGradGradGradGradGradGradGradGradGrad

 Unable to Open any file for archive entry.
 1\1\GINC-BHD0012\Force\RwB97XD\6-311G\C2H4\BWEIGHT\11-Jan-2023\0\\# WB
 97XD/6-311G SCF=XQC FORCE nosym pop=full guess=read\\MD Step 1000\\0,1
 \C,-0.33708281,-0.5822904,0.00106145\H,0.23490913,-1.52354565,0.008838
 84\H,-1.42630247,-0.58496408,0.00813032\C,0.3327927,0.57791271,0.00065
 029\H,-0.14345054,1.56474774,0.0062737\H,1.43650044,0.64644693,0.00689
 933\\Version=ES64L-G16RevC.01\HF=-78.5557752\RMSD=4.985e-09\RMSF=7.314
 e-03\Dipole=0.0048887,0.0134445,0.0087758\Quadrupole=0.8685417,0.84964
 89,-1.7181906,0.0079511,-0.0003256,-0.0026639\PG=C01 [X(C2H4)]\\@
 The archive entry for this job was punched.


 TO SEE A WORLD IN A GRAIN OF SAND
 AND A HEAVEN IN A WILD FLOWER
 HOLD INFINITY IN THE PALM OF YOUR HAND
 AND ETERNITY IN AN HOUR

                       -- WILLIAM BLAKE
 Job cpu time:       0 days  0 hours  0 minutes 49.5 seconds.
 Elapsed time:       0 days  0 hours  0 minutes 17.3 seconds.
 File lengths (MBytes):  RWF=    272 Int=      0 D2E=      0 Chk=     32 Scr=     32
 Normal termination of Gaussian 16 at Wed Jan 11 18:35:51 2023.
