 Entering Gaussian System, Link 0=g16
 Initial command:
 /software/gaussian/g16-c01/avx/g16/l1.exe "/gpfs/fs2/scratch/bweight/software/many_molecule_many_mode_NAMD/src/NAMD/TEST_OUTPUT/G16/DIMER/Gau-9137.inp" -scrdir="/gpfs/fs2/scratch/bweight/software/many_molecule_many_mode_NAMD/src/NAMD/TEST_OUTPUT/G16/DIMER/"
 Entering Link 1 = /software/gaussian/g16-c01/avx/g16/l1.exe PID=      9138.
  
 Copyright (c) 1988-2019, Gaussian, Inc.  All Rights Reserved.
  
 This is part of the Gaussian(R) 16 program.  It is based on
 the Gaussian(R) 09 system (copyright 2009, Gaussian, Inc.),
 the Gaussian(R) 03 system (copyright 2003, Gaussian, Inc.),
 the Gaussian(R) 98 system (copyright 1998, Gaussian, Inc.),
 the Gaussian(R) 94 system (copyright 1995, Gaussian, Inc.),
 the Gaussian 92(TM) system (copyright 1992, Gaussian, Inc.),
 the Gaussian 90(TM) system (copyright 1990, Gaussian, Inc.),
 the Gaussian 88(TM) system (copyright 1988, Gaussian, Inc.),
 the Gaussian 86(TM) system (copyright 1986, Carnegie Mellon
 University), and the Gaussian 82(TM) system (copyright 1983,
 Carnegie Mellon University). Gaussian is a federally registered
 trademark of Gaussian, Inc.
  
 This software contains proprietary and confidential information,
 including trade secrets, belonging to Gaussian, Inc.
  
 This software is provided under written license and may be
 used, copied, transmitted, or stored only in accord with that
 written license.
  
 The following legend is applicable only to US Government
 contracts under FAR:
  
                    RESTRICTED RIGHTS LEGEND
  
 Use, reproduction and disclosure by the US Government is
 subject to restrictions as set forth in subparagraphs (a)
 and (c) of the Commercial Computer Software - Restricted
 Rights clause in FAR 52.227-19.
  
 Gaussian, Inc.
 340 Quinnipiac St., Bldg. 40, Wallingford CT 06492
  
  
 ---------------------------------------------------------------
 Warning -- This program may not be used in any manner that
 competes with the business of Gaussian, Inc. or will provide
 assistance to any competitor of Gaussian, Inc.  The licensee
 of this program is prohibited from giving any competitor of
 Gaussian, Inc. access to this program.  By using this program,
 the user acknowledges that Gaussian, Inc. is engaged in the
 business of creating and licensing software in the field of
 computational chemistry and represents and warrants to the
 licensee that it is not a competitor of Gaussian, Inc. and that
 it will not use this program in any manner prohibited above.
 ---------------------------------------------------------------
  

 Cite this work as:
 Gaussian 16, Revision C.01,
 M. J. Frisch, G. W. Trucks, H. B. Schlegel, G. E. Scuseria, 
 M. A. Robb, J. R. Cheeseman, G. Scalmani, V. Barone, 
 G. A. Petersson, H. Nakatsuji, X. Li, M. Caricato, A. V. Marenich, 
 J. Bloino, B. G. Janesko, R. Gomperts, B. Mennucci, H. P. Hratchian, 
 J. V. Ortiz, A. F. Izmaylov, J. L. Sonnenberg, D. Williams-Young, 
 F. Ding, F. Lipparini, F. Egidi, J. Goings, B. Peng, A. Petrone, 
 T. Henderson, D. Ranasinghe, V. G. Zakrzewski, J. Gao, N. Rega, 
 G. Zheng, W. Liang, M. Hada, M. Ehara, K. Toyota, R. Fukuda, 
 J. Hasegawa, M. Ishida, T. Nakajima, Y. Honda, O. Kitao, H. Nakai, 
 T. Vreven, K. Throssell, J. A. Montgomery, Jr., J. E. Peralta, 
 F. Ogliaro, M. J. Bearpark, J. J. Heyd, E. N. Brothers, K. N. Kudin, 
 V. N. Staroverov, T. A. Keith, R. Kobayashi, J. Normand, 
 K. Raghavachari, A. P. Rendell, J. C. Burant, S. S. Iyengar, 
 J. Tomasi, M. Cossi, J. M. Millam, M. Klene, C. Adamo, R. Cammi, 
 J. W. Ochterski, R. L. Martin, K. Morokuma, O. Farkas, 
 J. B. Foresman, and D. J. Fox, Gaussian, Inc., Wallingford CT, 2019.
 
 ******************************************
 Gaussian 16:  ES64L-G16RevC.01  3-Jul-2019
                30-Dec-2022 
 ******************************************
 %chk=geometry.chk
 %nprocshared=1
 Will use up to    1 processors via shared memory.
 %mem=5GB
 ------------------------------------------------------------
 # B3LYP/6-31G* nosymm iop(2/12=3,3/33=1) guess=only pop=full
 ------------------------------------------------------------
 1/38=1,172=1/1;
 2/12=3,15=1,17=6,18=5,40=1/2;
 3/5=1,6=6,7=1,11=2,25=1,30=1,33=1,74=-5,89=1/1,2;
 4//1;
 6/7=3,28=1/1;
 99/5=2/99;
 -----------
 MD Step 123
 -----------
 Symbolic Z-matrix:
 Charge =  0 Multiplicity = 1
 Li                    1.02092   1.02057   0.8185 
 F                     0.61267   0.61276   4.68668 
 Li                    1.02989   1.02954   0.81917 
 F                     0.61747   0.61756   4.69451 
 
                          Input orientation:                          
 ---------------------------------------------------------------------
 Center     Atomic      Atomic             Coordinates (Angstroms)
 Number     Number       Type             X           Y           Z
 ---------------------------------------------------------------------
      1          3           0        1.020918    1.020573    0.818501
      2          9           0        0.612667    0.612758    4.686676
      3          3           0        1.029887    1.029538    0.819165
      4          9           0        0.617469    0.617561    4.694513
 ---------------------------------------------------------------------
                    Distance matrix (angstroms):
                    1          2          3          4
     1  Li   0.000000
     2  F    3.910979   0.000000
     3  Li   0.012699   3.912214   0.000000
     4  F    3.917736   0.010371   3.918946   0.000000
 Symmetry turned off by external request.
 Stoichiometry    F2Li2
 Framework group  C1[X(F2Li2)]
 Deg. of freedom     6
 Full point group                 C1      NOp   1
 Rotational constants (GHZ):      439438.0488659           3.2176434           3.2176198
 Standard basis: 6-31G(d) (6D, 7F)
                         Coordinates in L301:                         
 ---------------------------------------------------------------------
 Center     Atomic      Atomic             Coordinates (Angstroms)
 Number     Number       Type             X           Y           Z
 ---------------------------------------------------------------------
      1          3           0        1.020918    1.020573    0.818501
      2          9           0        0.612667    0.612758    4.686676
      3          3           0        1.029887    1.029538    0.819165
      4          9           0        0.617469    0.617561    4.694513
 ---------------------------------------------------------------------
 FixB: optimizing general contractions.
 Ernie: Thresh=  0.10000D-02 Tol=  0.10000D-05 Strict=F.
 IA=     1 ShT= 0 ShC= 0 NL=   1 NS=   0.
 IA=     1 L=0 SC=0 ISt=    0 NBk=    0 NP=    0 IndPr=    0.
 IA=     1 ShT= 1 ShC= 0 NL=   2 NS=   1.
 IA=     1 L=1 SC=0 ISt=    0 NBk=    0 NP=    0 IndPr=    0.
 IA=     1 ShT= 2 ShC= 2 NL=   1 NS=   1.
 IA=     1 L=2 SC=2 ISt=    0 NBk=    0 NP=    0 IndPr=    0.
 IA=     2 ShT= 0 ShC= 0 NL=   1 NS=   0.
 IA=     2 L=0 SC=0 ISt=    0 NBk=    0 NP=    0 IndPr=    0.
 IA=     2 ShT= 1 ShC= 0 NL=   2 NS=   1.
 IA=     2 L=1 SC=0 ISt=    0 NBk=    0 NP=    0 IndPr=    0.
 IA=     2 ShT= 2 ShC= 2 NL=   1 NS=   1.
 IA=     2 L=2 SC=2 ISt=    0 NBk=    0 NP=    0 IndPr=    0.
 IA=     3 ShT= 0 ShC= 0 NL=   1 NS=   0.
 IA=     3 L=0 SC=0 ISt=    0 NBk=    0 NP=    0 IndPr=    0.
 IA=     3 ShT= 1 ShC= 0 NL=   2 NS=   1.
 IA=     3 L=1 SC=0 ISt=    0 NBk=    0 NP=    0 IndPr=    0.
 IA=     3 ShT= 2 ShC= 2 NL=   1 NS=   1.
 IA=     3 L=2 SC=2 ISt=    0 NBk=    0 NP=    0 IndPr=    0.
 IA=     4 ShT= 0 ShC= 0 NL=   1 NS=   0.
 IA=     4 L=0 SC=0 ISt=    0 NBk=    0 NP=    0 IndPr=    0.
 IA=     4 ShT= 1 ShC= 0 NL=   2 NS=   1.
 IA=     4 L=1 SC=0 ISt=    0 NBk=    0 NP=    0 IndPr=    0.
 IA=     4 ShT= 2 ShC= 2 NL=   1 NS=   1.
 IA=     4 L=2 SC=2 ISt=    0 NBk=    0 NP=    0 IndPr=    0.
 LdAtmC:  AtmChg=     3.000000     9.000000     3.000000     9.000000
 AtZEff=     -1.3500000     -6.7500000     -1.3500000     -6.7500000
    60 basis functions,   112 primitive gaussians,    60 cartesian basis functions
    12 alpha electrons       12 beta electrons
       nuclear repulsion energy      4522.6972413825 Hartrees.
 IS=     1 IAt=     1 ISR=     1 T=0 IP=      1 IndIP=      1 IndIPD=      0 C=  1.948572D-01  0.000000D+00                             NZ=T
 IS=     1 IAt=     1 ISR=     1 T=0 IP=      2 IndIP=      2 IndIPD=      1 C=  3.565040D-01  0.000000D+00                             NZ=T
 IS=     1 IAt=     1 ISR=     1 T=0 IP=      3 IndIP=      3 IndIPD=      2 C=  5.614879D-01  0.000000D+00                             NZ=T
 IS=     1 IAt=     1 ISR=     1 T=0 IP=      4 IndIP=      4 IndIPD=      3 C=  6.883627D-01  0.000000D+00                             NZ=T
 IS=     1 IAt=     1 ISR=     1 T=0 IP=      5 IndIP=      5 IndIPD=      4 C=  5.498106D-01  0.000000D+00                             NZ=T
 IS=     1 IAt=     1 ISR=     1 T=0 IP=      6 IndIP=      6 IndIPD=      5 C=  1.755056D-01  0.000000D+00                             NZ=T
 IS=     2 IAt=     1 ISR=     2 T=1 IP=      1 IndIP=      7 IndIPD=      0 C= -4.708915D-02  3.658984D-02                             NZ=T
 IS=     2 IAt=     1 ISR=     2 T=1 IP=      2 IndIP=      8 IndIPD=      1 C= -9.665673D-02  1.133585D-01                             NZ=T
 IS=     2 IAt=     1 ISR=     2 T=1 IP=      3 IndIP=      9 IndIPD=      2 C=  1.151795D-01  5.648589D-02                             NZ=T
 IS=     3 IAt=     1 ISR=     3 T=1 IP=      1 IndIP=     10 IndIPD=      0 C=  5.885627D-02  2.232258D-02                             NZ=T
 IS=     4 IAt=     1 ISR=     4 T=2 IP=      1 IndIP=     11 IndIPD=      1 C=  0.000000D+00  0.000000D+00  9.844914D-02  0.000000D+00 NZ=T
 IS=     5 IAt=     2 ISR=     1 T=0 IP=      1 IndIP=     12 IndIPD=      0 C=  9.926435D-01  0.000000D+00                             NZ=T
 IS=     5 IAt=     2 ISR=     1 T=0 IP=      2 IndIP=     13 IndIPD=      1 C=  1.831228D+00  0.000000D+00                             NZ=T
 IS=     5 IAt=     2 ISR=     1 T=0 IP=      3 IndIP=     14 IndIPD=      2 C=  2.966112D+00  0.000000D+00                             NZ=T
 IS=     5 IAt=     2 ISR=     1 T=0 IP=      4 IndIP=     15 IndIPD=      3 C=  3.909261D+00  0.000000D+00                             NZ=T
 IS=     5 IAt=     2 ISR=     1 T=0 IP=      5 IndIP=     16 IndIPD=      4 C=  3.355897D+00  0.000000D+00                             NZ=T
 IS=     5 IAt=     2 ISR=     1 T=0 IP=      6 IndIP=     17 IndIPD=      5 C=  1.140707D+00  0.000000D+00                             NZ=T
 IS=     6 IAt=     2 ISR=     2 T=1 IP=      1 IndIP=     18 IndIPD=      0 C= -7.545105D-01  4.548378D+00                             NZ=T
 IS=     6 IAt=     2 ISR=     2 T=1 IP=      2 IndIP=     19 IndIPD=      1 C= -3.389211D-01  3.510720D+00                             NZ=T
 IS=     6 IAt=     2 ISR=     2 T=1 IP=      3 IndIP=     20 IndIPD=      2 C=  1.004155D+00  1.490346D+00                             NZ=T
 IS=     7 IAt=     2 ISR=     3 T=1 IP=      1 IndIP=     21 IndIPD=      0 C=  3.299591D-01  3.949330D-01                             NZ=T
 IS=     8 IAt=     2 ISR=     4 T=2 IP=      1 IndIP=     22 IndIPD=      2 C=  0.000000D+00  0.000000D+00  1.113825D+00  0.000000D+00 NZ=T
 IS=     9 IAt=     3 ISR=     1 T=0 IP=      1 IndIP=     23 IndIPD=      0 C=  1.948572D-01  0.000000D+00                             NZ=T
 IS=     9 IAt=     3 ISR=     1 T=0 IP=      2 IndIP=     24 IndIPD=      1 C=  3.565040D-01  0.000000D+00                             NZ=T
 IS=     9 IAt=     3 ISR=     1 T=0 IP=      3 IndIP=     25 IndIPD=      2 C=  5.614879D-01  0.000000D+00                             NZ=T
 IS=     9 IAt=     3 ISR=     1 T=0 IP=      4 IndIP=     26 IndIPD=      3 C=  6.883627D-01  0.000000D+00                             NZ=T
 IS=     9 IAt=     3 ISR=     1 T=0 IP=      5 IndIP=     27 IndIPD=      4 C=  5.498106D-01  0.000000D+00                             NZ=T
 IS=     9 IAt=     3 ISR=     1 T=0 IP=      6 IndIP=     28 IndIPD=      5 C=  1.755056D-01  0.000000D+00                             NZ=T
 IS=    10 IAt=     3 ISR=     2 T=1 IP=      1 IndIP=     29 IndIPD=      0 C= -4.708915D-02  3.658984D-02                             NZ=T
 IS=    10 IAt=     3 ISR=     2 T=1 IP=      2 IndIP=     30 IndIPD=      1 C= -9.665673D-02  1.133585D-01                             NZ=T
 IS=    10 IAt=     3 ISR=     2 T=1 IP=      3 IndIP=     31 IndIPD=      2 C=  1.151795D-01  5.648589D-02                             NZ=T
 IS=    11 IAt=     3 ISR=     3 T=1 IP=      1 IndIP=     32 IndIPD=      0 C=  5.885627D-02  2.232258D-02                             NZ=T
 IS=    12 IAt=     3 ISR=     4 T=2 IP=      1 IndIP=     33 IndIPD=      3 C=  0.000000D+00  0.000000D+00  9.844914D-02  0.000000D+00 NZ=T
 IS=    13 IAt=     4 ISR=     1 T=0 IP=      1 IndIP=     34 IndIPD=      0 C=  9.926435D-01  0.000000D+00                             NZ=T
 IS=    13 IAt=     4 ISR=     1 T=0 IP=      2 IndIP=     35 IndIPD=      1 C=  1.831228D+00  0.000000D+00                             NZ=T
 IS=    13 IAt=     4 ISR=     1 T=0 IP=      3 IndIP=     36 IndIPD=      2 C=  2.966112D+00  0.000000D+00                             NZ=T
 IS=    13 IAt=     4 ISR=     1 T=0 IP=      4 IndIP=     37 IndIPD=      3 C=  3.909261D+00  0.000000D+00                             NZ=T
 IS=    13 IAt=     4 ISR=     1 T=0 IP=      5 IndIP=     38 IndIPD=      4 C=  3.355897D+00  0.000000D+00                             NZ=T
 IS=    13 IAt=     4 ISR=     1 T=0 IP=      6 IndIP=     39 IndIPD=      5 C=  1.140707D+00  0.000000D+00                             NZ=T
 IS=    14 IAt=     4 ISR=     2 T=1 IP=      1 IndIP=     40 IndIPD=      0 C= -7.545105D-01  4.548378D+00                             NZ=T
 IS=    14 IAt=     4 ISR=     2 T=1 IP=      2 IndIP=     41 IndIPD=      1 C= -3.389211D-01  3.510720D+00                             NZ=T
 IS=    14 IAt=     4 ISR=     2 T=1 IP=      3 IndIP=     42 IndIPD=      2 C=  1.004155D+00  1.490346D+00                             NZ=T
 IS=    15 IAt=     4 ISR=     3 T=1 IP=      1 IndIP=     43 IndIPD=      0 C=  3.299591D-01  3.949330D-01                             NZ=T
 IS=    16 IAt=     4 ISR=     4 T=2 IP=      1 IndIP=     44 IndIPD=      4 C=  0.000000D+00  0.000000D+00  1.113825D+00  0.000000D+00 NZ=T
 IExCor=  402 DFT=T Ex+Corr=B3LYP ExCW=0 ScaHFX=  0.200000
 ScaDFX=  0.800000  0.720000  1.000000  0.810000 ScalE2=  1.000000  1.000000
 IRadAn=      5 IRanWt=     -1 IRanGd=            0 ICorTp=0 IEmpDi=  4
 NAtoms=    4 NActive=    4 NUniq=    4 SFac= 1.00D+00 NAtFMM=   60 NAOKFM=F Big=F
 Integral buffers will be    131072 words long.
 Raffenetti 2 integral format.
 Two-electron integral symmetry is turned off.
 NPDir=0 NMtPBC=     1 NCelOv=     1 NCel=       1 NClECP=     1 NCelD=      1
         NCelK=      1 NCelE2=     1 NClLst=     1 CellRange=     0.0.
 One-electron integrals computed using PRISM.
 Entering OneElI...
 Calculate overlap and kinetic energy integrals
    NBasis =  60  MinDer = 0  MaxDer = 0
 Requested accuracy = 0.1000D-12
 PrmmSu-InSpLW:  IPartL=    0 NPrtUS=    1 NPrtUL=    1 DoSpLW=F IThBeg=    0 IThEnd=    0 NThAct=    1.
 PrSmSu:  IncTry=   512 NBBP=            136 NTPThr=   100 NPartT=    1 Incr=           1 LDynOK=F GPUOK=F.
 PrsmSu:  NPrtUS=   1 ThrOK=F IAlg=2 LenDen=           0 ISkipM=0 DoSpLW=F IThBeg=    0 IThEnd=    0.
 Prism:   IPart=     0 DynPar=F LinDyn=F Incr=           1.
 PRISM was handed   671062986 working-precision words and   136 shell-pairs
 IPart=  0 NShTot=         136 NBatch=          14 AvBLen=         9.7
 PrSmSu:  NxtVal=              2.
 *** Overlap *** 
                1             2             3             4             5 
      1  0.100000D+01
      2  0.145258D+00  0.100000D+01
      3  0.000000D+00  0.000000D+00  0.100000D+01
      4  0.000000D+00  0.000000D+00  0.000000D+00  0.100000D+01
      5  0.000000D+00  0.000000D+00  0.000000D+00  0.000000D+00  0.100000D+01
      6  0.185742D+00  0.905515D+00  0.000000D+00  0.000000D+00  0.000000D+00
      7  0.000000D+00  0.000000D+00  0.802063D+00  0.000000D+00  0.000000D+00
      8  0.000000D+00  0.000000D+00  0.000000D+00  0.802063D+00  0.000000D+00
      9  0.000000D+00  0.000000D+00  0.000000D+00  0.000000D+00  0.802063D+00
     10  0.996256D-01  0.724294D+00  0.000000D+00  0.000000D+00  0.000000D+00
     11  0.996256D-01  0.724294D+00  0.000000D+00  0.000000D+00  0.000000D+00
     12  0.996256D-01  0.724294D+00  0.000000D+00  0.000000D+00  0.000000D+00
     13  0.000000D+00  0.000000D+00  0.000000D+00  0.000000D+00  0.000000D+00
     14  0.000000D+00  0.000000D+00  0.000000D+00  0.000000D+00  0.000000D+00
     15  0.000000D+00  0.000000D+00  0.000000D+00  0.000000D+00  0.000000D+00
     16  0.000000D+00  0.856766D-03 -0.321733D-03 -0.321389D-03  0.304841D-02
     17  0.000000D+00  0.606939D-02 -0.216316D-02 -0.216084D-02  0.204959D-01
     18  0.000000D+00  0.447046D-03  0.163706D-02 -0.160149D-03  0.151904D-02
     19  0.000000D+00  0.446569D-03 -0.160149D-03  0.163740D-02  0.151741D-02
     20  0.000000D+00 -0.423576D-02  0.151904D-02  0.151741D-02 -0.125955D-01
     21  0.120687D-05  0.212957D-01 -0.660074D-02 -0.659369D-02  0.625419D-01
     22  0.000000D+00  0.355535D-02  0.131944D-01 -0.110101D-02  0.104432D-01
     23  0.000000D+00  0.355155D-02 -0.110101D-02  0.131968D-01  0.104320D-01
     24 -0.679510D-05 -0.336868D-01  0.104432D-01  0.104320D-01 -0.846526D-01
     25  0.000000D+00  0.976883D-02 -0.270444D-02 -0.336004D-02  0.318704D-01
     26  0.000000D+00  0.976866D-02 -0.336357D-02 -0.270149D-02  0.318698D-01
     27  0.000000D+00  0.170463D-01 -0.586946D-02 -0.586319D-02  0.493673D-01
     28  0.000000D+00  0.141836D-03  0.521426D-03  0.522089D-03  0.462737D-03
     29  0.000000D+00 -0.134533D-02 -0.494579D-02  0.462737D-03 -0.381824D-02
     30  0.000000D+00 -0.134390D-02  0.462737D-03 -0.494678D-02 -0.381416D-02
     31  0.999305D+00  0.145305D+00  0.499695D-02  0.499502D-02  0.369789D-03
     32  0.145305D+00  0.999972D+00  0.382334D-02  0.382186D-02  0.282938D-03
     33 -0.499695D-02 -0.382334D-02  0.999944D+00 -0.278163D-04 -0.205928D-05
     34 -0.499502D-02 -0.382186D-02 -0.278163D-04  0.999944D+00 -0.205849D-05
     35 -0.369789D-03 -0.282938D-03 -0.205928D-05 -0.205849D-05  0.999972D+00
     36  0.185739D+00  0.905503D+00  0.257794D-02  0.257694D-02  0.190775D-03
     37 -0.114998D-02 -0.389627D-02  0.802040D+00 -0.114907D-04  0.000000D+00
     38 -0.114953D-02 -0.389476D-02 -0.114907D-04  0.802040D+00  0.000000D+00
     39 -0.851016D-04 -0.288335D-03  0.000000D+00  0.000000D+00  0.802052D+00
     40  0.996673D-01  0.724270D+00 -0.137262D-03  0.477170D-02  0.353256D-03
     41  0.996672D-01  0.724270D+00  0.477355D-02 -0.137209D-03  0.353256D-03
     42  0.996167D-01  0.724273D+00  0.477343D-02  0.477159D-02 -0.101663D-04
     43  0.880777D-04 -0.564345D-05 -0.425104D-02 -0.425269D-02  0.000000D+00
     44  0.652053D-05  0.000000D+00 -0.314711D-03  0.000000D+00 -0.425289D-02
     45  0.651801D-05  0.000000D+00  0.000000D+00 -0.314711D-03 -0.425124D-02
     46  0.000000D+00  0.844160D-03 -0.313270D-03 -0.312930D-03  0.300965D-02
     47  0.000000D+00  0.598460D-02 -0.210785D-02 -0.210557D-02  0.202505D-01
     48  0.000000D+00  0.435578D-03  0.161775D-02 -0.154203D-03  0.148306D-02
     49  0.000000D+00  0.435106D-03 -0.154203D-03  0.161808D-02  0.148146D-02
     50  0.000000D+00 -0.418468D-02  0.148306D-02  0.148146D-02 -0.124760D-01
     51  0.115546D-05  0.210368D-01 -0.644378D-02 -0.643679D-02  0.619066D-01
     52  0.000000D+00  0.347081D-02  0.130594D-01 -0.106216D-02  0.102155D-01
     53  0.000000D+00  0.346705D-02 -0.106216D-02  0.130617D-01  0.102044D-01
     54 -0.651829D-05 -0.333448D-01  0.102155D-01  0.102044D-01 -0.840194D-01
     55  0.000000D+00  0.963507D-02 -0.263591D-02 -0.327500D-02  0.314977D-01
     56  0.000000D+00  0.963490D-02 -0.327849D-02 -0.263300D-02  0.314971D-01
     57  0.000000D+00  0.168457D-01 -0.573214D-02 -0.572593D-02  0.488958D-01
     58  0.000000D+00  0.136647D-03  0.509443D-03  0.510096D-03  0.446710D-03
     59  0.000000D+00 -0.131422D-02 -0.489962D-02  0.446710D-03 -0.373974D-02
     60  0.000000D+00 -0.131279D-02  0.446710D-03 -0.490059D-02 -0.373569D-02
                6             7             8             9            10 
      6  0.100000D+01
      7  0.000000D+00  0.100000D+01
      8  0.000000D+00  0.000000D+00  0.100000D+01
      9  0.000000D+00  0.000000D+00  0.000000D+00  0.100000D+01
     10  0.596478D+00  0.000000D+00  0.000000D+00  0.000000D+00  0.100000D+01
     11  0.596478D+00  0.000000D+00  0.000000D+00  0.000000D+00  0.333333D+00
     12  0.596478D+00  0.000000D+00  0.000000D+00  0.000000D+00  0.333333D+00
     13  0.000000D+00  0.000000D+00  0.000000D+00  0.000000D+00  0.000000D+00
     14  0.000000D+00  0.000000D+00  0.000000D+00  0.000000D+00  0.000000D+00
     15  0.000000D+00  0.000000D+00  0.000000D+00  0.000000D+00  0.000000D+00
     16  0.451939D-02 -0.131789D-02 -0.131648D-02  0.124870D-01  0.000000D+00
     17  0.281183D-01 -0.800242D-02 -0.799386D-02  0.758228D-01  0.161318D-04
     18  0.984980D-03  0.645135D-02 -0.280897D-03  0.266434D-02 -0.119164D-04
     19  0.983927D-03 -0.280897D-03  0.645195D-02  0.266150D-02  0.253983D-05
     20 -0.933267D-02  0.266434D-02  0.266150D-02 -0.185121D-01 -0.240906D-04
     21  0.733323D-01 -0.194993D-01 -0.194785D-01  0.184756D+00  0.446825D-03
     22  0.617885D-02  0.405907D-01 -0.164122D-02  0.155672D-01 -0.267922D-03
     23  0.617224D-02 -0.164122D-02  0.405943D-01  0.155505D-01  0.147686D-03
     24 -0.585445D-01  0.155672D-01  0.155505D-01 -0.105265D+00 -0.140082D-02
     25  0.436760D-01 -0.111324D-01 -0.122169D-01  0.115879D+00  0.753802D-04
     26  0.436758D-01 -0.122299D-01 -0.111205D-01  0.115878D+00  0.451112D-04
     27  0.508032D-01 -0.142257D-01 -0.142105D-01  0.124389D+00  0.227153D-03
     28  0.138907D-03  0.910561D-03  0.911618D-03  0.368539D-03 -0.125619D-04
     29 -0.131755D-02 -0.863678D-02  0.368539D-03 -0.254516D-02  0.119151D-03
     30 -0.131614D-02  0.368539D-03 -0.863757D-02 -0.254244D-02 -0.336157D-04
     31  0.185739D+00  0.114998D-02  0.114953D-02  0.851016D-04  0.996673D-01
     32  0.905503D+00  0.389627D-02  0.389476D-02  0.288335D-03  0.724270D+00
     33 -0.257794D-02  0.802040D+00 -0.114907D-04  0.000000D+00  0.137262D-03
     34 -0.257694D-02 -0.114907D-04  0.802040D+00  0.000000D+00 -0.477170D-02
     35 -0.190775D-03  0.000000D+00  0.000000D+00  0.802052D+00 -0.353256D-03
     36  0.999990D+00  0.321415D-02  0.321290D-02  0.237856D-03  0.596469D+00
     37 -0.321415D-02  0.999979D+00 -0.103268D-04  0.000000D+00 -0.208120D-02
     38 -0.321290D-02 -0.103268D-04  0.999979D+00  0.000000D+00 -0.324869D-02
     39 -0.237856D-03  0.000000D+00  0.000000D+00  0.999990D+00 -0.240505D-03
     40  0.596469D+00  0.208120D-02  0.324869D-02  0.240505D-03  0.999904D+00
     41  0.596469D+00  0.324995D-02  0.208040D-02  0.240505D-03  0.333352D+00
     42  0.596468D+00  0.324994D-02  0.324868D-02  0.154014D-03  0.333333D+00
     43  0.325200D-05 -0.101175D-02 -0.101214D-02  0.000000D+00 -0.331549D-04
     44  0.000000D+00 -0.749014D-04  0.000000D+00 -0.101216D-02 -0.245451D-05
     45  0.000000D+00  0.000000D+00 -0.749014D-04 -0.101177D-02  0.245384D-05
     46  0.448889D-02 -0.129360D-02 -0.129219D-02  0.124278D-01  0.000000D+00
     47  0.279331D-01 -0.785620D-02 -0.784769D-02  0.754760D-01  0.154008D-04
     48  0.966963D-03  0.641526D-02 -0.272511D-03  0.262091D-02 -0.114268D-04
     49  0.965915D-03 -0.272511D-03  0.641585D-02  0.261807D-02  0.239476D-05
     50 -0.928980D-02  0.262091D-02  0.261807D-02 -0.184915D-01 -0.230319D-04
     51  0.728810D-01 -0.191513D-01 -0.191306D-01  0.183991D+00  0.433931D-03
     52  0.606858D-02  0.403791D-01 -0.159295D-02  0.153203D-01 -0.259145D-03
     53  0.606201D-02 -0.159295D-02  0.403826D-01  0.153037D-01  0.141735D-03
     54 -0.583021D-01  0.153203D-01  0.153037D-01 -0.105212D+00 -0.136316D-02
     55  0.433911D-01 -0.109297D-01 -0.119942D-01  0.115356D+00  0.730697D-04
     56  0.433909D-01 -0.120072D-01 -0.109178D-01  0.115355D+00  0.432794D-04
     57  0.505030D-01 -0.139753D-01 -0.139601D-01  0.123911D+00  0.218878D-03
     58  0.134777D-03  0.894898D-03  0.895950D-03  0.358306D-03 -0.119366D-04
     59 -0.129623D-02 -0.860679D-02  0.358306D-03 -0.251285D-02  0.114802D-03
     60 -0.129483D-02  0.358306D-03 -0.860756D-02 -0.251012D-02 -0.319694D-04
               11            12            13            14            15 
     11  0.100000D+01
     12  0.333333D+00  0.100000D+01
     13  0.000000D+00  0.000000D+00  0.100000D+01
     14  0.000000D+00  0.000000D+00  0.000000D+00  0.100000D+01
     15  0.000000D+00  0.000000D+00  0.000000D+00  0.000000D+00  0.100000D+01
     16  0.000000D+00  0.595899D-04  0.114737D-05 -0.108829D-04 -0.108713D-04
     17  0.161119D-04  0.840940D-03  0.160752D-04 -0.152475D-03 -0.152312D-03
     18  0.253933D-05  0.136241D-03 -0.990268D-05  0.939282D-04 -0.246892D-04
     19 -0.119069D-04  0.136095D-03 -0.991885D-05 -0.246892D-04  0.939810D-04
     20 -0.240602D-04 -0.115388D-02 -0.246892D-04  0.221659D-03  0.221422D-03
     21  0.446620D-03  0.896745D-02  0.166064D-03 -0.157514D-02 -0.157345D-02
     22  0.147776D-03  0.296713D-02 -0.304733D-03  0.289043D-02 -0.520621D-03
     23 -0.267704D-03  0.296396D-02 -0.305176D-03 -0.520621D-03  0.289154D-02
     24 -0.140018D-02 -0.241741D-01 -0.520621D-03  0.457809D-02  0.457320D-02
     25  0.450739D-04  0.177699D-02  0.176438D-04 -0.167354D-03 -0.319814D-03
     26  0.753739D-04  0.177681D-02  0.176405D-04 -0.320125D-03 -0.167144D-03
     27  0.226943D-03  0.732407D-02  0.169946D-03 -0.145915D-02 -0.145760D-02
     28 -0.125651D-04  0.139740D-03  0.480812D-04  0.107013D-03  0.107181D-03
     29 -0.336206D-04 -0.117265D-02  0.107013D-03 -0.955665D-03  0.224598D-03
     30  0.119055D-03 -0.117140D-02  0.107181D-03  0.224598D-03 -0.956145D-03
     31  0.996672D-01  0.996167D-01  0.880777D-04  0.652053D-05  0.651801D-05
     32  0.724270D+00  0.724273D+00 -0.564345D-05  0.000000D+00  0.000000D+00
     33 -0.477355D-02 -0.477343D-02  0.425104D-02  0.314711D-03  0.000000D+00
     34  0.137209D-03 -0.477159D-02  0.425269D-02  0.000000D+00  0.314711D-03
     35 -0.353256D-03  0.101663D-04  0.000000D+00  0.425289D-02  0.425124D-02
     36  0.596469D+00  0.596468D+00  0.325200D-05  0.000000D+00  0.000000D+00
     37 -0.324995D-02 -0.324994D-02  0.101175D-02  0.749014D-04  0.000000D+00
     38 -0.208040D-02 -0.324868D-02  0.101214D-02  0.000000D+00  0.749014D-04
     39 -0.240505D-03 -0.154014D-03  0.000000D+00  0.101216D-02  0.101177D-02
     40  0.333352D+00  0.333333D+00 -0.331549D-04 -0.245451D-05  0.245384D-05
     41  0.999904D+00  0.333333D+00 -0.331549D-04  0.245479D-05 -0.245356D-05
     42  0.333333D+00  0.999942D+00  0.331568D-04 -0.245465D-05 -0.245370D-05
     43 -0.331549D-04  0.331568D-04  0.999828D+00 -0.424969D-05 -0.425133D-05
     44  0.245479D-05 -0.245465D-05 -0.424969D-05  0.999885D+00 -0.574293D-04
     45 -0.245356D-05 -0.245370D-05 -0.425133D-05 -0.574293D-04  0.999885D+00
     46  0.000000D+00  0.576547D-04  0.107975D-05 -0.103847D-04 -0.103734D-04
     47  0.153818D-04  0.817101D-03  0.151929D-04 -0.146119D-03 -0.145961D-03
     48  0.239431D-05  0.130782D-03 -0.952612D-05  0.916186D-04 -0.233742D-04
     49 -0.114175D-04  0.130640D-03 -0.954174D-05 -0.233742D-04  0.916693D-04
     50 -0.230026D-04 -0.112364D-02 -0.233742D-04  0.212832D-03  0.212602D-03
     51  0.433733D-03  0.878678D-02  0.158293D-03 -0.152240D-02 -0.152075D-02
     52  0.141824D-03  0.287315D-02 -0.295170D-03  0.283883D-02 -0.497264D-03
     53 -0.258929D-03  0.287004D-02 -0.295602D-03 -0.497264D-03  0.283991D-02
     54 -0.136253D-02 -0.237501D-01 -0.497264D-03  0.443519D-02  0.443039D-02
     55  0.432436D-04  0.172913D-02  0.166839D-04 -0.160459D-03 -0.306932D-03
     56  0.730638D-04  0.172896D-02  0.166808D-04 -0.307236D-03 -0.160256D-03
     57  0.218675D-03  0.716278D-02  0.161557D-03 -0.140698D-02 -0.140546D-02
     58 -0.119397D-04  0.132936D-03  0.471641D-04  0.103377D-03  0.103541D-03
     59 -0.319745D-04 -0.113172D-02  0.103377D-03 -0.936330D-03  0.213728D-03
     60  0.114707D-03 -0.113050D-02  0.103541D-03  0.213728D-03 -0.936794D-03
               16            17            18            19            20 
     16  0.100000D+01
     17  0.244308D+00  0.100000D+01
     18  0.000000D+00  0.000000D+00  0.100000D+01
     19  0.000000D+00  0.000000D+00  0.000000D+00  0.100000D+01
     20  0.000000D+00  0.000000D+00  0.000000D+00  0.000000D+00  0.100000D+01
     21  0.171633D+00  0.763511D+00  0.000000D+00  0.000000D+00  0.000000D+00
     22  0.000000D+00  0.000000D+00  0.499517D+00  0.000000D+00  0.000000D+00
     23  0.000000D+00  0.000000D+00  0.000000D+00  0.499517D+00  0.000000D+00
     24  0.000000D+00  0.000000D+00  0.000000D+00  0.000000D+00  0.499517D+00
     25  0.231022D-01  0.447427D+00  0.000000D+00  0.000000D+00  0.000000D+00
     26  0.231022D-01  0.447427D+00  0.000000D+00  0.000000D+00  0.000000D+00
     27  0.231022D-01  0.447427D+00  0.000000D+00  0.000000D+00  0.000000D+00
     28  0.000000D+00  0.000000D+00  0.000000D+00  0.000000D+00  0.000000D+00
     29  0.000000D+00  0.000000D+00  0.000000D+00  0.000000D+00  0.000000D+00
     30  0.000000D+00  0.000000D+00  0.000000D+00  0.000000D+00  0.000000D+00
     31  0.000000D+00  0.000000D+00  0.000000D+00  0.000000D+00  0.000000D+00
     32  0.854449D-03  0.605381D-02  0.455688D-03  0.455208D-03 -0.422410D-02
     33 -0.327912D-03 -0.220501D-02  0.162573D-02 -0.166834D-03  0.154813D-02
     34 -0.327566D-03 -0.220268D-02 -0.166834D-03  0.162608D-02  0.154650D-02
     35  0.303965D-02  0.204398D-01  0.154813D-02  0.154650D-02 -0.125580D-01
     36  0.451380D-02  0.280844D-01  0.100540D-02  0.100434D-02 -0.931978D-02
     37 -0.134518D-02 -0.816836D-02  0.643106D-02 -0.293024D-03  0.271912D-02
     38 -0.134376D-02 -0.815975D-02 -0.293024D-03  0.643168D-02  0.271625D-02
     39  0.124694D-01  0.757183D-01  0.271912D-02  0.271625D-02 -0.184810D-01
     40  0.000000D+00  0.164457D-04 -0.120369D-04  0.264795D-05 -0.245716D-04
     41  0.000000D+00  0.164253D-04  0.264738D-05 -0.120276D-04 -0.245404D-04
     42  0.591676D-04  0.835637D-03  0.138348D-03  0.138202D-03 -0.114630D-02
     43  0.119027D-05  0.166893D-04 -0.994189D-05 -0.995821D-05 -0.256266D-04
     44 -0.110451D-04 -0.154869D-03  0.922557D-04 -0.256266D-04  0.225082D-03
     45 -0.110335D-04 -0.154705D-03 -0.256266D-04  0.923097D-04  0.224845D-03
     46  0.995208D+00  0.244665D+00  0.160747D-01  0.160780D-01  0.262341D-01
     47  0.244665D+00  0.999711D+00  0.716697D-02  0.716841D-02  0.116966D-01
     48 -0.160747D-01 -0.716697D-02  0.999373D+00 -0.188094D-03 -0.306909D-03
     49 -0.160780D-01 -0.716841D-02 -0.188094D-03  0.999373D+00 -0.306971D-03
     50 -0.262341D-01 -0.116966D-01 -0.306909D-03 -0.306971D-03  0.999060D+00
     51  0.171610D+00  0.763429D+00  0.271253D-02  0.271308D-02  0.442688D-02
     52 -0.180395D-02 -0.643645D-02  0.499438D+00 -0.238258D-04 -0.388761D-04
     53 -0.180431D-02 -0.643775D-02 -0.238258D-04  0.499438D+00 -0.388840D-04
     54 -0.294406D-02 -0.105044D-01 -0.388761D-04 -0.388840D-04  0.499398D+00
     55  0.231349D-01  0.447393D+00 -0.768098D-02  0.251668D-02  0.410641D-02
     56  0.231349D-01  0.447393D+00  0.251617D-02 -0.768253D-02  0.410641D-02
     57  0.232001D-01  0.447478D+00  0.251693D-02  0.251744D-02 -0.125342D-01
     58  0.678973D-04  0.884585D-04 -0.883198D-02 -0.883020D-02  0.129539D-05
     59  0.110787D-03  0.144336D-03 -0.144110D-01  0.129539D-05 -0.882888D-02
     60  0.110809D-03  0.144365D-03  0.129539D-05 -0.144110D-01 -0.883066D-02
               21            22            23            24            25 
     21  0.100000D+01
     22  0.000000D+00  0.100000D+01
     23  0.000000D+00  0.000000D+00  0.100000D+01
     24  0.000000D+00  0.000000D+00  0.000000D+00  0.100000D+01
     25  0.708857D+00  0.000000D+00  0.000000D+00  0.000000D+00  0.100000D+01
     26  0.708857D+00  0.000000D+00  0.000000D+00  0.000000D+00  0.333333D+00
     27  0.708857D+00  0.000000D+00  0.000000D+00  0.000000D+00  0.333333D+00
     28  0.000000D+00  0.000000D+00  0.000000D+00  0.000000D+00  0.000000D+00
     29  0.000000D+00  0.000000D+00  0.000000D+00  0.000000D+00  0.000000D+00
     30  0.000000D+00  0.000000D+00  0.000000D+00  0.000000D+00  0.000000D+00
     31  0.119731D-05  0.000000D+00  0.000000D+00 -0.674002D-05  0.000000D+00
     32  0.212481D-01  0.362535D-02  0.362153D-02 -0.336059D-01  0.974824D-02
     33 -0.673070D-02  0.131161D-01 -0.114737D-02  0.106470D-01 -0.275829D-02
     34 -0.672360D-02 -0.114737D-02  0.131185D-01  0.106358D-01 -0.342667D-02
     35  0.623916D-01  0.106470D-01  0.106358D-01 -0.844297D-01  0.317978D-01
     36  0.732497D-01  0.630748D-02  0.630083D-02 -0.584685D-01  0.436277D-01
     37 -0.199052D-01  0.404721D-01 -0.171222D-02  0.158885D-01 -0.113645D-01
     38 -0.198842D-01 -0.171222D-02  0.404757D-01  0.158718D-01 -0.124717D-01
     39  0.184516D+00  0.158885D-01  0.158718D-01 -0.105096D+00  0.115731D+00
     40  0.449095D-03 -0.271163D-03  0.151700D-03 -0.140770D-02  0.750967D-04
     41  0.448885D-03  0.151789D-03 -0.270948D-03 -0.140704D-02  0.457785D-04
     42  0.892489D-02  0.301792D-02  0.301474D-02 -0.240540D-01  0.177017D-02
     43  0.172677D-03 -0.307573D-03 -0.308020D-03 -0.541260D-03  0.183972D-04
     44 -0.160235D-02  0.285412D-02 -0.541260D-03  0.465627D-02 -0.170717D-03
     45 -0.160067D-02 -0.541260D-03  0.285526D-02  0.465136D-02 -0.325646D-03
     46  0.171610D+00  0.180395D-02  0.180431D-02  0.294406D-02  0.231349D-01
     47  0.763429D+00  0.643645D-02  0.643775D-02  0.105044D-01  0.447393D+00
     48 -0.271253D-02  0.499438D+00 -0.238258D-04 -0.388761D-04  0.768098D-02
     49 -0.271308D-02 -0.238258D-04  0.499438D+00 -0.388840D-04 -0.251668D-02
     50 -0.442688D-02 -0.388761D-04 -0.388840D-04  0.499398D+00 -0.410641D-02
     51  0.999931D+00  0.543055D-02  0.543164D-02  0.886270D-02  0.708802D+00
     52 -0.543055D-02  0.999902D+00 -0.294988D-04 -0.481326D-04 -0.556470D-03
     53 -0.543164D-02 -0.294988D-04  0.999902D+00 -0.481423D-04 -0.531913D-02
     54 -0.886270D-02 -0.481326D-04 -0.481423D-04  0.999853D+00 -0.867912D-02
     55  0.708802D+00  0.556470D-03  0.531913D-02  0.867912D-02  0.999802D+00
     56  0.708802D+00  0.531806D-02  0.556583D-03  0.867912D-02  0.333326D+00
     57  0.708824D+00  0.531822D-02  0.531929D-02  0.908428D-03  0.333363D+00
     58  0.223998D-04 -0.412432D-02 -0.412349D-02  0.000000D+00 -0.380366D-04
     59  0.365492D-04 -0.672957D-02  0.000000D+00 -0.412321D-02 -0.620635D-04
     60  0.365566D-04  0.000000D+00 -0.672957D-02 -0.412404D-02  0.620843D-04
               26            27            28            29            30 
     26  0.100000D+01
     27  0.333333D+00  0.100000D+01
     28  0.000000D+00  0.000000D+00  0.100000D+01
     29  0.000000D+00  0.000000D+00  0.000000D+00  0.100000D+01
     30  0.000000D+00  0.000000D+00  0.000000D+00  0.000000D+00  0.100000D+01
     31  0.000000D+00  0.000000D+00  0.000000D+00  0.000000D+00  0.000000D+00
     32  0.974806D-02  0.170016D-01  0.147772D-03 -0.137125D-02 -0.136980D-02
     33 -0.343022D-02 -0.598265D-02  0.529357D-03 -0.491216D-02  0.482018D-03
     34 -0.275531D-02 -0.597635D-02  0.530025D-03  0.482018D-03 -0.491318D-02
     35  0.317972D-01  0.492282D-01  0.482018D-03 -0.389091D-02 -0.388681D-02
     36  0.436275D-01  0.507404D-01  0.144907D-03 -0.134466D-02 -0.134325D-02
     37 -0.124848D-01 -0.145202D-01  0.927711D-03 -0.860868D-02  0.384393D-03
     38 -0.113525D-01 -0.145049D-01  0.928777D-03  0.384393D-03 -0.860949D-02
     39  0.115730D+00  0.124214D+00  0.384393D-03 -0.259677D-02 -0.259403D-02
     40  0.458167D-04  0.230177D-03 -0.129771D-04  0.120420D-03 -0.348159D-04
     41  0.750901D-04  0.229962D-03 -0.129806D-04 -0.348201D-04  0.120326D-03
     42  0.176999D-02  0.727883D-02  0.145097D-03 -0.119115D-02 -0.118990D-02
     43  0.183937D-04  0.176471D-03  0.468232D-04  0.107608D-03  0.107778D-03
     44 -0.325957D-03 -0.148229D-02  0.107608D-03 -0.940128D-03  0.233202D-03
     45 -0.170504D-03 -0.148073D-02  0.107778D-03  0.233202D-03 -0.940620D-03
     46  0.231349D-01  0.232001D-01  0.678973D-04  0.110787D-03  0.110809D-03
     47  0.447393D+00  0.447478D+00  0.884585D-04  0.144336D-03  0.144365D-03
     48 -0.251617D-02 -0.251693D-02  0.883198D-02  0.144110D-01 -0.129539D-05
     49  0.768253D-02 -0.251744D-02  0.883020D-02 -0.129539D-05  0.144110D-01
     50 -0.410641D-02  0.125342D-01 -0.129539D-05  0.882888D-02  0.883066D-02
     51  0.708802D+00  0.708824D+00  0.223998D-04  0.365492D-04  0.365566D-04
     52 -0.531806D-02 -0.531822D-02  0.412432D-02  0.672957D-02  0.000000D+00
     53 -0.556583D-03 -0.531929D-02  0.412349D-02  0.000000D+00  0.672957D-02
     54 -0.867912D-02 -0.908428D-03  0.000000D+00  0.412321D-02  0.412404D-02
     55  0.333326D+00  0.333363D+00 -0.380366D-04 -0.620635D-04  0.620843D-04
     56  0.999802D+00  0.333363D+00 -0.380366D-04  0.620717D-04 -0.620761D-04
     57  0.333363D+00  0.999729D+00  0.380458D-04 -0.620567D-04 -0.620693D-04
     58 -0.380366D-04  0.380458D-04  0.999715D+00 -0.107519D-03 -0.107497D-03
     59  0.620717D-04 -0.620567D-04 -0.107519D-03  0.999605D+00 -0.658741D-04
     60 -0.620761D-04 -0.620693D-04 -0.107497D-03 -0.658741D-04  0.999605D+00
               31            32            33            34            35 
     31  0.100000D+01
     32  0.145258D+00  0.100000D+01
     33  0.000000D+00  0.000000D+00  0.100000D+01
     34  0.000000D+00  0.000000D+00  0.000000D+00  0.100000D+01
     35  0.000000D+00  0.000000D+00  0.000000D+00  0.000000D+00  0.100000D+01
     36  0.185742D+00  0.905515D+00  0.000000D+00  0.000000D+00  0.000000D+00
     37  0.000000D+00  0.000000D+00  0.802063D+00  0.000000D+00  0.000000D+00
     38  0.000000D+00  0.000000D+00  0.000000D+00  0.802063D+00  0.000000D+00
     39  0.000000D+00  0.000000D+00  0.000000D+00  0.000000D+00  0.802063D+00
     40  0.996256D-01  0.724294D+00  0.000000D+00  0.000000D+00  0.000000D+00
     41  0.996256D-01  0.724294D+00  0.000000D+00  0.000000D+00  0.000000D+00
     42  0.996256D-01  0.724294D+00  0.000000D+00  0.000000D+00  0.000000D+00
     43  0.000000D+00  0.000000D+00  0.000000D+00  0.000000D+00  0.000000D+00
     44  0.000000D+00  0.000000D+00  0.000000D+00  0.000000D+00  0.000000D+00
     45  0.000000D+00  0.000000D+00  0.000000D+00  0.000000D+00  0.000000D+00
     46  0.000000D+00  0.841921D-03 -0.319385D-03 -0.319044D-03  0.300115D-02
     47  0.000000D+00  0.596954D-02 -0.214929D-02 -0.214699D-02  0.201961D-01
     48  0.000000D+00  0.444133D-03  0.160673D-02 -0.160729D-03  0.151193D-02
     49  0.000000D+00  0.443659D-03 -0.160729D-03  0.160707D-02  0.151032D-02
     50  0.000000D+00 -0.417337D-02  0.151193D-02  0.151032D-02 -0.124395D-01
     51  0.114648D-05  0.209907D-01 -0.657260D-02 -0.656558D-02  0.617604D-01
     52  0.000000D+00  0.354021D-02  0.129831D-01 -0.110750D-02  0.104179D-01
     53  0.000000D+00  0.353642D-02 -0.110750D-02  0.129855D-01  0.104068D-01
     54 -0.646644D-05 -0.332661D-01  0.104179D-01  0.104068D-01 -0.838019D-01
     55  0.000000D+00  0.961517D-02 -0.268919D-02 -0.334094D-02  0.314272D-01
     56  0.000000D+00  0.961500D-02 -0.334446D-02 -0.268625D-02  0.314267D-01
     57  0.000000D+00  0.168022D-01 -0.584445D-02 -0.583821D-02  0.487604D-01
     58  0.000000D+00  0.142445D-03  0.517378D-03  0.518037D-03  0.465585D-03
     59  0.000000D+00 -0.133994D-02 -0.486682D-02  0.465585D-03 -0.381208D-02
     60  0.000000D+00 -0.133851D-02  0.465585D-03 -0.486781D-02 -0.380801D-02
               36            37            38            39            40 
     36  0.100000D+01
     37  0.000000D+00  0.100000D+01
     38  0.000000D+00  0.000000D+00  0.100000D+01
     39  0.000000D+00  0.000000D+00  0.000000D+00  0.100000D+01
     40  0.596478D+00  0.000000D+00  0.000000D+00  0.000000D+00  0.100000D+01
     41  0.596478D+00  0.000000D+00  0.000000D+00  0.000000D+00  0.333333D+00
     42  0.596478D+00  0.000000D+00  0.000000D+00  0.000000D+00  0.333333D+00
     43  0.000000D+00  0.000000D+00  0.000000D+00  0.000000D+00  0.000000D+00
     44  0.000000D+00  0.000000D+00  0.000000D+00  0.000000D+00  0.000000D+00
     45  0.000000D+00  0.000000D+00  0.000000D+00  0.000000D+00  0.000000D+00
     46  0.448345D-02 -0.132075D-02 -0.131934D-02  0.124106D-01  0.000000D+00
     47  0.279001D-01 -0.802135D-02 -0.801278D-02  0.753738D-01  0.157030D-04
     48  0.987286D-03  0.639539D-02 -0.284428D-03  0.267553D-02 -0.115476D-04
     49  0.986231D-03 -0.284428D-03  0.639600D-02  0.267267D-02  0.249776D-05
     50 -0.927718D-02  0.267553D-02  0.267267D-02 -0.184609D-01 -0.234957D-04
     51  0.728004D-01 -0.195554D-01 -0.195345D-01  0.183756D+00  0.436145D-03
     52  0.619664D-02  0.402628D-01 -0.166274D-02  0.156409D-01 -0.262389D-03
     53  0.619001D-02 -0.166274D-02  0.402664D-01  0.156242D-01  0.145628D-03
     54 -0.582276D-01  0.156409D-01  0.156242D-01 -0.105045D+00 -0.136988D-02
     55  0.433441D-01 -0.111606D-01 -0.122478D-01  0.115211D+00  0.727993D-04
     56  0.433439D-01 -0.122608D-01 -0.111487D-01  0.115211D+00  0.439587D-04
     57  0.504418D-01 -0.142686D-01 -0.142534D-01  0.123739D+00  0.221809D-03
     58  0.140674D-03  0.912029D-03  0.913090D-03  0.373920D-03 -0.123397D-04
     59 -0.132328D-02 -0.857919D-02  0.373920D-03 -0.256452D-02  0.116076D-03
     60 -0.132187D-02  0.373920D-03 -0.857999D-02 -0.256178D-02 -0.331218D-04
               41            42            43            44            45 
     41  0.100000D+01
     42  0.333333D+00  0.100000D+01
     43  0.000000D+00  0.000000D+00  0.100000D+01
     44  0.000000D+00  0.000000D+00  0.000000D+00  0.100000D+01
     45  0.000000D+00  0.000000D+00  0.000000D+00  0.000000D+00  0.100000D+01
     46  0.000000D+00  0.572535D-04  0.112085D-05 -0.105435D-04 -0.105322D-04
     47  0.156835D-04  0.812040D-03  0.157832D-04 -0.148467D-03 -0.148309D-03
     48  0.249725D-05  0.132854D-03 -0.956939D-05  0.900164D-04 -0.242769D-04
     49 -0.115384D-04  0.132712D-03 -0.958515D-05 -0.242769D-04  0.900683D-04
     50 -0.234658D-04 -0.111638D-02 -0.242769D-04  0.216200D-03  0.215969D-03
     51  0.435942D-03  0.874581D-02  0.164695D-03 -0.154924D-02 -0.154758D-02
     52  0.145716D-03  0.292333D-02 -0.298060D-03  0.280376D-02 -0.517286D-03
     53 -0.262176D-03  0.292020D-02 -0.298497D-03 -0.517286D-03  0.280487D-02
     54 -0.136924D-02 -0.236340D-01 -0.517286D-03  0.451247D-02  0.450765D-02
     55  0.439220D-04  0.172264D-02  0.174064D-04 -0.163736D-03 -0.312635D-03
     56  0.727931D-04  0.172247D-02  0.174031D-04 -0.312939D-03 -0.163531D-03
     57  0.221602D-03  0.711929D-02  0.167864D-03 -0.142981D-02 -0.142828D-02
     58 -0.123430D-04  0.138117D-03  0.459514D-04  0.104009D-03  0.104174D-03
     59 -0.331262D-04 -0.115000D-02  0.104009D-03 -0.921370D-03  0.222053D-03
     60  0.115983D-03 -0.114877D-02  0.104174D-03  0.222053D-03 -0.921845D-03
               46            47            48            49            50 
     46  0.100000D+01
     47  0.244308D+00  0.100000D+01
     48  0.000000D+00  0.000000D+00  0.100000D+01
     49  0.000000D+00  0.000000D+00  0.000000D+00  0.100000D+01
     50  0.000000D+00  0.000000D+00  0.000000D+00  0.000000D+00  0.100000D+01
     51  0.171633D+00  0.763511D+00  0.000000D+00  0.000000D+00  0.000000D+00
     52  0.000000D+00  0.000000D+00  0.499517D+00  0.000000D+00  0.000000D+00
     53  0.000000D+00  0.000000D+00  0.000000D+00  0.499517D+00  0.000000D+00
     54  0.000000D+00  0.000000D+00  0.000000D+00  0.000000D+00  0.499517D+00
     55  0.231022D-01  0.447427D+00  0.000000D+00  0.000000D+00  0.000000D+00
     56  0.231022D-01  0.447427D+00  0.000000D+00  0.000000D+00  0.000000D+00
     57  0.231022D-01  0.447427D+00  0.000000D+00  0.000000D+00  0.000000D+00
     58  0.000000D+00  0.000000D+00  0.000000D+00  0.000000D+00  0.000000D+00
     59  0.000000D+00  0.000000D+00  0.000000D+00  0.000000D+00  0.000000D+00
     60  0.000000D+00  0.000000D+00  0.000000D+00  0.000000D+00  0.000000D+00
               51            52            53            54            55 
     51  0.100000D+01
     52  0.000000D+00  0.100000D+01
     53  0.000000D+00  0.000000D+00  0.100000D+01
     54  0.000000D+00  0.000000D+00  0.000000D+00  0.100000D+01
     55  0.708857D+00  0.000000D+00  0.000000D+00  0.000000D+00  0.100000D+01
     56  0.708857D+00  0.000000D+00  0.000000D+00  0.000000D+00  0.333333D+00
     57  0.708857D+00  0.000000D+00  0.000000D+00  0.000000D+00  0.333333D+00
     58  0.000000D+00  0.000000D+00  0.000000D+00  0.000000D+00  0.000000D+00
     59  0.000000D+00  0.000000D+00  0.000000D+00  0.000000D+00  0.000000D+00
     60  0.000000D+00  0.000000D+00  0.000000D+00  0.000000D+00  0.000000D+00
               56            57            58            59            60 
     56  0.100000D+01
     57  0.333333D+00  0.100000D+01
     58  0.000000D+00  0.000000D+00  0.100000D+01
     59  0.000000D+00  0.000000D+00  0.000000D+00  0.100000D+01
     60  0.000000D+00  0.000000D+00  0.000000D+00  0.000000D+00  0.100000D+01
 *** Kinetic Energy *** 
                1             2             3             4             5 
      1  0.362575D+01
      2 -0.242849D+00  0.145919D+00
      3  0.000000D+00  0.000000D+00  0.242177D+00
      4  0.000000D+00  0.000000D+00  0.000000D+00  0.242177D+00
      5  0.000000D+00  0.000000D+00  0.000000D+00  0.000000D+00  0.242177D+00
      6  0.193002D-01  0.653913D-01  0.000000D+00  0.000000D+00  0.000000D+00
      7  0.000000D+00  0.000000D+00  0.100038D+00  0.000000D+00  0.000000D+00
      8  0.000000D+00  0.000000D+00  0.000000D+00  0.100038D+00  0.000000D+00
      9  0.000000D+00  0.000000D+00  0.000000D+00  0.000000D+00  0.100038D+00
     10 -0.129404D+00  0.121994D+00  0.000000D+00  0.000000D+00  0.000000D+00
     11 -0.129404D+00  0.121994D+00  0.000000D+00  0.000000D+00  0.000000D+00
     12 -0.129404D+00  0.121994D+00  0.000000D+00  0.000000D+00  0.000000D+00
     13  0.000000D+00  0.000000D+00  0.000000D+00  0.000000D+00  0.000000D+00
     14  0.000000D+00  0.000000D+00  0.000000D+00  0.000000D+00  0.000000D+00
     15  0.000000D+00  0.000000D+00  0.000000D+00  0.000000D+00  0.000000D+00
     16  0.000000D+00 -0.374553D-03  0.901684D-04  0.900720D-04 -0.854344D-03
     17  0.000000D+00 -0.232057D-02  0.504654D-03  0.504115D-03 -0.478159D-02
     18  0.000000D+00 -0.106758D-03 -0.414954D-03  0.142605D-04 -0.135263D-03
     19  0.000000D+00 -0.106644D-03  0.142605D-04 -0.414984D-03 -0.135118D-03
     20  0.000000D+00  0.101153D-02 -0.135263D-03 -0.135118D-03  0.852383D-03
     21 -0.618142D-05 -0.561600D-02  0.887787D-03  0.886838D-03 -0.841177D-02
     22 -0.335804D-05 -0.475878D-03 -0.191701D-02  0.585509D-05 -0.555363D-04
     23 -0.335445D-05 -0.475370D-03  0.585509D-05 -0.191702D-02 -0.554769D-04
     24  0.318174D-04  0.450894D-02 -0.555363D-04 -0.554769D-04 -0.139666D-02
     25  0.000000D+00 -0.352943D-02  0.690518D-03  0.730502D-03 -0.692890D-02
     26  0.000000D+00 -0.352942D-02  0.731289D-03  0.689785D-03 -0.692895D-02
     27  0.000000D+00 -0.397927D-02  0.525752D-03  0.525190D-03 -0.459524D-02
     28  0.000000D+00 -0.876719D-05 -0.392719D-04 -0.393054D-04  0.379542D-04
     29  0.000000D+00  0.831579D-04  0.372499D-03  0.379542D-04 -0.395305D-03
     30  0.000000D+00  0.830690D-04  0.379542D-04  0.372418D-03 -0.394882D-03
     31  0.361210D+01 -0.242629D+00  0.715749D-02  0.715472D-02  0.529675D-03
     32 -0.242629D+00  0.145895D+00 -0.964283D-04 -0.963910D-04 -0.713597D-05
     33 -0.715749D-02  0.964283D-04  0.242143D+00 -0.172519D-04 -0.127718D-05
     34 -0.715472D-02  0.963910D-04 -0.172519D-04  0.242143D+00 -0.127669D-05
     35 -0.529675D-03  0.713597D-05 -0.127718D-05 -0.127669D-05  0.242160D+00
     36  0.192996D-01  0.653898D-01  0.321533D-03  0.321409D-03  0.237944D-04
     37 -0.199231D-03 -0.463680D-03  0.100034D+00 -0.201313D-05  0.000000D+00
     38 -0.199154D-03 -0.463500D-03 -0.201313D-05  0.100034D+00  0.000000D+00
     39 -0.147436D-04 -0.343136D-04  0.000000D+00  0.000000D+00  0.100036D+00
     40 -0.129333D+00  0.121977D+00 -0.177361D-02  0.104537D-02  0.773903D-04
     41 -0.129333D+00  0.121977D+00  0.104577D-02 -0.177292D-02  0.773903D-04
     42 -0.129393D+00  0.121987D+00  0.104567D-02  0.104526D-02 -0.131260D-03
     43  0.105522D-03 -0.180179D-04 -0.244053D-02 -0.244147D-02  0.000000D+00
     44  0.781193D-05 -0.133389D-05 -0.180676D-03  0.000000D+00 -0.244166D-02
     45  0.780890D-05 -0.133338D-05  0.000000D+00 -0.180676D-03 -0.244071D-02
     46  0.000000D+00 -0.371005D-03  0.885253D-04  0.884294D-04 -0.850480D-03
     47  0.000000D+00 -0.230070D-02  0.496170D-03  0.495633D-03 -0.476680D-02
     48  0.000000D+00 -0.104943D-03 -0.412880D-03  0.140580D-04 -0.135205D-03
     49  0.000000D+00 -0.104829D-03  0.140580D-04 -0.412911D-03 -0.135058D-03
     50  0.000000D+00  0.100821D-02 -0.135205D-03 -0.135058D-03  0.871985D-03
     51 -0.594018D-05 -0.558114D-02  0.876860D-03  0.875910D-03 -0.842416D-02
     52 -0.318978D-05 -0.470110D-03 -0.191448D-02  0.731795D-05 -0.703813D-04
     53 -0.318632D-05 -0.469600D-03  0.731795D-05 -0.191450D-02 -0.703050D-04
     54  0.306448D-04  0.451643D-02 -0.703813D-04 -0.703050D-04 -0.124564D-02
     55  0.000000D+00 -0.350051D-02  0.678391D-03  0.718610D-03 -0.691132D-02
     56  0.000000D+00 -0.350050D-02  0.719395D-03  0.677661D-03 -0.691136D-02
     57  0.000000D+00 -0.396032D-02  0.522938D-03  0.522371D-03 -0.463008D-02
     58  0.000000D+00 -0.871381D-05 -0.391903D-04 -0.392248D-04  0.357668D-04
     59  0.000000D+00  0.838061D-04  0.376917D-03  0.357668D-04 -0.379498D-03
     60  0.000000D+00  0.837153D-04  0.357668D-04  0.376840D-03 -0.379086D-03
                6             7             8             9            10 
      6  0.539430D-01
      7  0.000000D+00  0.899049D-01
      8  0.000000D+00  0.000000D+00  0.899049D-01
      9  0.000000D+00  0.000000D+00  0.000000D+00  0.899049D-01
     10  0.480057D-01  0.000000D+00  0.000000D+00  0.000000D+00  0.433333D+00
     11  0.480057D-01  0.000000D+00  0.000000D+00  0.000000D+00 -0.333333D-01
     12  0.480057D-01  0.000000D+00  0.000000D+00  0.000000D+00 -0.333333D-01
     13  0.000000D+00  0.000000D+00  0.000000D+00  0.000000D+00  0.000000D+00
     14  0.000000D+00  0.000000D+00  0.000000D+00  0.000000D+00  0.000000D+00
     15  0.000000D+00  0.000000D+00  0.000000D+00  0.000000D+00  0.000000D+00
     16 -0.148253D-03 -0.512333D-04 -0.511785D-04  0.485435D-03 -0.319204D-05
     17 -0.807528D-03 -0.330021D-03 -0.329669D-03  0.312695D-02 -0.539057D-04
     18  0.403247D-04  0.244383D-03 -0.312114D-04  0.296044D-03  0.229447D-04
     19  0.402816D-04 -0.312114D-04  0.244450D-03  0.295728D-03 -0.773455D-05
     20 -0.382076D-03  0.296044D-03  0.295728D-03 -0.252939D-02  0.733632D-04
     21 -0.136641D-02 -0.911162D-03 -0.910188D-03  0.863324D-02 -0.743903D-03
     22  0.288725D-03  0.178933D-02 -0.183963D-03  0.174491D-02  0.166367D-03
     23  0.288416D-03 -0.183963D-03  0.178973D-02  0.174304D-02 -0.207971D-03
     24 -0.273566D-02  0.174491D-02  0.174304D-02 -0.145595D-01  0.197263D-02
     25 -0.126565D-02 -0.364993D-03 -0.486864D-03  0.461796D-02 -0.183644D-03
     26 -0.126567D-02 -0.487376D-03 -0.364595D-03  0.461788D-02 -0.126932D-03
     27 -0.470844D-03 -0.847307D-03 -0.846402D-03  0.686857D-02 -0.514030D-03
     28  0.154905D-04  0.988657D-04  0.989865D-04  0.664648D-04  0.143111D-04
     29 -0.146929D-03 -0.937754D-03  0.664648D-04 -0.524433D-03 -0.135742D-03
     30 -0.146772D-03  0.664648D-04 -0.937896D-03 -0.523873D-03  0.714812D-04
     31  0.192996D-01  0.199231D-03  0.199154D-03  0.147436D-04 -0.129333D+00
     32  0.653898D-01  0.463680D-03  0.463500D-03  0.343136D-04  0.121977D+00
     33 -0.321533D-03  0.100034D+00 -0.201313D-05  0.000000D+00  0.177361D-02
     34 -0.321409D-03 -0.201313D-05  0.100034D+00  0.000000D+00 -0.104537D-02
     35 -0.237944D-04  0.000000D+00  0.000000D+00  0.100036D+00 -0.773903D-04
     36  0.539420D-01  0.288966D-03  0.288854D-03  0.213843D-04  0.480046D-01
     37 -0.288966D-03  0.899023D-01 -0.129980D-05  0.000000D+00 -0.210313D-03
     38 -0.288854D-03 -0.129980D-05  0.899023D-01  0.000000D+00 -0.459506D-03
     39 -0.213843D-04  0.000000D+00  0.000000D+00  0.899036D-01 -0.340179D-04
     40  0.480046D-01  0.210313D-03  0.459506D-03  0.340179D-04  0.433247D+00
     41  0.480046D-01  0.459684D-03  0.210232D-03  0.340179D-04 -0.333161D-01
     42  0.480042D-01  0.459681D-03  0.459503D-03  0.155636D-04 -0.333256D-01
     43  0.000000D+00 -0.215873D-03 -0.215957D-03  0.000000D+00 -0.431014D-04
     44  0.000000D+00 -0.159814D-04  0.000000D+00 -0.215961D-03 -0.319086D-05
     45  0.000000D+00  0.000000D+00 -0.159814D-04 -0.215878D-03  0.122698D-05
     46 -0.149431D-03 -0.496612D-04 -0.496074D-04  0.477105D-03 -0.304347D-05
     47 -0.815122D-03 -0.320360D-03 -0.320013D-03  0.307776D-02 -0.519066D-04
     48  0.391374D-04  0.240511D-03 -0.301529D-04  0.289999D-03  0.221281D-04
     49  0.390949D-04 -0.301529D-04  0.240576D-03  0.289684D-03 -0.736288D-05
     50 -0.376000D-03  0.289999D-03  0.289684D-03 -0.251538D-02  0.708133D-04
     51 -0.138741D-02 -0.887174D-03 -0.886212D-03  0.852325D-02 -0.726811D-03
     52  0.281123D-03  0.176631D-02 -0.177909D-03  0.171106D-02  0.162546D-03
     53  0.280819D-03 -0.177909D-03  0.176669D-02  0.170920D-02 -0.201020D-03
     54 -0.270081D-02  0.171106D-02  0.170920D-02 -0.144941D-01  0.193333D-02
     55 -0.127707D-02 -0.353379D-03 -0.472551D-03  0.454482D-02 -0.178595D-03
     56 -0.127709D-02 -0.473056D-03 -0.352987D-03  0.454474D-02 -0.122710D-03
     57 -0.487154D-03 -0.827110D-03 -0.826214D-03  0.679637D-02 -0.499760D-03
     58  0.149696D-04  0.968288D-04  0.969484D-04  0.644591D-04  0.137107D-04
     59 -0.143972D-03 -0.931262D-03  0.644591D-04 -0.516292D-03 -0.131865D-03
     60 -0.143816D-03  0.644591D-04 -0.931402D-03 -0.515733D-03  0.686456D-04
               11            12            13            14            15 
     11  0.433333D+00
     12 -0.333333D-01  0.433333D+00
     13  0.000000D+00  0.000000D+00  0.700000D+00
     14  0.000000D+00  0.000000D+00  0.000000D+00  0.700000D+00
     15  0.000000D+00  0.000000D+00  0.000000D+00  0.000000D+00  0.700000D+00
     16 -0.318803D-05 -0.169860D-03 -0.324831D-05  0.308106D-04  0.307777D-04
     17 -0.538646D-04 -0.176286D-02 -0.333068D-04  0.315919D-03  0.315582D-03
     18 -0.773711D-05 -0.245078D-03  0.219222D-04 -0.207934D-03  0.438273D-04
     19  0.229258D-04 -0.244816D-03  0.219555D-04  0.438273D-04 -0.208028D-03
     20  0.733091D-04  0.203135D-02  0.438273D-04 -0.389131D-03 -0.388715D-03
     21 -0.743718D-03 -0.842006D-02 -0.149606D-03  0.141903D-02  0.141751D-02
     22 -0.208150D-03 -0.202444D-02  0.288634D-03 -0.273773D-02  0.335395D-03
     23  0.166233D-03 -0.202228D-02  0.289019D-03  0.335395D-03 -0.273845D-02
     24  0.197222D-02  0.156326D-01  0.335395D-03 -0.285689D-02 -0.285383D-02
     25 -0.126870D-03 -0.311256D-02 -0.363334D-04  0.344627D-03  0.551337D-03
     26 -0.183617D-03 -0.311238D-02 -0.363300D-04  0.551895D-03  0.344226D-03
     27 -0.513783D-03 -0.855766D-02 -0.199373D-03  0.168378D-02  0.168198D-02
     28  0.143145D-04 -0.148728D-03 -0.878456D-04 -0.153236D-03 -0.153455D-03
     29  0.715255D-04  0.120341D-02 -0.153236D-03  0.134946D-02 -0.228366D-03
     30 -0.135629D-03  0.120212D-02 -0.153455D-03 -0.228366D-03  0.134995D-02
     31 -0.129333D+00 -0.129393D+00  0.105522D-03  0.781193D-05  0.780890D-05
     32  0.121977D+00  0.121987D+00 -0.180179D-04 -0.133389D-05 -0.133338D-05
     33 -0.104577D-02 -0.104567D-02  0.244053D-02  0.180676D-03  0.000000D+00
     34  0.177292D-02 -0.104526D-02  0.244147D-02  0.000000D+00  0.180676D-03
     35 -0.773903D-04  0.131260D-03  0.000000D+00  0.244166D-02  0.244071D-02
     36  0.480046D-01  0.480042D-01  0.000000D+00  0.000000D+00  0.000000D+00
     37 -0.459684D-03 -0.459681D-03  0.215873D-03  0.159814D-04  0.000000D+00
     38 -0.210232D-03 -0.459503D-03  0.215957D-03  0.000000D+00  0.159814D-04
     39 -0.340179D-04 -0.155636D-04  0.000000D+00  0.215961D-03  0.215878D-03
     40 -0.333161D-01 -0.333256D-01 -0.431014D-04 -0.319086D-05  0.122698D-05
     41  0.433247D+00 -0.333256D-01 -0.431014D-04  0.122745D-05 -0.318963D-05
     42 -0.333256D-01  0.433297D+00  0.165780D-04 -0.319101D-05 -0.318978D-05
     43 -0.431014D-04  0.165780D-04  0.699845D+00 -0.382462D-05 -0.382610D-05
     44  0.122745D-05 -0.319101D-05 -0.382462D-05  0.699896D+00 -0.516857D-04
     45 -0.318963D-05 -0.318978D-05 -0.382610D-05 -0.516857D-04  0.699896D+00
     46 -0.303963D-05 -0.165177D-03 -0.307256D-05  0.295507D-04  0.295186D-04
     47 -0.518670D-04 -0.172215D-02 -0.316525D-04  0.304422D-03  0.304092D-03
     48 -0.736542D-05 -0.236749D-03  0.211723D-04 -0.203627D-03  0.417615D-04
     49  0.221096D-04 -0.236492D-03  0.212047D-04  0.417615D-04 -0.203718D-03
     50  0.707610D-04  0.199109D-02  0.417615D-04 -0.376099D-03 -0.375691D-03
     51 -0.726631D-03 -0.830379D-02 -0.143590D-03  0.138099D-02  0.137950D-02
     52 -0.201196D-03 -0.197777D-02  0.281038D-03 -0.270291D-02  0.323443D-03
     53  0.162412D-03 -0.197563D-02  0.281416D-03  0.323443D-03 -0.270362D-02
     54  0.193293D-02  0.155059D-01  0.323443D-03 -0.279570D-02 -0.279267D-02
     55 -0.122650D-03 -0.304654D-02 -0.345528D-04  0.332315D-03  0.532323D-03
     56 -0.178569D-03 -0.304636D-02 -0.345496D-04  0.532869D-03  0.331924D-03
     57 -0.499521D-03 -0.843443D-02 -0.191021D-03  0.163659D-02  0.163481D-02
     58  0.137140D-04 -0.142758D-03 -0.864223D-04 -0.148806D-03 -0.149021D-03
     59  0.686892D-04  0.117241D-02 -0.148806D-03  0.132927D-02 -0.219399D-03
     60 -0.131753D-03  0.117113D-02 -0.149021D-03 -0.219399D-03  0.132974D-02
               16            17            18            19            20 
     16  0.376907D+02
     17 -0.279308D+01  0.225974D+01
     18  0.000000D+00  0.000000D+00  0.571317D+01
     19  0.000000D+00  0.000000D+00  0.000000D+00  0.571317D+01
     20  0.000000D+00  0.000000D+00  0.000000D+00  0.000000D+00  0.571317D+01
     21  0.178470D+00  0.636763D+00  0.000000D+00  0.000000D+00  0.000000D+00
     22  0.000000D+00  0.000000D+00  0.723217D+00  0.000000D+00  0.000000D+00
     23  0.000000D+00  0.000000D+00  0.000000D+00  0.723217D+00  0.000000D+00
     24  0.000000D+00  0.000000D+00  0.000000D+00  0.000000D+00  0.723217D+00
     25 -0.425286D+00  0.443512D-01  0.000000D+00  0.000000D+00  0.000000D+00
     26 -0.425286D+00  0.443512D-01  0.000000D+00  0.000000D+00  0.000000D+00
     27 -0.425286D+00  0.443512D-01  0.000000D+00  0.000000D+00  0.000000D+00
     28  0.000000D+00  0.000000D+00  0.000000D+00  0.000000D+00  0.000000D+00
     29  0.000000D+00  0.000000D+00  0.000000D+00  0.000000D+00  0.000000D+00
     30  0.000000D+00  0.000000D+00  0.000000D+00  0.000000D+00  0.000000D+00
     31  0.000000D+00  0.000000D+00  0.000000D+00  0.000000D+00  0.000000D+00
     32 -0.373903D-03 -0.231693D-02 -0.108998D-03 -0.108884D-03  0.101038D-02
     33  0.920395D-04  0.515262D-03 -0.413879D-03  0.149204D-04 -0.138453D-03
     34  0.919425D-04  0.514719D-03  0.149204D-04 -0.413911D-03 -0.138308D-03
     35 -0.853180D-03 -0.477633D-02 -0.138453D-03 -0.138308D-03  0.854608D-03
     36 -0.148469D-03 -0.808925D-03  0.410754D-04  0.410321D-04 -0.380757D-03
     37 -0.521749D-04 -0.336175D-03  0.242155D-03 -0.325340D-04  0.301899D-03
     38 -0.521199D-04 -0.335821D-03 -0.325340D-04  0.242224D-03  0.301581D-03
     39  0.483646D-03  0.311625D-02  0.301899D-03  0.301581D-03 -0.252380D-02
     40 -0.325532D-05 -0.544681D-04  0.232121D-04 -0.798311D-05  0.740792D-04
     41 -0.325121D-05 -0.544259D-04 -0.798555D-05  0.231936D-04  0.740237D-04
     42 -0.168814D-03 -0.175349D-02 -0.249160D-03 -0.248898D-03  0.202040D-02
     43 -0.337292D-05 -0.346142D-04  0.220814D-04  0.221150D-04  0.455451D-04
     44  0.312990D-04  0.321202D-03 -0.204904D-03  0.455451D-04 -0.395612D-03
     45  0.312660D-04  0.320863D-03  0.455451D-04 -0.205000D-03 -0.395195D-03
     46  0.368657D+02 -0.276694D+01  0.340997D+00  0.341066D+00  0.556510D+00
     47 -0.276694D+01  0.225608D+01 -0.143358D-01 -0.143387D-01 -0.233961D-01
     48 -0.340997D+00  0.143358D-01  0.570450D+01 -0.260105D-02 -0.424408D-02
     49 -0.341066D+00  0.143387D-01 -0.260105D-02  0.570450D+01 -0.424494D-02
     50 -0.556510D+00  0.233961D-01 -0.424408D-02 -0.424494D-02  0.570018D+01
     51  0.178431D+00  0.636650D+00  0.392712D-02  0.392791D-02  0.640909D-02
     52 -0.312706D-02 -0.891269D-02  0.723055D+00 -0.484668D-04 -0.790823D-04
     53 -0.312769D-02 -0.891449D-02 -0.484668D-04  0.723055D+00 -0.790983D-04
     54 -0.510338D-02 -0.145456D-01 -0.790823D-04 -0.790983D-04  0.722975D+00
     55 -0.424968D+00  0.444087D-01 -0.380186D-01  0.923907D-03  0.150752D-02
     56 -0.424968D+00  0.444088D-01  0.923721D-03 -0.380263D-01  0.150752D-02
     57 -0.424626D+00  0.446752D-01  0.927543D-03  0.927731D-03 -0.620405D-01
     58  0.355431D-03  0.277537D-03 -0.337279D-01 -0.337211D-01  0.649811D-05
     59  0.579950D-03  0.452851D-03 -0.550331D-01  0.649811D-05 -0.337145D-01
     60  0.580067D-03  0.452942D-03  0.649811D-05 -0.550331D-01 -0.337213D-01
               21            22            23            24            25 
     21  0.537227D+00
     22  0.000000D+00  0.895378D+00
     23  0.000000D+00  0.000000D+00  0.895378D+00
     24  0.000000D+00  0.000000D+00  0.000000D+00  0.895378D+00
     25  0.369083D+00  0.000000D+00  0.000000D+00  0.000000D+00  0.173333D+01
     26  0.369083D+00  0.000000D+00  0.000000D+00  0.000000D+00 -0.133333D+00
     27  0.369083D+00  0.000000D+00  0.000000D+00  0.000000D+00 -0.133333D+00
     28  0.000000D+00  0.000000D+00  0.000000D+00  0.000000D+00  0.000000D+00
     29  0.000000D+00  0.000000D+00  0.000000D+00  0.000000D+00  0.000000D+00
     30  0.000000D+00  0.000000D+00  0.000000D+00  0.000000D+00  0.000000D+00
     31 -0.613665D-05 -0.340710D-05 -0.340351D-05  0.315828D-04  0.000000D+00
     32 -0.560963D-02 -0.486306D-03 -0.485793D-03  0.450791D-02 -0.352439D-02
     33  0.907209D-03 -0.191625D-02  0.643098D-05 -0.596762D-04  0.704819D-03
     34  0.906253D-03  0.643098D-05 -0.191627D-02 -0.596133D-04  0.745830D-03
     35 -0.840957D-02 -0.596762D-04 -0.596133D-04 -0.136951D-02 -0.692092D-02
     36 -0.137027D-02  0.294270D-03  0.293960D-03 -0.272780D-02 -0.126732D-02
     37 -0.928663D-03  0.177616D-02 -0.191795D-03  0.177976D-02 -0.371824D-03
     38 -0.927684D-03 -0.191795D-03  0.177657D-02  0.177788D-02 -0.496141D-03
     39  0.860843D-02  0.177976D-02  0.177788D-02 -0.145297D-01  0.460393D-02
     40 -0.744950D-03  0.168654D-03 -0.212700D-03  0.197375D-02 -0.183330D-03
     41 -0.744761D-03 -0.212879D-03  0.168522D-03  0.197333D-02 -0.127930D-03
     42 -0.839035D-02 -0.206256D-02 -0.206039D-02  0.155822D-01 -0.310132D-02
     43 -0.155760D-03  0.292426D-03  0.292814D-03  0.349307D-03 -0.378449D-04
     44  0.144537D-02 -0.271356D-02  0.349307D-03 -0.291093D-02  0.351181D-03
     45  0.144385D-02  0.349307D-03 -0.271430D-02 -0.290786D-02  0.561515D-03
     46  0.178431D+00  0.312706D-02  0.312769D-02  0.510338D-02 -0.424968D+00
     47  0.636650D+00  0.891269D-02  0.891449D-02  0.145456D-01  0.444087D-01
     48 -0.392712D-02  0.723055D+00 -0.484668D-04 -0.790823D-04  0.380186D-01
     49 -0.392791D-02 -0.484668D-04  0.723055D+00 -0.790983D-04 -0.923907D-03
     50 -0.640909D-02 -0.790823D-04 -0.790983D-04  0.722975D+00 -0.150752D-02
     51  0.537166D+00  0.486226D-02  0.486324D-02  0.793525D-02  0.369037D+00
     52 -0.486226D-02  0.895255D+00 -0.369769D-04 -0.603345D-04  0.284557D-02
     53 -0.486324D-02 -0.369769D-04  0.895255D+00 -0.603467D-04 -0.540125D-02
     54 -0.793525D-02 -0.603345D-04 -0.603467D-04  0.895194D+00 -0.881312D-02
     55  0.369037D+00 -0.284557D-02  0.540125D-02  0.881312D-02  0.173272D+01
     56  0.369037D+00  0.540016D-02 -0.284615D-02  0.881312D-02 -0.133266D+00
     57  0.369074D+00  0.540052D-02  0.540161D-02 -0.464341D-02 -0.133193D+00
     58  0.387901D-04 -0.714208D-02 -0.714064D-02  0.000000D+00 -0.197788D-03
     59  0.632930D-04 -0.116536D-01  0.000000D+00 -0.714002D-02 -0.322726D-03
     60  0.633058D-04  0.000000D+00 -0.116536D-01 -0.714146D-02  0.124171D-03
               26            27            28            29            30 
     26  0.173333D+01
     27 -0.133333D+00  0.173333D+01
     28  0.000000D+00  0.000000D+00  0.280000D+01
     29  0.000000D+00  0.000000D+00  0.000000D+00  0.280000D+01
     30  0.000000D+00  0.000000D+00  0.000000D+00  0.000000D+00  0.280000D+01
     31  0.000000D+00  0.000000D+00  0.000000D+00  0.000000D+00  0.000000D+00
     32 -0.352438D-02 -0.397532D-02 -0.918689D-05  0.852496D-04  0.851598D-04
     33  0.746622D-03  0.538180D-03 -0.404063D-04  0.374950D-03  0.393637D-04
     34  0.704081D-03  0.537612D-03 -0.404399D-04  0.393637D-04  0.374867D-03
     35 -0.692097D-02 -0.460131D-02  0.393637D-04 -0.401473D-03 -0.401050D-03
     36 -0.126734D-02 -0.474708D-03  0.161478D-04 -0.149843D-03 -0.149685D-03
     37 -0.496655D-03 -0.863580D-03  0.100525D-03 -0.932825D-03  0.692926D-04
     38 -0.371423D-03 -0.862670D-03  0.100647D-03  0.692926D-04 -0.932971D-03
     39  0.460385D-02  0.684791D-02  0.692926D-04 -0.534886D-03 -0.534322D-03
     40 -0.127994D-03 -0.516562D-03  0.148143D-04 -0.137469D-03  0.733798D-04
     41 -0.183302D-03 -0.516309D-03  0.148179D-04  0.734234D-04 -0.137358D-03
     42 -0.310113D-02 -0.851802D-02 -0.154688D-03  0.122450D-02  0.122321D-02
     43 -0.378413D-04 -0.207347D-03 -0.860204D-04 -0.154728D-03 -0.154949D-03
     44  0.562074D-03  0.171315D-02 -0.154728D-03  0.133310D-02 -0.237524D-03
     45  0.350777D-03  0.171134D-02 -0.154949D-03 -0.237524D-03  0.133360D-02
     46 -0.424968D+00 -0.424626D+00  0.355431D-03  0.579950D-03  0.580067D-03
     47  0.444088D-01  0.446752D-01  0.277537D-03  0.452851D-03  0.452942D-03
     48 -0.923721D-03 -0.927543D-03  0.337279D-01  0.550331D-01 -0.649811D-05
     49  0.380263D-01 -0.927731D-03  0.337211D-01 -0.649811D-05  0.550331D-01
     50 -0.150752D-02  0.620405D-01 -0.649811D-05  0.337145D-01  0.337213D-01
     51  0.369037D+00  0.369074D+00  0.387901D-04  0.632930D-04  0.633058D-04
     52 -0.540016D-02 -0.540052D-02  0.714208D-02  0.116536D-01  0.000000D+00
     53  0.284615D-02 -0.540161D-02  0.714064D-02  0.000000D+00  0.116536D-01
     54 -0.881312D-02  0.464341D-02  0.000000D+00  0.714002D-02  0.714146D-02
     55 -0.133266D+00 -0.133193D+00 -0.197788D-03 -0.322726D-03  0.124171D-03
     56  0.173272D+01 -0.133193D+00 -0.197788D-03  0.124146D-03 -0.322791D-03
     57 -0.133193D+00  0.173234D+01  0.761029D-04 -0.322696D-03 -0.322761D-03
     58 -0.197788D-03  0.761029D-04  0.279897D+01 -0.387049D-03 -0.386971D-03
     59  0.124146D-03 -0.322696D-03 -0.387049D-03  0.279858D+01 -0.237129D-03
     60 -0.322791D-03 -0.322761D-03 -0.386971D-03 -0.237129D-03  0.279858D+01
               31            32            33            34            35 
     31  0.362575D+01
     32 -0.242849D+00  0.145919D+00
     33  0.000000D+00  0.000000D+00  0.242177D+00
     34  0.000000D+00  0.000000D+00  0.000000D+00  0.242177D+00
     35  0.000000D+00  0.000000D+00  0.000000D+00  0.000000D+00  0.242177D+00
     36  0.193002D-01  0.653913D-01  0.000000D+00  0.000000D+00  0.000000D+00
     37  0.000000D+00  0.000000D+00  0.100038D+00  0.000000D+00  0.000000D+00
     38  0.000000D+00  0.000000D+00  0.000000D+00  0.100038D+00  0.000000D+00
     39  0.000000D+00  0.000000D+00  0.000000D+00  0.000000D+00  0.100038D+00
     40 -0.129404D+00  0.121994D+00  0.000000D+00  0.000000D+00  0.000000D+00
     41 -0.129404D+00  0.121994D+00  0.000000D+00  0.000000D+00  0.000000D+00
     42 -0.129404D+00  0.121994D+00  0.000000D+00  0.000000D+00  0.000000D+00
     43  0.000000D+00  0.000000D+00  0.000000D+00  0.000000D+00  0.000000D+00
     44  0.000000D+00  0.000000D+00  0.000000D+00  0.000000D+00  0.000000D+00
     45  0.000000D+00  0.000000D+00  0.000000D+00  0.000000D+00  0.000000D+00
     46  0.000000D+00 -0.370372D-03  0.903864D-04  0.902898D-04 -0.849329D-03
     47  0.000000D+00 -0.229715D-02  0.506731D-03  0.506190D-03 -0.476158D-02
     48  0.000000D+00 -0.107173D-03 -0.411813D-03  0.147141D-04 -0.138411D-03
     49  0.000000D+00 -0.107058D-03  0.147141D-04 -0.411845D-03 -0.138263D-03
     50  0.000000D+00  0.100707D-02 -0.138411D-03 -0.138263D-03  0.874060D-03
     51 -0.589795D-05 -0.557489D-02  0.896252D-03  0.895294D-03 -0.842177D-02
     52 -0.323764D-05 -0.480522D-03 -0.191364D-02  0.794227D-05 -0.747106D-04
     53 -0.323418D-05 -0.480008D-03  0.794227D-05 -0.191365D-02 -0.746307D-04
     54  0.304230D-04  0.451530D-02 -0.747106D-04 -0.746307D-04 -0.121956D-02
     55  0.000000D+00 -0.349559D-02  0.692630D-03  0.733882D-03 -0.690341D-02
     56  0.000000D+00 -0.349558D-02  0.734672D-03  0.691894D-03 -0.690346D-02
     57  0.000000D+00 -0.395642D-02  0.535380D-03  0.534808D-03 -0.463576D-02
     58  0.000000D+00 -0.913349D-05 -0.403167D-04 -0.403514D-04  0.371150D-04
     59  0.000000D+00  0.859160D-04  0.379247D-03  0.371150D-04 -0.385536D-03
     60  0.000000D+00  0.858242D-04  0.371150D-04  0.379168D-03 -0.385124D-03
               36            37            38            39            40 
     36  0.539430D-01
     37  0.000000D+00  0.899049D-01
     38  0.000000D+00  0.000000D+00  0.899049D-01
     39  0.000000D+00  0.000000D+00  0.000000D+00  0.899049D-01
     40  0.480057D-01  0.000000D+00  0.000000D+00  0.000000D+00  0.433333D+00
     41  0.480057D-01  0.000000D+00  0.000000D+00  0.000000D+00 -0.333333D-01
     42  0.480057D-01  0.000000D+00  0.000000D+00  0.000000D+00 -0.333333D-01
     43  0.000000D+00  0.000000D+00  0.000000D+00  0.000000D+00  0.000000D+00
     44  0.000000D+00  0.000000D+00  0.000000D+00  0.000000D+00  0.000000D+00
     45  0.000000D+00  0.000000D+00  0.000000D+00  0.000000D+00  0.000000D+00
     46 -0.149639D-03 -0.505888D-04 -0.505348D-04  0.475365D-03 -0.310447D-05
     47 -0.816469D-03 -0.326430D-03 -0.326081D-03  0.306735D-02 -0.524522D-04
     48  0.398776D-04  0.238337D-03 -0.314478D-04  0.295820D-03  0.223954D-04
     49  0.398350D-04 -0.314478D-04  0.238404D-03  0.295504D-03 -0.760205D-05
     50 -0.374716D-03  0.295820D-03  0.295504D-03 -0.250990D-02  0.715102D-04
     51 -0.139114D-02 -0.904480D-03 -0.903513D-03  0.849908D-02 -0.727861D-03
     52  0.286607D-03  0.175345D-02 -0.185584D-03  0.174573D-02  0.164841D-03
     53  0.286301D-03 -0.185584D-03  0.175384D-02  0.174387D-02 -0.205653D-03
     54 -0.269315D-02  0.174573D-02  0.174387D-02 -0.144648D-01  0.193452D-02
     55 -0.127867D-02 -0.360097D-03 -0.481697D-03  0.453118D-02 -0.178296D-03
     56 -0.127869D-02 -0.482204D-03 -0.359703D-03  0.453110D-02 -0.123742D-03
     57 -0.490904D-03 -0.843244D-03 -0.842343D-03  0.677619D-02 -0.502251D-03
     58  0.156133D-04  0.984865D-04  0.986072D-04  0.672380D-04  0.142019D-04
     59 -0.146870D-03 -0.926433D-03  0.672380D-04 -0.526733D-03 -0.133593D-03
     60 -0.146713D-03  0.672380D-04 -0.926577D-03 -0.526170D-03  0.704913D-04
               41            42            43            44            45 
     41  0.433333D+00
     42 -0.333333D-01  0.433333D+00
     43  0.000000D+00  0.000000D+00  0.700000D+00
     44  0.000000D+00  0.000000D+00  0.000000D+00  0.700000D+00
     45  0.000000D+00  0.000000D+00  0.000000D+00  0.000000D+00  0.700000D+00
     46 -0.310053D-05 -0.164177D-03 -0.319240D-05  0.300300D-04  0.299979D-04
     47 -0.524116D-04 -0.171316D-02 -0.329147D-04  0.309619D-03  0.309288D-03
     48 -0.760448D-05 -0.240775D-03  0.213366D-04 -0.200707D-03  0.434243D-04
     49  0.223772D-04 -0.240517D-03  0.213693D-04  0.434243D-04 -0.200800D-03
     50  0.714566D-04  0.198052D-02  0.434243D-04 -0.382493D-03 -0.382085D-03
     51 -0.727677D-03 -0.827494D-02 -0.149581D-03  0.140706D-02  0.140556D-02
     52 -0.205829D-03 -0.201561D-02  0.284837D-03 -0.267937D-02  0.337043D-03
     53  0.164709D-03 -0.201345D-02  0.285218D-03  0.337043D-03 -0.268009D-02
     54  0.193410D-02  0.154565D-01  0.337043D-03 -0.284941D-02 -0.284637D-02
     55 -0.123680D-03 -0.303575D-02 -0.360112D-04  0.338747D-03  0.542327D-03
     56 -0.178270D-03 -0.303557D-02 -0.360078D-04  0.542875D-03  0.338352D-03
     57 -0.502005D-03 -0.839590D-02 -0.198776D-03  0.166567D-02  0.166389D-02
     58  0.142054D-04 -0.148563D-03 -0.846544D-04 -0.150320D-03 -0.150537D-03
     59  0.705343D-04  0.119333D-02 -0.150320D-03  0.131338D-02 -0.228328D-03
     60 -0.133483D-03  0.119205D-02 -0.150537D-03 -0.228328D-03  0.131387D-02
               46            47            48            49            50 
     46  0.376907D+02
     47 -0.279308D+01  0.225974D+01
     48  0.000000D+00  0.000000D+00  0.571317D+01
     49  0.000000D+00  0.000000D+00  0.000000D+00  0.571317D+01
     50  0.000000D+00  0.000000D+00  0.000000D+00  0.000000D+00  0.571317D+01
     51  0.178470D+00  0.636763D+00  0.000000D+00  0.000000D+00  0.000000D+00
     52  0.000000D+00  0.000000D+00  0.723217D+00  0.000000D+00  0.000000D+00
     53  0.000000D+00  0.000000D+00  0.000000D+00  0.723217D+00  0.000000D+00
     54  0.000000D+00  0.000000D+00  0.000000D+00  0.000000D+00  0.723217D+00
     55 -0.425286D+00  0.443512D-01  0.000000D+00  0.000000D+00  0.000000D+00
     56 -0.425286D+00  0.443512D-01  0.000000D+00  0.000000D+00  0.000000D+00
     57 -0.425286D+00  0.443512D-01  0.000000D+00  0.000000D+00  0.000000D+00
     58  0.000000D+00  0.000000D+00  0.000000D+00  0.000000D+00  0.000000D+00
     59  0.000000D+00  0.000000D+00  0.000000D+00  0.000000D+00  0.000000D+00
     60  0.000000D+00  0.000000D+00  0.000000D+00  0.000000D+00  0.000000D+00
               51            52            53            54            55 
     51  0.537227D+00
     52  0.000000D+00  0.895378D+00
     53  0.000000D+00  0.000000D+00  0.895378D+00
     54  0.000000D+00  0.000000D+00  0.000000D+00  0.895378D+00
     55  0.369083D+00  0.000000D+00  0.000000D+00  0.000000D+00  0.173333D+01
     56  0.369083D+00  0.000000D+00  0.000000D+00  0.000000D+00 -0.133333D+00
     57  0.369083D+00  0.000000D+00  0.000000D+00  0.000000D+00 -0.133333D+00
     58  0.000000D+00  0.000000D+00  0.000000D+00  0.000000D+00  0.000000D+00
     59  0.000000D+00  0.000000D+00  0.000000D+00  0.000000D+00  0.000000D+00
     60  0.000000D+00  0.000000D+00  0.000000D+00  0.000000D+00  0.000000D+00
               56            57            58            59            60 
     56  0.173333D+01
     57 -0.133333D+00  0.173333D+01
     58  0.000000D+00  0.000000D+00  0.280000D+01
     59  0.000000D+00  0.000000D+00  0.000000D+00  0.280000D+01
     60  0.000000D+00  0.000000D+00  0.000000D+00  0.000000D+00  0.280000D+01
 Entering OneElI...
 Calculate potential energy integrals
    NBasis =  60  MinDer = 0  MaxDer = 0
 Requested accuracy = 0.1000D-12
 PrmmSu-InSpLW:  IPartL=    0 NPrtUS=    1 NPrtUL=    1 DoSpLW=F IThBeg=    0 IThEnd=    0 NThAct=    1.
 PrSmSu:  IncTry=   512 NBBP=            528 NTPThr=   100 NPartT=    1 Incr=           5 LDynOK=F GPUOK=F.
 PrsmSu:  NPrtUS=   1 ThrOK=F IAlg=2 LenDen=           0 ISkipM=0 DoSpLW=F IThBeg=    0 IThEnd=    0.
 Prism:   IPart=     0 DynPar=F LinDyn=F Incr=           5.
 PRISM was handed   671064041 working-precision words and   132 shell-pairs
 IPart=  0 NShTot=         528 NBatch=         132 AvBLen=         4.0
 PrSmSu:  NxtVal=              6.
 ***** Potential Energy ***** 
                1             2             3             4             5 
      1  0.185529D+02
      2  0.925785D+00  0.465911D+01
      3  0.641281D-02 -0.588818D-01  0.435335D+01
      4  0.641343D-02 -0.588155D-01  0.418724D-02  0.435334D+01
      5  0.436514D-01  0.603172D+00 -0.394358D-01 -0.393934D-01  0.472544D+01
      6  0.195929D+01  0.405944D+01 -0.674978D-01 -0.674222D-01  0.684711D+00
      7  0.381800D-03 -0.515560D-01  0.307551D+01  0.477686D-02 -0.454632D-01
      8  0.382501D-03 -0.514992D-01  0.477686D-02  0.307550D+01 -0.454143D-01
      9  0.118699D-01  0.511000D+00 -0.454632D-01 -0.454143D-01  0.350448D+01
     10  0.721846D+00  0.335259D+01 -0.596648D-01 -0.199473D-01  0.208566D+00
     11  0.721846D+00  0.335259D+01 -0.199699D-01 -0.595964D-01  0.208563D+00
     12  0.728280D+00  0.352683D+01 -0.310654D-01 -0.310306D-01  0.729195D+00
     13  0.236204D-03  0.340096D-02 -0.345498D-01 -0.345888D-01  0.203459D-02
     14 -0.118460D-02 -0.319862D-01  0.361247D+00  0.203459D-02 -0.538068D-01
     15 -0.118332D-02 -0.319518D-01  0.203459D-02  0.361242D+00 -0.537467D-01
     16  0.000000D+00  0.674991D-01 -0.253860D-01 -0.253588D-01  0.241072D+00
     17  0.000000D+00  0.130084D+00 -0.469816D-01 -0.469313D-01  0.446102D+00
     18  0.000000D+00  0.843998D-02  0.284617D-01 -0.305975D-02  0.290732D-01
     19  0.000000D+00  0.843166D-02 -0.306001D-02  0.284680D-01  0.290446D-01
     20  0.000000D+00 -0.738635D-01  0.267633D-01  0.267346D-01 -0.222363D+00
     21  0.735260D-05  0.246840D+00 -0.803195D-01 -0.802335D-01  0.762546D+00
     22  0.438629D-05  0.319078D-01  0.114351D+00 -0.101478D-01  0.963824D-01
     23  0.438161D-05  0.318741D-01 -0.101480D-01  0.114373D+00  0.962808D-01
     24 -0.415340D-04 -0.298615D+00  0.949784D-01  0.948767D-01 -0.776531D+00
     25  0.000000D+00  0.123449D+00 -0.360503D-01 -0.430897D-01  0.409233D+00
     26  0.000000D+00  0.123447D+00 -0.431352D-01 -0.360109D-01  0.409227D+00
     27  0.000000D+00  0.201522D+00 -0.702521D-01 -0.701769D-01  0.600285D+00
     28  0.000000D+00  0.157278D-02  0.558315D-02  0.559019D-02  0.518579D-02
     29  0.000000D+00 -0.146553D-01 -0.521530D-01  0.508647D-02 -0.421560D-01
     30  0.000000D+00 -0.146398D-01  0.508656D-02 -0.521638D-01 -0.421117D-01
     31  0.185389D+02  0.926227D+00  0.526791D-01  0.526618D-01  0.470386D-01
     32  0.926406D+00  0.465859D+01 -0.465532D-01 -0.464916D-01  0.603805D+00
     33 -0.617570D-01 -0.811579D-01  0.435278D+01  0.405414D-02 -0.426295D-01
     34 -0.617300D-01 -0.810830D-01  0.405453D-02  0.435277D+01 -0.425858D-01
     35  0.385927D-01  0.601214D+00 -0.370769D-01 -0.370354D-01  0.472464D+01
     36  0.195926D+01  0.405917D+01 -0.576075D-01 -0.575358D-01  0.685241D+00
     37 -0.119196D-01 -0.704254D-01  0.307550D+01  0.494994D-02 -0.488190D-01
     38 -0.119142D-01 -0.703612D-01  0.495026D-02  0.307549D+01 -0.487687D-01
     39  0.109588D-01  0.509449D+00 -0.443866D-01 -0.443381D-01  0.350392D+01
     40  0.722328D+00  0.335238D+01 -0.703653D-01  0.353824D-03  0.210078D+00
     41  0.722327D+00  0.335238D+01  0.339155D-03 -0.702928D-01  0.210076D+00
     42  0.728142D+00  0.352598D+01 -0.981897D-02 -0.979249D-02  0.727807D+00
     43  0.119642D-02  0.382074D-02 -0.613990D-01 -0.614484D-01  0.228067D-02
     44 -0.188402D-02 -0.342082D-01  0.358963D+00  0.196806D-02 -0.817572D-01
     45 -0.188248D-02 -0.341730D-01  0.196825D-02  0.358958D+00 -0.816863D-01
     46  0.000000D+00  0.668257D-01 -0.249336D-01 -0.249066D-01  0.238994D+00
     47  0.000000D+00  0.128801D+00 -0.461444D-01 -0.460945D-01  0.442355D+00
     48  0.000000D+00  0.715606D-02  0.285957D-01 -0.255948D-02  0.245976D-01
     49  0.000000D+00  0.714759D-02 -0.255922D-02  0.286015D-01  0.245685D-01
     50  0.000000D+00 -0.749350D-01  0.269103D-01  0.268812D-01 -0.227014D+00
     51  0.703837D-05  0.244539D+00 -0.789184D-01 -0.788330D-01  0.756694D+00
     52  0.414744D-05  0.305463D-01  0.113585D+00 -0.960314D-02  0.922608D-01
     53  0.414295D-05  0.305127D-01 -0.960299D-02  0.113606D+00  0.921594D-01
     54 -0.398319D-04 -0.297101D+00  0.936205D-01  0.935191D-01 -0.775184D+00
     55  0.000000D+00  0.121984D+00 -0.354815D-01 -0.421710D-01  0.405067D+00
[...]
  53        3PY        -0.02391   0.10052   0.00366 -76.90784   0.00976
  54        3PZ        -0.06436   0.30391   0.00983   0.00984-206.19521
  55        4XX        -0.03767  51.57994  -0.05647  -0.00138  -0.00402
  56        4YY        -0.03767  51.57846  -0.00138  -0.05649  -0.00402
  57        4ZZ        -0.03183  44.43364  -0.00789  -0.00789  -0.09473
  58        4XY         0.00001  -0.00081  -0.03468  -0.03466  -0.00000
  59        4XZ         0.00003  -0.00230  -0.08031  -0.00000  -0.01333
  60        4YZ         0.00003  -0.00230  -0.00000  -0.08030  -0.01333
                          21        22        23        24        25
  21        3S          1.93274
  22        3PX         0.00000 412.97497
  23        3PY         0.00000   0.00000 413.13766
  24        3PZ         0.00000   0.00000   0.000001112.12534
  25        4XX        -0.80697   0.00000   0.00000   0.00000 117.97405
  26        4YY        -0.80693   0.00000   0.00000   0.00000  12.34789
  27        4ZZ        -0.86361   0.00000   0.00000   0.00000   3.12646
  28        4XY         0.00000   0.00000   0.00000   0.00000   0.00000
  29        4XZ         0.00000   0.00000   0.00000   0.00000   0.00000
  30        4YZ         0.00000   0.00000   0.00000   0.00000   0.00000
  31 3   Li 1S          0.00000   0.00000   0.00000   0.00002  -0.00000
  32        2S         -0.03643  -0.03944  -0.03940  -0.42957   0.04876
  33        2PX        -0.02579   0.42360  -0.03676  -4.45074   0.37763
  34        2PY        -0.02575  -0.03680   0.42273  -4.44444   0.46099
  35        2PZ        -0.40410  -0.87823  -0.87753  14.67120  -0.07179
  36        3S         -0.00670  -0.04966  -0.04962   0.79932   0.01024
  37        3PX        -0.06911  16.44914  -0.69601  15.57237  -0.76731
  38        3PY        -0.06904  -0.69559  16.45043  15.55075  -0.77851
  39        3PZ         0.81859   5.31701   5.31255 -61.21887  11.34314
  40        4XX         0.00032  -0.00141   0.00146  -0.01757  -0.00002
  41        4YY         0.00032   0.00146  -0.00141  -0.01756  -0.00006
  42        4ZZ         0.00118   0.05846   0.05841  -0.67485   0.00949
  43        4XY        -0.00005   0.00122   0.00122   0.00198   0.00003
  44        4XZ        -0.00053   0.03826  -0.00736   0.06206   0.00115
  45        4YZ        -0.00053  -0.00735   0.03827   0.06198   0.00225
  46 4   F  1S         -0.16139  -0.02275  -0.02276  -0.06124  -0.02135
  47        2S          0.65986  -0.01301  -0.01301  -0.07383  51.42595
  48        2PX         0.02687 -76.62476   0.00365   0.00979   0.03985
  49        2PY         0.02688   0.00365 -76.65539   0.00979  -0.03300
  50        2PZ         0.07147   0.00972   0.00972-205.74149  -0.08664
  51        3S          1.93270   0.10704   0.10709   0.28792  -0.76849
  52        3PX         0.10702-413.77939   0.01221   0.03227  -0.02221
  53        3PY         0.10706   0.01221-413.94241   0.03228  -0.20502
  54        3PZ         0.28820   0.03227   0.03228**********  -0.47627
  55        4XX        -0.39431   0.00398   0.04947   0.05986-116.11717
  56        4YY        -0.39428   0.04947   0.00398   0.05988 -11.73732
  57        4ZZ        -0.01309   0.04961   0.04962   0.00193  -2.66360
  58        4XY         0.00000  -0.01088  -0.01088   0.00000   0.00103
  59        4XZ         0.00001  -0.01383   0.00000  -0.02214   0.00279
  60        4YZ         0.00001   0.00000  -0.01384  -0.02215   0.00194
                          26        27        28        29        30
  26        4YY       117.99209
  27        4ZZ         3.12014 149.26540
  28        4XY         0.00000   0.00000  30.89449
  29        4XZ         0.00000   0.00000   0.00000  37.41087
  30        4YZ         0.00000   0.00000   0.00000   0.00000  37.39699
  31 3   Li 1S         -0.00000  -0.00000   0.00000   0.00000   0.00000
  32        2S          0.04875   0.04772   0.00012  -0.00113  -0.00112
  33        2PX         0.46165   0.72499   0.00365   0.03062  -0.00193
  34        2PY         0.37708   0.72394   0.00366  -0.00193   0.03060
  35        2PZ        -0.07190  -0.80895   0.00266   0.00174   0.00176
  36        3S          0.01024   0.01408  -0.00001   0.00011   0.00011
  37        3PX        -0.77962  -0.54015   0.00518  -0.09572   0.00243
  38        3PY        -0.76626  -0.53945   0.00518   0.00243  -0.09566
  39        3PZ        11.34499  19.45317  -0.00712  -0.00329  -0.00335
  40        4XX        -0.00006  -0.00042  -0.00001   0.00011   0.00002
  41        4YY        -0.00002  -0.00042  -0.00001   0.00002   0.00011
  42        4ZZ         0.00949   0.04786  -0.00002  -0.00029  -0.00029
  43        4XY         0.00003   0.00014   0.00001   0.00000   0.00000
  44        4XZ         0.00225   0.00609  -0.00011  -0.00009  -0.00003
  45        4YZ         0.00114   0.00608  -0.00011  -0.00003  -0.00009
  46 4   F  1S         -0.02135  -0.01634   0.00001   0.00003   0.00003
  47        2S         51.42447  44.33377  -0.00082  -0.00231  -0.00231
  48        2PX        -0.03299  -0.03410  -0.02731  -0.08475  -0.00000
  49        2PY         0.03987  -0.03411  -0.02730  -0.00000  -0.08474
  50        2PZ        -0.08664   0.10957  -0.00000  -0.01761  -0.01762
  51        3S         -0.76844  -0.82470   0.00001   0.00001   0.00001
  52        3PX        -0.20494  -0.16381  -0.00274  -0.02235   0.00000
  53        3PY        -0.02221  -0.16387  -0.00274   0.00000  -0.02237
  54        3PZ        -0.47626  -0.03911   0.00000  -0.02844  -0.02845
  55        4XX       -11.73730  -2.59723   0.00103   0.00278   0.00195
  56        4YY      -116.13538  -2.59094   0.00103   0.00195   0.00278
  57        4ZZ        -2.65730-147.96714   0.00201  -0.00059  -0.00059
  58        4XY         0.00103   0.00201 -30.86196   0.00068   0.00068
  59        4XZ         0.00194  -0.00058   0.00068 -37.30742  -0.00227
  60        4YZ         0.00279  -0.00058   0.00068  -0.00227 -37.29351
                          31        32        33        34        35
  31 3   Li 1S          2.95107
  32        2S        -24.09672**********
  33        2PX         0.00000   0.000008538.42298
  34        2PY         0.00000   0.00000   0.000008531.82378
  35        2PZ         0.00000   0.00000   0.00000   0.00000  81.77937
  36        3S          0.01123  -1.11517   0.00000   0.00000   0.00000
  37        3PX         0.00000   0.00000**********   0.00000   0.00000
  38        3PY         0.00000   0.00000   0.00000**********   0.00000
  39        3PZ         0.00000   0.00000   0.00000   0.00000 -76.85878
  40        4XX        -0.98364 604.33175   0.00000   0.00000   0.00000
  41        4YY        -0.98325 604.10471   0.00000   0.00000   0.00000
  42        4ZZ        -0.47215 317.67946   0.00000   0.00000   0.00000
  43        4XY         0.00000   0.00000   0.00000   0.00000   0.00000
  44        4XZ         0.00000   0.00000   0.00000   0.00000   0.00000
  45        4YZ         0.00000   0.00000   0.00000   0.00000   0.00000
  46 4   F  1S          0.00000   0.00073  -0.00028  -0.00028   0.01221
  47        2S          0.00000   0.08408  -0.06633  -0.06624  -0.06088
  48        2PX         0.00000   0.00281   0.03148  -0.00311   0.06118
  49        2PY         0.00000   0.00281  -0.00312   0.03149   0.06112
  50        2PZ        -0.00000  -0.04626   0.06428   0.06419  -0.85049
  51        3S         -0.00000  -0.03634  -0.02501  -0.02497  -0.40024
  52        3PX        -0.00000   0.03930  -0.46399   0.03924   0.85782
  53        3PY        -0.00000   0.03925   0.03920  -0.46312   0.85712
  54        3PZ        -0.00002   0.40074   4.27517   4.26906 -14.47727
  55        4XX         0.00000  -0.04064  -0.37618  -0.45940   0.28341
  56        4YY         0.00000  -0.04063  -0.46006  -0.37563   0.28351
  57        4ZZ         0.00000  -0.03516  -0.70590  -0.70487   1.03085
  58        4XY        -0.00000  -0.00016  -0.00326  -0.00326  -0.00312
  59        4XZ        -0.00000   0.00151  -0.02662   0.00151   0.00621
  60        4YZ        -0.00000   0.00150   0.00151  -0.02660   0.00618
                          36        37        38        39        40
  36        3S          0.31702
  37        3PX         0.000004886.71589
  38        3PY         0.00000   0.000004883.03195
  39        3PZ         0.00000   0.00000   0.00000 910.04285
  40        4XX        -0.00748   0.00000   0.00000   0.00000 156.40304
  41        4YY        -0.00745   0.00000   0.00000   0.00000 -17.61956
  42        4ZZ        -0.30060   0.00000   0.00000   0.00000   8.84118
  43        4XY         0.00000   0.00000   0.00000   0.00000   0.00000
  44        4XZ         0.00000   0.00000   0.00000   0.00000   0.00000
  45        4YZ         0.00000   0.00000   0.00000   0.00000   0.00000
  46 4   F  1S          0.00053   0.00910   0.00908  -0.14943  -0.00000
  47        2S         -0.01492   0.12758   0.12724  31.53303  -0.00002
  48        2PX         0.00217  -0.85218   0.03775  -0.24850   0.00004
  49        2PY         0.00217   0.03777  -0.85217  -0.24829  -0.00001
  50        2PZ        -0.03306  -0.59202  -0.59121   2.88580   0.00014
  51        3S         -0.00666  -0.06805  -0.06798   0.84071   0.00031
  52        3PX         0.04877 -16.29785   0.67312  -5.06789   0.00138
  53        3PY         0.04873   0.67353 -16.29911  -5.06356  -0.00139
  54        3PZ        -0.79581 -15.27977 -15.25832  59.15597   0.01723
  55        4XX         0.00564   0.99651   1.03108 -13.09513  -0.00003
  56        4YY         0.00564   1.03253   0.99512 -13.09687   0.00003
  57        4ZZ        -0.00004   0.74374   0.74275 -20.84784   0.00030
  58        4XY         0.00000  -0.00260  -0.00260   0.00780   0.00001
  59        4XZ         0.00001   0.04754  -0.00028  -0.00674  -0.00009
  60        4YZ         0.00001  -0.00028   0.04748  -0.00668  -0.00002
                          41        42        43        44        45
  41        4YY       156.36471
  42        4ZZ         8.83796  18.18015
  43        4XY         0.00000   0.00000  16.41541
  44        4XZ         0.00000   0.00000   0.00000  69.25846
  45        4YZ         0.00000   0.00000   0.00000   0.00000  69.20504
  46 4   F  1S         -0.00000  -0.00004   0.00000   0.00000   0.00000
  47        2S         -0.00002   0.02163   0.00003   0.00153   0.00153
  48        2PX        -0.00001  -0.00064  -0.00001  -0.00041   0.00011
  49        2PY         0.00004  -0.00064  -0.00001   0.00011  -0.00041
  50        2PZ         0.00014   0.00879  -0.00006  -0.00186  -0.00185
  51        3S          0.00031   0.00122  -0.00004  -0.00050  -0.00050
  52        3PX        -0.00140  -0.05485  -0.00121  -0.03957   0.00739
  53        3PY         0.00138  -0.05480  -0.00121   0.00740  -0.03958
  54        3PZ         0.01723   0.63641  -0.00194  -0.06124  -0.06115
  55        4XX         0.00003  -0.01056  -0.00002  -0.00101  -0.00199
  56        4YY        -0.00003  -0.01056  -0.00002  -0.00199  -0.00101
  57        4ZZ         0.00030  -0.05125  -0.00010  -0.00521  -0.00520
  58        4XY         0.00001   0.00003  -0.00001   0.00013   0.00013
  59        4XZ        -0.00002   0.00005  -0.00001  -0.00017   0.00009
  60        4YZ        -0.00009   0.00005  -0.00001   0.00009  -0.00017
                          46        47        48        49        50
  46 4   F  1S          2.54249
  47        2S        -16.691262972.37245
  48        2PX         0.00000   0.00000  65.22099
  49        2PY         0.00000   0.00000   0.00000  65.24699
  50        2PZ         0.00000   0.00000   0.00000   0.00000 172.84410
  51        3S         -0.16201   0.80952   0.00000   0.00000   0.00000
  52        3PX         0.00000   0.00000  76.61199   0.00000   0.00000
  53        3PY         0.00000   0.00000   0.00000  76.64270   0.00000
  54        3PZ         0.00000   0.00000   0.00000   0.00000 205.99925
  55        4XX         0.04201 -51.52753   0.00000   0.00000   0.00000
  56        4YY         0.04201 -51.52605   0.00000   0.00000   0.00000
  57        4ZZ         0.03047 -44.45358   0.00000   0.00000   0.00000
  58        4XY         0.00000   0.00000   0.00000   0.00000   0.00000
  59        4XZ         0.00000   0.00000   0.00000   0.00000   0.00000
  60        4YZ         0.00000   0.00000   0.00000   0.00000   0.00000
                          51        52        53        54        55
  51        3S          1.93299
  52        3PX         0.00000 415.18928
  53        3PY         0.00000   0.00000 415.35282
  54        3PZ         0.00000   0.00000   0.000001116.40953
  55        4XX        -0.43254   0.00000   0.00000   0.00000 116.11268
  56        4YY        -0.43251   0.00000   0.00000   0.00000  11.72938
  57        4ZZ        -0.05181   0.00000   0.00000   0.00000   2.57867
  58        4XY         0.00000   0.00000   0.00000   0.00000   0.00000
  59        4XZ         0.00000   0.00000   0.00000   0.00000   0.00000
  60        4YZ         0.00000   0.00000   0.00000   0.00000   0.00000
                          56        57        58        59        60
  56        4YY       116.13084
  57        4ZZ         2.57237 147.74035
  58        4XY         0.00000   0.00000  30.90784
  59        4XZ         0.00000   0.00000   0.00000  37.39544
  60        4YZ         0.00000   0.00000   0.00000   0.00000  37.38154
     Gross orbital populations:
                           1
   1 1   Li 1S          1.22553
   2        2S          2.13901
   3        2PX         1.62258
   4        2PY         1.62211
   5        2PZ         1.27744
   6        3S         -0.13643
   7        3PX        -2.85063
   8        3PY        -2.84731
   9        3PZ        11.19276
  10        4XX        -0.27826
  11        4YY        -0.27843
  12        4ZZ        -0.49178
  13        4XY         0.01388
  14        4XZ         0.09197
  15        4YZ         0.09190
  16 2   F  1S          1.18788
  17        2S          0.17114
  18        2PX         1.05256
  19        2PY         1.05251
  20        2PZ         0.89473
  21        3S          1.03197
  22        3PX        -0.72583
  23        3PY        -0.72586
  24        3PZ         0.99965
  25        4XX         0.55111
  26        4YY         0.55114
  27        4ZZ         0.44481
  28        4XY        -0.02283
  29        4XZ        -0.04911
  30        4YZ        -0.04911
  31 3   Li 1S          1.23028
  32        2S          1.88585
  33        2PX         0.87637
  34        2PY         0.87667
  35        2PZ         0.89931
  36        3S         -0.13667
  37        3PX         2.34357
  38        3PY         2.34029
  39        3PZ       -10.98864
  40        4XX        -0.23588
  41        4YY        -0.23602
  42        4ZZ        -0.47224
  43        4XY         0.01619
  44        4XZ        -0.01156
  45        4YZ        -0.01155
  46 4   F  1S          1.18634
  47        2S          0.92983
  48        2PX         1.18547
  49        2PY         1.18546
  50        2PZ         1.12563
  51        3S          1.03277
  52        3PX         1.09217
  53        3PY         1.09241
  54        3PZ         0.18585
  55        4XX        -0.74198
  56        4YY        -0.74200
  57        4ZZ        -0.54328
  58        4XY        -0.04057
  59        4XZ        -0.04158
  60        4YZ        -0.04157
          Condensed to atoms (all electrons):
               1          2          3          4
     1  Li*********** -24.235728***********  27.962270
     2  F  -24.2357286131.425565  26.548354***********
     3  Li***********  26.548354*********** -30.066335
     4  F   27.962270*********** -30.0663356136.342460
 Mulliken charges:
               1
     1  Li  -9.394339
     2  F    2.635259
     3  Li   4.624024
     4  F    2.135055
 Sum of Mulliken charges =   0.00000
 Mulliken charges with hydrogens summed into heavy atoms:
               1
     1  Li  -9.394339
     2  F    2.635259
     3  Li   4.624024
     4  F    2.135055
 N-N= 4.522697241383D+03 E-N=-8.302880413707D+02  KE= 2.194244797954D+02
 Orbital energies and kinetic energies (alpha):
                                 1                 2
   1         O               -88.533951         48.541690
   2         O               -10.997934         26.282509
   3         O                -7.406516          5.334145
   4         O                -7.080517          7.904763
   5         O                -5.777251          7.249021
   6         O                -5.774667          7.242073
   7         O                -0.355467          0.470880
   8         O                -0.283915          1.112412
   9         O                -0.253838          3.279102
  10         O                -0.171141          0.531897
  11         O                -0.168989          0.360284
  12         O                -0.132931          1.403465
  13         V                -0.002624          0.262086
  14         V                 0.002154          0.162607
  15         V                 0.009994          0.190511
  16         V                 0.027411          0.262961
  17         V                 0.034469          0.142737
  18         V                 0.042984          0.259732
  19         V                 0.101512          0.984973
  20         V                 0.140888          1.274068
  21         V                 0.164209          1.134378
  22         V                 0.230726          1.052634
  23         V                 0.263111          0.821890
  24         V                 0.272617          0.701303
  25         V                 0.275451          0.754162
  26         V                 0.284840          0.734508
  27         V                 0.287229          0.752557
  28         V                 0.504186          0.910785
  29         V                 0.504870          0.856735
  30         V                 0.561502          1.320014
  31         V                 0.565236          1.486699
  32         V                 0.577107          1.232725
  33         V                 0.578217          1.038740
  34         V                 0.586551          1.320536
  35         V                 0.602411          1.980662
  36         V                 0.742870          2.059302
  37         V                 0.950828          1.573615
  38         V                 1.032353          3.466769
  39         V                 1.098072          2.799067
  40         V                 1.101001          2.777278
  41         V                 1.225711          1.803130
  42         V                 1.229672          1.884813
  43         V                 1.568825          3.643571
  44         V                 1.569357          4.646505
  45         V                 1.578272          4.633735
  46         V                 1.605850          6.123962
  47         V                 1.631258          6.869642
  48         V                 2.435749          4.058321
  49         V                 2.439483          4.058238
  50         V                 2.511512          3.600022
  51         V                 2.512090          3.600829
  52         V                 2.787972          7.130006
  53         V                 4.165679          5.551713
  54         V                 6.175755         22.983915
  55         V                 6.312744         20.443608
  56         V                 6.321519         20.454458
  57         V                24.972779         42.907468
  58         V               174.802686        354.997211
 Total kinetic energy from orbitals= 2.194244797954D+02

 This type of calculation cannot be archived.


 BE CAREFUL NOT TO BECOME TOO GOOD OF A SONGBIRD OR 
 THEY'LL THROW YOU INTO A CAGE.

                                    -- SNOOPY TO WOODSTOCK
 Job cpu time:       0 days  0 hours  0 minutes  1.4 seconds.
 Elapsed time:       0 days  0 hours  0 minutes  1.6 seconds.
 File lengths (MBytes):  RWF=    272 Int=      0 D2E=      0 Chk=     32 Scr=     32
 Normal termination of Gaussian 16 at Fri Dec 30 21:58:15 2022.
