6
MD Step 0
C  -0.33763715 -0.58748864 0.00000000
H  0.19552659 -1.51519357 0.00000000
H  -1.40763715 -0.58748864 0.00000000
C  0.33763715 0.58748865 0.00000000
H  -0.19552659 1.51519357 0.00000000
H  1.40763715 0.58748865 0.00000000
6
MD Step 1
C  -0.33800549 -0.58783558 -0.00039457
H  0.19788814 -1.51298563 0.00235124
H  -1.40542299 -0.58520968 0.00235081
C  0.33721645 0.58704678 -0.00039470
H  -0.19318704 1.51768637 0.00235166
H  1.41012406 0.58990827 0.00235122
6
MD Step 2
C  -0.33831630 -0.58808454 -0.00078780
H  0.20026492 -1.51109436 0.00469446
H  -1.40353686 -0.58308769 0.00469368
C  0.33674962 0.58651446 -0.00078802
H  -0.19087177 1.52043884 0.00469516
H  1.41281230 0.59245237 0.00469420
6
MD Step 3
C  -0.33856224 -0.58823085 -0.00117578
H  0.20263248 -1.50955325 0.00700632
H  -1.40204617 -0.58115282 0.00700554
C  0.33624560 0.58589957 -0.00117598
H  -0.18859671 1.52339772 0.00700684
H  1.41561550 0.59508785 0.00700499
6
MD Step 4
C  -0.33874070 -0.58827487 -0.00155854
H  0.20498643 -1.50836505 0.00928685
H  -1.40098495 -0.57941083 0.00928686
C  0.33570969 0.58520706 -0.00155848
H  -0.18635232 1.52652791 0.00928617
H  1.41846844 0.59780412 0.00928266
6
MD Step 5
C  -0.33885544 -0.58822360 -0.00194159
H  0.20735173 -1.50749250 0.01156871
H  -1.40034337 -0.57783378 0.01157084
C  0.33514182 0.58443721 -0.00194085
H  -0.18409478 1.52982260 0.01156505
H  1.42133799 0.60062244 0.01155865
6
MD Step 6
C  -0.33890341 -0.58807737 -0.00232270
H  0.20970427 -1.50693759 0.01383847
H  -1.40014641 -0.57643891 0.01384473
C  0.33454978 0.58359887 -0.00232066
H  -0.18182512 1.53322520 0.01382916
H  1.42414527 0.60351718 0.01381804
6
MD Step 7
C  -0.33888232 -0.58783726 -0.00269938
H  0.21201564 -1.50669728 0.01608112
H  -1.40040858 -0.57524394 0.01609429
C  0.33394159 0.58270179 -0.00269522
H  -0.17954522 1.53667504 0.01606251
H  1.42681196 0.60646049 0.01604425
6
MD Step 8
C  -0.33879009 -0.58750454 -0.00306834
H  0.21425022 -1.50676724 0.01827687
H  -1.40113672 -0.57427035 0.01830048
C  0.33332597 0.58175708 -0.00306100
H  -0.17726155 1.54010530 0.01824422
H  1.42925874 0.60941924 0.01821577
6
MD Step 9
C  -0.33863023 -0.58708588 -0.00343073
H  0.21639704 -1.50711108 0.02043244
H  -1.40229859 -0.57351190 0.02047072
C  0.33270694 0.58077176 -0.00341894
H  -0.17495437 1.54347558 0.02037994
H  1.43143806 0.61238658 0.02033772
6
MD Step 10
C  -0.33840660 -0.58658807 -0.00378702
H  0.21843976 -1.50769173 0.02255062
H  -1.40385433 -0.57296515 0.02260836
C  0.33208895 0.57975383 -0.00376933
H  -0.17260866 1.54674236 0.02247138
H  1.43330454 0.61535156 0.02241135
6
MD Step 11
C  -0.33812512 -0.58601975 -0.00413880
H  0.22036781 -1.50846188 0.02464078
H  -1.40574719 -0.57261889 0.02472313
C  0.33147502 0.57871032 -0.00411357
H  -0.17020404 1.54987045 0.02452687
H  1.43482613 0.61830975 0.02444471
6
MD Step 12
C  -0.33778923 -0.58538679 -0.00448427
H  0.22215040 -1.50939154 0.02669233
H  -1.40793180 -0.57248070 0.02680474
C  0.33087123 0.57765169 -0.00444974
H  -0.16774161 1.55280719 0.02653490
H  1.43595802 0.62123675 0.02642602
6
MD Step 13
C  -0.33740061 -0.58469304 -0.00481908
H  0.22374207 -1.51046397 0.02867963
H  -1.41037063 -0.57257195 0.02882779
C  0.33028580 0.57659086 -0.00477348
H  -0.16523937 1.55548837 0.02846913
H  1.43664819 0.62409337 0.02832863
6
MD Step 14
C  -0.33696597 -0.58394709 -0.00514322
H  0.22512405 -1.51163567 0.03060298
H  -1.41299444 -0.57288686 0.03079240
C  0.32972219 0.57553624 -0.00508475
H  -0.16269168 1.55787990 0.03032920
H  1.43687911 0.62686663 0.03015222
6
MD Step 15
C  -0.33649163 -0.58315691 -0.00545580
H  0.22627363 -1.51286842 0.03245737
H  -1.41573541 -0.57342369 0.03269322
C  0.32918430 0.57449682 -0.00538268
H  -0.16010064 1.55994725 0.03210963
H  1.43663669 0.62953878 0.03189147
6
MD Step 16
C  -0.33598533 -0.58233165 -0.00575692
H  0.22717601 -1.51411883 0.03424391
H  -1.41851756 -0.57417336 0.03453069
C  0.32867456 0.57348023 -0.00566747
H  -0.15746487 1.56166738 0.03381122
H  1.43592178 0.63209870 0.03354756
6
MD Step 17
C  -0.33545527 -0.58148072 -0.00604687
H  0.22781974 -1.51534404 0.03596490
H  -1.42126366 -0.57512445 0.03630622
C  0.32819473 0.57249343 -0.00593954
H  -0.15478456 1.56302411 0.03543612
H  1.43474526 0.63453712 0.03512321
6
MD Step 18
C  -0.33490991 -0.58061363 -0.00632619
H  0.22819718 -1.51650251 0.03762389
H  -1.42389695 -0.57626324 0.03802219
C  0.32774590 0.57154271 -0.00619952
H  -0.15206151 1.56400849 0.03698787
H  1.43312782 0.63684667 0.03662278
6
MD Step 19
C  -0.33435071 -0.57973272 -0.00658820
H  0.22826167 -1.51759766 0.03918243
H  -1.42638588 -0.57761667 0.03963986
C  0.32733574 0.57064072 -0.00644125
H  -0.14934199 1.56457592 0.03842865
H  1.43105678 0.63897889 0.03800842
6
MD Step 20
C  -0.33378966 -0.57885079 -0.00683723
H  0.22803363 -1.51857253 0.04066636
H  -1.42863904 -0.57914685 0.04118309
C  0.32696061 0.56978878 -0.00666908
H  -0.14661143 1.56475231 0.03978443
H  1.42859204 0.64095031 0.03930771
6
MD Step 21
C  -0.33322620 -0.57796789 -0.00706488
H  0.22746281 -1.51944816 0.04202730
H  -1.43064469 -0.58088872 0.04260345
C  0.32662885 0.56899983 -0.00687533
H  -0.14393154 1.56449615 0.04100803
H  1.42572766 0.64270444 0.04047324
6
MD Step 22
C  -0.33266851 -0.57709277 -0.00727210
H  0.22655664 -1.52019562 0.04327146
H  -1.43234286 -0.58282216 0.04390562
C  0.32633912 0.56827695 -0.00706126
H  -0.14131268 1.56382698 0.04210641
H  1.42252018 0.64424031 0.04151329
6
MD Step 23
C  -0.33212354 -0.57623284 -0.00745900
H  0.22532103 -1.52079558 0.04440013
H  -1.43368558 -0.58493126 0.04508947
C  0.32609036 0.56762324 -0.00722734
H  -0.13877266 1.56276594 0.04308189
H  1.41902872 0.64555318 0.04243139
6
MD Step 24
C  -0.33160025 -0.57539749 -0.00762828
H  0.22378034 -1.52121866 0.04542972
H  -1.43461778 -0.58718457 0.04616942
C  0.32587855 0.56703844 -0.00737653
H  -0.13631675 1.56135549 0.04395185
H  1.41533413 0.64665453 0.04324680
6
MD Step 25
C  -0.33110346 -0.57459188 -0.00777899
H  0.22194100 -1.52146199 0.04635522
H  -1.43511448 -0.58957148 0.04713927
C  0.32570280 0.56652504 -0.00750834
H  -0.13397353 1.55962261 0.04471268
H  1.41150140 0.64753556 0.04395709
6
MD Step 26
C  -0.33063645 -0.57381951 -0.00790920
H  0.21980720 -1.52153361 0.04716600
H  -1.43516543 -0.59208671 0.04798754
C  0.32556285 0.56608566 -0.00762139
H  -0.13177903 1.55759410 0.04535533
H  1.40759440 0.64818299 0.04455417
6
MD Step 27
C  -0.33020544 -0.57308688 -0.00802081
H  0.21740828 -1.52142487 0.04787350
H  -1.43474775 -0.59470293 0.04872415
C  0.32545438 0.56571844 -0.00771789
H  -0.12974891 1.55532362 0.04589267
H  1.40370218 0.64860662 0.04505257
6
MD Step 28
C  -0.32981959 -0.57240341 -0.00811959
H  0.21479860 -1.52111049 0.04851126
H  -1.43382639 -0.59737106 0.04938009
C  0.32536919 0.56541714 -0.00780352
H  -0.12787820 1.55289088 0.04635937
H  1.39993715 0.64883919 0.04548961
6
MD Step 29
C  -0.32947551 -0.57176585 -0.00819898
H  0.21196477 -1.52064104 0.04904179
H  -1.43244716 -0.60011256 0.04991866
C  0.32531090 0.56518664 -0.00787265
H  -0.12623269 1.55030812 0.04672003
H  1.39634060 0.64884354 0.04582949
6
MD Step 30
C  -0.32917283 -0.57117407 -0.00825644
H  0.20891914 -1.52004892 0.04945075
H  -1.43064253 -0.60292625 0.05032552
C  0.32527925 0.56502736 -0.00792331
H  -0.12485544 1.54761307 0.04696212
H  1.39297491 0.64860648 0.04606000
6
MD Step 31
C  -0.32890975 -0.57062646 -0.00828869
H  0.20567213 -1.51937520 0.04971957
H  -1.42845845 -0.60581549 0.05058259
C  0.32527471 0.56493988 -0.00795290
H  -0.12379333 1.54484083 0.04706885
H  1.38989492 0.64811143 0.04616420
6
MD Step 32
C  -0.32868742 -0.57012450 -0.00829641
H  0.20225860 -1.51864237 0.04985217
H  -1.42592716 -0.60876170 0.05069343
C  0.32529413 0.56492054 -0.00796230
H  -0.12307003 1.54204953 0.04704557
H  1.38717304 0.64736512 0.04614810
6
MD Step 33
C  -0.32850208 -0.56966481 -0.00827586
H  0.19869013 -1.51790120 0.04982743
H  -1.42311400 -0.61177159 0.05063801
C  0.32533879 0.56496951 -0.00794846
H  -0.12273242 1.53927191 0.04687275
H  1.38485012 0.64635012 0.04599135
6
MD Step 34
C  -0.32835640 -0.56925057 -0.00823087
H  0.19502210 -1.51716238 0.04966697
H  -1.42004901 -0.61480984 0.05043737
C  0.32540308 0.56507955 -0.00791501
H  -0.12278277 1.53658169 0.04657310
H  1.38300156 0.64509247 0.04571737
6
MD Step 35
C  -0.32825252 -0.56888461 -0.00816547
H  0.19131169 -1.51643760 0.04939342
H  -1.41676809 -0.61784073 0.05011363
C  0.32548165 0.56524312 -0.00786566
H  -0.12321947 1.53405053 0.04617012
H  1.38169364 0.64361987 0.04535025
6
MD Step 36
C  -0.32818514 -0.56856246 -0.00807653
H  0.18757592 -1.51578032 0.04898872
H  -1.41335394 -0.62086964 0.04965041
C  0.32557651 0.56545948 -0.00779765
H  -0.12407760 1.53170507 0.04564670
H  1.38094015 0.64192004 0.04487134
6
MD Step 37
C  -0.32815150 -0.56828243 -0.00796426
H  0.18385036 -1.51522556 0.04845365
H  -1.40987534 -0.62388391 0.04904948
C  0.32568704 0.56572488 -0.00771113
H  -0.12536938 1.52958517 0.04500419
H  1.38076095 0.64000009 0.04428104
6
MD Step 38
C  -0.32814468 -0.56803889 -0.00782497
H  0.18014814 -1.51482945 0.04776721
H  -1.40642630 -0.62689329 0.04829209
C  0.32581683 0.56603944 -0.00760279
H  -0.12712393 1.52770228 0.04422189
H  1.38114083 0.63784605 0.04355648
6
MD Step 39
C  -0.32816900 -0.56783771 -0.00766740
H  0.17655036 -1.51457702 0.04697779
H  -1.40303309 -0.62983873 0.04742612
C  0.32595835 0.56639190 -0.00748016
H  -0.12929592 1.52612994 0.04334828
H  1.38212084 0.63551411 0.04274657
6
MD Step 40
C  -0.32821915 -0.56767533 -0.00749044
H  0.17308117 -1.51450621 0.04607851
H  -1.39977806 -0.63271717 0.04644656
C  0.32611389 0.56678071 -0.00734200
H  -0.13188953 1.52487790 0.04237625
H  1.38367279 0.63300583 0.04184238
6
MD Step 41
C  -0.32829006 -0.56754869 -0.00729344
H  0.16976513 -1.51464891 0.04506525
H  -1.39673972 -0.63552349 0.04535120
C  0.32628578 0.56720432 -0.00718749
H  -0.13490030 1.52394971 0.04130121
H  1.38575798 0.63032627 0.04083751
6
MD Step 42
C  -0.32838149 -0.56745972 -0.00708107
H  0.16665332 -1.51500344 0.04396321
H  -1.39396422 -0.63822370 0.04416611
C  0.32647181 0.56765669 -0.00702037
H  -0.13828839 1.52336932 0.04014791
H  1.38835512 0.62751070 0.03975593
6
MD Step 43
C  -0.32848506 -0.56740244 -0.00684936
H  0.16374562 -1.51561148 0.04274972
H  -1.39154137 -0.64083263 0.04287107
C  0.32667811 0.56814041 -0.00683683
H  -0.14205617 1.52310333 0.03889255
H  1.39138361 0.62454717 0.03857163
6
MD Step 44
C  -0.32860198 -0.56738044 -0.00660429
H  0.16109378 -1.51645346 0.04145749
H  -1.38949858 -0.64330973 0.04149954
C  0.32690172 0.56864909 -0.00664179
H  -0.14614460 1.52316555 0.03756737
H  1.39480975 0.62148026 0.03731630
6
MD Step 45
C  -0.32872979 -0.56739371 -0.00634779
H  0.15872279 -1.51752699 0.04009648
H  -1.38787836 -0.64563792 0.04006274
C  0.32714358 0.56918070 -0.00643657
H  -0.15051225 1.52353868 0.03618150
H  1.39856918 0.61833251 0.03599811
6
MD Step 46
C  -0.32886147 -0.56743774 -0.00607658
H  0.15662472 -1.51885262 0.03864800
H  -1.38674302 -0.64782964 0.03854371
C  0.32740944 0.56973841 -0.00621797
H  -0.15514196 1.52416906 0.03471493
H  1.40256272 0.61509845 0.03459561
6
MD Step 47
C  -0.32899071 -0.56750857 -0.00578763
H  0.15478876 -1.52044326 0.03709492
H  -1.38614249 -0.64989626 0.03692667
C  0.32770467 0.57032547 -0.00598305
H  -0.16001111 1.52499838 0.03314905
H  1.40668931 0.61177488 0.03308915
6
MD Step 48
C  -0.32911918 -0.56760988 -0.00548572
H  0.15324335 -1.52226173 0.03546341
H  -1.38607065 -0.65180541 0.03523809
C  0.32802706 0.57093788 -0.00573579
H  -0.16504988 1.52600750 0.03150976
H  1.41089087 0.60840311 0.03150458
6
MD Step 49
C  -0.32924275 -0.56773940 -0.00516884
H  0.15197498 -1.52430286 0.03374232
H  -1.38654679 -0.65356303 0.03346743
C  0.32838037 0.57157816 -0.00547428
H  -0.17022397 1.52713578 0.02978481
H  1.41507187 0.60498737 0.02982921
6
MD Step 50
C  -0.32936290 -0.56789999 -0.00484021
H  0.15099524 -1.52652670 0.03194952
H  -1.38754802 -0.65514586 0.03163253
C  0.32876306 0.57224381 -0.00520129
H  -0.17546805 1.52834976 0.02799187
H  1.41916862 0.60156171 0.02808087
6
MD Step 51
C  -0.32948141 -0.56809440 -0.00450268
H  0.15030967 -1.52889066 0.03010082
H  -1.38904141 -0.65653314 0.02974893
C  0.32917350 0.57293265 -0.00491927
H  -0.18071810 1.52961280 0.02614675
H  1.42311892 0.59815836 0.02627565
6
MD Step 52
C  -0.32959166 -0.56831675 -0.00414971
H  0.14986804 -1.53140089 0.02816032
H  -1.39103525 -0.65775755 0.02778063
C  0.32961833 0.57365119 -0.00462243
H  -0.18596312 1.53083568 0.02421204
H  1.42681253 0.59475739 0.02437615
6
MD Step 53
C  -0.32969514 -0.56856863 -0.00378264
H  0.14966089 -1.53401588 0.02613584
H  -1.39348253 -0.65880769 0.02573486
C  0.33009628 0.57439821 -0.00431207
H  -0.19114850 1.53197508 0.02219548
H  1.43019014 0.59138304 0.02239056
6
MD Step 54
C  -0.32980136 -0.56885900 -0.00341060
H  0.14971975 -1.53664765 0.02407860
H  -1.39628259 -0.65962849 0.02366187
C  0.33059826 0.57516469 -0.00399645
H  -0.19617698 1.53303423 0.02014979
H  1.43324396 0.58810322 0.02037232
6
MD Step 55
C  -0.32990864 -0.56918544 -0.00303078
H  0.15000670 -1.53927466 0.02197341
H  -1.39939526 -0.66023377 0.02154577
C  0.33112587 0.57595266 -0.00367318
H  -0.20102157 1.53395181 0.01805923
H  1.43590561 0.58491823 0.01830614
6
MD Step 56
C  -0.33002003 -0.56954969 -0.00264497
H  0.15050800 -1.54184891 0.01983093
H  -1.40274857 -0.66061207 0.01939636
C  0.33167591 0.57675936 -0.00334406
H  -0.20563191 1.53469660 0.01593474
H  1.43814097 0.58185379 0.01620351
6
MD Step 57
C  -0.33013812 -0.56995268 -0.00225443
H  0.15120523 -1.54432631 0.01765863
H  -1.40627008 -0.66075644 0.01722029
C  0.33224523 0.57758211 -0.00301037
H  -0.20996444 1.53523868 0.01378400
H  1.43992098 0.57893163 0.01407264
6
MD Step 58
C  -0.33026542 -0.57039483 -0.00186023
H  0.15207813 -1.54666522 0.01546309
H  -1.40988632 -0.66066224 0.01502337
C  0.33283040 0.57841794 -0.00267325
H  -0.21398046 1.53555225 0.01161381
H  1.44122425 0.57617161 0.01192081
6
MD Step 59
C  -0.33039929 -0.57087121 -0.00145824
H  0.15307655 -1.54885588 0.01322185
H  -1.41355314 -0.66035603 0.01278245
C  0.33343247 0.57926842 -0.00232912
H  -0.21767543 1.53558739 0.00940084
H  1.44200847 0.57356312 0.00972515
6
MD Step 60
C  -0.33054553 -0.57138482 -0.00105320
H  0.15420016 -1.55084110 0.01096186
H  -1.41717706 -0.65981530 0.01052390
C  0.33404375 0.58012611 -0.00198240
H  -0.22099897 1.53535050 0.00717280
H  1.44229105 0.57114441 0.00751373
6
MD Step 61
C  -0.33070429 -0.57193284 -0.00064421
H  0.15541719 -1.55259918 0.00867863
H  -1.42069913 -0.65905122 0.00824276
C  0.33466143 0.58098851 -0.00163241
H  -0.22393775 1.53482207 0.00492486
H  1.44206634 0.56892070 0.00528202
6
MD Step 62
C  -0.33087717 -0.57251363 -0.00023219
H  0.15670679 -1.55410212 0.00637783
H  -1.42405385 -0.65806618 0.00594434
C  0.33528066 0.58185088 -0.00128009
H  -0.22647321 1.53399928 0.00266253
H  1.44134809 0.56690611 0.00303574
6
MD Step 63
C  -0.33106620 -0.57312579 0.00018111
H  0.15805351 -1.55532190 0.00406942
H  -1.42717617 -0.65685965 0.00363843
C  0.33589556 0.58270731 -0.00092704
H  -0.22858757 1.53289013 0.00039574
H  1.44016338 0.56511777 0.00078493
6
MD Step 64
C  -0.33126636 -0.57376082 0.00060086
H  0.15940428 -1.55627438 0.00172482
H  -1.43004594 -0.65547196 0.00129630
C  0.33650642 0.58355805 -0.00056858
H  -0.23030771 1.53146985 -0.00190544
H  1.43850863 0.56353241 -0.00150028
6
MD Step 65
C  -0.33148343 -0.57442065 0.00102071
H  0.16077272 -1.55691465 -0.00062001
H  -1.43258354 -0.65387893 -0.00104599
C  0.33710242 0.58439186 -0.00021051
H  -0.23159999 1.52978581 -0.00420466
H  1.43645473 0.56219054 -0.00378369
6
MD Step 66
C  -0.33171297 -0.57509714 0.00144437
H  0.16211708 -1.55726036 -0.00298584
H  -1.43477388 -0.65211549 -0.00340908
C  0.33768206 0.58520686 0.00015066
H  -0.23249385 1.52783410 -0.00652399
H  1.43402272 0.56107394 -0.00608751
6
MD Step 67
C  -0.33196026 -0.57579159 0.00186519
H  0.16345672 -1.55727468 -0.00533472
H  -1.43654960 -0.65015795 -0.00575469
C  0.33823384 0.58599079 0.00050884
H  -0.23296411 1.52567654 -0.00882542
H  1.43130088 0.56022214 -0.00837417
6
MD Step 68
C  -0.33222344 -0.57649828 0.00228339
H  0.16477383 -1.55696551 -0.00766783
H  -1.43789087 -0.64802354 -0.00808360
C  0.33875274 0.58673778 0.00086438
H  -0.23303035 1.52334106 -0.01111113
H  1.42834405 0.55963378 -0.01064626
6
MD Step 69
C  -0.33249718 -0.57720809 0.00270225
H  0.16603510 -1.55636362 -0.01000391
H  -1.43880381 -0.64574834 -0.01041429
C  0.33923675 0.58744478 0.00122055
H  -0.23273475 1.52084311 -0.01340151
H  1.42519458 0.55928823 -0.01292453
6
MD Step 70
C  -0.33278806 -0.57792371 0.00311259
H  0.16728169 -1.55543207 -0.01229011
H  -1.43923000 -0.64329646 -0.01269314
C  0.33967186 0.58809633 0.00156885
H  -0.23205121 1.51827566 -0.01564382
H  1.42197202 0.55923571 -0.01515713
6
MD Step 71
C  -0.33309255 -0.57863796 0.00351504
H  0.16850030 -1.55419588 -0.01453008
H  -1.43917681 -0.64069015 -0.01492333
C  0.34005380 0.58868656 0.00191012
H  -0.23101496 1.51567860 -0.01784320
H  1.41874105 0.55946808 -0.01734977
6
MD Step 72
C  -0.33340460 -0.57934134 0.00391236
H  0.16966757 -1.55269705 -0.01673987
H  -1.43867262 -0.63796482 -0.01712055
C  0.34038071 0.58921172 0.00224731
H  -0.22967724 1.51308268 -0.02001749
H  1.41555479 0.55996341 -0.01952079
6
MD Step 73
C  -0.33372306 -0.58002937 0.00430201
H  0.17079334 -1.55095057 -0.01890485
H  -1.43772282 -0.63512516 -0.01926958
C  0.34064597 0.58966294 0.00257824
H  -0.22806113 1.51055232 -0.02215336
H  1.41249705 0.56072947 -0.02165757
6
MD Step 74
C  -0.33404501 -0.58069606 0.00468295
H  0.17188116 -1.54898359 -0.02101887
H  -1.43634933 -0.63218468 -0.02136382
C  0.34084491 0.59003298 0.00290220
H  -0.22620052 1.50814493 -0.02424615
H  1.40964078 0.56176441 -0.02375605
6
MD Step 75
C  -0.33436559 -0.58133385 0.00505570
H  0.17292721 -1.54683589 -0.02308522
H  -1.43459117 -0.62916660 -0.02340627
C  0.34097509 0.59031652 0.00322003
H  -0.22414028 1.50590884 -0.02630081
H  1.40704520 0.56305588 -0.02582154
6
MD Step 76
C  -0.33467997 -0.58193551 0.00542055
H  0.17393116 -1.54454812 -0.02510560
H  -1.43249284 -0.62609245 -0.02539849
C  0.34103450 0.59050843 0.00353229
H  -0.22192432 1.50389319 -0.02832065
H  1.40476521 0.56459221 -0.02785757
6
MD Step 77
C  -0.33498784 -0.58249868 0.00577306
H  0.17492236 -1.54213468 -0.02705378
H  -1.43007713 -0.62295534 -0.02731372
C  0.34101724 0.59059935 0.00383480
H  -0.21956807 1.50217318 -0.03028059
H  1.40287632 0.56638905 -0.02983951
6
MD Step 78
C  -0.33528203 -0.58301466 0.00611543
H  0.17589208 -1.53965089 -0.02894283
H  -1.42741253 -0.61978788 -0.02916543
C  0.34092494 0.59058733 0.00413002
H  -0.21712547 1.50078079 -0.03219524
H  1.40140476 0.56842173 -0.03178157
6
MD Step 79
C  -0.33556339 -0.58348315 0.00644183
H  0.17688097 -1.53710412 -0.03073765
H  -1.42452412 -0.61657360 -0.03091804
C  0.34075206 0.59046307 0.00441209
H  -0.21459977 1.49979159 -0.03403023
H  1.40041458 0.57071330 -0.03364966
6
MD Step 80
C  -0.33582617 -0.58389786 0.00675282
H  0.17789199 -1.53454029 -0.03244139
H  -1.42148013 -0.61333426 -0.03257522
C  0.34050047 0.59022470 0.00468164
H  -0.21202979 1.49923613 -0.03578962
H  1.39991886 0.57324762 -0.03544713
6
MD Step 81
C  -0.33606274 -0.58425111 0.00705079
H  0.17891734 -1.53201569 -0.03406824
H  -1.41836334 -0.61010217 -0.03415215
C  0.34017494 0.58987336 0.00494113
H  -0.20946166 1.49912618 -0.03748823
H  1.39990663 0.57599676 -0.03718749
6
MD Step 82
C  -0.33626482 -0.58453510 0.00733878
H  0.17994496 -1.52958911 -0.03563654
H  -1.41526251 -0.60691315 -0.03566863
C  0.33978183 0.58941204 0.00519369
H  -0.20694120 1.49946068 -0.03914464
H  1.40035000 0.57892789 -0.03888756
6
MD Step 83
C  -0.33642704 -0.58474544 0.00761719
H  0.18097814 -1.52730073 -0.03714859
H  -1.41225030 -0.60378619 -0.03712825
C  0.33932569 0.58884230 0.00543963
H  -0.20449332 1.50024520 -0.04076087
H  1.40122512 0.58202348 -0.04054776
6
MD Step 84
C  -0.33654875 -0.58488290 0.00788223
H  0.18204537 -1.52516118 -0.03858055
H  -1.40937139 -0.60071311 -0.03850770
C  0.33880742 0.58816262 0.00567454
H  -0.20211144 1.50150163 -0.04231210
H  1.40252309 0.58529142 -0.04214247
6
MD Step 85
C  -0.33662373 -0.58494309 0.00813578
H  0.18313837 -1.52321279 -0.03994381
H  -1.40670305 -0.59772049 -0.03982030
C  0.33823458 0.58737880 0.00590015
H  -0.19981911 1.50320601 -0.04380859
H  1.40418885 0.58870333 -0.04367983
6
MD Step 86
C  -0.33665028 -0.58492656 0.00837590
H  0.18427107 -1.52146944 -0.04122580
H  -1.40429368 -0.59480999 -0.04105456
C  0.33761125 0.58649398 0.00611388
H  -0.19761060 1.50534816 -0.04523597
H  1.40618224 0.59225390 -0.04514428
6
MD Step 87
C  -0.33662470 -0.58483211 0.00860313
H  0.18543986 -1.51995580 -0.04242936
H  -1.40220111 -0.59199809 -0.04221509
C  0.33694462 0.58551524 0.00631579
H  -0.19549079 1.50789242 -0.04659498
H  1.40843981 0.59592132 -0.04653484
6
MD Step 88
C  -0.33654264 -0.58465811 0.00881925
H  0.18663068 -1.51869956 -0.04356548
H  -1.40048357 -0.58930865 -0.04331496
C  0.33624363 0.58445233 0.00650738
H  -0.19346823 1.51078573 -0.04789410
H  1.41088405 0.59967464 -0.04785800
6
MD Step 89
C  -0.33640027 -0.58440358 0.00902622
H  0.18782540 -1.51772457 -0.04464672
H  -1.39919151 -0.58676640 -0.04436894
C  0.33551771 0.58331642 0.00669044
H  -0.19154927 1.51396527 -0.04914304
H  1.41343203 0.60348037 -0.04912150
6
MD Step 90
C  -0.33620186 -0.58407563 0.00921941
H  0.18904587 -1.51700642 -0.04564300
H  -1.39832207 -0.58435267 -0.04534700
C  0.33476927 0.58211259 0.00685902
H  -0.18969466 1.51740398 -0.05030864
H  1.41604165 0.60734677 -0.05029246
6
MD Step 91
C  -0.33594798 -0.58367766 0.00939840
H  0.19028405 -1.51654284 -0.04655164
H  -1.39788893 -0.58207563 -0.04624759
C  0.33400541 0.58085146 0.00701214
H  -0.18789025 1.52104170 -0.05138503
H  1.41864282 0.61125383 -0.05136429
6
MD Step 92
C  -0.33564182 -0.58321558 0.00956124
H  0.19153964 -1.51631637 -0.04735982
H  -1.39788451 -0.57993273 -0.04705821
C  0.33323150 0.57954271 0.00714695
H  -0.18611032 1.52482417 -0.05235619
H  1.42117662 0.61519092 -0.05232105
6
MD Step 93
C  -0.33528349 -0.58269202 0.00970962
H  0.19278604 -1.51632903 -0.04807899
H  -1.39831438 -0.57794501 -0.04779153
C  0.33245692 0.57820069 0.00726506
H  -0.18435260 1.52867025 -0.05323023
H  1.42356239 0.61912261 -0.05317003
6
MD Step 94
C  -0.33487530 -0.58211165 0.00984404
H  0.19400249 -1.51657072 -0.04871280
H  -1.39916537 -0.57612514 -0.04845177
C  0.33168957 0.57683888 0.00736671
H  -0.18260713 1.53250552 -0.05400766
H  1.42573126 0.62302079 -0.05391147
6
MD Step 95
C  -0.33442204 -0.58148132 0.00996352
H  0.19517605 -1.51701807 -0.04925559
H  -1.40040453 -0.57447581 -0.04903301
C  0.33093555 0.57546942 0.00745050
H  -0.18085547 1.53626535 -0.05467993
H  1.42762900 0.62686656 -0.05453737
6
MD Step 96
C  -0.33392866 -0.58080785 0.01006765
H  0.19628889 -1.51764813 -0.04970541
H  -1.40199322 -0.57300272 -0.04953291
C  0.33020128 0.57410513 0.00751576
H  -0.17908422 1.53988331 -0.05524245
H  1.42920403 0.63063734 -0.05504368
6
MD Step 97
C  -0.33340209 -0.58009974 0.01015485
H  0.19732999 -1.51842774 -0.05005284
H  -1.40387716 -0.57170335 -0.04994107
C  0.32949158 0.57275746 0.00756057
H  -0.17727443 1.54330363 -0.05568362
H  1.43041938 0.63431829 -0.05541984
6
MD Step 98
C  -0.33285505 -0.57937117 0.01021892
H  0.19831950 -1.51929045 -0.05025673
H  -1.40596417 -0.57054315 -0.05021336
C  0.32880554 0.57143236 0.00757711
H  -0.17537828 1.54650616 -0.05596127
H  1.43127705 0.63792654 -0.05562665
6
MD Step 99
C  -0.33228734 -0.57862299 0.01026559
H  0.19919748 -1.52024906 -0.05035709
H  -1.40823817 -0.56956678 -0.05039065
C  0.32815544 0.57014876 0.00757269
H  -0.17343026 1.54939562 -0.05611300
H  1.43170671 0.64139929 -0.05570069
6
MD Step 100
C  -0.33170818 -0.57786544 0.01029243
H  0.19995965 -1.52126088 -0.05033852
H  -1.41062473 -0.56876330 -0.05045548
C  0.32754378 0.56891587 0.00754443
H  -0.17141323 1.55193776 -0.05612273
H  1.43170147 0.64472971 -0.05562774
6
MD Step 101
C  -0.33112101 -0.57710267 0.01030239
H  0.20056631 -1.52231965 -0.05022258
H  -1.41308416 -0.56815700 -0.05042896
C  0.32697867 0.56774823 0.00749637
H  -0.16934909 1.55406887 -0.05601070
H  1.43122709 0.64787556 -0.05542823
6
MD Step 102
C  -0.33053628 -0.57634584 0.01029219
H  0.20102142 -1.52337757 -0.04998826
H  -1.41553409 -0.56772927 -0.05028775
C  0.32646051 0.56665250 0.00742477
H  -0.16722111 1.55577485 -0.05575627
H  1.43030072 0.65083817 -0.05508357
6
MD Step 103
C  -0.32996760 -0.57560924 0.01025579
H  0.20135024 -1.52436875 -0.04959496
H  -1.41787406 -0.56744128 -0.04998803
C  0.32598577 0.56563119 0.00732231
H  -0.16499656 1.55706885 -0.05532043
H  1.42896794 0.65363988 -0.05455771
6
MD Step 104
C  -0.32942054 -0.57489885 0.01019414
H  0.20153296 -1.52527646 -0.04904999
H  -1.42005412 -0.56730004 -0.04953591
C  0.32555831 0.56469363 0.00719054
H  -0.16269247 1.55792505 -0.05471099
H  1.42723604 0.65625716 -0.05385942
6
MD Step 105
C  -0.32889613 -0.57421596 0.01011201
H  0.20152660 -1.52611198 -0.04838684
H  -1.42205418 -0.56733691 -0.04896463
C  0.32518570 0.56385227 0.00703588
H  -0.16035425 1.55830051 -0.05396126
H  1.42509550 0.65864252 -0.05302203
6
MD Step 106
C  -0.32839516 -0.57356146 0.01001409
H  0.20129124 -1.52688868 -0.04763877
H  -1.42385827 -0.56758163 -0.04830726
C  0.32487472 0.56311821 0.00686479
H  -0.15802969 1.55816152 -0.05310446
H  1.42254634 0.66075082 -0.05207882
6
MD Step 107
C  -0.32792604 -0.57294404 0.00989790
H  0.20083904 -1.52757350 -0.04678914
H  -1.42540614 -0.56801410 -0.04754528
C  0.32462304 0.56249313 0.00667457
H  -0.15572091 1.55753240 -0.05212634
H  1.41964668 0.66258848 -0.05101731
6
MD Step 108
C  -0.32749340 -0.57236836 0.00976398
H  0.20016468 -1.52815667 -0.04584214
H  -1.42666368 -0.56863321 -0.04668188
C  0.32443103 0.56198068 0.00646638
H  -0.15345273 1.55642612 -0.05103291
H  1.41644307 0.66414371 -0.04984450
6
MD Step 109
C  -0.32710375 -0.57184103 0.00961066
H  0.19928102 -1.52861656 -0.04478671
H  -1.42758802 -0.56942177 -0.04570468
C  0.32429571 0.56158062 0.00623863
H  -0.15123754 1.55487951 -0.04981584
H  1.41300516 0.66542216 -0.04855337
6
MD Step 110
C  -0.32676386 -0.57136884 0.00943553
H  0.19820938 -1.52892964 -0.04360644
H  -1.42813806 -0.57035631 -0.04459607
C  0.32421253 0.56129045 0.00598878
H  -0.14908466 1.55294318 -0.04846200
H  1.40941504 0.66643713 -0.04713208
6
MD Step 111
C  -0.32647851 -0.57095653 0.00923740
H  0.19696631 -1.52908385 -0.04229298
H  -1.42828821 -0.57142019 -0.04334689
C  0.32417758 0.56110761 0.00571577
H  -0.14701309 1.55066787 -0.04696619
H  1.40575287 0.66719624 -0.04557635
6
MD Step 112
C  -0.32624660 -0.57060275 0.00901981
H  0.19553990 -1.52910227 -0.04087013
H  -1.42805245 -0.57262697 -0.04198106
C  0.32419179 0.56103339 0.00542435
H  -0.14507436 1.54808040 -0.04535404
H  1.40207208 0.66767764 -0.04391181
6
MD Step 113
C  -0.32606777 -0.57030690 0.00878497
H  0.19393011 -1.52900259 -0.03935275
H  -1.42744371 -0.57398056 -0.04051349
C  0.32425404 0.56106635 0.00511768
H  -0.14331238 1.54522325 -0.04364260
H  1.39843846 0.66787053 -0.04215556
6
MD Step 114
C  -0.32594654 -0.57007342 0.00853002
H  0.19217415 -1.52877167 -0.03772079
H  -1.42644832 -0.57545023 -0.03892376
C  0.32435692 0.56119818 0.00479256
H  -0.14173791 1.54217902 -0.04181573
H  1.39495399 0.66780054 -0.04029192
6
MD Step 115
C  -0.32588173 -0.56990091 0.00825665
H  0.19028149 -1.52842985 -0.03598513
H  -1.42509083 -0.57703444 -0.03722309
C  0.32449792 0.56142447 0.00445135
H  -0.14039170 1.53900498 -0.03988669
H  1.39169060 0.66746477 -0.03833389
6
MD Step 116
C  -0.32587388 -0.56978979 0.00796430
H  0.18827917 -1.52798545 -0.03414133
H  -1.42338846 -0.57871620 -0.03540733
C  0.32467173 0.56173741 0.00409361
H  -0.13929916 1.53577698 -0.03785406
H  1.38873330 0.66687709 -0.03627978
6
MD Step 117
C  -0.32591963 -0.56973656 0.00765541
H  0.18617691 -1.52746895 -0.03220479
H  -1.42138534 -0.58049722 -0.03349261
C  0.32487636 0.56213162 0.00372243
H  -0.13850368 1.53255360 -0.03573518
H  1.38614380 0.66603330 -0.03414614
6
MD Step 118
C  -0.32601935 -0.56974165 0.00732826
H  0.18401338 -1.52688615 -0.03016349
H  -1.41910554 -0.58235210 -0.03146742
C  0.32510525 0.56259663 0.00333593
H  -0.13802005 1.52942089 -0.03352083
H  1.38400471 0.66495760 -0.03192315
6
MD Step 119
C  -0.32617225 -0.56980445 0.00698162
H  0.18182581 -1.52624779 -0.02800840
H  -1.41658277 -0.58425807 -0.02932344
C  0.32535258 0.56312211 0.00293273
H  -0.13786320 1.52646061 -0.03120441
H  1.38238738 0.66367224 -0.02960337
6
MD Step 120
C  -0.32637105 -0.56991785 0.00661974
H  0.17961685 -1.52560174 -0.02576674
H  -1.41389255 -0.58622751 -0.02708905
C  0.32561897 0.56370345 0.00251777
H  -0.13807974 1.52371580 -0.02881378
H  1.38131720 0.66216450 -0.02721334
6
MD Step 121
C  -0.32661511 -0.57008175 0.00624012
H  0.17743387 -1.52495293 -0.02342120
H  -1.41107155 -0.58822925 -0.02474770
C  0.32589799 0.56432879 0.00208809
H  -0.13866845 1.52126824 -0.02633361
H  1.38085141 0.66046635 -0.02473679
6
MD Step 122
C  -0.32689070 -0.57028282 0.00585220
H  0.17524790 -1.52438291 -0.02103191
H  -1.40823710 -0.59030792 -0.02236092
C  0.32619669 0.56499922 0.00165426
H  -0.13969857 1.51911667 -0.02382302
H  1.38095769 0.65853364 -0.02223133
6
MD Step 123
C  -0.32719723 -0.57052134 0.00545257
H  0.17311163 -1.52389100 -0.01857628
H  -1.40542688 -0.59242706 -0.01990685
C  0.32650874 0.56570263 0.00121229
H  -0.14115252 1.51733319 -0.02126070
H  1.38167184 0.65640476 -0.01967477
6
MD Step 124
C  -0.32752847 -0.57079205 0.00504293
H  0.17104470 -1.52350756 -0.01606443
H  -1.40271201 -0.59458241 -0.01739651
C  0.32683381 0.56643287 0.00076387
H  -0.14303825 1.51594791 -0.01865672
H  1.38298322 0.65408614 -0.01707631
6
MD Step 125
C  -0.32787875 -0.57109032 0.00462433
H  0.16906969 -1.52325696 -0.01350231
H  -1.40015900 -0.59676575 -0.01483658
C  0.32717137 0.56718379 0.00030993
H  -0.14535267 1.51498421 -0.01601690
H  1.38487121 0.65158881 -0.01444105