6
MD Step 0
C  -0.33763715 -0.58748864 0.00000000
H  0.19552659 -1.51519357 0.00000000
H  -1.40763715 -0.58748864 0.00000000
C  0.33763715 0.58748865 0.00000000
H  -0.19552659 1.51519357 0.00000000
H  1.40763715 0.58748865 0.00000000
6
MD Step 1
C  -0.33800634 -0.58783607 -0.00039441
H  0.19788994 -1.51298552 0.00234774
H  -1.40541556 -0.58520629 0.00235194
C  0.33721672 0.58704633 -0.00039438
H  -0.19318328 1.51768843 0.00234765
H  1.41011812 0.58991393 0.00235185
6
MD Step 2
C  -0.33831855 -0.58808607 -0.00078802
H  0.20027181 -1.51109082 0.00469076
H  -1.40351889 -0.58307762 0.00469923
C  0.33674959 0.58651300 -0.00078794
H  -0.19086098 1.52044624 0.00469045
H  1.41280384 0.59246695 0.00469874
6
MD Step 3
C  -0.33856823 -0.58823580 -0.00117879
H  0.20265869 -1.50953203 0.00701669
H  -1.40200385 -0.58112186 0.00702976
C  0.33624286 0.58589473 -0.00117853
H  -0.18856466 1.52342466 0.00701571
H  1.41561899 0.59512556 0.00702771
6
MD Step 4
C  -0.33875776 -0.58829065 -0.00157175
H  0.20507612 -1.50828209 0.00935553
H  -1.40087514 -0.57931488 0.00937395
C  0.33569683 0.58519143 -0.00157108
H  -0.18625482 1.52661836 0.00935282
H  1.41852799 0.59790901 0.00936775
6
MD Step 5
C  -0.33888045 -0.58824723 -0.00196211
H  0.20748772 -1.50736569 0.01167848
H  -1.40018602 -0.57769041 0.01170360
C  0.33512184 0.58441380 -0.00196061
H  -0.18394905 1.52995850 0.01167227
H  1.42143504 0.60077685 0.01168880
6
MD Step 6
C  -0.33893578 -0.58810843 -0.00235025
H  0.20988497 -1.50676955 0.01398772
H  -1.39994710 -0.57625024 0.01402154
C  0.33452313 0.58356810 -0.00234729
H  -0.18163276 1.53340367 0.01397529
H  1.42427605 0.60371882 0.01399151
6
MD Step 7
C  -0.33892014 -0.58787411 -0.00273250
H  0.21223228 -1.50649811 0.01626109
H  -1.40018107 -0.57501941 0.01630642
C  0.33390999 0.58266534 -0.00272722
H  -0.17931498 1.53688566 0.01623869
H  1.42696487 0.60669968 0.01625204
6
MD Step 8
C  -0.33883233 -0.58754643 -0.00310646
H  0.21449943 -1.50654186 0.01848416
H  -1.40089005 -0.57401413 0.01854460
C  0.33329025 0.58171577 -0.00309779
H  -0.17699684 1.54034277 0.01844696
H  1.42942712 0.60969154 0.01845425
6
MD Step 9
C  -0.33867527 -0.58713147 -0.00347274
H  0.21667220 -1.50686773 0.02066049
H  -1.40204541 -0.57323144 0.02074034
C  0.33266851 0.58072697 -0.00345938
H  -0.17466182 1.54373121 0.02060254
H  1.43161183 0.61268420 0.02059998
6
MD Step 10
C  -0.33845484 -0.58663807 -0.00383386
H  0.21874627 -1.50742663 0.02280496
H  -1.40359529 -0.57265591 0.02290903
C  0.33204719 0.57970493 -0.00381431
H  -0.17228290 1.54701942 0.02271918
H  1.43348563 0.61567865 0.02270259
6
MD Step 11
C  -0.33817031 -0.58606818 -0.00418470
H  0.22067136 -1.50821096 0.02488724
H  -1.40552262 -0.57231605 0.02502098
C  0.33143601 0.57866336 -0.00415734
H  -0.16987938 1.55013245 0.02476562
H  1.43497676 0.61863068 0.02473025
6
MD Step 12
C  -0.33784027 -0.58544283 -0.00453868
H  0.22250667 -1.50910046 0.02698695
H  -1.40769105 -0.57212943 0.02715545
C  0.33082584 0.57759760 -0.00450161
H  -0.16736251 1.55310793 0.02682026
H  1.43613107 0.62160602 0.02676166
6
MD Step 13
C  -0.33746474 -0.58476418 -0.00488976
H  0.22419676 -1.51008847 0.02906858
H  -1.41007316 -0.57212746 0.02927715
C  0.33022662 0.57652226 -0.00484106
H  -0.16476027 1.55587148 0.02884680
H  1.43688627 0.62455537 0.02876026
6
MD Step 14
C  -0.33704019 -0.58403061 -0.00522777
H  0.22566245 -1.51119229 0.03107195
H  -1.41266116 -0.57236495 0.03132635
C  0.32965205 0.57545595 -0.00516560
H  -0.16212731 1.55832806 0.03078464
H  1.43716331 0.62740497 0.03066485
6
MD Step 15
C  -0.33657552 -0.58325266 -0.00555442
H  0.22689651 -1.51235850 0.03300765
H  -1.41537223 -0.57282487 0.03331312
C  0.32910350 0.57440515 -0.00547695
H  -0.15945029 1.56045824 0.03264373
H  1.43696281 0.63015229 0.03248570
6
MD Step 16
C  -0.33607575 -0.58243675 -0.00586710
H  0.22786798 -1.51356004 0.03486069
H  -1.41814687 -0.57351444 0.03522205
C  0.32858618 0.57338023 -0.00577262
H  -0.15674394 1.56222249 0.03440882
H  1.43626885 0.63276983 0.03420765
6
MD Step 17
C  -0.33554925 -0.58159244 -0.00616628
H  0.22856637 -1.51475316 0.03663445
H  -1.42090665 -0.57442137 0.03705559
C  0.32810170 0.57238802 -0.00605319
H  -0.15400749 1.56360549 0.03608308
H  1.43509295 0.63524913 0.03583445
6
MD Step 18
C  -0.33500136 -0.58072605 -0.00644924
H  0.22896498 -1.51591520 0.03831349
H  -1.42359312 -0.57555090 0.03879757
C  0.32765435 0.57143797 -0.00631621
H  -0.15126170 1.56457936 0.03765124
H  1.43343697 0.63756377 0.03735119
6
MD Step 19
C  -0.33443985 -0.57984618 -0.00671569
H  0.22905424 -1.51701213 0.03989675
H  -1.42613617 -0.57689290 0.04044571
C  0.32724549 0.57053649 -0.00656162
H  -0.14851595 1.56513698 0.03911250
H  1.43132605 0.63970254 0.03875786
6
MD Step 20
C  -0.33386792 -0.57895669 -0.00696075
H  0.22880097 -1.51804013 0.04135637
H  -1.42849642 -0.57846275 0.04197155
C  0.32688043 0.56969380 -0.00678505
H  -0.14580902 1.56525123 0.04043978
H  1.42876755 0.64162853 0.04002763
6
MD Step 21
C  -0.33329434 -0.57806693 -0.00718547
H  0.22820977 -1.51896465 0.04269924
H  -1.43060484 -0.58024036 0.04338045
C  0.32655812 0.56891355 -0.00698784
H  -0.14314808 1.56493639 0.04164061
H  1.42581217 0.64334058 0.04116921
6
MD Step 22
C  -0.33273280 -0.57719109 -0.00739631
H  0.22731999 -1.51972415 0.04396384
H  -1.43236727 -0.58217355 0.04470814
C  0.32627166 0.56819336 -0.00717647
H  -0.14051179 1.56424480 0.04275387
H  1.42255017 0.64487009 0.04222386
6
MD Step 23
C  -0.33218215 -0.57632836 -0.00758489
H  0.22608815 -1.52034812 0.04510196
H  -1.43378352 -0.58429535 0.04590652
C  0.32602824 0.56754450 -0.00734344
H  -0.13796713 1.56314898 0.04373306
H  1.41899270 0.64616317 0.04314484
6
MD Step 24
C  -0.33165378 -0.57549047 -0.00775632
H  0.22455236 -1.52079289 0.04614399
H  -1.43478313 -0.58656038 0.04700343
C  0.32582136 0.56696431 -0.00749394
H  -0.13550574 1.56170586 0.04460940
H  1.41523578 0.64724538 0.04396573
6
MD Step 25
C  -0.33115267 -0.57468268 -0.00790968
H  0.22271923 -1.52105492 0.04708520
H  -1.43533944 -0.58895764 0.04799288
C  0.32565002 0.56645518 -0.00762756
H  -0.13315611 1.55994331 0.04537962
H  1.41134602 0.64810840 0.04468450
6
MD Step 26
C  -0.33068607 -0.57391250 -0.00804716
H  0.22061636 -1.52111833 0.04793869
H  -1.43541749 -0.59145830 0.04888601
C  0.32550986 0.56601571 -0.00774672
H  -0.13093100 1.55791223 0.04605810
H  1.40741199 0.64876270 0.04531751
6
MD Step 27
C  -0.33025038 -0.57317642 -0.00816030
H  0.21821358 -1.52103369 0.04865609
H  -1.43505312 -0.59409423 0.04963523
C  0.32540655 0.56565395 -0.00784405
H  -0.12890533 1.55560724 0.04659874
H  1.40346414 0.64915863 0.04581817
6
MD Step 28
C  -0.32984749 -0.57247647 -0.00824709
H  0.21552090 -1.52081949 0.04922641
H  -1.43425435 -0.59686021 0.05022910
C  0.32533923 0.56537095 -0.00791819
H  -0.12711821 1.55306452 0.04699242
H  1.39957220 0.64928488 0.04617805
6
MD Step 29
C  -0.32948687 -0.57182234 -0.00831430
H  0.21260114 -1.52044921 0.04968888
H  -1.43298848 -0.59970130 0.05070431
C  0.32529845 0.56515866 -0.00797578
H  -0.12555983 1.55037387 0.04727958
H  1.39585647 0.64918126 0.04644032
6
MD Step 30
C  -0.32917463 -0.57122037 -0.00836607
H  0.20950441 -1.51991651 0.05006732
H  -1.43124798 -0.60257812 0.05108278
C  0.32527730 0.56501102 -0.00802092
H  -0.12423578 1.54761222 0.04748545
H  1.39242009 0.64887313 0.04663230
6
MD Step 31
C  -0.32890472 -0.57066461 -0.00839452
H  0.20621495 -1.51928798 0.05031679
H  -1.42910359 -0.60551976 0.05132125
C  0.32528052 0.56493284 -0.00804682
H  -0.12321910 1.54478948 0.04756733
H  1.38929380 0.64831814 0.04671010
6
MD Step 32
C  -0.32867643 -0.57015466 -0.00839827
H  0.20275606 -1.51859718 0.05042963
H  -1.42659811 -0.60851886 0.05141221
C  0.32530677 0.56492231 -0.00805259
H  -0.12254498 1.54195302 0.04751924
H  1.38653992 0.64751180 0.04666786
6
MD Step 33
C  -0.32848795 -0.56968908 -0.00837558
H  0.19915055 -1.51788326 0.05039592
H  -1.42378503 -0.61157068 0.05134636
C  0.32535537 0.56497764 -0.00803694
H  -0.12224917 1.53914735 0.04733282
H  1.38421156 0.64644824 0.04649695
6
MD Step 34
C  -0.32834147 -0.56927059 -0.00832973
H  0.19545091 -1.51715962 0.05023434
H  -1.42069713 -0.61464263 0.05114197
C  0.32542116 0.56509200 -0.00800305
H  -0.12233681 1.53644362 0.04702791
H  1.38238157 0.64515076 0.04621772
6
MD Step 35
C  -0.32824539 -0.56890834 -0.00827144
H  0.19175188 -1.51640037 0.05000508
H  -1.41733314 -0.61766141 0.05085700
C  0.32549251 0.56525158 -0.00796054
H  -0.12276876 1.53395104 0.04666539
H  1.38115339 0.64368473 0.04589329
6
MD Step 36
C  -0.32819145 -0.56859496 -0.00819455
H  0.18805362 -1.51567636 0.04967295
H  -1.41379424 -0.62064949 0.05045875
C  0.32557442 0.56545856 -0.00790394
H  -0.12359678 1.53167863 0.04621113
H  1.38052189 0.64202068 0.04548722
6
MD Step 37
C  -0.32817236 -0.56832431 -0.00809463
H  0.18436594 -1.51504930 0.04921259
H  -1.41017761 -0.62362041 0.04992419
C  0.32567088 0.56571365 -0.00782928
H  -0.12485855 1.52963910 0.04564043
H  1.38047785 0.64013941 0.04497260
6
MD Step 38
C  -0.32818522 -0.56809493 -0.00797255
H  0.18072744 -1.51455091 0.04862820
H  -1.40655489 -0.62655898 0.04925871
C  0.32578151 0.56601288 -0.00773716
H  -0.12655752 1.52786784 0.04495768
H  1.38102771 0.63805181 0.04435268
6
MD Step 39
C  -0.32822328 -0.56790172 -0.00782551
H  0.17715527 -1.51423174 0.04790372
H  -1.40302042 -0.62947098 0.04844855
C  0.32590988 0.56635601 -0.00762495
H  -0.12871206 1.52637227 0.04414672
H  1.38214373 0.63574919 0.04360909
6
MD Step 40
C  -0.32828737 -0.56774744 -0.00765917
H  0.17371184 -1.51409264 0.04707021
H  -1.39962175 -0.63231564 0.04752533
C  0.32605220 0.56673526 -0.00749739
H  -0.13128782 1.52519873 0.04323838
H  1.38383212 0.63327079 0.04277209
6
MD Step 41
C  -0.32837618 -0.56763291 -0.00747722
H  0.17044594 -1.51414254 0.04614733
H  -1.39641691 -0.63506421 0.04650988
C  0.32620702 0.56714518 -0.00735735
H  -0.13425582 1.52437332 0.04225194
H  1.38607459 0.63064529 0.04185991
6
MD Step 42
C  -0.32848401 -0.56755479 -0.00727878
H  0.16737844 -1.51441164 0.04512963
H  -1.39348672 -0.63771388 0.04539889
C  0.32637755 0.56758509 -0.00720373
H  -0.13760634 1.52388760 0.04118112
H  1.38881519 0.62787688 0.04086433
6
MD Step 43
C  -0.32860823 -0.56751296 -0.00706631
H  0.16454527 -1.51490698 0.04402996
H  -1.39088913 -0.64024405 0.04420675
C  0.32656422 0.56805170 -0.00703829
H  -0.14130533 1.52374245 0.04003799
H  1.39200561 0.62498898 0.03979612
6
MD Step 44
C  -0.32874644 -0.56750761 -0.00684237
H  0.16197932 -1.51562971 0.04286172
H  -1.38867533 -0.64263411 0.04294834
C  0.32676756 0.56854208 -0.00686286
H  -0.14531255 1.52393060 0.03883517
H  1.39558898 0.62200641 0.03866674
6
MD Step 45
C  -0.32888952 -0.56753231 -0.00660216
H  0.15966861 -1.51661632 0.04159759
H  -1.38692970 -0.64490519 0.04159871
C  0.32699500 0.56906068 -0.00667284
H  -0.14962367 1.52439555 0.03754374
H  1.39945988 0.61891389 0.03744532
6
MD Step 46
C  -0.32903191 -0.56758412 -0.00634423
H  0.15761570 -1.51787823 0.04022900
H  -1.38570771 -0.64705994 0.04015091
C  0.32725077 0.56960909 -0.00646661
H  -0.15421097 1.52509270 0.03615380
H  1.40352709 0.61571584 0.03612068
6
MD Step 47
C  -0.32917393 -0.56766571 -0.00607273
H  0.15585017 -1.51938880 0.03877861
H  -1.38502145 -0.64906958 0.03862832
C  0.32753360 0.57018382 -0.00624755
H  -0.15901115 1.52600338 0.03468739
H  1.40772871 0.61244911 0.03471452
6
MD Step 48
C  -0.32931595 -0.56777956 -0.00579121
H  0.15439386 -1.52111848 0.03726576
H  -1.38487385 -0.65090891 0.03705086
C  0.32784251 0.57078211 -0.00601855
H  -0.16396109 1.52710091 0.03316342
H  1.41199869 0.60914798 0.03324548
6
MD Step 49
C  -0.32945634 -0.56792588 -0.00550049
H  0.15324900 -1.52304724 0.03569469
H  -1.38527050 -0.65256850 0.03542328
C  0.32817873 0.57140388 -0.00578014
H  -0.16901069 1.52833971 0.03158542
H  1.41625633 0.60583209 0.03171684
6
MD Step 50
C  -0.32959221 -0.56810327 -0.00519931
H  0.15240239 -1.52516098 0.03405849
H  -1.38621539 -0.65405064 0.03373903
C  0.32854495 0.57205096 -0.00553109
H  -0.17411970 1.52966064 0.02994567
H  1.42041188 0.60251024 0.03012065
6
MD Step 51
C  -0.32972019 -0.56830947 -0.00488527
H  0.15183027 -1.52744736 0.03234382
H  -1.38770620 -0.65536465 0.03198484
C  0.32894450 0.57272619 -0.00526922
H  -0.17925394 1.53099710 0.02822991
H  1.42437306 0.59918506 0.02844265
6
MD Step 52
C  -0.32983911 -0.56854384 -0.00455746
H  0.15151394 -1.52988101 0.03054608
H  -1.38971919 -0.65651143 0.03015577
C  0.32937871 0.57343075 -0.00499377
H  -0.18437063 1.53229174 0.02643298
H  1.42806203 0.59586811 0.02667793
6
MD Step 53
C  -0.32995336 -0.56881075 -0.00422022
H  0.15146036 -1.53240389 0.02868940
H  -1.39218974 -0.65746291 0.02827520
C  0.32984351 0.57416056 -0.00470860
H  -0.18939868 1.53351816 0.02457963
H  1.43143710 0.59260010 0.02485183
6
MD Step 54
C  -0.33005705 -0.56910397 -0.00386648
H  0.15161035 -1.53501914 0.02673540
H  -1.39510685 -0.65825576 0.02630416
C  0.33034484 0.57492201 -0.00440763
H  -0.19433283 1.53458873 0.02263005
H  1.43440002 0.58935827 0.02292487
6
MD Step 55
C  -0.33016090 -0.56943302 -0.00350608
H  0.15199650 -1.53763331 0.02473898
H  -1.39835571 -0.65883187 0.02429644
C  0.33087235 0.57570497 -0.00409974
H  -0.19907484 1.53551447 0.02064105
H  1.43695638 0.58621395 0.02095466
6
MD Step 56
C  -0.33026308 -0.56979470 -0.00313542
H  0.15257445 -1.54022794 0.02268094
H  -1.40189070 -0.65921005 0.02223191
C  0.33142768 0.57651172 -0.00378195
H  -0.20360545 1.53623492 0.01859277
H  1.43904432 0.58316287 0.01892191
6
MD Step 57
C  -0.33037248 -0.57019586 -0.00276189
H  0.15335979 -1.54272305 0.02060286
H  -1.40559981 -0.65934798 0.02015112
C  0.33200169 0.57733356 -0.00346106
H  -0.20784673 1.53675635 0.01652835
H  1.44067303 0.58026156 0.01687046
6
MD Step 58
C  -0.33048993 -0.57063507 -0.00238443
H  0.15431988 -1.54508769 0.01849963
H  -1.40941653 -0.65925257 0.01804807
C  0.33259270 0.57816942 -0.00313636
H  -0.21177262 1.53704245 0.01444257
H  1.44181255 0.57751831 0.01479563
6
MD Step 59
C  -0.33062171 -0.57111592 -0.00200777
H  0.15545378 -1.54726072 0.01639801
H  -1.41324168 -0.65889955 0.01594869
C  0.33319323 0.57901223 -0.00281227
H  -0.21532875 1.53709498 0.01236323
H  1.44247440 0.57497262 0.01272578
6
MD Step 60
C  -0.33076087 -0.57162872 -0.00162309
H  0.15668429 -1.54926072 0.01424940
H  -1.41705437 -0.65834337 0.01380368
C  0.33380810 0.57986745 -0.00248100
H  -0.21854259 1.53684462 0.01024014
H  1.44260177 0.57258647 0.01061116
6
MD Step 61
C  -0.33091103 -0.57217388 -0.00123275
H  0.15799753 -1.55104619 0.01206759
H  -1.42077261 -0.65757618 0.01162625
C  0.33443123 0.58072931 -0.00214486
H  -0.22138274 1.53629186 0.00808748
H  1.44221099 0.57038377 0.00846636
6
MD Step 62
C  -0.33107433 -0.57275012 -0.00083791
H  0.15937326 -1.55258657 0.00985941
H  -1.42432524 -0.65659873 0.00942278
C  0.33505732 0.58159272 -0.00180500
H  -0.22383000 1.53543655 0.00591221
H  1.44132058 0.56838011 0.00629865
6
MD Step 63
C  -0.33124895 -0.57335209 -0.00043595
H  0.16077098 -1.55387704 0.00761059
H  -1.42766740 -0.65543485 0.00717871
C  0.33568429 0.58245579 -0.00145914
H  -0.22589197 1.53426353 0.00369939
H  1.43993662 0.56656840 0.00409330
6
MD Step 64
C  -0.33143950 -0.57398061 -0.00003132
H  0.16219149 -1.55487711 0.00534654
H  -1.43071967 -0.65406929 0.00491925
C  0.33630309 0.58330936 -0.00111142
H  -0.22754105 1.53280454 0.00147482
H  1.43811464 0.56498021 0.00187622
6
MD Step 65
C  -0.33164623 -0.57463206 0.00037565
H  0.16361386 -1.55557469 0.00306946
H  -1.43343285 -0.65251186 0.00264660
C  0.33690827 0.58414782 -0.00076215
H  -0.22877857 1.53107418 -0.00075969
H  1.43589492 0.56362227 -0.00035078
6
MD Step 66
C  -0.33187044 -0.57530384 0.00078301
H  0.16502794 -1.55595375 0.00079046
H  -1.43575614 -0.65076462 0.00037196
C  0.33749274 0.58496370 -0.00041310
H  -0.22960203 1.52910234 -0.00299329
H  1.43333466 0.56250879 -0.00257698
6
MD Step 67
C  -0.33210527 -0.57598525 0.00119676
H  0.16638042 -1.55604893 -0.00152421
H  -1.43769206 -0.64887654 -0.00193822
C  0.33805682 0.58575687 -0.00005865
H  -0.23005970 1.52687940 -0.00526136
H  1.43045249 0.56160720 -0.00483796
6
MD Step 68
C  -0.33235986 -0.57668137 0.00160605
H  0.16771645 -1.55580303 -0.00381277
H  -1.43915417 -0.64680041 -0.00422179
C  0.33858463 0.58651057 0.00029121
H  -0.23010765 1.52449851 -0.00750151
H  1.42737090 0.56097990 -0.00707173
6
MD Step 69
C  -0.33262980 -0.57738393 0.00201345
H  0.16900664 -1.55524133 -0.00608973
H  -1.44014204 -0.64456763 -0.00649288
C  0.33907320 0.58722089 0.00063901
H  -0.22978415 1.52198069 -0.00972959
H  1.42413977 0.56061081 -0.00929459
6
MD Step 70
C  -0.33291213 -0.57808624 0.00241952
H  0.17023540 -1.55438269 -0.00835834
H  -1.44065252 -0.64219899 -0.00875431
C  0.33951779 0.58788185 0.00098550
H  -0.22912037 1.51936312 -0.01195012
H  1.42082427 0.56049381 -0.01151154
6
MD Step 71
C  -0.33321025 -0.57878796 0.00281799
H  0.17142923 -1.55321085 -0.01058247
H  -1.44065128 -0.63967601 -0.01096932
C  0.33990723 0.58848068 0.00132492
H  -0.22811146 1.51672701 -0.01412750
H  1.41753201 0.56066109 -0.01368772
6
MD Step 72
C  -0.33351522 -0.57947677 0.00321460
H  0.17254724 -1.55178433 -0.01279542
H  -1.44018311 -0.63705122 -0.01317085
C  0.34024242 0.58901648 0.00166305
H  -0.22682629 1.51408654 -0.01629705
H  1.41430072 0.56107362 -0.01585891
6
MD Step 73
C  -0.33382351 -0.58014590 0.00360931
H  0.17358470 -1.55013178 -0.01499695
H  -1.43926725 -0.63434351 -0.01535821
C  0.34051901 0.58948273 0.00200012
H  -0.22530262 1.51149234 -0.01846001
H  1.41120133 0.56172496 -0.01802693
6
MD Step 74
C  -0.33413922 -0.58079640 0.00399398
H  0.17458647 -1.54823798 -0.01713977
H  -1.43788352 -0.63152437 -0.01748335
C  0.34072530 0.58986514 0.00232853
H  -0.22353271 1.50904401 -0.02056993
H  1.40834985 0.56265494 -0.02014620
6
MD Step 75
C  -0.33446282 -0.58142603 0.00436385
H  0.17558010 -1.54611067 -0.01919597
H  -1.43603971 -0.62858513 -0.01951773
C  0.34085354 0.59015304 0.00264390
H  -0.22152979 1.50682163 -0.02260011
H  1.40583735 0.56388282 -0.02219077
6
MD Step 76
C  -0.33478652 -0.58202478 0.00472206
H  0.17654879 -1.54380726 -0.02118392
H  -1.43379867 -0.62556399 -0.02147957
C  0.34090463 0.59034412 0.00294955
H  -0.21935418 1.50485730 -0.02457071
H  1.40370047 0.56538042 -0.02418098
6
MD Step 77
C  -0.33510351 -0.58258403 0.00507045
H  0.17748504 -1.54137986 -0.02311448
H  -1.43122324 -0.62249146 -0.02337974
C  0.34087910 0.59043539 0.00324757
H  -0.21705816 1.50318810 -0.02649422
H  1.40197430 0.56712623 -0.02612930
6
MD Step 78
C  -0.33540932 -0.58309793 0.00540832
H  0.17839797 -1.53886696 -0.02498349
H  -1.42836769 -0.61938263 -0.02521405
C  0.34077591 0.59042202 0.00353744
H  -0.21467745 1.50186242 -0.02836772
H  1.40069877 0.56911309 -0.02803276
6
MD Step 79
C  -0.33569983 -0.58356146 0.00573447
H  0.17930102 -1.53630464 -0.02678363
H  -1.42528893 -0.61624900 -0.02697526
C  0.34059449 0.59029950 0.00381809
H  -0.21224232 1.50092655 -0.03018494
H  1.39990532 0.57133631 -0.02988482
6
MD Step 80
C  -0.33596358 -0.58396286 0.00605477
H  0.18016576 -1.53377183 -0.02855008
H  -1.42209138 -0.61314443 -0.02869974
C  0.34034242 0.59007152 0.00409565
H  -0.20982276 1.50037739 -0.03198229
H  1.39957002 0.57374782 -0.03172053
6
MD Step 81
C  -0.33619860 -0.58430029 0.00636581
H  0.18101999 -1.53129041 -0.03026229
H  -1.41882632 -0.61006595 -0.03036723
C  0.34001886 0.58973340 0.00436664
H  -0.20742877 1.50026034 -0.03373959
H  1.39971280 0.57635487 -0.03351912
6
MD Step 82
C  -0.33640319 -0.58457271 0.00666407
H  0.18189266 -1.52887941 -0.03189848
H  -1.41554565 -0.60700860 -0.03195623
C  0.33962369 0.58928145 0.00462728
H  -0.20506465 1.50061326 -0.03543504
H  1.40034210 0.57916524 -0.03525822
6
MD Step 83
C  -0.33656774 -0.58477174 0.00695378
H  0.18276459 -1.52660339 -0.03348437
H  -1.41234972 -0.60401457 -0.03349436
C  0.33916565 0.58872131 0.00488192
H  -0.20277751 1.50141654 -0.03709441
H  1.40140588 0.58213823 -0.03696142
6
MD Step 84
C  -0.33669336 -0.58490011 0.00722918
H  0.18367735 -1.52446191 -0.03498408
H  -1.40927559 -0.60106326 -0.03494591
C  0.33864392 0.58804953 0.00512412
H  -0.20054731 1.50270241 -0.03868088
H  1.40290265 0.58529413 -0.03859149
6
MD Step 85
C  -0.33677351 -0.58495338 0.00749220
H  0.18462379 -1.52249849 -0.03640904
H  -1.40640531 -0.59818092 -0.03632410
C  0.33806632 0.58727207 0.00535561
H  -0.19839619 1.50444501 -0.04020487
H  1.40477253 0.58860486 -0.04015686
6
MD Step 86
C  -0.33680263 -0.58492845 0.00774426
H  0.18559801 -1.52074951 -0.03776772
H  -1.40381347 -0.59539002 -0.03763926
C  0.33744077 0.58639573 0.00557753
H  -0.19633815 1.50661118 -0.04167334
H  1.40694950 0.59204429 -0.04166257
6
MD Step 87
C  -0.33677409 -0.58482144 0.00798836
H  0.18658200 -1.51925661 -0.03907861
H  -1.40157822 -0.59272234 -0.03891233
C  0.33677730 0.58543035 0.00579280
H  -0.19439237 1.50914783 -0.04310293
H  1.40935034 0.59557529 -0.04312282
6
MD Step 88
C  -0.33668785 -0.58463517 0.00822203
H  0.18758981 -1.51802163 -0.04032581
H  -1.39973461 -0.59017428 -0.04012842
C  0.33608049 0.58438124 0.00599815
H  -0.19253928 1.51202750 -0.04447530
H  1.41192142 0.59919424 -0.04451845
6
MD Step 89
C  -0.33654103 -0.58436974 0.00844620
H  0.18861122 -1.51706274 -0.04151513
H  -1.39832972 -0.58776333 -0.04129520
C  0.33535875 0.58325850 0.00619417
H  -0.19077742 1.51519291 -0.04579366
H  1.41458401 0.60287481 -0.04585103
6
MD Step 90
C  -0.33633351 -0.58402799 0.00866011
H  0.18964402 -1.51638191 -0.04264179
H  -1.39738887 -0.58549560 -0.04240930
C  0.33461884 0.58207149 0.00637957
H  -0.18909178 1.51859073 -0.04705034
H  1.41726867 0.60660039 -0.04711185
6
MD Step 91
C  -0.33607589 -0.58362338 0.00885407
H  0.19074144 -1.51591739 -0.04364279
H  -1.39686737 -0.58331843 -0.04340586
C  0.33385777 0.58082073 0.00654245
H  -0.18740722 1.52222044 -0.04817943
H  1.41996432 0.61041175 -0.04823727
6
MD Step 92
C  -0.33576046 -0.58315092 0.00903604
H  0.19183970 -1.51571746 -0.04457005
H  -1.39682437 -0.58129344 -0.04434033
C  0.33309182 0.57952677 0.00669176
H  -0.18576181 1.52596248 -0.04922968
H  1.42254605 0.61423396 -0.04927287
6
MD Step 93
C  -0.33539378 -0.58261972 0.00920181
H  0.19295173 -1.51574627 -0.04539626
H  -1.39722765 -0.57940259 -0.04518475
C  0.33232387 0.57819745 0.00682209
H  -0.18411420 1.52977407 -0.05017088
H  1.42497129 0.61807066 -0.05018947
6
MD Step 94
C  -0.33497897 -0.58203516 0.00935119
H  0.19406222 -1.51598990 -0.04612048
H  -1.39805994 -0.57765356 -0.04593852
C  0.33156103 0.57684547 0.00693287
H  -0.18244950 1.53358521 -0.05099920
H  1.42717543 0.62189870 -0.05098323
6
MD Step 95
C  -0.33451987 -0.58140310 0.00948410
H  0.19515320 -1.51643148 -0.04674279
H  -1.39929414 -0.57605444 -0.04660173
C  0.33081036 0.57548391 0.00702377
H  -0.18075472 1.53732549 -0.05171202
H  1.42909834 0.62569371 -0.05165172
6
MD Step 96
C  -0.33402093 -0.58072970 0.00960068
H  0.19620388 -1.51705238 -0.04726486
H  -1.40089498 -0.57461429 -0.04717579
C  0.33007887 0.57412616 0.00709479
H  -0.17901995 1.54092490 -0.05230856
H  1.43068479 0.62942969 -0.05219452
6
MD Step 97
C  -0.33348577 -0.58001998 0.00970241
H  0.19718328 -1.51784047 -0.04769780
H  -1.40282780 -0.57335070 -0.04767180
C  0.32937478 0.57278705 0.00714779
H  -0.17724655 1.54430747 -0.05279760
H  1.43187770 0.63307152 -0.05262038
6
MD Step 98
C  -0.33292549 -0.57928631 0.00978468
H  0.19810111 -1.51874029 -0.04801134
H  -1.40500952 -0.57223963 -0.04805702
C  0.32869897 0.57147426 0.00717704
H  -0.17539750 1.54744275 -0.05314771
H  1.43266916 0.63662569 -0.05290025
6
MD Step 99
C  -0.33234006 -0.57852948 0.00985322
H  0.19889720 -1.51976487 -0.04824575
H  -1.40742162 -0.57132576 -0.04837248
C  0.32806365 0.57020669 0.00718989
H  -0.17350787 1.55023593 -0.05339691
H  1.43299005 0.64002934 -0.05307112
6
MD Step 100
C  -0.33174133 -0.57776215 0.00990347
H  0.19958106 -1.52085713 -0.04837156
H  -1.40997213 -0.57058406 -0.04858608
C  0.32746882 0.56899108 0.00718097
H  -0.17154706 1.55266765 -0.05351547
H  1.43284951 0.64328983 -0.05310561
6
MD Step 101
C  -0.33114144 -0.57699710 0.00993085
H  0.20016374 -1.52195923 -0.04835871
H  -1.41256639 -0.56998802 -0.04866488
C  0.32691379 0.56783338 0.00714478
H  -0.16948704 1.55472616 -0.05347366
H  1.43226650 0.64641624 -0.05297652
6
MD Step 102
C  -0.33054591 -0.57624023 0.00993671
H  0.20061729 -1.52305434 -0.04821802
H  -1.41515018 -0.56955027 -0.04861870
C  0.32640418 0.56674540 0.00708352
H  -0.16734288 1.55636689 -0.05328189
H  1.43122884 0.64937842 -0.05269489
6
MD Step 103
C  -0.32996879 -0.57550610 0.00991480
H  0.20096796 -1.52407458 -0.04790729
H  -1.41761840 -0.56923059 -0.04840197
C  0.32593607 0.56572932 0.00698954
H  -0.16508107 1.55760539 -0.05289985
H  1.42978556 0.65220011 -0.05222344
6
MD Step 104
C  -0.32940564 -0.57479027 0.00987517
H  0.20113336 -1.52506441 -0.04749656
H  -1.41997996 -0.56909748 -0.04808587
C  0.32552371 0.56480466 0.00687600
H  -0.16278063 1.55835509 -0.05239594
H  1.42788443 0.65479562 -0.05162910
6
MD Step 105
C  -0.32886236 -0.57409880 0.00981844
H  0.20109764 -1.52600624 -0.04699099
H  -1.42218307 -0.56915470 -0.04767421
C  0.32516978 0.56397911 0.00674416
H  -0.16046020 1.55860206 -0.05177622
H  1.42554659 0.65714541 -0.05091899
6
MD Step 106
C  -0.32834674 -0.57343960 0.00974319
H  0.20086118 -1.52687113 -0.04638199
H  -1.42416655 -0.56939137 -0.04715671
C  0.32487385 0.56325683 0.00659281
H  -0.15812790 1.55835499 -0.05103377
H  1.42281631 0.65924565 -0.05008773
6
MD Step 107
C  -0.32787074 -0.57282484 0.00964389
H  0.20045540 -1.52760469 -0.04563233
H  -1.42584646 -0.56976759 -0.04649362
C  0.32462997 0.56263602 0.00641552
H  -0.15576688 1.55765956 -0.05013469
H  1.41977495 0.66112292 -0.04910378
6
MD Step 108
C  -0.32743815 -0.57225827 0.00952193
H  0.19986838 -1.52820188 -0.04475182
H  -1.42719179 -0.57028819 -0.04569395
C  0.32443933 0.56212120 0.00621450
H  -0.15340857 1.55652417 -0.04909050
H  1.41646601 0.66275953 -0.04797944
6
MD Step 109
C  -0.32705268 -0.57174354 0.00937820
H  0.19909459 -1.52865778 -0.04374699
H  -1.42817548 -0.57095374 -0.04476343
C  0.32430182 0.56171497 0.00599139
H  -0.15108356 1.55496910 -0.04790985
H  1.41294380 0.66414325 -0.04672417
6
MD Step 110
C  -0.32671573 -0.57128190 0.00921516
H  0.19812148 -1.52898104 -0.04263472
H  -1.42878811 -0.57177376 -0.04371860
C  0.32421840 0.56142022 0.00574971
H  -0.14883455 1.55301297 -0.04661142
H  1.40925945 0.66525391 -0.04535710
6
MD Step 111
C  -0.32643136 -0.57087732 0.00903225
H  0.19696015 -1.52916339 -0.04141110
H  -1.42900746 -0.57273657 -0.04255487
C  0.32418587 0.56123509 0.00548922
H  -0.14668590 1.55070283 -0.04519421
H  1.40549051 0.66609417 -0.04387802
6
MD Step 112
C  -0.32620196 -0.57053203 0.00882977
H  0.19561899 -1.52920585 -0.04007815
H  -1.42882503 -0.57383530 -0.04127393
C  0.32420143 0.56115731 0.00521075
H  -0.14466919 1.54808750 -0.04366298
H  1.40171363 0.66666309 -0.04229222
6
MD Step 113
C  -0.32602921 -0.57024757 0.00860809
H  0.19410947 -1.52911291 -0.03863787
H  -1.42824032 -0.57506212 -0.03987761
C  0.32426176 0.56118335 0.00491511
H  -0.14281701 1.54522263 -0.04202254
H  1.39800891 0.66696190 -0.04060481
6
MD Step 114
C  -0.32591385 -0.57002450 0.00836772
H  0.19244498 -1.52889342 -0.03709319
H  -1.42726195 -0.57640939 -0.03836890
C  0.32436327 0.56130860 0.00460325
H  -0.14116350 1.54216881 -0.04027865
H  1.39445727 0.66699294 -0.03882164
6
MD Step 115
C  -0.32585297 -0.56985972 0.00811190
H  0.19062385 -1.52857715 -0.03546514
H  -1.42592428 -0.57788627 -0.03676933
C  0.32450511 0.56153035 0.00427932
H  -0.13976035 1.53897378 -0.03845430
H  1.39112197 0.66674260 -0.03696535
6
MD Step 116
C  -0.32584298 -0.56974944 0.00784385
H  0.18864714 -1.52819649 -0.03377449
H  -1.42426900 -0.57950099 -0.03510030
C  0.32468617 0.56184488 0.00394740
H  -0.13865840 1.53568919 -0.03657211
H  1.38806487 0.66619929 -0.03505800
6
MD Step 117
C  -0.32588514 -0.56969496 0.00756167
H  0.18655187 -1.52775270 -0.03200776
H  -1.42231110 -0.58122784 -0.03334865
C  0.32489953 0.56224207 0.00360540
H  -0.13787405 1.53240254 -0.03462175
H  1.38537787 0.66538687 -0.03308897
6
MD Step 118
C  -0.32597770 -0.56969459 0.00726561
H  0.18436282 -1.52726331 -0.03016581
H  -1.42008652 -0.58305454 -0.03151592
C  0.32514069 0.56271354 0.00325373
H  -0.13743556 1.52918787 -0.03260636
H  1.38313303 0.66431642 -0.03106070
6
MD Step 119
C  -0.32612151 -0.56974946 0.00695289
H  0.18212617 -1.52672801 -0.02822948
H  -1.41761790 -0.58494891 -0.02958354
C  0.32540204 0.56324724 0.00288921
H  -0.13734891 1.52613760 -0.03050959
H  1.38141391 0.66301997 -0.02895622
6
MD Step 120
C  -0.32630800 -0.56985118 0.00662906
H  0.17983559 -1.52620144 -0.02623395
H  -1.41498753 -0.58693157 -0.02758786
C  0.32568539 0.56383984 0.00251819
H  -0.13766932 1.52328758 -0.02836709
H  1.38024025 0.66147671 -0.02680991
6
MD Step 121
C  -0.32653179 -0.56999482 0.00629609
H  0.17750845 -1.52571625 -0.02419129
H  -1.41225970 -0.58900031 -0.02554195
C  0.32598910 0.56448424 0.00214286
H  -0.13842493 1.52069140 -0.02619182
H  1.37964278 0.65968948 -0.02463364
6
MD Step 122
C  -0.32679373 -0.57018201 0.00594966
H  0.17520295 -1.52526494 -0.02207263
H  -1.40946187 -0.59111278 -0.02341770
C  0.32630515 0.56516684 0.00175819
H  -0.13959862 1.51843625 -0.02395687
H  1.37967950 0.65770234 -0.02239967
6
MD Step 123
C  -0.32708346 -0.57040309 0.00559573
H  0.17291166 -1.52490502 -0.01991536
H  -1.40668997 -0.59329148 -0.02125365
C  0.32663715 0.56588538 0.00137067
H  -0.14123198 1.51653543 -0.02169913
H  1.38032858 0.65549425 -0.02014369
6
MD Step 124
C  -0.32739594 -0.57065401 0.00523496
H  0.17066040 -1.52465929 -0.01772278
H  -1.40400734 -0.59552554 -0.01905398
C  0.32698357 0.56663256 0.00098080
H  -0.14332651 1.51502602 -0.01942210
H  1.38158728 0.65307847 -0.01786832
6
MD Step 125
C  -0.32772686 -0.57093158 0.00486710
H  0.16847944 -1.52454333 -0.01549273
H  -1.40147146 -0.59779869 -0.01681730
C  0.32734245 0.56740090 0.00058810
H  -0.14587117 1.51393948 -0.01712361
H  1.38344379 0.65047421 -0.01557072
6