 Entering Gaussian System, Link 0=g16
 Initial command:
 /software/gaussian/g16-c01/avx2/g16/l1.exe "/gpfs/fs2/scratch/bweight/software/many_molecule_many_mode_NAMD/src/NAMD/TEST_NVT/TRAJ/traj-91/G16/GS_NEW/Gau-7605.inp" -scrdir="/gpfs/fs2/scratch/bweight/software/many_molecule_many_mode_NAMD/src/NAMD/TEST_NVT/TRAJ/traj-91/G16/GS_NEW/"
 Entering Link 1 = /software/gaussian/g16-c01/avx2/g16/l1.exe PID=      7606.
  
 Copyright (c) 1988-2019, Gaussian, Inc.  All Rights Reserved.
  
 This is part of the Gaussian(R) 16 program.  It is based on
 the Gaussian(R) 09 system (copyright 2009, Gaussian, Inc.),
 the Gaussian(R) 03 system (copyright 2003, Gaussian, Inc.),
 the Gaussian(R) 98 system (copyright 1998, Gaussian, Inc.),
 the Gaussian(R) 94 system (copyright 1995, Gaussian, Inc.),
 the Gaussian 92(TM) system (copyright 1992, Gaussian, Inc.),
 the Gaussian 90(TM) system (copyright 1990, Gaussian, Inc.),
 the Gaussian 88(TM) system (copyright 1988, Gaussian, Inc.),
 the Gaussian 86(TM) system (copyright 1986, Carnegie Mellon
 University), and the Gaussian 82(TM) system (copyright 1983,
 Carnegie Mellon University). Gaussian is a federally registered
 trademark of Gaussian, Inc.
  
 This software contains proprietary and confidential information,
 including trade secrets, belonging to Gaussian, Inc.
  
 This software is provided under written license and may be
 used, copied, transmitted, or stored only in accord with that
 written license.
  
 The following legend is applicable only to US Government
 contracts under FAR:
  
                    RESTRICTED RIGHTS LEGEND
  
 Use, reproduction and disclosure by the US Government is
 subject to restrictions as set forth in subparagraphs (a)
 and (c) of the Commercial Computer Software - Restricted
 Rights clause in FAR 52.227-19.
  
 Gaussian, Inc.
 340 Quinnipiac St., Bldg. 40, Wallingford CT 06492
  
  
 ---------------------------------------------------------------
 Warning -- This program may not be used in any manner that
 competes with the business of Gaussian, Inc. or will provide
 assistance to any competitor of Gaussian, Inc.  The licensee
 of this program is prohibited from giving any competitor of
 Gaussian, Inc. access to this program.  By using this program,
 the user acknowledges that Gaussian, Inc. is engaged in the
 business of creating and licensing software in the field of
 computational chemistry and represents and warrants to the
 licensee that it is not a competitor of Gaussian, Inc. and that
 it will not use this program in any manner prohibited above.
 ---------------------------------------------------------------
  

 Cite this work as:
 Gaussian 16, Revision C.01,
 M. J. Frisch, G. W. Trucks, H. B. Schlegel, G. E. Scuseria, 
 M. A. Robb, J. R. Cheeseman, G. Scalmani, V. Barone, 
 G. A. Petersson, H. Nakatsuji, X. Li, M. Caricato, A. V. Marenich, 
 J. Bloino, B. G. Janesko, R. Gomperts, B. Mennucci, H. P. Hratchian, 
 J. V. Ortiz, A. F. Izmaylov, J. L. Sonnenberg, D. Williams-Young, 
 F. Ding, F. Lipparini, F. Egidi, J. Goings, B. Peng, A. Petrone, 
 T. Henderson, D. Ranasinghe, V. G. Zakrzewski, J. Gao, N. Rega, 
 G. Zheng, W. Liang, M. Hada, M. Ehara, K. Toyota, R. Fukuda, 
 J. Hasegawa, M. Ishida, T. Nakajima, Y. Honda, O. Kitao, H. Nakai, 
 T. Vreven, K. Throssell, J. A. Montgomery, Jr., J. E. Peralta, 
 F. Ogliaro, M. J. Bearpark, J. J. Heyd, E. N. Brothers, K. N. Kudin, 
 V. N. Staroverov, T. A. Keith, R. Kobayashi, J. Normand, 
 K. Raghavachari, A. P. Rendell, J. C. Burant, S. S. Iyengar, 
 J. Tomasi, M. Cossi, J. M. Millam, M. Klene, C. Adamo, R. Cammi, 
 J. W. Ochterski, R. L. Martin, K. Morokuma, O. Farkas, 
 J. B. Foresman, and D. J. Fox, Gaussian, Inc., Wallingford CT, 2019.
 
 ******************************************
 Gaussian 16:  ES64L-G16RevC.01  3-Jul-2019
                11-Jan-2023 
 ******************************************
 %oldchk=../GS_OLD/geometry.chk
 %chk=geometry.chk
 %nprocshared=4
 Will use up to    4 processors via shared memory.
 %mem=5GB
 Copying data from "../GS_OLD/geometry.chk" to current chk file "geometry.chk"
 IOpt=  2 FromEx=T IUOpen= 4 IOptOp= 5 NList=   0 IFRang= 0 IUIn= 4 IUOut= 2.
 -------------------------------------------------------
 # WB97XD/6-311G SCF=XQC FORCE nosym pop=full guess=read
 -------------------------------------------------------
 1/10=7,30=1,38=1/1,3;
 2/12=2,15=1,17=6,18=5,40=1/2;
 3/5=4,6=6,11=2,25=1,30=1,71=1,74=-58,116=-2/1,2,3;
 4/5=1/1;
 5/5=2,8=3,13=1,38=6/2,8;
 6/7=3,28=1/1;
 7/29=1,30=1/1,2,3,16;
 1/10=7,30=1/3;
 99//99;
 ------------
 MD Step 1000
 ------------
 Symbolic Z-matrix:
 Charge =  0 Multiplicity = 1
 C                    -0.33592  -0.58151   0.00824 
 H                     0.21499  -1.53055  -0.0292 
 H                    -1.42061  -0.58609  -0.02942 
 C                     0.33396   0.57787   0.00618 
 H                    -0.1643    1.56309  -0.03151 
 H                     1.44402   0.64764  -0.03107 
 

 GradGradGradGradGradGradGradGradGradGradGradGradGradGradGradGradGradGrad
 Berny optimization.
 Initialization pass.
 Trust Radius=3.00D-01 FncErr=1.00D-07 GrdErr=1.00D-07 EigMax=2.50D+02 EigMin=1.00D-04
 Number of steps in this run=      2 maximum allowed number of steps=      2.
 GradGradGradGradGradGradGradGradGradGradGradGradGradGradGradGradGradGrad

                          Input orientation:                          
 ---------------------------------------------------------------------
 Center     Atomic      Atomic             Coordinates (Angstroms)
 Number     Number       Type             X           Y           Z
 ---------------------------------------------------------------------
      1          6           0       -0.335925   -0.581512    0.008241
      2          1           0        0.214994   -1.530552   -0.029198
      3          1           0       -1.420611   -0.586092   -0.029418
      4          6           0        0.333959    0.577870    0.006184
      5          1           0       -0.164296    1.563094   -0.031515
      6          1           0        1.444017    0.647644   -0.031072
 ---------------------------------------------------------------------
                    Distance matrix (angstroms):
                    1          2          3          4          5
     1  C    0.000000
     2  H    1.097993   0.000000
     3  H    1.085349   1.888705   0.000000
     4  C    1.338998   2.112072   2.105846   0.000000
     5  H    2.151830   3.116811   2.489444   1.104692   0.000000
     6  H    2.163461   2.501008   3.119006   1.112873   1.850600
                    6
     6  H    0.000000
 Symmetry turned off by external request.
 Stoichiometry    C2H4
 Framework group  C1[X(C2H4)]
 Deg. of freedom    12
 Full point group                 C1      NOp   1
 Rotational constants (GHZ):         143.2400114          29.6577753          24.5820593
 Standard basis: 6-311G (5D, 7F)
    38 basis functions,    72 primitive gaussians,    38 cartesian basis functions
     8 alpha electrons        8 beta electrons
       nuclear repulsion energy        33.0554763412 Hartrees.
 NAtoms=    6 NActive=    6 NUniq=    6 SFac= 1.00D+00 NAtFMM=   60 NAOKFM=F Big=F
 Integral buffers will be    131072 words long.
 Raffenetti 2 integral format.
 Two-electron integral symmetry is turned off.
 Nuclear repulsion after empirical dispersion term =       33.0546343348 Hartrees.
 One-electron integrals computed using PRISM.
 NBasis=    38 RedAO= T EigKep=  6.45D-03  NBF=    38
 NBsUse=    38 1.00D-06 EigRej= -1.00D+00 NBFU=    38
 Initial guess from the checkpoint file:  "geometry.chk"
 B after Tr=    -0.000219   -0.000395   -0.000413
         Rot=    1.000000   -0.000005    0.000003    0.000007 Ang=  -0.00 deg.
 Keep R1 ints in memory in canonical form, NReq=4036876.
 Requested convergence on RMS density matrix=1.00D-08 within  32 cycles.
 Requested convergence on MAX density matrix=1.00D-06.
 Requested convergence on             energy=1.00D-06.
 No special actions if energy rises.
 SCF Done:  E(RwB97XD) =  -78.5556451054     A.U. after    8 cycles
            NFock=  8  Conv=0.72D-08     -V/T= 2.0052
 QCSCF skips out because SCF is already converged.

 **********************************************************************

            Population analysis using the SCF Density.

 **********************************************************************

 Alpha  occ. eigenvalues --  -10.29054 -10.28815  -0.86362  -0.67221  -0.55922
 Alpha  occ. eigenvalues --   -0.50922  -0.43664  -0.35672
 Alpha virt. eigenvalues --    0.07947   0.14089   0.16466   0.17014   0.24078
 Alpha virt. eigenvalues --    0.37405   0.39319   0.39834   0.46425   0.48820
 Alpha virt. eigenvalues --    0.49388   0.59094   0.66553   0.69081   0.77256
 Alpha virt. eigenvalues --    0.77554   0.84050   0.95138   2.23169   2.29021
 Alpha virt. eigenvalues --    2.33248   2.40587   2.67105   2.81726   2.87907
 Alpha virt. eigenvalues --    2.95166   3.13965   3.31795  23.35230  23.70516
     Molecular Orbital Coefficients:
                           1         2         3         4         5
                           O         O         O         O         O
     Eigenvalues --   -10.29054 -10.28815  -0.86362  -0.67221  -0.55922
   1 1   C  1S          0.10446   0.55363  -0.08837   0.06679  -0.00053
   2        2S          0.08617   0.45562  -0.13967   0.10697  -0.00087
   3        2PX         0.00016  -0.00002   0.02579   0.03680   0.13728
   4        2PY         0.00028  -0.00002   0.04630   0.06009  -0.07432
   5        2PZ         0.00000  -0.00001  -0.00155   0.00234   0.00018
   6        3S          0.00185   0.01451   0.37467  -0.29195   0.00242
   7        3PX        -0.00060   0.00043   0.03405   0.05889   0.21507
   8        3PY        -0.00103   0.00077   0.06087   0.09733  -0.11720
   9        3PZ        -0.00002  -0.00004  -0.00260   0.00416   0.00025
  10        4S          0.00319  -0.01467   0.19193  -0.22672   0.00224
  11        4PX         0.00148  -0.00154   0.00476   0.02344   0.11145
  12        4PY         0.00255  -0.00267   0.00863   0.04034  -0.06166
  13        4PZ         0.00001   0.00010  -0.00091   0.00208   0.00011
  14 2   H  1S         -0.00005  -0.00006   0.05240  -0.08748   0.10244
  15        2S         -0.00030   0.00010   0.05370  -0.10537   0.12978
  16        3S          0.00083   0.00167  -0.00174  -0.01511   0.04196
  17 3   H  1S         -0.00005  -0.00007   0.05401  -0.09108  -0.10501
  18        2S         -0.00030   0.00009   0.05472  -0.10887  -0.13205
  19        3S          0.00085   0.00171  -0.00172  -0.01609  -0.04270
  20 4   C  1S          0.55362  -0.10465  -0.08682  -0.06842  -0.00022
  21        2S          0.45567  -0.08593  -0.13710  -0.10971  -0.00035
  22        2PX        -0.00002  -0.00016  -0.02767   0.03739   0.11829
  23        2PY        -0.00003  -0.00029  -0.04657   0.06648  -0.07342
  24        2PZ        -0.00000   0.00000  -0.00122  -0.00235   0.00019
  25        3S          0.01403  -0.00355   0.36737   0.29983   0.00099
  26        3PX        -0.00020   0.00073  -0.03485   0.06062   0.18527
  27        3PY        -0.00033   0.00126  -0.05842   0.10727  -0.11409
  28        3PZ        -0.00004  -0.00001  -0.00209  -0.00423   0.00029
  29        4S         -0.01221   0.00843   0.18905   0.23793  -0.00009
  30        4PX         0.00088  -0.00192  -0.00554   0.02656   0.10193
  31        4PY         0.00146  -0.00333  -0.00902   0.04543  -0.06182
  32        4PZ         0.00008  -0.00002  -0.00087  -0.00219   0.00014
  33 5   H  1S         -0.00006  -0.00004   0.04997   0.09330  -0.08992
  34        2S         -0.00002  -0.00031   0.05106   0.11149  -0.11352
  35        3S          0.00181   0.00013  -0.00111   0.01676  -0.03647
  36 6   H  1S         -0.00005  -0.00004   0.04873   0.09183   0.08586
  37        2S         -0.00003  -0.00032   0.05039   0.11011   0.10873
  38        3S          0.00176   0.00014  -0.00118   0.01621   0.03519
                           6         7         8         9        10
                           O         O         O         V         V
     Eigenvalues --    -0.50922  -0.43664  -0.35672   0.07947   0.14089
   1 1   C  1S         -0.00377   0.00012  -0.00121   0.00321  -0.03314
   2        2S         -0.00566   0.00022  -0.00196   0.00533  -0.05315
   3        2PX         0.09500  -0.11083  -0.00392   0.00168  -0.03191
   4        2PY         0.16762   0.06637  -0.00680   0.00299  -0.06403
   5        2PZ         0.00600   0.00007   0.17931  -0.18896  -0.00296
   6        3S          0.02134  -0.00035   0.00575  -0.01610   0.11551
   7        3PX         0.13811  -0.17668  -0.00553   0.00256  -0.03777
   8        3PY         0.24510   0.10644  -0.00961   0.00448  -0.07911
   9        3PZ         0.00952   0.00016   0.28831  -0.27787  -0.00469
  10        4S         -0.05178  -0.00322   0.00811  -0.01859   1.21535
  11        4PX         0.06968  -0.11014  -0.00456   0.01443  -0.19622
  12        4PY         0.12465   0.06658  -0.00798   0.02517  -0.38137
  13        4PZ         0.00543   0.00015   0.26721  -0.69382  -0.01745
  14 2   H  1S         -0.08023  -0.11519   0.00016   0.00503  -0.01653
  15        2S         -0.11107  -0.17806   0.00239   0.00805  -0.04633
  16        3S         -0.04158  -0.08244   0.00140   0.02091  -0.82478
  17 3   H  1S         -0.07934   0.11273   0.00007   0.00504  -0.01315
  18        2S         -0.10915   0.17329   0.00227   0.00803  -0.03879
  19        3S         -0.04054   0.07985   0.00134   0.02034  -0.77141
  20 4   C  1S         -0.00829  -0.00046  -0.00092  -0.00306  -0.03651
  21        2S         -0.01297  -0.00075  -0.00150  -0.00507  -0.05864
  22        2PX        -0.09810   0.12456   0.00392   0.00198   0.04016
  23        2PY        -0.16223  -0.07374   0.00708   0.00346   0.06202
  24        2PZ         0.00626   0.00020   0.17908   0.18941  -0.00346
  25        3S          0.04203   0.00212   0.00441   0.01523   0.12958
  26        3PX        -0.14522   0.19951   0.00549   0.00303   0.04909
  27        3PY        -0.23860  -0.11722   0.00993   0.00533   0.07370
  28        3PZ         0.00989   0.00030   0.28664   0.27771  -0.00528
  29        4S         -0.02967   0.00272   0.00771   0.01683   1.25036
  30        4PX        -0.07578   0.12741   0.00419   0.01534   0.26062
  31        4PY        -0.12326  -0.07451   0.00772   0.02658   0.41532
  32        4PZ         0.00571   0.00018   0.26743   0.69498  -0.02034
  33 5   H  1S         -0.07432  -0.12490   0.00030  -0.00463  -0.01272
  34        2S         -0.10162  -0.19465   0.00249  -0.00763  -0.03863
  35        3S         -0.03799  -0.09135   0.00142  -0.02013  -0.83048
  36 6   H  1S         -0.08027   0.12396   0.00020  -0.00463  -0.01581
  37        2S         -0.11010   0.19422   0.00235  -0.00774  -0.04658
  38        3S         -0.04127   0.09124   0.00132  -0.02054  -0.88514
                          11        12        13        14        15
                           V         V         V         V         V
     Eigenvalues --     0.16466   0.17014   0.24078   0.37405   0.39319
   1 1   C  1S          0.00058  -0.04558   0.00016   0.01027   0.00087
   2        2S          0.00093  -0.07427   0.00024   0.01426   0.00127
   3        2PX         0.09657  -0.02044   0.10013  -0.03686  -0.02329
   4        2PY        -0.05460  -0.03715  -0.05726  -0.06675   0.01065
   5        2PZ         0.00001  -0.00783  -0.00002  -0.00559  -0.00023
   6        3S         -0.00195   0.16768   0.00022   0.03100   0.00240
   7        3PX         0.13838  -0.01229   0.10620  -0.04707  -0.10352
   8        3PY        -0.07891  -0.02417  -0.06173  -0.09103   0.05326
   9        3PZ         0.00000  -0.01088  -0.00007  -0.01141  -0.00029
  10        4S         -0.03302   1.44293  -0.03095  -2.65749  -0.18941
  11        4PX         0.57790  -0.11839   1.16347  -1.57108  -0.55355
  12        4PY        -0.31748  -0.20717  -0.67084  -2.73534   0.12867
  13        4PZ         0.00026  -0.05119   0.00040  -0.05011  -0.00297
  14 2   H  1S         -0.02975  -0.02511   0.01322  -0.05714   0.07556
  15        2S         -0.08098  -0.01772  -0.02396  -0.65353   0.76697
  16        3S         -1.03993  -1.00374  -1.54062  -0.31693  -0.32923
  17 3   H  1S          0.02842  -0.02522  -0.01529  -0.04949  -0.07668
  18        2S          0.07918  -0.02062   0.01771  -0.58968  -0.77270
  19        3S          1.08126  -1.01972   1.57721  -0.39515   0.25437
  20 4   C  1S          0.00140   0.04230  -0.00017  -0.02001  -0.00027
  21        2S          0.00225   0.06885  -0.00029  -0.03279  -0.00036
  22        2PX         0.10142  -0.02408  -0.10027  -0.04095  -0.03196
  23        2PY        -0.06111  -0.03653   0.05748  -0.07404   0.01206
  24        2PZ         0.00022   0.00750   0.00001   0.00400   0.00041
  25        3S         -0.00457  -0.15298   0.00034   0.04151  -0.00050
  26        3PX         0.14584  -0.01941  -0.11378  -0.09159  -0.11165
  27        3PY        -0.08672  -0.02602   0.06398  -0.16889   0.05260
  28        3PZ         0.00031   0.01031   0.00004   0.00484   0.00087
  29        4S         -0.06131  -1.33545   0.02126   3.32767   0.17026
  30        4PX         0.54067  -0.12368  -1.12518  -1.19278  -0.55610
  31        4PY        -0.33035  -0.19042   0.64609  -2.10668   0.10182
  32        4PZ         0.00145   0.04885  -0.00043   0.04220   0.00332
  33 5   H  1S          0.03140   0.02456   0.00619   0.01159  -0.08015
  34        2S          0.06863   0.02098  -0.03362   0.07951  -0.79182
  35        3S          1.08340   0.92343  -1.52546   0.45328   0.47373
  36 6   H  1S         -0.03124   0.02565  -0.00505   0.00492   0.08769
  37        2S         -0.06907   0.02135   0.03481   0.02274   0.88842
  38        3S         -1.00050   0.95436   1.50325   0.47409  -0.44894
                          16        17        18        19        20
                           V         V         V         V         V
     Eigenvalues --     0.39834   0.46425   0.48820   0.49388   0.59094
   1 1   C  1S         -0.01795   0.01249  -0.04663  -0.00050  -0.00064
   2        2S         -0.03163   0.02896  -0.07800  -0.00052  -0.00114
   3        2PX         0.02605  -0.06180   0.01279   0.00148   0.00242
   4        2PY         0.04738  -0.10639   0.01582   0.00221   0.00370
   5        2PZ         0.00023  -0.00069   0.00625  -0.15175  -0.19249
   6        3S          0.07524  -0.33641   0.09362  -0.01085  -0.00069
   7        3PX         0.10120  -0.24321  -0.03163   0.00051   0.00801
   8        3PY         0.18889  -0.41660  -0.06735  -0.00002   0.01248
   9        3PZ        -0.00456  -0.00539   0.02813  -0.62796  -0.68484
  10        4S          2.58086   0.09267   3.12501   0.11600   0.07971
  11        4PX         0.20269   0.21896   0.80210   0.03658   0.02609
  12        4PY         0.37883   0.42029   1.40541   0.06552   0.04288
  13        4PZ        -0.00380   0.00086  -0.10506   0.68397   1.24018
  14 2   H  1S         -0.02759  -0.03354  -0.07657  -0.00325  -0.00200
  15        2S         -0.54964  -0.31628  -0.91368  -0.03151  -0.01473
  16        3S          0.29759   0.06654   0.64576   0.03768   0.02731
  17 3   H  1S         -0.03386  -0.03670  -0.07406  -0.00318  -0.00186
  18        2S         -0.60470  -0.35521  -0.89031  -0.03116  -0.01220
  19        3S          0.30653   0.06950   0.60588   0.03624   0.02662
  20 4   C  1S         -0.00149  -0.00287   0.05086   0.00367   0.00082
  21        2S         -0.00602   0.00283   0.08848   0.00664   0.00154
  22        2PX         0.00785   0.05418   0.02705   0.00013   0.00238
  23        2PY         0.01586   0.09471   0.05030   0.00029   0.00455
  24        2PZ        -0.00415  -0.00195   0.00640  -0.15271   0.19218
  25        3S          0.08010  -0.28539  -0.23108  -0.02530  -0.00293
  26        3PX        -0.04473   0.23335   0.05428   0.00008   0.00840
  27        3PY        -0.06814   0.41052   0.09966   0.00009   0.01572
  28        3PZ        -0.01189  -0.00810   0.02362  -0.63139   0.68210
  29        4S         -0.76567   0.78751  -3.08556  -0.13920  -0.07112
  30        4PX         1.20769  -0.36435   0.62803   0.02132   0.02381
  31        4PY         2.18237  -0.59672   1.05889   0.03497   0.04286
  32        4PZ        -0.03681  -0.01837   0.03945   0.69512  -1.23711
  33 5   H  1S         -0.04838  -0.06436   0.06337   0.00287   0.00180
  34        2S         -0.84555  -0.65894   0.80017   0.04275   0.00700
  35        3S         -0.17371   0.27546  -0.54652  -0.01355  -0.02630
  36 6   H  1S         -0.04126  -0.06220   0.06430   0.00297   0.00189
  37        2S         -0.76536  -0.62800   0.79920   0.04264   0.00849
  38        3S         -0.19545   0.28641  -0.57168  -0.01524  -0.02677
                          21        22        23        24        25
                           V         V         V         V         V
     Eigenvalues --     0.66553   0.69081   0.77256   0.77554   0.84050
   1 1   C  1S          0.00072  -0.00055   0.04972   0.07404   0.00106
   2        2S          0.00148  -0.00125   0.10486   0.15785   0.00235
   3        2PX        -0.12990   0.19944  -0.02830   0.11351  -0.00960
   4        2PY         0.07611  -0.11963  -0.04941   0.18492   0.01211
   5        2PZ        -0.00000   0.00014   0.00063   0.00575   0.00021
   6        3S         -0.01156   0.01689  -0.69998  -1.36042  -0.02153
   7        3PX        -0.60688   0.70092  -0.18440   0.43973  -0.22731
   8        3PY         0.35221  -0.41967  -0.32182   0.70851   0.15686
   9        3PZ        -0.00012   0.00059   0.00239   0.02011   0.00095
  10        4S          0.02167  -0.08713   0.67113   2.46859  -0.07439
  11        4PX         1.08927  -0.78943   0.16347  -0.73771   4.47263
  12        4PY        -0.63423   0.46774   0.25177  -1.01540  -2.59354
  13        4PZ        -0.00019   0.00137   0.01215  -0.06439   0.00150
  14 2   H  1S          0.02260  -0.05916   0.00977   0.03263  -0.02640
  15        2S          0.12157  -0.63523   0.07790   0.09018  -1.55736
  16        3S         -1.02968   1.11264  -0.06241  -1.10731  -1.22161
  17 3   H  1S         -0.02206   0.05872   0.00957   0.03352   0.02928
  18        2S         -0.13410   0.67199   0.09035   0.06879   1.59733
  19        3S          1.02071  -1.08456  -0.05802  -1.24107   1.22462
  20 4   C  1S          0.00096  -0.00071   0.08326   0.03319   0.00089
  21        2S          0.00193  -0.00137   0.17728   0.06985   0.00189
  22        2PX        -0.15387  -0.18317  -0.09853   0.05046   0.01097
  23        2PY         0.08808   0.10220  -0.17613   0.09260  -0.00121
  24        2PZ        -0.00002  -0.00019   0.00585  -0.00108  -0.00019
  25        3S         -0.01334   0.00329  -1.48429  -0.41109  -0.01338
  26        3PX        -0.69094  -0.61659  -0.36121   0.27112   0.23951
  27        3PY         0.39767   0.34157  -0.64837   0.49329  -0.11069
  28        3PZ        -0.00017  -0.00068   0.02070  -0.00413  -0.00070
  29        4S          0.01013   0.05068   2.66797   0.19160   0.05778
  30        4PX         1.27999   0.70892   0.54521  -0.24674  -4.19599
  31        4PY        -0.72976  -0.40411   1.02005  -0.64070   2.35537
  32        4PZ         0.00036  -0.00073  -0.06040   0.02793  -0.00098
  33 5   H  1S         -0.02625  -0.05511   0.03451   0.00343  -0.02270
  34        2S         -0.15573  -0.56784   0.07576   0.07393  -1.41494
  35        3S          1.12575   0.96941  -1.15829   0.26599  -1.10285
  36 6   H  1S          0.02673   0.05461   0.03418   0.00427   0.02322
  37        2S          0.15127   0.53573   0.07300   0.02594   1.40534
  38        3S         -1.12876  -0.97411  -1.10814   0.20060   1.10891
                          26        27        28        29        30
                           V         V         V         V         V
     Eigenvalues --     0.95138   2.23169   2.29021   2.33248   2.40587
   1 1   C  1S          0.09574  -0.01023  -0.01446   0.00034  -0.00047
   2        2S          0.19894   0.00131  -0.01451   0.00085  -0.00048
   3        2PX        -0.09104  -0.08108  -0.13283   0.34258  -0.40737
   4        2PY        -0.15779  -0.15055  -0.22900  -0.19603   0.23394
   5        2PZ         0.00024  -0.01609  -0.02144  -0.00026  -0.00058
   6        3S         -1.54230  -0.18463  -0.03529  -0.00236  -0.00489
   7        3PX        -0.23194   0.07812   0.20938  -0.41031   0.56765
   8        3PY        -0.39475   0.15924   0.37505   0.23732  -0.32933
   9        3PZ        -0.00292   0.01621   0.02672   0.00044   0.00063
  10        4S          5.71584  -0.11322  -0.88863  -0.00026  -0.03366
  11        4PX         1.19261   0.05512  -0.19247  -0.04041   0.96409
  12        4PY         1.98886   0.06646  -0.35386   0.01492  -0.54294
  13        4PZ        -0.02220   0.00388   0.00959  -0.00031   0.00117
  14 2   H  1S          0.01558  -0.71311  -0.78721  -0.70628   0.65632
  15        2S         -0.28965   1.01395   1.18162   1.08472  -1.45916
  16        3S         -0.09364  -0.30595  -0.46974  -0.47044   0.37259
  17 3   H  1S          0.01569  -0.70612  -0.78820   0.69264  -0.67810
  18        2S         -0.26381   1.00685   1.18499  -1.06883   1.50440
  19        3S         -0.08197  -0.28290  -0.45762   0.45686  -0.36583
  20 4   C  1S         -0.09402  -0.01028   0.01228   0.00040   0.00025
  21        2S         -0.19502   0.00031   0.01221   0.00057   0.00039
  22        2PX        -0.09225   0.13145  -0.12405   0.30776   0.41633
  23        2PY        -0.15892   0.23058  -0.20852  -0.17762  -0.23611
  24        2PZ         0.00037  -0.01673   0.02040   0.00023   0.00015
  25        3S          1.50870  -0.16921   0.01971  -0.00003  -0.00008
  26        3PX        -0.22598  -0.16690   0.21263  -0.38449  -0.58385
  27        3PY        -0.39440  -0.28912   0.35161   0.21980   0.33034
  28        3PZ         0.00416   0.01792  -0.02607  -0.00024  -0.00023
  29        4S         -5.69287  -0.16518   0.88755   0.01501   0.01592
  30        4PX         1.11247  -0.01563  -0.19581   0.10086  -0.85754
  31        4PY         1.98073  -0.03341  -0.32278  -0.05831   0.49203
  32        4PZ         0.01463   0.00509  -0.00744  -0.00017  -0.00086
  33 5   H  1S         -0.01785  -0.78660   0.68006   0.70836   0.68266
  34        2S          0.29101   1.14135  -1.03677  -1.03231  -1.45197
  35        3S          0.06594  -0.35474   0.40508   0.51094   0.42561
  36 6   H  1S         -0.01787  -0.77767   0.70368  -0.69473  -0.68108
  37        2S          0.31056   1.12645  -1.06932   1.00897   1.44366
  38        3S          0.06898  -0.35318   0.42981  -0.50651  -0.43042
                          31        32        33        34        35
                           V         V         V         V         V
     Eigenvalues --     2.67105   2.81726   2.87907   2.95166   3.13965
   1 1   C  1S          0.00061   0.00293  -0.01323   0.00005  -0.00964
   2        2S          0.00051   0.00845  -0.04391  -0.00016  -0.02940
   3        2PX         0.00601   0.08358  -0.46737  -0.73417   0.44811
   4        2PY         0.01023   0.14730  -0.84076   0.40651   0.79030
   5        2PZ        -0.92373  -0.92677  -0.16124  -0.00108   0.00827
   6        3S         -0.00228  -0.06977   0.38547   0.00327   0.24648
   7        3PX        -0.00467  -0.14516   0.83043   0.88502  -0.43310
   8        3PY        -0.00823  -0.25332   1.46716  -0.47634  -0.76475
   9        3PZ         0.93891   1.13231   0.20228   0.00156  -0.01070
  10        4S          0.01618   0.16200  -0.86646  -0.01271  -0.48023
  11        4PX        -0.00210   0.11688  -0.71081  -0.67102   0.21896
  12        4PY        -0.00238   0.20427  -1.26000   0.35245   0.38828
  13        4PZ        -0.33797  -0.61206  -0.12833  -0.00127   0.00664
  14 2   H  1S          0.01420  -0.02285   0.26526  -0.37587  -0.21820
  15        2S         -0.01632   0.01437  -0.22366   0.38764   0.16599
  16        3S         -0.00326   0.04690  -0.29638   0.27100   0.06299
  17 3   H  1S          0.01432  -0.02170   0.25243   0.37946  -0.21393
  18        2S         -0.01665   0.01210  -0.20136  -0.38604   0.16089
  19        3S         -0.00391   0.04792  -0.30014  -0.29010   0.06678
  20 4   C  1S          0.00057  -0.00286   0.01357   0.00057  -0.00745
  21        2S          0.00052  -0.00885   0.04751   0.00139  -0.02316
  22        2PX        -0.00853   0.07467  -0.40491  -0.80290  -0.50194
  23        2PY        -0.01484   0.13376  -0.73002   0.44647  -0.88760
  24        2PZ        -0.92553   0.92436   0.16352   0.00087   0.01482
  25        3S         -0.00280   0.07574  -0.42621  -0.01107   0.19869
  26        3PX         0.00859  -0.13589   0.76327   0.95831   0.53558
  27        3PY         0.01470  -0.24122   1.36040  -0.52301   0.95475
  28        3PZ         0.94138  -1.12972  -0.20614  -0.00107  -0.01863
  29        4S          0.01717  -0.16485   0.89451   0.03045  -0.37839
  30        4PX        -0.00064   0.11542  -0.70289  -0.70012  -0.32347
  31        4PY        -0.00147   0.20327  -1.23624   0.37334  -0.58105
  32        4PZ        -0.33923   0.61060   0.13179   0.00070   0.01445
  33 5   H  1S          0.01345   0.03101  -0.29118   0.41806  -0.26079
  34        2S         -0.01648  -0.02490   0.26322  -0.42948   0.20469
  35        3S         -0.00173  -0.04454   0.28413  -0.24450   0.12150
  36 6   H  1S          0.01365   0.03158  -0.28970  -0.42742  -0.25150
  37        2S         -0.01714  -0.02633   0.26847   0.43829   0.19711
  38        3S         -0.00123  -0.04176   0.26643   0.24722   0.11731
                          36        37        38
                           V         V         V
     Eigenvalues --     3.31795  23.35230  23.70516
   1 1   C  1S         -0.00053  -1.41485  -1.45144
   2        2S         -0.00083   1.50893   1.56953
   3        2PX         0.78377  -0.00666   0.01205
   4        2PY        -0.43922  -0.01081   0.02129
   5        2PZ         0.00065  -0.00065  -0.00029
   6        3S          0.00224  -0.29626  -0.39902
   7        3PX        -1.11905   0.02425  -0.05535
   8        3PY         0.62526   0.04004  -0.09666
   9        3PZ        -0.00104   0.00184   0.00087
  10        4S         -0.02600   0.27407   0.76775
  11        4PX         1.95231  -0.02624   0.13212
  12        4PY        -1.09844  -0.04407   0.22934
  13        4PZ         0.00168  -0.00310  -0.00361
  14 2   H  1S          0.55705   0.01312   0.00694
  15        2S         -0.86470   0.00769  -0.01454
  16        3S         -0.46130  -0.08410  -0.03927
  17 3   H  1S         -0.56929   0.01496   0.00837
  18        2S          0.88168   0.00718  -0.01520
  19        3S          0.48451  -0.08624  -0.04016
  20 4   C  1S          0.00017  -1.44667   1.41958
  21        2S          0.00000   1.54296  -1.53517
  22        2PX        -0.71411   0.00606   0.01273
  23        2PY         0.40456   0.01090   0.02154
  24        2PZ        -0.00046  -0.00063   0.00016
  25        3S          0.00256  -0.30294   0.39048
  26        3PX         1.01620  -0.02221  -0.05659
  27        3PY        -0.58303  -0.03954  -0.09688
  28        3PZ         0.00072   0.00182  -0.00039
  29        4S         -0.00188   0.27991  -0.75928
  30        4PX        -1.78314   0.02308   0.13178
  31        4PY         1.02679   0.04261   0.22622
  32        4PZ        -0.00117  -0.00294   0.00256
  33 5   H  1S          0.48656   0.01319  -0.00479
  34        2S         -0.75680   0.00799   0.01389
  35        3S         -0.42689  -0.08303   0.03781
  36 6   H  1S         -0.48294   0.01195  -0.00361
  37        2S          0.75326   0.00928   0.01303
  38        3S          0.42063  -0.08153   0.03659
     Density Matrix:
                           1         2         3         4         5
   1 1   C  1S          0.65940
   2        2S          0.56151   0.49200
   3        2PX        -0.00051  -0.00066   0.08438
   4        2PY        -0.00127  -0.00176   0.00359   0.08765
   5        2PZ         0.00010   0.00015  -0.00014  -0.00031   0.06439
   6        3S         -0.08894  -0.15385   0.00259   0.00628  -0.00021
   7        3PX         0.00090   0.00138   0.13058   0.00118  -0.00011
   8        3PY         0.00121   0.00185   0.00117   0.13118  -0.00026
   9        3PZ         0.00020   0.00034  -0.00025  -0.00049   0.10354
  10        4S         -0.07942  -0.11439  -0.01536  -0.02770   0.00063
  11        4PX         0.00023   0.00152   0.07026  -0.00451  -0.00068
  12        4PY         0.00060   0.00298  -0.00453   0.06555  -0.00122
  13        4PZ        -0.00014  -0.00032  -0.00096  -0.00165   0.09591
  14 2   H  1S         -0.02055  -0.03273   0.03468  -0.06308  -0.00146
  15        2S         -0.02286  -0.03655   0.04899  -0.08788  -0.00112
  16        3S          0.00056  -0.00073   0.02068  -0.03311  -0.00006
  17 3   H  1S         -0.02107  -0.03352  -0.07281  -0.00197  -0.00154
  18        2S         -0.02317  -0.03701  -0.10061  -0.00201  -0.00120
  19        3S          0.00060  -0.00069  -0.03841   0.00125  -0.00008
  20 4   C  1S          0.00606   0.00977  -0.01086  -0.01874  -0.00048
  21        2S          0.00973   0.01521  -0.01738  -0.03000  -0.00078
  22        2PX         0.01033   0.01652  -0.01248  -0.03206   0.00055
  23        2PY         0.01805   0.02887  -0.03220  -0.04968   0.00101
  24        2PZ        -0.00058  -0.00093  -0.00044  -0.00073   0.06429
  25        3S         -0.02621  -0.03979   0.04877   0.08422   0.00235
  26        3PX         0.01596   0.02472  -0.01833  -0.04575   0.00071
  27        3PY         0.02784   0.04317  -0.04587  -0.07124   0.00132
  28        3PZ        -0.00098  -0.00157  -0.00078  -0.00129   0.10290
  29        4S          0.00536   0.00398   0.02093   0.03642   0.00294
  30        4PX         0.00307   0.00636  -0.01302  -0.02102   0.00079
  31        4PY         0.00524   0.01090  -0.02106  -0.03750   0.00150
  32        4PZ        -0.00083  -0.00135  -0.00122  -0.00206   0.09597
  33 5   H  1S          0.00420   0.00690  -0.00168  -0.01229  -0.00055
  34        2S          0.00635   0.01055   0.00349  -0.02494  -0.00003
  35        3S          0.00326   0.00478   0.00418  -0.01755   0.00011
  36 6   H  1S          0.00414   0.00680  -0.00988  -0.00767  -0.00056
  37        2S          0.00620   0.01032  -0.02343  -0.00942  -0.00005
  38        3S          0.00319   0.00467  -0.01728  -0.00513   0.00008
                           6         7         8         9        10
   6        3S          0.45263
   7        3PX        -0.00187   0.20240
   8        3PY        -0.00149  -0.00461   0.19682
   9        3PZ        -0.00066  -0.00020  -0.00041   0.16648
  10        4S          0.27368  -0.02594  -0.04754   0.00081   0.18246
  11        4PX        -0.00662   0.10924  -0.01019  -0.00111  -0.01483
  12        4PY        -0.01228  -0.01020   0.09877  -0.00195  -0.02863
  13        4PZ         0.00141  -0.00128  -0.00217   0.15420   0.00248
  14 2   H  1S          0.08750   0.05587  -0.09852  -0.00242   0.06930
  15        2S          0.09781   0.07928  -0.13679  -0.00188   0.08166
  16        3S          0.00608   0.03378  -0.05094  -0.00011   0.01119
  17 3   H  1S          0.08968  -0.11397  -0.00143  -0.00252   0.06905
  18        2S          0.09918  -0.15730  -0.00023  -0.00197   0.08000
  19        3S          0.00618  -0.05981   0.00377  -0.00012   0.01010
  20 4   C  1S         -0.02646  -0.01694  -0.02928  -0.00081   0.00515
  21        2S         -0.04005  -0.02633  -0.04552  -0.00132   0.00388
  22        2PX        -0.04623  -0.01775  -0.04546   0.00095  -0.01762
  23        2PY        -0.08087  -0.04575  -0.07088   0.00173  -0.03095
  24        2PZ         0.00279  -0.00060  -0.00098   0.10337   0.00285
  25        3S          0.10201   0.07155   0.12378   0.00393   0.00097
  26        3PX        -0.06687  -0.02621  -0.06469   0.00124  -0.02621
  27        3PY        -0.11691  -0.06501  -0.10159   0.00229  -0.04599
  28        3PZ         0.00462  -0.00106  -0.00174   0.16544   0.00474
  29        4S          0.00176   0.03164   0.05527   0.00488  -0.03246
  30        4PX        -0.02249  -0.01941  -0.02950   0.00132  -0.00656
  31        4PY        -0.03880  -0.02966  -0.05421   0.00247  -0.01086
  32        4PZ         0.00395  -0.00170  -0.00287   0.15430   0.00441
  33 5   H  1S         -0.02055  -0.00068  -0.01770  -0.00081  -0.01502
  34        2S         -0.03157   0.00846  -0.03677   0.00005  -0.01964
  35        3S         -0.01233   0.00798  -0.02642   0.00020  -0.00364
  36 6   H  1S         -0.02020  -0.01491  -0.00928  -0.00082  -0.01503
  37        2S         -0.03083  -0.03590  -0.01059   0.00003  -0.01990
  38        3S         -0.01198  -0.02669  -0.00607   0.00017  -0.00393
                          11        12        13        14        15
  11        4PX         0.06001
  12        4PY        -0.00898   0.05110
  13        4PZ        -0.00160  -0.00276   0.14287
  14 2   H  1S          0.03342  -0.05413  -0.00125   0.08120
  15        2S          0.04822  -0.07502  -0.00049   0.10950   0.14975
  16        3S          0.02098  -0.02779   0.00022   0.03672   0.05249
  17 3   H  1S         -0.06305   0.00177  -0.00129  -0.01316  -0.02478
  18        2S         -0.08742   0.00427  -0.00050  -0.02468  -0.04291
  19        3S         -0.03354   0.00444   0.00023  -0.01800  -0.02730
  20 4   C  1S         -0.00317  -0.00572  -0.00072   0.00422   0.00668
  21        2S         -0.00655  -0.01170  -0.00116   0.00698   0.01115
  22        2PX        -0.01329  -0.01998   0.00130   0.00184  -0.00270
  23        2PY        -0.02012  -0.03676   0.00234   0.01147   0.02426
  24        2PZ        -0.00088  -0.00151   0.09576  -0.00067  -0.00019
  25        3S          0.02318   0.04119   0.00339  -0.02099  -0.03355
  26        3PX        -0.02043  -0.02829   0.00177   0.00104  -0.00719
  27        3PY        -0.02848  -0.05354   0.00321   0.01703   0.03630
  28        3PZ        -0.00146  -0.00249   0.15328  -0.00098  -0.00019
  29        4S          0.00807   0.01520   0.00444  -0.01770  -0.02419
  30        4PX        -0.01475  -0.01250   0.00160  -0.00154  -0.00826
  31        4PY        -0.01255  -0.02961   0.00295   0.01539   0.02736
  32        4PZ        -0.00176  -0.00303   0.14297  -0.00055   0.00035
  33 5   H  1S          0.00196  -0.01568  -0.00041   0.01119   0.02335
  34        2S          0.00911  -0.02741   0.00051   0.02374   0.04443
  35        3S          0.00747  -0.01582   0.00038   0.01662   0.02786
  36 6   H  1S         -0.01459  -0.00585  -0.00042  -0.00905  -0.01814
  37        2S         -0.02827  -0.00528   0.00051  -0.01879  -0.03427
  38        3S         -0.01726  -0.00120   0.00036  -0.01015  -0.01773
                          16        17        18        19        20
  16        3S          0.02104
  17 3   H  1S         -0.01824   0.08249
  18        2S         -0.02747   0.10987   0.14846
  19        3S         -0.01287   0.03615   0.05112   0.02022
  20 4   C  1S          0.00369   0.00430   0.00675   0.00370   0.65947
  21        2S          0.00543   0.00710   0.01125   0.00544   0.56156
  22        2PX        -0.00348   0.00901   0.02219   0.01665   0.00115
  23        2PY         0.01766   0.00740   0.00971   0.00569   0.00179
  24        2PZ         0.00004  -0.00066  -0.00016   0.00007   0.00010
  25        3S         -0.01407  -0.02133  -0.03377  -0.01404  -0.08925
  26        3PX        -0.00697   0.01431   0.03493   0.02600  -0.00049
  27        3PY         0.02659   0.00954   0.01189   0.00715  -0.00106
  28        3PZ         0.00009  -0.00097  -0.00014   0.00013   0.00021
  29        4S         -0.00581  -0.01758  -0.02363  -0.00543  -0.08019
  30        4PX        -0.00693   0.01391   0.02741   0.01696  -0.00021
  31        4PY         0.01602   0.00649   0.00656   0.00195  -0.00021
  32        4PZ         0.00032  -0.00055   0.00037   0.00034  -0.00004
  33 5   H  1S          0.01624  -0.00908  -0.01816  -0.00941  -0.02012
  34        2S          0.02748  -0.01871  -0.03398  -0.01691  -0.02217
  35        3S          0.01466  -0.01008  -0.01750  -0.00892   0.00060
  36 6   H  1S         -0.00950   0.01119   0.02315   0.01585  -0.01989
  37        2S         -0.01724   0.02381   0.04418   0.02695  -0.02219
  38        3S         -0.00914   0.01665   0.02768   0.01440   0.00049
                          21        22        23        24        25
  21        2S          0.49205
  22        2PX         0.00166   0.08262
  23        2PY         0.00255   0.00370   0.08757
  24        2PZ         0.00015   0.00016   0.00025   0.06423
  25        3S         -0.15423  -0.00536  -0.00838  -0.00019   0.45371
  26        3PX        -0.00073   0.12853   0.00187   0.00010  -0.00021
  27        3PY        -0.00162   0.00195   0.13130   0.00012   0.00069
  28        3PZ         0.00035   0.00025   0.00039   0.10281  -0.00072
  29        4S         -0.11588   0.01387   0.02337   0.00081   0.27876
  30        4PX        -0.00148   0.07305  -0.00506   0.00053   0.00630
  31        4PY        -0.00226  -0.00504   0.06706   0.00098   0.00995
  32        4PZ        -0.00015   0.00094   0.00168   0.09587   0.00089
  33 5   H  1S         -0.03205  -0.03359   0.06350  -0.00147   0.08571
  34        2S         -0.03543  -0.04988   0.08845  -0.00115   0.09480
  35        3S         -0.00061  -0.02260   0.03351  -0.00009   0.00564
  36 6   H  1S         -0.03171   0.07111   0.00283  -0.00140   0.08482
  37        2S         -0.03547   0.10117   0.00110  -0.00106   0.09486
  38        3S         -0.00074   0.04044  -0.00295  -0.00007   0.00590
                          26        27        28        29        30
  26        3PX         0.20027
  27        3PY        -0.00256   0.19741
  28        3PZ         0.00013   0.00018   0.16456
  29        4S          0.02544   0.04268   0.00103   0.18704
  30        4PX         0.11426  -0.01055   0.00084   0.01572   0.06625
  31        4PY        -0.01062   0.10134   0.00156   0.02516  -0.01032
  32        4PZ         0.00120   0.00215   0.15345   0.00241   0.00135
  33 5   H  1S         -0.05374   0.09945  -0.00242   0.06705  -0.03449
  34        2S         -0.08023   0.13803  -0.00192   0.07739  -0.05197
  35        3S         -0.03680   0.05162  -0.00015   0.00930  -0.02404
  36 6   H  1S          0.11233   0.00366  -0.00233   0.06755   0.06559
  37        2S          0.15962  -0.00002  -0.00180   0.07905   0.09365
  38        3S          0.06349  -0.00609  -0.00012   0.01019   0.03757
                          31        32        33        34        35
  31        4PY         0.05357
  32        4PZ         0.00249   0.14312
  33 5   H  1S          0.05563  -0.00125   0.08082
  34        2S          0.07735  -0.00050   0.11005   0.15229
  35        3S          0.02906   0.00021   0.03804   0.05519   0.02281
  36 6   H  1S         -0.00183  -0.00123  -0.01247  -0.02599  -0.01984
  37        2S         -0.00611  -0.00047  -0.02612  -0.04821  -0.03146
  38        3S         -0.00625   0.00021  -0.02008  -0.03162  -0.01554
                          36        37        38
  36 6   H  1S          0.07997
  37        2S          0.10963   0.15267
  38        3S          0.03815   0.05564   0.02307
    Full Mulliken population analysis:
                           1         2         3         4         5
   1 1   C  1S          0.65940
   2        2S          0.49325   0.49200
   3        2PX         0.00000   0.00000   0.08438
   4        2PY         0.00000   0.00000   0.00000   0.08765
   5        2PZ         0.00000   0.00000   0.00000   0.00000   0.06439
   6        3S         -0.02928  -0.06443   0.00000   0.00000   0.00000
   7        3PX         0.00000   0.00000   0.08215   0.00000   0.00000
   8        3PY         0.00000   0.00000   0.00000   0.08253   0.00000
   9        3PZ         0.00000   0.00000   0.00000   0.00000   0.06514
  10        4S         -0.01221  -0.02141   0.00000   0.00000   0.00000
  11        4PX         0.00000   0.00000   0.01547   0.00000   0.00000
  12        4PY         0.00000   0.00000   0.00000   0.01444   0.00000
  13        4PZ         0.00000   0.00000   0.00000   0.00000   0.02112
  14 2   H  1S         -0.00023  -0.00033   0.00179   0.00561   0.00001
  15        2S         -0.00166  -0.00318   0.00428   0.01321   0.00001
  16        3S          0.00004  -0.00007   0.00069   0.00191   0.00000
  17 3   H  1S         -0.00025  -0.00037   0.00791   0.00000   0.00001
  18        2S         -0.00174  -0.00332   0.01776   0.00000   0.00001
  19        3S          0.00005  -0.00007   0.00256  -0.00000   0.00000
  20 4   C  1S          0.00000   0.00000  -0.00002  -0.00006   0.00000
  21        2S          0.00000  -0.00000  -0.00002  -0.00005   0.00000
  22        2PX        -0.00002  -0.00002   0.00011   0.00085   0.00000
  23        2PY        -0.00006  -0.00005   0.00085   0.00195   0.00000
  24        2PZ        -0.00000  -0.00000  -0.00000  -0.00000   0.00041
  25        3S         -0.00059  -0.00099   0.00254   0.00759  -0.00000
  26        3PX        -0.00054  -0.00099   0.00019   0.00552   0.00000
  27        3PY        -0.00163  -0.00298   0.00554   0.01067   0.00000
  28        3PZ        -0.00000  -0.00000  -0.00000  -0.00000   0.00609
  29        4S          0.00034   0.00030   0.00095   0.00286  -0.00000
  30        4PX        -0.00018  -0.00045  -0.00070   0.00146   0.00000
  31        4PY        -0.00053  -0.00134   0.00146   0.00098   0.00000
  32        4PZ        -0.00000  -0.00000  -0.00000  -0.00000   0.00902
  33 5   H  1S          0.00000   0.00000  -0.00000  -0.00000   0.00000
  34        2S          0.00001   0.00002   0.00000  -0.00032   0.00000
  35        3S          0.00008   0.00013   0.00001  -0.00070  -0.00000
  36 6   H  1S          0.00000   0.00000  -0.00000  -0.00000   0.00000
  37        2S          0.00001   0.00002  -0.00024  -0.00007   0.00000
  38        3S          0.00007   0.00013  -0.00057  -0.00012  -0.00000
                           6         7         8         9        10
   6        3S          0.45263
   7        3PX         0.00000   0.20240
   8        3PY         0.00000   0.00000   0.19682
   9        3PZ         0.00000   0.00000   0.00000   0.16648
  10        4S          0.21202   0.00000   0.00000   0.00000   0.18246
  11        4PX         0.00000   0.07138   0.00000   0.00000   0.00000
  12        4PY         0.00000   0.00000   0.06455   0.00000   0.00000
  13        4PZ         0.00000   0.00000   0.00000   0.10077   0.00000
  14 2   H  1S          0.01602   0.01066   0.03239   0.00003   0.01831
  15        2S          0.04110   0.01942   0.05772   0.00003   0.04703
  16        3S          0.00280   0.00395   0.01025   0.00000   0.00844
  17 3   H  1S          0.01700   0.04432   0.00000   0.00003   0.01848
  18        2S          0.04248   0.07733   0.00000   0.00003   0.04653
  19        3S          0.00287   0.01387  -0.00000   0.00000   0.00767
  20 4   C  1S         -0.00059  -0.00057  -0.00171   0.00000   0.00033
  21        2S         -0.00100  -0.00105  -0.00315   0.00000   0.00029
  22        2PX         0.00241   0.00019   0.00549   0.00000   0.00080
  23        2PY         0.00729   0.00552   0.01062   0.00000   0.00243
  24        2PZ         0.00000  -0.00000  -0.00000   0.00611   0.00000
  25        3S          0.02170   0.01340   0.04012  -0.00000   0.00037
  26        3PX         0.01252  -0.00126   0.01845   0.00000   0.00404
  27        3PY         0.03789   0.01854   0.02854   0.00000   0.01227
  28        3PZ         0.00000  -0.00000  -0.00000   0.03520   0.00000
  29        4S          0.00067   0.00488   0.01475  -0.00000  -0.02037
  30        4PX         0.00632  -0.00397   0.00585   0.00000   0.00199
  31        4PY         0.01887   0.00588   0.00128   0.00000   0.00570
  32        4PZ         0.00000  -0.00000  -0.00000   0.04926   0.00000
  33 5   H  1S         -0.00006  -0.00000  -0.00019   0.00000  -0.00081
  34        2S         -0.00123   0.00006  -0.00324  -0.00000  -0.00330
  35        3S         -0.00201   0.00010  -0.00426  -0.00000  -0.00131
  36 6   H  1S         -0.00005  -0.00013  -0.00005   0.00000  -0.00079
  37        2S         -0.00116  -0.00254  -0.00052  -0.00000  -0.00329
  38        3S         -0.00193  -0.00352  -0.00055  -0.00000  -0.00140
                          11        12        13        14        15
  11        4PX         0.06001
  12        4PY         0.00000   0.05110
  13        4PZ         0.00000   0.00000   0.14287
  14 2   H  1S          0.00628   0.01751   0.00002   0.08120
  15        2S          0.01525   0.04087   0.00001   0.07735   0.14975
  16        3S          0.00520   0.01187  -0.00000   0.01372   0.04141
  17 3   H  1S          0.02362  -0.00000   0.00002  -0.00001  -0.00066
  18        2S          0.05498  -0.00001   0.00001  -0.00065  -0.00539
  19        3S          0.01647  -0.00001  -0.00000  -0.00201  -0.00796
  20 4   C  1S         -0.00018  -0.00058   0.00000   0.00000   0.00002
  21        2S         -0.00046  -0.00144   0.00000   0.00000   0.00003
  22        2PX        -0.00072   0.00139   0.00000  -0.00000   0.00000
  23        2PY         0.00139   0.00096   0.00000  -0.00000  -0.00036
  24        2PZ        -0.00000  -0.00000   0.00900   0.00000   0.00000
  25        3S          0.00651   0.02003  -0.00000  -0.00007  -0.00147
  26        3PX        -0.00418   0.00560   0.00000  -0.00000   0.00004
  27        3PY         0.00564   0.00127   0.00000  -0.00022  -0.00354
  28        3PZ        -0.00000  -0.00000   0.04893   0.00000   0.00000
  29        4S          0.00245   0.00798  -0.00000  -0.00103  -0.00432
  30        4PX        -0.00709   0.00317   0.00000   0.00001   0.00018
  31        4PY         0.00318  -0.00560   0.00000  -0.00243  -0.01028
  32        4PZ        -0.00000  -0.00000   0.08971   0.00000  -0.00000
  33 5   H  1S          0.00002  -0.00233   0.00000   0.00000   0.00000
  34        2S          0.00026  -0.00986  -0.00000   0.00000   0.00016
  35        3S          0.00028  -0.00731  -0.00000   0.00023   0.00146
  36 6   H  1S         -0.00176  -0.00049   0.00000  -0.00000  -0.00004
  37        2S         -0.00829  -0.00107  -0.00000  -0.00004  -0.00090
  38        3S         -0.00655  -0.00032  -0.00000  -0.00046  -0.00244
                          16        17        18        19        20
  16        3S          0.02104
  17 3   H  1S         -0.00204   0.08249
  18        2S         -0.00801   0.07761   0.14846
  19        3S         -0.00669   0.01351   0.04033   0.02022
  20 4   C  1S          0.00009   0.00000   0.00002   0.00009   0.65947
  21        2S          0.00016   0.00000   0.00003   0.00016   0.49330
  22        2PX         0.00001  -0.00000  -0.00028  -0.00058   0.00000
  23        2PY        -0.00074  -0.00000  -0.00008  -0.00013   0.00000
  24        2PZ        -0.00000   0.00000   0.00000  -0.00000   0.00000
  25        3S         -0.00242  -0.00007  -0.00150  -0.00243  -0.02938
  26        3PX         0.00007  -0.00016  -0.00289  -0.00364   0.00000
  27        3PY        -0.00444  -0.00007  -0.00065  -0.00066   0.00000
  28        3PZ        -0.00000   0.00000   0.00000  -0.00000   0.00000
  29        4S         -0.00217  -0.00103  -0.00426  -0.00205  -0.01233
  30        4PX         0.00018  -0.00185  -0.00865  -0.00669   0.00000
  31        4PY        -0.00755  -0.00057  -0.00137  -0.00051   0.00000
  32        4PZ        -0.00000   0.00000  -0.00000  -0.00000   0.00000
  33 5   H  1S          0.00023  -0.00000  -0.00004  -0.00043  -0.00022
  34        2S          0.00144  -0.00004  -0.00092  -0.00237  -0.00159
  35        3S          0.00247  -0.00046  -0.00245  -0.00286   0.00005
  36 6   H  1S         -0.00043   0.00000   0.00000   0.00022  -0.00020
  37        2S         -0.00238   0.00000   0.00015   0.00141  -0.00156
  38        3S         -0.00290   0.00023   0.00145   0.00242   0.00004
                          21        22        23        24        25
  21        2S          0.49205
  22        2PX         0.00000   0.08262
  23        2PY         0.00000   0.00000   0.08757
  24        2PZ         0.00000   0.00000   0.00000   0.06423
  25        3S         -0.06459   0.00000   0.00000   0.00000   0.45371
  26        3PX         0.00000   0.08086   0.00000   0.00000   0.00000
  27        3PY         0.00000   0.00000   0.08260   0.00000   0.00000
  28        3PZ         0.00000   0.00000   0.00000   0.06468   0.00000
  29        4S         -0.02169   0.00000   0.00000   0.00000   0.21596
  30        4PX         0.00000   0.01609   0.00000   0.00000   0.00000
  31        4PY         0.00000   0.00000   0.01477   0.00000   0.00000
  32        4PZ         0.00000   0.00000   0.00000   0.02111   0.00000
  33 5   H  1S         -0.00031   0.00151   0.00565   0.00000   0.01541
  34        2S         -0.00304   0.00388   0.01361   0.00001   0.03943
  35        3S         -0.00006   0.00068   0.00200   0.00000   0.00259
  36 6   H  1S         -0.00028   0.00683   0.00002   0.00000   0.01491
  37        2S         -0.00298   0.01724   0.00001   0.00001   0.03896
  38        3S         -0.00007   0.00270  -0.00001   0.00000   0.00269
                          26        27        28        29        30
  26        3PX         0.20027
  27        3PY         0.00000   0.19741
  28        3PZ         0.00000   0.00000   0.16456
  29        4S          0.00000   0.00000   0.00000   0.18704
  30        4PX         0.07467   0.00000   0.00000   0.00000   0.06625
  31        4PY         0.00000   0.06622   0.00000   0.00000   0.00000
  32        4PZ         0.00000   0.00000   0.10027   0.00000   0.00000
  33 5   H  1S          0.00911   0.03332   0.00003   0.01759   0.00582
  34        2S          0.01759   0.05984   0.00003   0.04433   0.01478
  35        3S          0.00387   0.01074   0.00000   0.00699   0.00537
  36 6   H  1S          0.04145   0.00008   0.00003   0.01758   0.02445
  37        2S          0.07700  -0.00000   0.00003   0.04499   0.05898
  38        3S          0.01480  -0.00009   0.00000   0.00763   0.01863
                          31        32        33        34        35
  31        4PY         0.05357
  32        4PZ         0.00000   0.14312
  33 5   H  1S          0.01856   0.00002   0.08082
  34        2S          0.04351   0.00001   0.07774   0.15229
  35        3S          0.01284  -0.00000   0.01421   0.04355   0.02281
  36 6   H  1S         -0.00004   0.00002  -0.00001  -0.00078  -0.00232
  37        2S         -0.00024   0.00001  -0.00079  -0.00657  -0.00955
  38        3S         -0.00020  -0.00000  -0.00235  -0.00960  -0.00829
                          36        37        38
  36 6   H  1S          0.07997
  37        2S          0.07744   0.15267
  38        3S          0.01426   0.04390   0.02307
     Gross orbital populations:
                           1
   1 1   C  1S          1.10435
   2        2S          0.88586
   3        2PX         0.22710
   4        2PY         0.23592
   5        2PZ         0.16620
   6        3S          0.79285
   7        3PX         0.56102
   8        3PY         0.55567
   9        3PZ         0.42308
  10        4S          0.50426
  11        4PX         0.25916
  12        4PY         0.21171
  13        4PZ         0.41243
  14 2   H  1S          0.27365
  15        2S          0.46710
  16        3S          0.08614
  17 3   H  1S          0.27763
  18        2S          0.46495
  19        3S          0.08273
  20 4   C  1S          1.10441
  21        2S          0.88584
  22        2PX         0.22203
  23        2PY         0.23583
  24        2PZ         0.16557
  25        3S          0.79239
  26        3PX         0.55241
  27        3PY         0.55630
  28        3PZ         0.41985
  29        4S          0.50801
  30        4PX         0.27460
  31        4PY         0.21616
  32        4PZ         0.41252
  33 5   H  1S          0.27253
  34        2S          0.46971
  35        3S          0.08885
  36 6   H  1S          0.26988
  37        2S          0.47066
  38        3S          0.09064
          Condensed to atoms (all electrons):
               1          2          3          4          5          6
     1  C    5.033559   0.387218   0.388220   0.601711  -0.035958  -0.035144
     2  H    0.387218   0.516946  -0.033412  -0.040263   0.005991  -0.009587
     3  H    0.388220  -0.033412   0.514066  -0.039861  -0.009586   0.005884
     4  C    0.601711  -0.040263  -0.039861   5.056946   0.383987   0.383398
     5  H   -0.035958   0.005991  -0.009586   0.383987   0.526921  -0.040266
     6  H   -0.035144  -0.009587   0.005884   0.383398  -0.040266   0.526896
 Mulliken charges:
               1
     1  C   -0.339607
     2  H    0.173106
     3  H    0.174689
     4  C   -0.345918
     5  H    0.168911
     6  H    0.168819
 Sum of Mulliken charges =  -0.00000
 Mulliken charges with hydrogens summed into heavy atoms:
               1
     1  C    0.008188
     4  C   -0.008188
 Electronic spatial extent (au):  <R**2>=             83.7656
 Charge=             -0.0000 electrons
 Dipole moment (field-independent basis, Debye):
    X=             -0.0001    Y=              0.0199    Z=             -0.1244  Tot=              0.1260
 Quadrupole moment (field-independent basis, Debye-Ang):
   XX=            -12.2036   YY=            -12.2228   ZZ=            -15.6723
   XY=              0.0129   XZ=             -0.0004   YZ=             -0.0015
 Traceless Quadrupole moment (field-independent basis, Debye-Ang):
   XX=              1.1627   YY=              1.1434   ZZ=             -2.3061
   XY=              0.0129   XZ=             -0.0004   YZ=             -0.0015
 Octapole moment (field-independent basis, Debye-Ang**2):
  XXX=             -0.3281  YYY=             -0.0783  ZZZ=             -0.0727  XYY=              0.1690
  XXY=             -0.0224  XXZ=             -0.1658  XZZ=             -0.0938  YZZ=             -0.0856
  YYZ=             -0.2191  XYZ=             -0.0457
 Hexadecapole moment (field-independent basis, Debye-Ang**3):
 XXXX=            -34.2957 YYYY=            -55.2711 ZZZZ=            -17.8254 XXXY=             -7.2473
 XXXZ=              0.0206 YYYX=            -10.7209 YYYZ=              0.0281 ZZZX=              0.0259
 ZZZY=              0.0421 XXYY=            -16.2049 XXZZ=             -9.9291 YYZZ=            -13.6542
 XXYZ=              0.0085 YYXZ=             -0.0003 ZZXY=             -3.2057
 N-N= 3.305463433481D+01 E-N=-2.478168568865D+02  KE= 7.814878020044D+01
 Orbital energies and kinetic energies (alpha):
                                 1                 2
   1         O               -10.290544         15.978555
   2         O               -10.288152         15.979956
   3         O                -0.863619          1.537529
   4         O                -0.672213          1.271447
   5         O                -0.559218          0.941611
   6         O                -0.509219          1.283502
   7         O                -0.436639          1.043346
   8         O                -0.356717          1.038444
   9         V                 0.079473          1.182316
  10         V                 0.140893          0.589378
  11         V                 0.164658          0.594986
  12         V                 0.170136          0.679911
  13         V                 0.240778          0.583297
  14         V                 0.374046          0.854899
  15         V                 0.393189          0.933188
  16         V                 0.398337          0.779915
  17         V                 0.464252          1.193216
  18         V                 0.488197          1.421892
  19         V                 0.493882          1.302348
  20         V                 0.590941          1.652397
  21         V                 0.665528          1.572627
  22         V                 0.690808          2.146710
  23         V                 0.772560          2.418479
  24         V                 0.775541          2.325442
  25         V                 0.840500          1.082499
  26         V                 0.951384          3.419613
  27         V                 2.231691          3.925019
  28         V                 2.290210          4.029119
  29         V                 2.332485          4.303443
  30         V                 2.405873          4.515706
  31         V                 2.671051          6.300526
  32         V                 2.817255          6.304272
  33         V                 2.879065          6.139590
  34         V                 2.951658          6.225720
  35         V                 3.139653          6.821363
  36         V                 3.317949          6.402910
  37         V                23.352300         60.074744
  38         V                23.705158         60.203275
 Total kinetic energy from orbitals= 7.814878020044D+01
 Calling FoFJK, ICntrl=      2127 FMM=F ISym2X=0 I1Cent= 0 IOpClX= 0 NMat=1 NMatS=1 NMatT=0.
 -------------------------------------------------------------------
 Center     Atomic                   Forces (Hartrees/Bohr)
 Number     Number              X              Y              Z
 -------------------------------------------------------------------
      1        6           0.014080500    0.008585471   -0.005109588
      2        1          -0.009227161    0.006362923    0.002579349
      3        1           0.002152220   -0.004456328    0.002323625
      4        6           0.008141144    0.008228468   -0.005350998
      5        1           0.002480307   -0.013249433    0.002713976
      6        1          -0.017627010   -0.005471102    0.002843637
 -------------------------------------------------------------------
 Cartesian Forces:  Max     0.017627010 RMS     0.008030027

 GradGradGradGradGradGradGradGradGradGradGradGradGradGradGradGradGradGrad
 Berny optimization.
 Search for a local minimum.
 Step number   1 out of a maximum of    2
 All quantities printed in internal units (Hartrees-Bohrs-Radians)
 Second derivative matrix not updated -- first step.
 The second derivative matrix:
                          X1        Y1        Z1        X2        Y2
           X1           0.75809
           Y1           0.09742   0.85648
           Z1           0.00722   0.01143   0.17080
           X2          -0.16351   0.09561   0.00273   0.14090
           Y2           0.10173  -0.28307  -0.00962  -0.11487   0.27197
           Z2           0.00430  -0.01207  -0.05502  -0.00391   0.00998
           X3          -0.35307  -0.00094  -0.01032  -0.00020  -0.00010
           Y3          -0.00687  -0.11010  -0.00251   0.03244   0.01875
           Z3          -0.01324  -0.00241  -0.05606   0.00195   0.00072
           X4          -0.26658  -0.17760  -0.00090   0.02283   0.01323
           Y4          -0.17812  -0.47150  -0.00153  -0.01319  -0.00764
           Z4           0.00169   0.00301  -0.09373  -0.00077  -0.00107
           X5           0.02341  -0.01353   0.00078  -0.00001   0.00001
           Y5           0.01182  -0.00683   0.00105   0.00001  -0.00000
           Z5          -0.00067   0.00042   0.01718   0.00033  -0.00017
           X6           0.00166  -0.00096   0.00049  -0.00001   0.00001
           Y6          -0.02598   0.01501   0.00118   0.00001  -0.00000
           Z6           0.00069  -0.00037   0.01683  -0.00033   0.00017
                          Z2        X3        Y3        Z3        X4
           Z2           0.02867
           X3          -0.00037   0.35316
           Y3           0.00206   0.00111   0.07593
           Z3           0.01054   0.01124   0.00169   0.02952
           X4           0.00062   0.00013  -0.02669  -0.00060   0.71204
           Y4          -0.00033  -0.00008   0.01542   0.00037   0.11999
           Z4           0.01580  -0.00055  -0.00124   0.01603  -0.00659
           X5          -0.00031  -0.00001   0.00001   0.00031  -0.14721
           Y5           0.00020   0.00001  -0.00000  -0.00020   0.09314
           Z5           0.00919   0.00032  -0.00020  -0.00933  -0.00390
           X6          -0.00032  -0.00001   0.00001   0.00032  -0.32121
           Y6           0.00017   0.00001  -0.00000  -0.00017  -0.02206
           Z6          -0.00917  -0.00032   0.00020   0.00931   0.01137
                          Y4        Z4        X5        Y5        Z5
           Y4           0.85652
           Z4          -0.01234   0.17529
           X5           0.08505  -0.00257   0.12591
           Y5          -0.28824   0.00922  -0.10393   0.27875
           Z5           0.01143  -0.05685   0.00346  -0.00981   0.02961
           X6          -0.01365   0.00879  -0.00209  -0.00104   0.00045
           Y6          -0.10456   0.00243   0.03240   0.01632  -0.00166
           Z6           0.00240  -0.05654  -0.00168  -0.00046   0.01021
                          X6        Y6        Z6
           X6           0.32167
           Y6           0.01563   0.07323
           Z6          -0.00973  -0.00195   0.02936
 ITU=  0
     Eigenvalues ---    0.03707   0.04378   0.09106   0.10125   0.13496
     Eigenvalues ---    0.17450   0.26250   0.28990   0.52853   0.70043
     Eigenvalues ---    0.97377   1.55828
 Angle between quadratic step and forces=  35.68 degrees.
 Linear search not attempted -- first point.
 B after Tr=     0.005992    0.007085   -0.012807
         Rot=    1.000000   -0.000065    0.000035   -0.000127 Ang=  -0.02 deg.
 Variable       Old X    -DE/DX   Delta X   Delta X   Delta X     New X
                                 (Linear)    (Quad)   (Total)
    X1       -0.63481   0.01408   0.00000   0.02011   0.02638  -0.60843
    Y1       -1.09890   0.00859   0.00000   0.02288   0.02981  -1.06909
    Z1        0.01557  -0.00511   0.00000  -0.02739  -0.04038  -0.02481
    X2        0.40628  -0.00923   0.00000  -0.03213  -0.02540   0.38087
    Y2       -2.89232   0.00636   0.00000   0.02501   0.03219  -2.86013
    Z2       -0.05518   0.00258   0.00000   0.03366   0.02050  -0.03467
    X3       -2.68457   0.00215   0.00000   0.02446   0.03074  -2.65382
    Y3       -1.10755  -0.00446   0.00000  -0.01913  -0.01272  -1.12028
    Z3       -0.05559   0.00232   0.00000   0.03263   0.01949  -0.03610
    X4        0.63109   0.00814   0.00000   0.00468   0.01039   0.64148
    Y4        1.09202   0.00823   0.00000   0.00648   0.01373   1.10574
    Z4        0.01169  -0.00535   0.00000  -0.02560  -0.03822  -0.02654
    X5       -0.31047   0.00248   0.00000  -0.00642  -0.00117  -0.31165
    Y5        2.95382  -0.01325   0.00000  -0.04096  -0.03396   2.91986
    Z5       -0.05955   0.00271   0.00000   0.03226   0.01981  -0.03975
    X6        2.72880  -0.01763   0.00000  -0.04663  -0.04094   2.68786
    Y6        1.22387  -0.00547   0.00000  -0.03683  -0.02905   1.19482
    Z6       -0.05872   0.00284   0.00000   0.03128   0.01881  -0.03991
         Item               Value     Threshold  Converged?
 Maximum Force            0.017627     0.000450     NO 
 RMS     Force            0.008030     0.000300     NO 
 Maximum Displacement     0.040936     0.001800     NO 
 RMS     Displacement     0.026856     0.001200     NO 
 Predicted change in Energy=-1.665352D-03
 GradGradGradGradGradGradGradGradGradGradGradGradGradGradGradGradGradGrad

 Unable to Open any file for archive entry.
 1\1\GINC-BHD0013\Force\RwB97XD\6-311G\C2H4\BWEIGHT\11-Jan-2023\0\\# WB
 97XD/6-311G SCF=XQC FORCE nosym pop=full guess=read\\MD Step 1000\\0,1
 \C,-0.3359248,-0.58151246,0.00824146\H,0.21499367,-1.53055207,-0.02919
 803\H,-1.42061063,-0.58609241,-0.02941805\C,0.3339588,0.57786963,0.006
 18384\H,-0.16429584,1.56309366,-0.03151472\H,1.44401746,0.64764359,-0.
 03107151\\Version=ES64L-G16RevC.01\HF=-78.5556451\RMSD=7.240e-09\RMSF=
 8.030e-03\Dipole=-0.0000382,0.007827,-0.0489501\Quadrupole=0.8644071,0
 .8500863,-1.7144934,0.0096019,-0.0003178,-0.00111\PG=C01 [X(C2H4)]\\@
 The archive entry for this job was punched.


 There ain't no surer way to find out whether you
 like people or hate them than to travel with them.
                                     -- Mark Twain
 Job cpu time:       0 days  0 hours  0 minutes 10.9 seconds.
 Elapsed time:       0 days  0 hours  0 minutes  3.2 seconds.
 File lengths (MBytes):  RWF=    272 Int=      0 D2E=      0 Chk=     32 Scr=     32
 Normal termination of Gaussian 16 at Wed Jan 11 19:43:52 2023.
