6
MD Step 0
C  -0.33763715 -0.58748864 0.00000000
H  0.19552659 -1.51519357 0.00000000
H  -1.40763715 -0.58748864 0.00000000
C  0.33763715 0.58748865 0.00000000
H  -0.19552659 1.51519357 0.00000000
H  1.40763715 0.58748865 0.00000000
6
MD Step 1
C  -0.33800566 -0.58783546 -0.00039465
H  0.19788954 -1.51298493 0.00235143
H  -1.40542340 -0.58520895 0.00235001
C  0.33721710 0.58704637 -0.00039419
H  -0.19318652 1.51768598 0.00234988
H  1.41011693 0.58991067 0.00234846
6
MD Step 2
C  -0.33831543 -0.58808309 -0.00078675
H  0.20026051 -1.51110015 0.00468763
H  -1.40354486 -0.58309344 0.00468487
C  0.33675210 0.58651485 -0.00078579
H  -0.19087794 1.52043086 0.00468442
H  1.41279101 0.59244995 0.00468149
6
MD Step 3
C  -0.33856406 -0.58823179 -0.00117731
H  0.20264435 -1.50954335 0.00701459
H  -1.40203947 -0.58114291 0.00701084
C  0.33624617 0.58589705 -0.00117575
H  -0.18858746 1.52340432 0.00700925
H  1.41560267 0.59510274 0.00700446
6
MD Step 4
C  -0.33875057 -0.58828357 -0.00156803
H  0.20504660 -1.50830749 0.00934226
H  -1.40093167 -0.57935325 0.00933831
C  0.33570294 0.58519625 -0.00156563
H  -0.18629562 1.52658106 0.00933378
H  1.41849640 0.59786832 0.00932637
6
MD Step 5
C  -0.33887033 -0.58823710 -0.00195611
H  0.20744284 -1.50740514 0.01165386
H  -1.40026223 -0.57774614 0.01165108
C  0.33513071 0.58442111 -0.00195246
H  -0.18400799 1.52990439 0.01164046
H  1.42138874 0.60071829 0.01162919
6
MD Step 6
C  -0.33892038 -0.58809279 -0.00233947
H  0.20980980 -1.50683770 0.01393677
H  -1.40005601 -0.57633806 0.01393722
C  0.33453719 0.58358036 -0.00233394
H  -0.18172474 1.53331828 0.01391576
H  1.42420115 0.60362771 0.01389880
6
MD Step 7
C  -0.33890519 -0.58785855 -0.00272244
H  0.21215962 -1.50656160 0.01621659
H  -1.40028713 -0.57510621 0.01622307
C  0.33392358 0.58267696 -0.00271420
H  -0.17940719 1.53680255 0.01618428
H  1.42689581 0.60660925 0.01615921
6
MD Step 8
C  -0.33882022 -0.58753319 -0.00309928
H  0.21444216 -1.50658737 0.01845894
H  -1.40097777 -0.57408675 0.01847506
C  0.33330108 0.58172450 -0.00308725
H  -0.17707635 1.54027550 0.01841053
H  1.42937824 0.60961506 0.01837432
6
MD Step 9
C  -0.33866759 -0.58712201 -0.00346984
H  0.21663872 -1.50688658 0.02066287
H  -1.40210424 -0.57328127 0.02069295
C  0.33267508 0.58073136 -0.00345275
H  -0.17472018 1.54368868 0.02059246
H  1.43159255 0.61263039 0.02054149
6
MD Step 10
C  -0.33845080 -0.58663152 -0.00383431
H  0.21873125 -1.50742419 0.02282942
H  -1.40362923 -0.57268821 0.02287840
C  0.33205038 0.57970585 -0.00381068
H  -0.17232539 1.54699647 0.02272998
H  1.43349095 0.61564233 0.02266018
6
MD Step 11
C  -0.33817301 -0.58606759 -0.00419156
H  0.22069296 -1.50816929 0.02495179
H  -1.40551278 -0.57231266 0.02502509
C  0.33143275 0.57865779 -0.00415974
H  -0.16988775 1.55014720 0.02481528
H  1.43502467 0.61863008 0.02472216
6
MD Step 12
C  -0.33784177 -0.58544020 -0.00454391
H  0.22251756 -1.50906746 0.02704394
H  -1.40768511 -0.57213779 0.02714712
C  0.33082418 0.57759354 -0.00450211
H  -0.16738393 1.55311260 0.02686129
H  1.43617321 0.62159365 0.02674025
6
MD Step 13
C  -0.33745698 -0.58475144 -0.00488525
H  0.22414903 -1.51011253 0.02906976
H  -1.41011930 -0.57219551 0.02920877
C  0.33023468 0.57652781 -0.00483166
H  -0.16484243 1.55581782 0.02883121
H  1.43687387 0.62448321 0.02867724
6
MD Step 14
C  -0.33703203 -0.58401658 -0.00522235
H  0.22560850 -1.51122111 0.03106959
H  -1.41270610 -0.57244028 0.03124974
C  0.32966100 0.57546232 -0.00515500
H  -0.16221782 1.55826859 0.03076446
H  1.43714885 0.62732564 0.03057303
6
MD Step 15
C  -0.33656633 -0.58323668 -0.00554735
H  0.22683217 -1.51239629 0.03299731
H  -1.41541932 -0.57291152 0.03322404
C  0.32911401 0.57441302 -0.00546445
H  -0.15955317 1.56038898 0.03261463
H  1.43694231 0.63006183 0.03238091
6
MD Step 16
C  -0.33606727 -0.58242055 -0.00586005
H  0.22780330 -1.51359674 0.03485222
H  -1.41818518 -0.57360220 0.03513034
C  0.32859651 0.57338789 -0.00575987
H  -0.15684900 1.56215377 0.03438065
H  1.43625266 0.63267859 0.03410013
6
MD Step 17
C  -0.33554034 -0.58157484 -0.00615802
H  0.22849421 -1.51479588 0.03662040
H  -1.42094269 -0.57451718 0.03695415
C  0.32811303 0.57239665 -0.00603901
H  -0.15412169 1.56353042 0.03604856
H  1.43507419 0.63515025 0.03571703
6
MD Step 18
C  -0.33499252 -0.58070755 -0.00644018
H  0.22888804 -1.51596120 0.03829629
H  -1.42362366 -0.57565189 0.03868896
C  0.32766619 0.57144708 -0.00630104
H  -0.15138218 1.56450092 0.03761287
H  1.43341858 0.63746025 0.03722669
6
MD Step 19
C  -0.33442974 -0.57982544 -0.00670438
H  0.22896423 -1.51706966 0.03986775
H  -1.42616911 -0.57700712 0.04032175
C  0.32725919 0.57054745 -0.00654410
H  -0.14865078 1.56504718 0.03906186
H  1.43130003 0.63958639 0.03861789
6
MD Step 20
C  -0.33386295 -0.57894021 -0.00695373
H  0.22873620 -1.51807076 0.04135379
H  -1.42849307 -0.57855175 0.04186971
C  0.32688950 0.56970016 -0.00677145
H  -0.14591984 1.56518871 0.04041477
H  1.42877253 0.64153848 0.03991131
6
MD Step 21
C  -0.33329609 -0.57805635 -0.00718436
H  0.22817989 -1.51895884 0.04273244
H  -1.43055593 -0.58029439 0.04331006
C  0.32656092 0.56891370 -0.00697972
H  -0.14322507 1.56491087 0.04165058
H  1.42585758 0.64328651 0.04108644
6
MD Step 22
C  -0.33273656 -0.57718178 -0.00739631
H  0.22729737 -1.51970982 0.04400471
H  -1.43230163 -0.58222009 0.04464232
C  0.32627291 0.56819196 -0.00716932
H  -0.14058217 1.56422843 0.04277114
H  1.42260748 0.64482439 0.04214634
6
MD Step 23
C  -0.33219292 -0.57632547 -0.00759130
H  0.22610359 -1.52029494 0.04518113
H  -1.43367196 -0.58430378 0.04587513
C  0.32602283 0.56753647 -0.00734222
H  -0.13800001 1.56317208 0.04378788
H  1.41909131 0.64615666 0.04310411
6
MD Step 24
C  -0.33166432 -0.57548687 -0.00776178
H  0.22456355 -1.52074381 0.04621853
H  -1.43467032 -0.58657302 0.04696541
C  0.32581659 0.56695684 -0.00749176
H  -0.13554290 1.56172539 0.04465945
H  1.41533138 0.64723549 0.04391830
6
MD Step 25
C  -0.33115851 -0.57467400 -0.00790971
H  0.22270054 -1.52103617 0.04712897
H  -1.43525339 -0.58900017 0.04792348
C  0.32565035 0.56645265 -0.00762025
H  -0.13322270 1.55993292 0.04539916
H  1.41141098 0.64806927 0.04460390
6
MD Step 26
C  -0.33068746 -0.57389912 -0.00804213
H  0.22057017 -1.52112800 0.04795372
H  -1.43535776 -0.59152841 0.04878757
C  0.32551500 0.56601781 -0.00773465
H  -0.13102437 1.55787377 0.04604919
H  1.40744718 0.64869666 0.04520611
6
MD Step 27
C  -0.33025049 -0.57316170 -0.00815362
H  0.21815964 -1.52105225 0.04866190
H  -1.43500144 -0.59417217 0.04952692
C  0.32541322 0.56565740 -0.00783039
H  -0.12900556 1.55556026 0.04658077
H  1.40348843 0.64908553 0.04569626
6
MD Step 28
C  -0.32985435 -0.57246867 -0.00824732
H  0.21550825 -1.52079810 0.04927204
H  -1.43416305 -0.59689706 0.05015815
C  0.32533920 0.56536759 -0.00791078
H  -0.12717631 1.55305787 0.04701380
H  1.39963385 0.64925396 0.04609636
6
MD Step 29
C  -0.32949823 -0.57181934 -0.00831923
H  0.21261723 -1.52040082 0.04976140
H  -1.43287209 -0.59970962 0.05065864
C  0.32529392 0.56515068 -0.00797257
H  -0.12558800 1.55039453 0.04732758
H  1.39594151 0.64917990 0.04638591
6
MD Step 30
C  -0.32918215 -0.57121390 -0.00836707
H  0.20950033 -1.51989059 0.05011717
H  -1.43115780 -0.60260683 0.05101549
C  0.32527666 0.56500669 -0.00801408
H  -0.12428238 1.54761057 0.04751119
H  1.39247774 0.64885212 0.04655442
6
MD Step 31
C  -0.32890513 -0.57065152 -0.00838825
H  0.20617205 -1.51930357 0.05032490
H  -1.42906021 -0.60558752 0.05121465
C  0.32528702 0.56493536 -0.00803340
H  -0.12330239 1.54474639 0.04755207
H  1.38930408 0.64825870 0.04658930
6
MD Step 32
C  -0.32867666 -0.57014208 -0.00839217
H  0.20271649 -1.51861221 0.05043812
H  -1.42656053 -0.60858352 0.05130686
C  0.32531331 0.56492464 -0.00803928
H  -0.12262282 1.54191061 0.04750472
H  1.38654464 0.64745629 0.04654794
6
MD Step 33
C  -0.32849184 -0.56968097 -0.00837379
H  0.19913777 -1.51787432 0.05042815
H  -1.42373078 -0.61160873 0.05126481
C  0.32535799 0.56497585 -0.00802744
H  -0.12229803 1.53912912 0.04734225
H  1.38423406 0.64642028 0.04640242
6
MD Step 34
C  -0.32834642 -0.56926447 -0.00832963
H  0.19545005 -1.51714177 0.05027513
H  -1.42064234 -0.61466890 0.05107001
C  0.32542239 0.56508864 -0.00799500
H  -0.12237133 1.53643451 0.04704630
H  1.38240650 0.64513549 0.04613327
6
MD Step 35
C  -0.32824309 -0.56889596 -0.00826429
H  0.19171386 -1.51642294 0.05000493
H  -1.41732813 -0.61772495 0.05074770
C  0.32550064 0.56525491 -0.00794616
H  -0.12283772 1.53390174 0.04664362
H  1.38113116 0.64363297 0.04576794
6
MD Step 36
C  -0.32817734 -0.56857180 -0.00817551
H  0.18795127 -1.51576638 0.04960444
H  -1.41386639 -0.62077724 0.05028624
C  0.32559394 0.56547310 -0.00787896
H  -0.12372720 1.53156230 0.04612202
H  1.38042609 0.64190545 0.04529287
6
MD Step 37
C  -0.32814749 -0.56829144 -0.00806469
H  0.18420483 -1.51520042 0.04908119
H  -1.41031992 -0.62380624 0.04969403
C  0.32570063 0.56573834 -0.00779463
H  -0.12504491 1.52946253 0.04548959
H  1.38031679 0.63996691 0.04471534
6
MD Step 38
C  -0.32815355 -0.56805626 -0.00793565
H  0.18052969 -1.51473964 0.04845607
H  -1.40674223 -0.62677983 0.04899241
C  0.32581739 0.56604377 -0.00769640
H  -0.12677785 1.52765523 0.04476749
H  1.38082810 0.63784519 0.04405600
6
MD Step 39
C  -0.32819068 -0.56786304 -0.00778755
H  0.17695378 -1.51442340 0.04772382
H  -1.40321574 -0.62969276 0.04817796
C  0.32594593 0.56638725 -0.00758335
H  -0.12893363 1.52615911 0.04395047
H  1.38194414 0.63554261 0.04330781
6
MD Step 40
C  -0.32825699 -0.56771178 -0.00762314
H  0.17352312 -1.51426890 0.04689910
H  -1.39980412 -0.63252063 0.04726651
C  0.32608517 0.56676376 -0.00745761
H  -0.13149429 1.52500414 0.04305296
H  1.38365472 0.63308202 0.04248407
6
MD Step 41
C  -0.32834489 -0.56759704 -0.00743944
H  0.17024936 -1.51432250 0.04596443
H  -1.39660281 -0.63527204 0.04624305
C  0.32623998 0.56717416 -0.00731620
H  -0.13446807 1.52417888 0.04205682
H  1.38590366 0.63045474 0.04156427
6
MD Step 42
C  -0.32844958 -0.56751638 -0.00723652
H  0.16715868 -1.51460905 0.04491968
H  -1.39368713 -0.63793884 0.04510937
C  0.32641268 0.56761687 -0.00715887
H  -0.13783989 1.52368015 0.04096111
H  1.38864011 0.62767029 0.04054572
6
MD Step 43
C  -0.32857048 -0.56747168 -0.00701897
H  0.16429892 -1.51512362 0.04378956
H  -1.39110274 -0.64048843 0.04389131
C  0.32660170 0.56808659 -0.00698924
H  -0.14156378 1.52352080 0.03978988
H  1.39182770 0.62476403 0.03945156
6
MD Step 44
C  -0.32870330 -0.56746125 -0.00678729
H  0.16169159 -1.51587865 0.04257616
H  -1.38891183 -0.64291156 0.04259272
C  0.32680947 0.56858231 -0.00680738
H  -0.14561091 1.52368219 0.03854419
H  1.39539811 0.62174946 0.03828139
6
MD Step 45
C  -0.32884642 -0.56748606 -0.00654456
H  0.15936872 -1.51686630 0.04129598
H  -1.38715411 -0.64518495 0.04123135
C  0.32703606 0.56910100 -0.00661561
H  -0.14993265 1.52415212 0.03723974
H  1.39929033 0.61865542 0.03704996
6
MD Step 46
C  -0.32899409 -0.56754296 -0.00628914
H  0.15733178 -1.51809924 0.03993925
H  -1.38588644 -0.64731239 0.03979915
C  0.32728594 0.56964449 -0.00641213
H  -0.15450231 1.52488462 0.03586544
H  1.40341136 0.61548516 0.03574487
6
MD Step 47
C  -0.32914448 -0.56763255 -0.00602301
H  0.15559830 -1.51956342 0.03851655
H  -1.38513417 -0.64927747 0.03830771
C  0.32755996 0.57021139 -0.00619839
H  -0.15926862 1.52584823 0.03443107
H  1.40768570 0.61226318 0.03437522
6
MD Step 48
C  -0.32929322 -0.56775268 -0.00574487
H  0.15416314 -1.52125710 0.03702030
H  -1.38492915 -0.65108265 0.03675047
C  0.32786182 0.57080363 -0.00597297
H  -0.16419563 1.52698824 0.03292788
H  1.41201827 0.60899636 0.03293154
6
MD Step 49
C  -0.32943624 -0.56790124 -0.00545309
H  0.15301513 -1.52317435 0.03544133
H  -1.38529197 -0.65273240 0.03511899
C  0.32819509 0.57142350 -0.00573427
H  -0.16924674 1.52824481 0.03134554
H  1.41631322 0.60569059 0.03140302
6
MD Step 50
C  -0.32957674 -0.56808283 -0.00515290
H  0.15217720 -1.52526511 0.03380849
H  -1.38619139 -0.65419270 0.03344204
C  0.32855652 0.57206675 -0.00548676
H  -0.17434516 1.52959470 0.02971307
H  1.42051629 0.60239066 0.02981891
6
MD Step 51
C  -0.32970799 -0.56829192 -0.00483842
H  0.15160650 -1.52753672 0.03208943
H  -1.38764553 -0.65549247 0.03168754
C  0.32895272 0.57273954 -0.00522522
H  -0.17947601 1.53095148 0.02799655
H  1.42451479 0.59907983 0.02814505
6
MD Step 52
C  -0.32983498 -0.56853399 -0.00451533
H  0.15132098 -1.52992729 0.03031576
H  -1.38959490 -0.65659572 0.02988651
C  0.32937898 0.57343684 -0.00495466
H  -0.18455939 1.53229433 0.02622822
H  1.42826700 0.59580616 0.02641419
6
MD Step 53
C  -0.32995413 -0.56880561 -0.00417971
H  0.15128170 -1.53242558 0.02846608
H  -1.39202265 -0.65752122 0.02801712
C  0.32983899 0.57416249 -0.00467166
H  -0.18957068 1.53354992 0.02438574
H  1.43168353 0.59256412 0.02460424
6
MD Step 54
C  -0.33006698 -0.56910787 -0.00383240
H  0.15147357 -1.53499077 0.02654556
H  -1.39487462 -0.65826123 0.02608375
C  0.33033143 0.57491539 -0.00437709
H  -0.19445996 1.53467459 0.02247435
H  1.43470976 0.58937483 0.02272097
6
MD Step 55
C  -0.33017554 -0.56944185 -0.00347425
H  0.15187912 -1.53758040 0.02455954
H  -1.39808788 -0.65880871 0.02409082
C  0.33085438 0.57569406 -0.00407190
H  -0.19917972 1.53562832 0.02049946
H  1.43729947 0.58625923 0.02077039
6
MD Step 56
C  -0.33028829 -0.56981443 -0.00311249
H  0.15251453 -1.54011537 0.02254864
H  -1.40155685 -0.65912137 0.02207791
C  0.33139944 0.57649047 -0.00376271
H  -0.20364939 1.53641134 0.01850320
H  1.43945129 0.58327344 0.01879530
6
MD Step 57
C  -0.33040392 -0.57022250 -0.00274399
H  0.15333652 -1.54257550 0.02049619
H  -1.40523005 -0.65921684 0.02002742
C  0.33196740 0.57730603 -0.00344692
H  -0.20785068 1.53697005 0.01646841
H  1.44111380 0.58041480 0.01677911
6
MD Step 58
C  -0.33052398 -0.57066538 -0.00236855
H  0.15431696 -1.54492559 0.01840152
H  -1.40903712 -0.65909763 0.01793777
C  0.33255587 0.57813891 -0.00312452
H  -0.21175296 1.53727246 0.01439452
H  1.44226103 0.57769596 0.01472179
6
MD Step 59
C  -0.33065015 -0.57114213 -0.00198609
H  0.15542816 -1.54713142 0.01626504
H  -1.41290573 -0.65876662 0.01580851
C  0.33316183 0.57898661 -0.00279569
H  -0.21532904 1.53729335 0.01228195
H  1.44287740 0.57512960 0.01262429
6
MD Step 60
C  -0.33079157 -0.57165879 -0.00160440
H  0.15668634 -1.54911716 0.01413074
H  -1.41671998 -0.65818350 0.01368290
C  0.33377445 0.57983864 -0.00246763
H  -0.21851179 1.53705794 0.01017617
H  1.44300131 0.57277138 0.01053257
6
MD Step 61
C  -0.33094912 -0.57221308 -0.00122300
H  0.15806147 -1.55085744 0.01199654
H  -1.42041384 -0.65735676 0.01155824
C  0.33439034 0.58069196 -0.00214008
H  -0.22128620 1.53655055 0.00807495
H  1.44263294 0.57062907 0.00844477
6
MD Step 62
C  -0.33112542 -0.57280417 -0.00084357
H  0.15953616 -1.55231900 0.00987218
H  -1.42391350 -0.65628439 0.00944381
C  0.33500374 0.58154102 -0.00181465
H  -0.22363020 1.53577382 0.00598827
H  1.44179335 0.56872099 0.00637116
6
MD Step 63
C  -0.33131242 -0.57342061 -0.00045714
H  0.16103399 -1.55353355 0.00770791
H  -1.42721098 -0.65502684 0.00728952
C  0.33561865 0.58239007 -0.00148331
H  -0.22558775 1.53467610 0.00386459
H  1.44045152 0.56700388 0.00426043
6
MD Step 64
C  -0.33151689 -0.57406532 -0.00007046
H  0.16256862 -1.55444801 0.00554192
H  -1.43021454 -0.65355614 0.00513338
C  0.33622392 0.58322780 -0.00115225
H  -0.22711831 1.53330182 0.00174293
H  1.43867522 0.56552199 0.00215169
6
MD Step 65
C  -0.33173441 -0.57473012 0.00032085
H  0.16409215 -1.55507776 0.00334981
H  -1.43290268 -0.65190960 0.00295093
C  0.33681868 0.58405321 -0.00081749
H  -0.22825047 1.53163822 -0.00040221
H  1.43647678 0.56425488 0.00001945
6
MD Step 66
C  -0.33196751 -0.57541356 0.00071359
H  0.16560168 -1.55539966 0.00115001
H  -1.43521743 -0.65008217 0.00076065
C  0.33739465 0.58485761 -0.00048197
H  -0.22897447 1.52972241 -0.00255251
H  1.43392030 0.56322390 -0.00211808
6
MD Step 67
C  -0.33221840 -0.57611387 0.00110441
H  0.16709702 -1.55539498 -0.00103836
H  -1.43710781 -0.64806929 -0.00141815
C  0.33794328 0.58563183 -0.00014874
H  -0.22928497 1.52759831 -0.00468905
H  1.43107794 0.56244963 -0.00424221
6
MD Step 68
C  -0.33248395 -0.57682401 0.00149496
H  0.16855154 -1.55507894 -0.00322463
H  -1.43855988 -0.64589643 -0.00359455
C  0.33846074 0.58637133 0.00018387
H  -0.22921048 1.52528673 -0.00682216
H  1.42799924 0.56192245 -0.00636358
6
MD Step 69
C  -0.33275953 -0.57753547 0.00188801
H  0.16993449 -1.55447823 -0.00542451
H  -1.43957438 -0.64359647 -0.00578394
C  0.33894430 0.58707240 0.00051856
H  -0.22879069 1.52280746 -0.00896885
H  1.42473273 0.56162493 -0.00849956
6
MD Step 70
C  -0.33304775 -0.57824701 0.00227850
H  0.17126256 -1.55357895 -0.00760891
H  -1.44011488 -0.64115760 -0.00795678
C  0.33938372 0.58772354 0.00085076
H  -0.22802424 1.52023058 -0.01110052
H  1.42137694 0.56158335 -0.01062210
6
MD Step 71
C  -0.33334767 -0.57895397 0.00266456
H  0.17253629 -1.55239055 -0.00976722
H  -1.44017215 -0.63858739 -0.01010199
C  0.33977211 0.58831633 0.00117891
H  -0.22693245 1.51761168 -0.01320755
H  1.41801447 0.56180407 -0.01272217
6
MD Step 72
C  -0.33366018 -0.57965368 0.00304210
H  0.17377188 -1.55091367 -0.01187569
H  -1.43973231 -0.63588068 -0.01219527
C  0.34010067 0.58884012 0.00149932
H  -0.22552677 1.51502302 -0.01526710
H  1.41474216 0.56230540 -0.01477760
6
MD Step 73
C  -0.33397697 -0.58033461 0.00341588
H  0.17493618 -1.54920510 -0.01396208
H  -1.43884218 -0.63308487 -0.01426403
C  0.34036969 0.58929315 0.00181685
H  -0.22387356 1.51248722 -0.01730876
H  1.41160365 0.56305256 -0.01681844
6
MD Step 74
C  -0.33429426 -0.58098998 0.00378575
H  0.17602699 -1.54729643 -0.01602560
H  -1.43752791 -0.63021872 -0.01630711
C  0.34057525 0.58966900 0.00213164
H  -0.22201246 1.51005722 -0.01933321
H  1.40866895 0.56403846 -0.01884589
6
MD Step 75
C  -0.33461208 -0.58161705 0.00414746
H  0.17706849 -1.54519807 -0.01804139
H  -1.43579904 -0.62727668 -0.01829911
C  0.34070997 0.58995749 0.00243981
H  -0.21996013 1.50781059 -0.02131671
H  1.40602811 0.56527922 -0.02083686
6
MD Step 76
C  -0.33492353 -0.58220664 0.00450336
H  0.17804781 -1.54296219 -0.02002344
H  -1.43371181 -0.62429240 -0.02025392
C  0.34077378 0.59015550 0.00274399
H  -0.21777297 1.50578471 -0.02327496
H  1.40372529 0.56675103 -0.02280722
6
MD Step 77
C  -0.33523528 -0.58276339 0.00484208
H  0.17903531 -1.54056122 -0.02190453
H  -1.43124761 -0.62121740 -0.02210338
C  0.34075382 0.59024670 0.00303308
H  -0.21542503 1.50409642 -0.02514134
H  1.40187834 0.56851086 -0.02469133
6
MD Step 78
C  -0.33553235 -0.58327096 0.00517351
H  0.17997665 -1.53809593 -0.02374327
H  -1.42852159 -0.61812995 -0.02390685
C  0.34065937 0.59023684 0.00331720
H  -0.21301582 1.50273177 -0.02697644
H  1.40046709 0.57048848 -0.02654899
6
MD Step 79
C  -0.33580910 -0.58372276 0.00549809
H  0.18087477 -1.53561146 -0.02554231
H  -1.42559801 -0.61505142 -0.02566726
C  0.34049128 0.59012302 0.00359699
H  -0.21058620 1.50172800 -0.02878406
H  1.39951647 0.57266922 -0.02838363
6
MD Step 80
C  -0.33606133 -0.58411413 0.00581479
H  0.18174211 -1.53314394 -0.02729556
H  -1.42253656 -0.61199377 -0.02737882
C  0.34024993 0.58990184 0.00387155
H  -0.20816507 1.50112471 -0.03055894
H  1.39904810 0.57504652 -0.03018950
6
MD Step 81
C  -0.33628493 -0.58444101 0.00612253
H  0.18259212 -1.53072803 -0.02899630
H  -1.41939943 -0.60896772 -0.02903530
C  0.33993655 0.58957087 0.00413981
H  -0.20577690 1.50095436 -0.03229493
H  1.39907139 0.57761382 -0.03195975
6
MD Step 82
C  -0.33647778 -0.58470189 0.00641833
H  0.18344965 -1.52838525 -0.03062632
H  -1.41623918 -0.60597165 -0.03061885
C  0.33955140 0.58912696 0.00439860
H  -0.20343003 1.50125215 -0.03397395
H  1.39959419 0.58037541 -0.03367571
6
MD Step 83
C  -0.33663358 -0.58489156 0.00670347
H  0.18431333 -1.52616080 -0.03219318
H  -1.41313508 -0.60302921 -0.03213824
C  0.33910002 0.58857261 0.00464917
H  -0.20115365 1.50201757 -0.03560353
H  1.40058531 0.58330895 -0.03534342
6
MD Step 84
C  -0.33675312 -0.58501239 0.00697266
H  0.18522149 -1.52405626 -0.03366389
H  -1.41012477 -0.60012247 -0.03356064
C  0.33858192 0.58790482 0.00488559
H  -0.19893090 1.50328053 -0.03714990
H  1.40204204 0.58643194 -0.03692877
6
MD Step 85
C  -0.33682646 -0.58505652 0.00723119
H  0.18614594 -1.52213534 -0.03507068
H  -1.40730942 -0.59729835 -0.03492056
C  0.33800839 0.58713300 0.00511323
H  -0.19680492 1.50499472 -0.03864451
H  1.40388444 0.58969560 -0.03846070
6
MD Step 86
C  -0.33684496 -0.58501774 0.00748350
H  0.18706159 -1.52045282 -0.03644107
H  -1.40478114 -0.59459819 -0.03624807
C  0.33739049 0.58626714 0.00533668
H  -0.19480881 1.50710817 -0.04011359
H  1.40602784 0.59305490 -0.03996285
6
MD Step 87
C  -0.33681087 -0.58490094 0.00772433
H  0.18800204 -1.51899778 -0.03774186
H  -1.40256453 -0.59200156 -0.03751038
C  0.33672956 0.58530834 0.00554971
H  -0.19290990 1.50962000 -0.04152197
H  1.40844129 0.59652477 -0.04139964
6
MD Step 88
C  -0.33672648 -0.58471134 0.00794908
H  0.18899510 -1.51775792 -0.03894344
H  -1.40068028 -0.58949086 -0.03867822
C  0.33602790 0.58425958 0.00574662
H  -0.19107473 1.51251647 -0.04283775
H  1.41108421 0.60011556 -0.04273898
6
MD Step 89
C  -0.33658724 -0.58444741 0.00816026
H  0.19002100 -1.51676135 -0.04006148
H  -1.39918610 -0.58709327 -0.03976948
C  0.33529573 0.58313265 0.00592977
H  -0.18931129 1.51573008 -0.04407412
H  1.41386608 0.60379124 -0.04399208
6
MD Step 90
C  -0.33639809 -0.58411715 0.00835235
H  0.19110904 -1.51597943 -0.04106009
H  -1.39807832 -0.58478370 -0.04074797
C  0.33453478 0.58193176 0.00609218
H  -0.18757300 1.51923787 -0.04519245
H  1.41674561 0.60756638 -0.04512088
6
MD Step 91
C  -0.33615114 -0.58371571 0.00853249
H  0.19220453 -1.51546037 -0.04198512
H  -1.39742498 -0.58261826 -0.04166285
C  0.33376060 0.58067580 0.00624163
H  -0.18589263 1.52292932 -0.04623559
H  1.41959877 0.61137290 -0.04616533
6
MD Step 92
C  -0.33584641 -0.58324602 0.00870134
H  0.19329184 -1.51520572 -0.04284093
H  -1.39724099 -0.58061091 -0.04251979
C  0.33298175 0.57937743 0.00637846
H  -0.18426011 1.52673148 -0.04720487
H  1.42234466 0.61518344 -0.04712583
6
MD Step 93
C  -0.33548953 -0.58271642 0.00885537
H  0.19438041 -1.51518479 -0.04360454
H  -1.39750188 -0.57874769 -0.04329537
C  0.33220203 0.57804529 0.00649804
H  -0.18263760 1.53059636 -0.04807444
H  1.42493302 0.61899748 -0.04797732
6
MD Step 94
C  -0.33507819 -0.58212699 0.00899913
H  0.19542452 -1.51541577 -0.04430640
H  -1.39822505 -0.57706721 -0.04402204
C  0.33143405 0.57669736 0.00660553
H  -0.18104061 1.53442188 -0.04887163
H  1.42726484 0.62276076 -0.04874546
6
MD Step 95
C  -0.33462118 -0.58148872 0.00912787
H  0.19643748 -1.51585189 -0.04491602
H  -1.39935558 -0.57554676 -0.04466803
C  0.33067986 0.57534165 0.00669506
H  -0.17942498 1.53816752 -0.04956356
H  1.42930795 0.62647971 -0.04939885
6
MD Step 96
C  -0.33412871 -0.58081370 0.00923641
H  0.19743477 -1.51643957 -0.04539939
H  -1.40082514 -0.57415955 -0.04519743
C  0.32994064 0.57398564 0.00676009
H  -0.17774476 1.54179827 -0.05011431
H  1.43104031 0.63016422 -0.04990364
6
MD Step 97
C  -0.33360244 -0.58010517 0.00932791
H  0.19837564 -1.51717814 -0.04577839
H  -1.40261277 -0.57293354 -0.04563262
C  0.32922655 0.57264599 0.00680441
H  -0.17601119 1.54522680 -0.05054338
H  1.43239155 0.63376876 -0.05027878
6
MD Step 98
C  -0.33304801 -0.57937007 0.00940246
H  0.19923889 -1.51804483 -0.04605480
H  -1.40467035 -0.57187596 -0.04597479
C  0.32854400 0.57133571 0.00682822
H  -0.17421801 1.54839026 -0.05085081
H  1.43331937 0.63726820 -0.05052481
6
MD Step 99
C  -0.33247788 -0.57862201 0.00945451
H  0.20004155 -1.51897730 -0.04619197
H  -1.40690587 -0.57095535 -0.04618445
C  0.32789246 0.57006102 0.00682466
H  -0.17232387 1.55126933 -0.05099945
H  1.43382824 0.64067635 -0.05060722
6
MD Step 100
C  -0.33189085 -0.57786052 0.00949107
H  0.20071668 -1.51999694 -0.04623857
H  -1.40930832 -0.57022340 -0.04631127
C  0.32728518 0.56884163 0.00680270
H  -0.17037420 1.55376659 -0.05103592
H  1.43384712 0.64392314 -0.05057130
6
MD Step 101
C  -0.33129870 -0.57709814 0.00950769
H  0.20127504 -1.52104811 -0.04616572
H  -1.41178707 -0.56965447 -0.04632381
C  0.32672185 0.56768372 0.00675710
H  -0.16834132 1.55586845 -0.05093157
H  1.43339121 0.64701664 -0.05039065
6
MD Step 102
C  -0.33071097 -0.57634493 0.00950211
H  0.20171449 -1.52208982 -0.04595899
H  -1.41426505 -0.56923618 -0.04620553
C  0.32620397 0.56659499 0.00668531
H  -0.16621493 1.55755469 -0.05067236
H  1.43247099 0.64995192 -0.05005297
6
MD Step 103
C  -0.33013180 -0.57560537 0.00947686
H  0.20200245 -1.52311426 -0.04563647
H  -1.41669827 -0.56898700 -0.04597370
C  0.32573781 0.56558751 0.00659082
H  -0.16401971 1.55878115 -0.05027624
H  1.43107447 0.65269330 -0.04957662
6
MD Step 104
C  -0.32956275 -0.57488114 0.00943666
H  0.20209318 -1.52413011 -0.04523169
H  -1.41905984 -0.56893927 -0.04566161
C  0.32533153 0.56467477 0.00648006
H  -0.16179843 1.55949712 -0.04977625
H  1.42918442 0.65519164 -0.04899457
6
MD Step 105
C  -0.32901498 -0.57418361 0.00937746
H  0.20200283 -1.52508829 -0.04471787
H  -1.42126601 -0.56906514 -0.04524004
C  0.32498245 0.56385918 0.00634839
H  -0.15953810 1.55972021 -0.04914764
H  1.42685300 0.65745943 -0.04828417
6
MD Step 106
C  -0.32849620 -0.57352060 0.00929798
H  0.20173136 -1.52596062 -0.04408721
H  -1.42325583 -0.56935414 -0.04469955
C  0.32469025 0.56314499 0.00619475
H  -0.15724718 1.55945837 -0.04838431
H  1.42412346 0.65949246 -0.04744073
6
MD Step 107
C  -0.32801481 -0.57290056 0.00919602
H  0.20128826 -1.52671481 -0.04332500
H  -1.42496690 -0.56978807 -0.04402363
C  0.32445272 0.56253404 0.00601679
H  -0.15493040 1.55873530 -0.04747403
H  1.42105495 0.66129541 -0.04645364
6
MD Step 108
C  -0.32756761 -0.57232000 0.00907936
H  0.20061862 -1.52738860 -0.04248486
H  -1.42641022 -0.57041404 -0.04326630
C  0.32427830 0.56203790 0.00582471
H  -0.15266140 1.55751674 -0.04647028
H  1.41764853 0.66280775 -0.04537592
6
MD Step 109
C  -0.32716094 -0.57178513 0.00894671
H  0.19973164 -1.52796170 -0.04155846
H  -1.42754180 -0.57121762 -0.04241794
C  0.32416426 0.56165664 0.00561743
H  -0.15045605 1.55583821 -0.04536730
H  1.41397469 0.66403255 -0.04420306
6
MD Step 110
C  -0.32680118 -0.57130221 0.00879619
H  0.19864379 -1.52841271 -0.04053311
H  -1.42832011 -0.57217909 -0.04146469
C  0.32410637 0.56138818 0.00539310
H  -0.14832829 1.55374823 -0.04415548
H  1.41011604 0.66497952 -0.04292667
6
MD Step 111
C  -0.32649271 -0.57087539 0.00862716
H  0.19736625 -1.52873183 -0.03940465
H  -1.42871925 -0.57328596 -0.04040163
C  0.32410110 0.56123041 0.00515143
H  -0.14630219 1.55129527 -0.04283351
H  1.40615368 0.66565237 -0.04154629
6
MD Step 112
C  -0.32623980 -0.57050874 0.00843848
H  0.19591703 -1.52890891 -0.03816501
H  -1.42871731 -0.57452105 -0.03922002
C  0.32414365 0.56117927 0.00489143
H  -0.14439971 1.54853923 -0.04139656
H  1.40217781 0.66606088 -0.04005791
6
MD Step 113
C  -0.32603822 -0.57019754 0.00823616
H  0.19426960 -1.52898449 -0.03685437
H  -1.42834774 -0.57591316 -0.03796043
C  0.32423673 0.56123722 0.00462076
H  -0.14269070 1.54549972 -0.03988599
H  1.39823538 0.66616940 -0.03850263
6
MD Step 114
C  -0.32588794 -0.56994145 0.00802170
H  0.19243019 -1.52897235 -0.03548252
H  -1.42762163 -0.57746062 -0.03663266
C  0.32437752 0.56140053 0.00434164
H  -0.14121617 1.54223236 -0.03831398
H  1.39440581 0.66597449 -0.03689281
6
MD Step 115
C  -0.32579422 -0.56974559 0.00779109
H  0.19044443 -1.52885274 -0.03402198
H  -1.42652084 -0.57912477 -0.03520885
C  0.32455653 0.56165831 0.00404955
H  -0.13998118 1.53883437 -0.03665711
H  1.39080591 0.66551144 -0.03520548
6
MD Step 116
C  -0.32575492 -0.56960753 0.00754649
H  0.18831967 -1.52864925 -0.03248655
H  -1.42507553 -0.58090645 -0.03370323
C  0.32477101 0.56200542 0.00374733
H  -0.13903036 1.53536623 -0.03493136
H  1.38751051 0.66477654 -0.03345634
6
MD Step 117
C  -0.32576973 -0.56952682 0.00728773
H  0.18608088 -1.52837279 -0.03087443
H  -1.42330792 -0.58279071 -0.03211434
C  0.32501553 0.56243339 0.00343500
H  -0.13839194 1.53190594 -0.03313758
H  1.38460600 0.66378306 -0.03164591
6
MD Step 118
C  -0.32583731 -0.56950207 0.00701492
H  0.18375319 -1.52803835 -0.02918564
H  -1.42124912 -0.58476393 -0.03044274
C  0.32528504 0.56293347 0.00311283
H  -0.13809398 1.52853019 -0.03127813
H  1.38217078 0.66254375 -0.02977601
6
MD Step 119
C  -0.32595482 -0.56953050 0.00672899
H  0.18135802 -1.52766817 -0.02742560
H  -1.41894230 -0.58681735 -0.02869458
C  0.32557565 0.56349739 0.00278202
H  -0.13816685 1.52530908 -0.02936022
H  1.38026942 0.66106715 -0.02785305
6
MD Step 120
C  -0.32612436 -0.56961454 0.00642561
H  0.17895212 -1.52725214 -0.02556526
H  -1.41640285 -0.58890839 -0.02684138
C  0.32587805 0.56411108 0.00243761
H  -0.13860369 1.52234319 -0.02735758
H  1.37898936 0.65939665 -0.02585011
6
MD Step 121
C  -0.32633290 -0.56974140 0.00611419
H  0.17650501 -1.52686915 -0.02366474
H  -1.41374002 -0.59108149 -0.02494452
C  0.32619845 0.56477519 0.00209023
H  -0.13947999 1.51964010 -0.02532962
H  1.37831715 0.65748805 -0.02382522
6
MD Step 122
C  -0.32658216 -0.56991349 0.00578970
H  0.17407887 -1.52650658 -0.02169096
H  -1.41097519 -0.59328978 -0.02297162
C  0.32652795 0.56547529 0.00173413
H  -0.14077472 1.51729209 -0.02324521
H  1.37831696 0.65538998 -0.02174641
6
MD Step 123
C  -0.32686755 -0.57012704 0.00545266
H  0.17170068 -1.52618697 -0.01964653
H  -1.40816862 -0.59552141 -0.02092620
C  0.32686431 0.56620332 0.00136974
H  -0.14249552 1.51534743 -0.02110741
H  1.37900210 0.65311614 -0.01961571
6
MD Step 124
C  -0.32718096 -0.57037488 0.00510664
H  0.16937774 -1.52595147 -0.01755345
H  -1.40540229 -0.59778375 -0.01883128
C  0.32720920 0.56695505 0.00100079
H  -0.14466219 1.51382471 -0.01893782
H  1.38035026 0.65066126 -0.01745371
6
MD Step 125
C  -0.32751861 -0.57065441 0.00475081
H  0.16714421 -1.52581235 -0.01540595
H  -1.40273139 -0.60005697 -0.01668186
C  0.32756026 0.56772246 0.00062617
H  -0.14725979 1.51275852 -0.01673063
H  1.38235058 0.64804804 -0.01525379
6