 Entering Gaussian System, Link 0=g16
 Initial command:
 /software/gaussian/g16-c01/avx2/g16/l1.exe "/gpfs/fs2/scratch/bweight/software/many_molecule_many_mode_NAMD/src/NAMD/TEST_NVT/TRAJ/traj-46/G16/GS_NEW/Gau-19945.inp" -scrdir="/gpfs/fs2/scratch/bweight/software/many_molecule_many_mode_NAMD/src/NAMD/TEST_NVT/TRAJ/traj-46/G16/GS_NEW/"
 Entering Link 1 = /software/gaussian/g16-c01/avx2/g16/l1.exe PID=     19946.
  
 Copyright (c) 1988-2019, Gaussian, Inc.  All Rights Reserved.
  
 This is part of the Gaussian(R) 16 program.  It is based on
 the Gaussian(R) 09 system (copyright 2009, Gaussian, Inc.),
 the Gaussian(R) 03 system (copyright 2003, Gaussian, Inc.),
 the Gaussian(R) 98 system (copyright 1998, Gaussian, Inc.),
 the Gaussian(R) 94 system (copyright 1995, Gaussian, Inc.),
 the Gaussian 92(TM) system (copyright 1992, Gaussian, Inc.),
 the Gaussian 90(TM) system (copyright 1990, Gaussian, Inc.),
 the Gaussian 88(TM) system (copyright 1988, Gaussian, Inc.),
 the Gaussian 86(TM) system (copyright 1986, Carnegie Mellon
 University), and the Gaussian 82(TM) system (copyright 1983,
 Carnegie Mellon University). Gaussian is a federally registered
 trademark of Gaussian, Inc.
  
 This software contains proprietary and confidential information,
 including trade secrets, belonging to Gaussian, Inc.
  
 This software is provided under written license and may be
 used, copied, transmitted, or stored only in accord with that
 written license.
  
 The following legend is applicable only to US Government
 contracts under FAR:
  
                    RESTRICTED RIGHTS LEGEND
  
 Use, reproduction and disclosure by the US Government is
 subject to restrictions as set forth in subparagraphs (a)
 and (c) of the Commercial Computer Software - Restricted
 Rights clause in FAR 52.227-19.
  
 Gaussian, Inc.
 340 Quinnipiac St., Bldg. 40, Wallingford CT 06492
  
  
 ---------------------------------------------------------------
 Warning -- This program may not be used in any manner that
 competes with the business of Gaussian, Inc. or will provide
 assistance to any competitor of Gaussian, Inc.  The licensee
 of this program is prohibited from giving any competitor of
 Gaussian, Inc. access to this program.  By using this program,
 the user acknowledges that Gaussian, Inc. is engaged in the
 business of creating and licensing software in the field of
 computational chemistry and represents and warrants to the
 licensee that it is not a competitor of Gaussian, Inc. and that
 it will not use this program in any manner prohibited above.
 ---------------------------------------------------------------
  

 Cite this work as:
 Gaussian 16, Revision C.01,
 M. J. Frisch, G. W. Trucks, H. B. Schlegel, G. E. Scuseria, 
 M. A. Robb, J. R. Cheeseman, G. Scalmani, V. Barone, 
 G. A. Petersson, H. Nakatsuji, X. Li, M. Caricato, A. V. Marenich, 
 J. Bloino, B. G. Janesko, R. Gomperts, B. Mennucci, H. P. Hratchian, 
 J. V. Ortiz, A. F. Izmaylov, J. L. Sonnenberg, D. Williams-Young, 
 F. Ding, F. Lipparini, F. Egidi, J. Goings, B. Peng, A. Petrone, 
 T. Henderson, D. Ranasinghe, V. G. Zakrzewski, J. Gao, N. Rega, 
 G. Zheng, W. Liang, M. Hada, M. Ehara, K. Toyota, R. Fukuda, 
 J. Hasegawa, M. Ishida, T. Nakajima, Y. Honda, O. Kitao, H. Nakai, 
 T. Vreven, K. Throssell, J. A. Montgomery, Jr., J. E. Peralta, 
 F. Ogliaro, M. J. Bearpark, J. J. Heyd, E. N. Brothers, K. N. Kudin, 
 V. N. Staroverov, T. A. Keith, R. Kobayashi, J. Normand, 
 K. Raghavachari, A. P. Rendell, J. C. Burant, S. S. Iyengar, 
 J. Tomasi, M. Cossi, J. M. Millam, M. Klene, C. Adamo, R. Cammi, 
 J. W. Ochterski, R. L. Martin, K. Morokuma, O. Farkas, 
 J. B. Foresman, and D. J. Fox, Gaussian, Inc., Wallingford CT, 2019.
 
 ******************************************
 Gaussian 16:  ES64L-G16RevC.01  3-Jul-2019
                11-Jan-2023 
 ******************************************
 %oldchk=../GS_OLD/geometry.chk
 %chk=geometry.chk
 %nprocshared=4
 Will use up to    4 processors via shared memory.
 %mem=5GB
 Copying data from "../GS_OLD/geometry.chk" to current chk file "geometry.chk"
 IOpt=  2 FromEx=T IUOpen= 4 IOptOp= 5 NList=   0 IFRang= 0 IUIn= 4 IUOut= 2.
 -------------------------------------------------------
 # WB97XD/6-311G SCF=XQC FORCE nosym pop=full guess=read
 -------------------------------------------------------
 1/10=7,30=1,38=1/1,3;
 2/12=2,15=1,17=6,18=5,40=1/2;
 3/5=4,6=6,11=2,25=1,30=1,71=1,74=-58,116=-2/1,2,3;
 4/5=1/1;
 5/5=2,8=3,13=1,38=6/2,8;
 6/7=3,28=1/1;
 7/29=1,30=1/1,2,3,16;
 1/10=7,30=1/3;
 99//99;
 -----------
 MD Step 999
 -----------
 Symbolic Z-matrix:
 Charge =  0 Multiplicity = 1
 C                    -0.33637  -0.5816    0.00524 
 H                     0.22594  -1.52656  -0.01409 
 H                    -1.42216  -0.58437  -0.01556 
 C                     0.33226   0.57662   0.00421 
 H                    -0.15153   1.56772  -0.01879 
 H                     1.44347   0.64925  -0.01736 
 

 GradGradGradGradGradGradGradGradGradGradGradGradGradGradGradGradGradGrad
 Berny optimization.
 Initialization pass.
 Trust Radius=3.00D-01 FncErr=1.00D-07 GrdErr=1.00D-07 EigMax=2.50D+02 EigMin=1.00D-04
 Number of steps in this run=      2 maximum allowed number of steps=      2.
 GradGradGradGradGradGradGradGradGradGradGradGradGradGradGradGradGradGrad

                          Input orientation:                          
 ---------------------------------------------------------------------
 Center     Atomic      Atomic             Coordinates (Angstroms)
 Number     Number       Type             X           Y           Z
 ---------------------------------------------------------------------
      1          6           0       -0.336367   -0.581597    0.005239
      2          1           0        0.225943   -1.526555   -0.014094
      3          1           0       -1.422164   -0.584369   -0.015562
      4          6           0        0.332260    0.576623    0.004210
      5          1           0       -0.151525    1.567720   -0.018793
      6          1           0        1.443469    0.649251   -0.017361
 ---------------------------------------------------------------------
                    Distance matrix (angstroms):
                    1          2          3          4          5
     1  C    0.000000
     2  H    1.099778   0.000000
     3  H    1.086000   1.898413   0.000000
     4  C    1.337361   2.105944   2.103877   0.000000
     5  H    2.157384   3.117217   2.499204   1.103109   0.000000
     6  H    2.164096   2.493294   3.119884   1.113790   1.840542
                    6
     6  H    0.000000
 Symmetry turned off by external request.
 Stoichiometry    C2H4
 Framework group  C1[X(C2H4)]
 Deg. of freedom    12
 Full point group                 C1      NOp   1
 Rotational constants (GHZ):         143.3744827          29.6985400          24.6061052
 Standard basis: 6-311G (5D, 7F)
    38 basis functions,    72 primitive gaussians,    38 cartesian basis functions
     8 alpha electrons        8 beta electrons
       nuclear repulsion energy        33.0696557294 Hartrees.
 NAtoms=    6 NActive=    6 NUniq=    6 SFac= 1.00D+00 NAtFMM=   60 NAOKFM=F Big=F
 Integral buffers will be    131072 words long.
 Raffenetti 2 integral format.
 Two-electron integral symmetry is turned off.
 Nuclear repulsion after empirical dispersion term =       33.0688142931 Hartrees.
 One-electron integrals computed using PRISM.
 NBasis=    38 RedAO= T EigKep=  6.41D-03  NBF=    38
 NBsUse=    38 1.00D-06 EigRej= -1.00D+00 NBFU=    38
 Initial guess from the checkpoint file:  "geometry.chk"
 B after Tr=    -0.000260   -0.000437   -0.000581
         Rot=    1.000000    0.000005   -0.000001    0.000003 Ang=   0.00 deg.
 Keep R1 ints in memory in canonical form, NReq=4036876.
 Requested convergence on RMS density matrix=1.00D-08 within  32 cycles.
 Requested convergence on MAX density matrix=1.00D-06.
 Requested convergence on             energy=1.00D-06.
 No special actions if energy rises.
 SCF Done:  E(RwB97XD) =  -78.5555678518     A.U. after    8 cycles
            NFock=  8  Conv=0.57D-08     -V/T= 2.0052
 QCSCF skips out because SCF is already converged.

 **********************************************************************

            Population analysis using the SCF Density.

 **********************************************************************

 Alpha  occ. eigenvalues --  -10.29015 -10.28830  -0.86392  -0.67211  -0.55934
 Alpha  occ. eigenvalues --   -0.50944  -0.43606  -0.35702
 Alpha virt. eigenvalues --    0.08008   0.14087   0.16457   0.16993   0.24075
 Alpha virt. eigenvalues --    0.37238   0.39310   0.40046   0.46362   0.48828
 Alpha virt. eigenvalues --    0.49366   0.59109   0.66544   0.69087   0.77275
 Alpha virt. eigenvalues --    0.77539   0.84401   0.95265   2.23141   2.29040
 Alpha virt. eigenvalues --    2.33276   2.40723   2.67120   2.81800   2.87759
 Alpha virt. eigenvalues --    2.95167   3.14162   3.31945  23.35183  23.70636
     Molecular Orbital Coefficients:
                           1         2         3         4         5
                           O         O         O         O         O
     Eigenvalues --   -10.29015 -10.28830  -0.86392  -0.67211  -0.55934
   1 1   C  1S          0.13925   0.54592  -0.08839   0.06678  -0.00034
   2        2S          0.11480   0.44925  -0.13971   0.10695  -0.00055
   3        2PX         0.00016  -0.00002   0.02609   0.03601   0.13927
   4        2PY         0.00028  -0.00003   0.04664   0.05859  -0.07288
   5        2PZ         0.00000  -0.00000  -0.00083   0.00119   0.00023
   6        3S          0.00276   0.01437   0.37479  -0.29182   0.00148
   7        3PX        -0.00058   0.00047   0.03466   0.05781   0.21825
   8        3PY        -0.00098   0.00084   0.06145   0.09530  -0.11540
   9        3PZ        -0.00001  -0.00002  -0.00139   0.00214   0.00035
  10        4S          0.00225  -0.01488   0.19187  -0.22582   0.00053
  11        4PX         0.00139  -0.00167   0.00491   0.02319   0.11286
  12        4PY         0.00236  -0.00285   0.00864   0.03944  -0.06054
  13        4PZ         0.00001   0.00005  -0.00049   0.00109   0.00017
  14 2   H  1S         -0.00005  -0.00006   0.05236  -0.08638   0.10259
  15        2S         -0.00029   0.00013   0.05375  -0.10457   0.13013
  16        3S          0.00093   0.00162  -0.00181  -0.01493   0.04208
  17 3   H  1S         -0.00006  -0.00007   0.05383  -0.09055  -0.10683
  18        2S         -0.00029   0.00010   0.05470  -0.10849  -0.13428
  19        3S          0.00097   0.00165  -0.00184  -0.01594  -0.04328
  20 4   C  1S          0.54589  -0.13944  -0.08690  -0.06829  -0.00016
  21        2S          0.44933  -0.11456  -0.13721  -0.10953  -0.00024
  22        2PX        -0.00003  -0.00016  -0.02765   0.03806   0.11620
  23        2PY        -0.00004  -0.00028  -0.04675   0.06818  -0.07461
  24        2PZ        -0.00000   0.00000  -0.00072  -0.00146   0.00023
  25        3S          0.01378  -0.00444   0.36753   0.29932   0.00061
  26        3PX        -0.00016   0.00074  -0.03444   0.06173   0.18196
  27        3PY        -0.00025   0.00128  -0.05831   0.10983  -0.11561
  28        3PZ        -0.00002  -0.00000  -0.00125  -0.00260   0.00035
  29        4S         -0.01165   0.00923   0.18864   0.23788  -0.00079
  30        4PX         0.00073  -0.00195  -0.00535   0.02701   0.10035
  31        4PY         0.00125  -0.00344  -0.00907   0.04683  -0.06300
  32        4PZ         0.00005  -0.00001  -0.00051  -0.00133   0.00018
  33 5   H  1S         -0.00007  -0.00004   0.04980   0.09461  -0.08933
  34        2S         -0.00005  -0.00031   0.05091   0.11258  -0.11241
  35        3S          0.00181   0.00003  -0.00106   0.01699  -0.03605
  36 6   H  1S         -0.00005  -0.00004   0.04862   0.09203   0.08394
  37        2S         -0.00004  -0.00033   0.05019   0.11027   0.10631
  38        3S          0.00177   0.00001  -0.00107   0.01633   0.03450
                           6         7         8         9        10
                           O         O         O         V         V
     Eigenvalues --    -0.50944  -0.43606  -0.35702   0.08008   0.14087
   1 1   C  1S         -0.00297   0.00031  -0.00062   0.00178  -0.03347
   2        2S         -0.00436   0.00053  -0.00100   0.00295  -0.05369
   3        2PX         0.09338  -0.10978  -0.00229   0.00097  -0.03033
   4        2PY         0.16932   0.06501  -0.00373   0.00146  -0.06557
   5        2PZ         0.00331  -0.00007   0.17952  -0.18911  -0.00156
   6        3S          0.01765  -0.00136   0.00291  -0.00896   0.11682
   7        3PX         0.13519  -0.17543  -0.00324   0.00146  -0.03527
   8        3PY         0.24731   0.10431  -0.00525   0.00217  -0.08124
   9        3PZ         0.00525  -0.00009   0.28866  -0.27805  -0.00252
  10        4S         -0.05689  -0.00394   0.00464  -0.00964   1.22655
  11        4PX         0.06773  -0.10946  -0.00259   0.00850  -0.18437
  12        4PY         0.12556   0.06615  -0.00419   0.01353  -0.38466
  13        4PZ         0.00296  -0.00002   0.26689  -0.69619  -0.00875
  14 2   H  1S         -0.08191  -0.11427   0.00011   0.00273  -0.01809
  15        2S         -0.11379  -0.17661   0.00128   0.00424  -0.04975
  16        3S         -0.04255  -0.08168   0.00081   0.01166  -0.84294
  17 3   H  1S         -0.07884   0.11164   0.00009   0.00274  -0.01333
  18        2S         -0.10880   0.17163   0.00126   0.00436  -0.03782
  19        3S         -0.04029   0.07924   0.00080   0.01155  -0.76071
  20 4   C  1S         -0.00902  -0.00054  -0.00058  -0.00178  -0.03613
  21        2S         -0.01415  -0.00090  -0.00094  -0.00295  -0.05803
  22        2PX        -0.09888   0.12576   0.00217   0.00112   0.04216
  23        2PY        -0.16108  -0.07410   0.00408   0.00219   0.06042
  24        2PZ         0.00359   0.00018   0.17919   0.18949  -0.00206
  25        3S          0.04528   0.00256   0.00280   0.00880   0.12811
  26        3PX        -0.14660   0.20125   0.00302   0.00172   0.05215
  27        3PY        -0.23688  -0.11787   0.00574   0.00336   0.07141
  28        3PZ         0.00567   0.00028   0.28681   0.27791  -0.00310
  29        4S         -0.02580   0.00360   0.00426   0.01067   1.23790
  30        4PX        -0.07685   0.12966   0.00236   0.00850   0.27343
  31        4PY        -0.12267  -0.07472   0.00461   0.01588   0.41331
  32        4PZ         0.00331   0.00016   0.26731   0.69735  -0.01253
  33 5   H  1S         -0.07363  -0.12517   0.00013  -0.00273  -0.01113
  34        2S         -0.10020  -0.19512   0.00145  -0.00465  -0.03613
  35        3S         -0.03733  -0.09189   0.00077  -0.01181  -0.81193
  36 6   H  1S         -0.07986   0.12536   0.00009  -0.00273  -0.01579
  37        2S         -0.10932   0.19637   0.00139  -0.00462  -0.04767
  38        3S         -0.04104   0.09249   0.00073  -0.01196  -0.89371
                          11        12        13        14        15
                           V         V         V         V         V
     Eigenvalues --     0.16457   0.16993   0.24075   0.37238   0.39310
   1 1   C  1S          0.00114  -0.04559  -0.00001   0.00875   0.00142
   2        2S          0.00183  -0.07432  -0.00001   0.01166   0.00235
   3        2PX         0.09754  -0.02034   0.09974  -0.03487  -0.02439
   4        2PY        -0.05304  -0.03662  -0.05728  -0.06423   0.00802
   5        2PZ         0.00012  -0.00434   0.00006  -0.00292  -0.00014
   6        3S         -0.00375   0.16857   0.00019   0.03555  -0.00404
   7        3PX         0.13964  -0.01187   0.10510  -0.04211  -0.10879
   8        3PY        -0.07702  -0.02361  -0.06145  -0.08177   0.04366
   9        3PZ         0.00017  -0.00600   0.00003  -0.00591  -0.00019
  10        4S         -0.05908   1.43112  -0.01159  -2.48961  -0.22244
  11        4PX         0.58822  -0.12288   1.17186  -1.53494  -0.53733
  12        4PY        -0.31111  -0.20255  -0.66434  -2.67514   0.13246
  13        4PZ         0.00080  -0.02843   0.00111  -0.02753  -0.00192
  14 2   H  1S         -0.02940  -0.02575   0.01372  -0.06076   0.07537
  15        2S         -0.08186  -0.01754  -0.02396  -0.68588   0.77136
  16        3S         -1.02688  -0.99302  -1.54033  -0.27630  -0.32785
  17 3   H  1S          0.02853  -0.02558  -0.01624  -0.05374  -0.07539
  18        2S          0.08088  -0.02271   0.01758  -0.63346  -0.74993
  19        3S          1.10141  -1.01853   1.56581  -0.35635   0.24007
  20 4   C  1S          0.00195   0.04239  -0.00004  -0.01991  -0.00007
  21        2S          0.00313   0.06901  -0.00008  -0.03284   0.00013
  22        2PX         0.10049  -0.02438  -0.10062  -0.04031  -0.03158
  23        2PY        -0.06246  -0.03754   0.05770  -0.07093   0.01384
  24        2PZ         0.00023   0.00440  -0.00006   0.00220   0.00025
  25        3S         -0.00644  -0.15309   0.00029   0.04606  -0.00652
  26        3PX         0.14478  -0.02016  -0.11479  -0.09349  -0.10759
  27        3PY        -0.08828  -0.02727   0.06456  -0.16665   0.06070
  28        3PZ         0.00032   0.00609  -0.00004   0.00276   0.00050
  29        4S         -0.08468  -1.34029   0.00621   3.24170   0.18348
  30        4PX         0.52805  -0.12230  -1.12053  -1.11796  -0.58053
  31        4PY        -0.33743  -0.20098   0.65581  -1.95835   0.06754
  32        4PZ         0.00143   0.02845  -0.00110   0.02157   0.00179
  33 5   H  1S          0.03170   0.02440   0.00580   0.00640  -0.08080
  34        2S          0.06814   0.02245  -0.03437   0.02197  -0.78662
  35        3S          1.09389   0.93540  -1.52764   0.44725   0.48699
  36 6   H  1S         -0.03144   0.02566  -0.00412   0.00269   0.08856
  37        2S         -0.06812   0.02045   0.03605  -0.01410   0.90543
  38        3S         -0.97958   0.95261   1.51186   0.45353  -0.46133
                          16        17        18        19        20
                           V         V         V         V         V
     Eigenvalues --     0.40046   0.46362   0.48828   0.49366   0.59109
   1 1   C  1S         -0.01914   0.01234   0.04635  -0.00001  -0.00038
   2        2S         -0.03342   0.02872   0.07746   0.00017  -0.00068
   3        2PX         0.02824  -0.06072  -0.01190   0.00073   0.00141
   4        2PY         0.05311  -0.10651  -0.01524   0.00090   0.00199
   5        2PZ         0.00031  -0.00024  -0.00264  -0.15188  -0.19255
   6        3S          0.07380  -0.33644  -0.09127  -0.00634  -0.00029
   7        3PX         0.10305  -0.23831   0.03543   0.00049   0.00474
   8        3PY         0.20052  -0.41549   0.07155  -0.00049   0.00668
   9        3PZ        -0.00244  -0.00273  -0.01238  -0.62843  -0.68490
  10        4S          2.85539   0.15541  -3.09128   0.04001   0.04595
  11        4PX         0.31734   0.24543  -0.82835   0.01372   0.01341
  12        4PY         0.61489   0.45221  -1.42920   0.02532   0.02546
  13        4PZ         0.00156   0.00181   0.05416   0.68697   1.24104
  14 2   H  1S         -0.02262  -0.03380   0.07563  -0.00138  -0.00107
  15        2S         -0.49444  -0.32498   0.90155  -0.01215  -0.00804
  16        3S          0.32955   0.07364  -0.64774   0.01611   0.01525
  17 3   H  1S         -0.03327  -0.03535   0.07387  -0.00135  -0.00105
  18        2S         -0.59491  -0.34143   0.87291  -0.01182  -0.00755
  19        3S          0.35359   0.07061  -0.61646   0.01567   0.01485
  20 4   C  1S          0.00058  -0.00276  -0.05105   0.00178   0.00043
  21        2S         -0.00265   0.00297  -0.08889   0.00323   0.00081
  22        2PX         0.00977   0.05531  -0.02738  -0.00010   0.00129
  23        2PY         0.02007   0.09424  -0.04967  -0.00039   0.00263
  24        2PZ        -0.00272  -0.00132  -0.00274  -0.15268   0.19235
  25        3S          0.07777  -0.28516   0.23403  -0.01319  -0.00143
  26        3PX        -0.04283   0.23578  -0.05759  -0.00015   0.00452
  27        3PY        -0.05809   0.40703  -0.10108  -0.00129   0.00917
  28        3PZ        -0.00756  -0.00518  -0.00985  -0.63140   0.68270
  29        4S         -1.07156   0.74648   3.11815  -0.05573  -0.04021
  30        4PX         1.31797  -0.32543  -0.60046   0.00462   0.01509
  31        4PY         2.39139  -0.54349  -1.03176   0.00844   0.02392
  32        4PZ        -0.02372  -0.01197  -0.02718   0.69275  -1.23813
  33 5   H  1S         -0.04740  -0.06448  -0.06431   0.00131   0.00105
  34        2S         -0.85569  -0.66099  -0.81304   0.02037   0.00383
  35        3S         -0.22874   0.26493   0.54285  -0.00297  -0.01512
  36 6   H  1S         -0.03689  -0.06378  -0.06421   0.00131   0.00106
  37        2S         -0.73456  -0.65257  -0.81296   0.02023   0.00390
  38        3S         -0.25923   0.28382   0.56136  -0.00363  -0.01524
                          21        22        23        24        25
                           V         V         V         V         V
     Eigenvalues --     0.66544   0.69087   0.77275   0.77539   0.84401
   1 1   C  1S          0.00102  -0.00067   0.05642   0.06889   0.00094
   2        2S          0.00214  -0.00145   0.11920   0.14692   0.00225
   3        2PX        -0.13450   0.19636  -0.01720   0.11633  -0.00746
   4        2PY         0.07838  -0.11872  -0.02957   0.18724   0.01571
   5        2PZ        -0.00012   0.00019   0.00065   0.00303   0.00010
   6        3S         -0.01749   0.01764  -0.82568  -1.28678  -0.02745
   7        3PX        -0.62182   0.68639  -0.14243   0.46156  -0.22151
   8        3PY         0.35798  -0.41570  -0.24433   0.73079   0.17449
   9        3PZ        -0.00060   0.00071   0.00246   0.01057   0.00022
  10        4S          0.02759  -0.06425   0.89624   2.40383   0.03054
  11        4PX         1.08176  -0.76379   0.12946  -0.79775   4.54668
  12        4PY        -0.62269   0.48359   0.10866  -0.98659  -2.57447
  13        4PZ         0.00078   0.00061   0.00353  -0.03546   0.00493
  14 2   H  1S          0.02444  -0.05884   0.01270   0.03191  -0.02698
  15        2S          0.14325  -0.63184   0.07270   0.09145  -1.57926
  16        3S         -1.04862   1.09972  -0.18926  -1.06771  -1.23412
  17 3   H  1S         -0.02350   0.05811   0.01287   0.03263   0.03119
  18        2S         -0.15972   0.66486   0.11223   0.04158   1.62316
  19        3S          1.03873  -1.04976  -0.17098  -1.24781   1.22984
  20 4   C  1S          0.00123  -0.00027   0.08649   0.02460   0.00057
  21        2S          0.00252  -0.00050   0.18403   0.05161   0.00104
  22        2PX        -0.14944  -0.18706  -0.09150   0.05908   0.01124
  23        2PY         0.08575   0.10305  -0.16671   0.10968   0.00380
  24        2PZ        -0.00012  -0.00019   0.00338  -0.00098  -0.00012
  25        3S         -0.01883  -0.00270  -1.52224  -0.25945   0.00002
  26        3PX        -0.67699  -0.63507  -0.32559   0.30168   0.23972
  27        3PY         0.39204   0.34636  -0.60179   0.55929  -0.08982
  28        3PZ        -0.00060  -0.00064   0.01191  -0.00373  -0.00022
  29        4S          0.01514   0.03858   2.69588  -0.10154  -0.04454
  30        4PX         1.28761   0.77378   0.47032  -0.25112  -4.13855
  31        4PY        -0.74175  -0.40489   0.97762  -0.76726   2.39128
  32        4PZ         0.00109  -0.00053  -0.03397   0.01979  -0.00433
  33 5   H  1S         -0.02430  -0.05526   0.03476   0.00048  -0.02388
  34        2S         -0.13436  -0.56005   0.07741   0.08037  -1.40946
  35        3S          1.10798   0.98627  -1.15179   0.39923  -1.08853
  36 6   H  1S          0.02525   0.05536   0.03427   0.00106   0.02273
  37        2S          0.12657   0.52892   0.08362   0.00757   1.38680
  38        3S         -1.11266  -1.01960  -1.05866   0.29644   1.10242
                          26        27        28        29        30
                           V         V         V         V         V
     Eigenvalues --     0.95265   2.23141   2.29040   2.33276   2.40723
   1 1   C  1S          0.09593  -0.00986  -0.01448  -0.00050  -0.00052
   2        2S          0.19937   0.00202  -0.01425  -0.00095  -0.00069
   3        2PX        -0.09154  -0.07412  -0.13094  -0.35124  -0.40770
   4        2PY        -0.15864  -0.14062  -0.23370   0.19828   0.22806
   5        2PZ         0.00008  -0.00828  -0.01173  -0.00028  -0.00067
   6        3S         -1.54467  -0.18768  -0.03919   0.00049  -0.00449
   7        3PX        -0.23551   0.06808   0.20611   0.42204   0.56983
   8        3PY        -0.39923   0.14457   0.38208  -0.24057  -0.31961
   9        3PZ        -0.00164   0.00821   0.01468   0.00025   0.00081
  10        4S          5.71321  -0.09711  -0.88090  -0.00468  -0.00850
  11        4PX         1.21965   0.05412  -0.18373   0.06450   0.99144
  12        4PY         1.98627   0.07170  -0.36308  -0.02728  -0.53899
  13        4PZ        -0.01181   0.00153   0.00528   0.00025   0.00161
  14 2   H  1S          0.01531  -0.70065  -0.80675   0.70679   0.64568
  15        2S         -0.29299   0.99394   1.20445  -1.09727  -1.45202
  16        3S         -0.09836  -0.29909  -0.48559   0.46767   0.36258
  17 3   H  1S          0.01579  -0.69087  -0.79752  -0.70646  -0.66793
  18        2S         -0.25363   0.98051   1.19856   1.10076   1.49989
  19        3S         -0.07087  -0.27619  -0.45882  -0.45979  -0.35169
  20 4   C  1S         -0.09382  -0.01056   0.01214  -0.00047   0.00035
  21        2S         -0.19459  -0.00022   0.01235  -0.00067   0.00066
  22        2PX        -0.09265   0.13929  -0.12244  -0.29950   0.41701
  23        2PY        -0.16008   0.23997  -0.20498   0.17412  -0.24305
  24        2PZ         0.00017  -0.01029   0.01176  -0.00035   0.00046
  25        3S          1.50294  -0.16688   0.01580  -0.00053   0.00020
  26        3PX        -0.22756  -0.17926   0.21203   0.37392  -0.58395
  27        3PY        -0.40024  -0.30287   0.34688  -0.21419   0.34130
  28        3PZ         0.00238   0.01112  -0.01498   0.00036  -0.00061
  29        4S         -5.68939  -0.18064   0.88880  -0.01287  -0.00534
  30        4PX         1.09010  -0.01284  -0.20242  -0.12273  -0.84878
  31        4PY         1.99387  -0.03293  -0.31165   0.06765   0.51022
  32        4PZ         0.00867   0.00351  -0.00431  -0.00001  -0.00142
  33 5   H  1S         -0.01808  -0.79516   0.66687  -0.69897   0.69326
  34        2S          0.28669   1.15774  -1.02222   1.00853  -1.46887
  35        3S          0.05217  -0.35761   0.39382  -0.50814   0.43005
  36 6   H  1S         -0.01788  -0.79125   0.68450   0.68940  -0.68987
  37        2S          0.31822   1.14942  -1.04012  -0.99174   1.45366
  38        3S          0.07161  -0.36179   0.42242   0.50743  -0.44073
                          31        32        33        34        35
                           V         V         V         V         V
     Eigenvalues --     2.67120   2.81800   2.87759   2.95167   3.14162
   1 1   C  1S          0.00030   0.00169  -0.01349   0.00008  -0.00970
   2        2S          0.00019   0.00489  -0.04431  -0.00013  -0.02991
   3        2PX         0.00320   0.04894  -0.47582  -0.72077   0.44779
   4        2PY         0.00410   0.08580  -0.86427   0.41017   0.77265
   5        2PZ        -0.92485  -0.93530  -0.09225  -0.00105   0.00371
   6        3S         -0.00049  -0.04052   0.38827   0.00353   0.25223
   7        3PX        -0.00196  -0.08476   0.84051   0.86725  -0.42850
   8        3PY        -0.00210  -0.14751   1.49708  -0.48004  -0.73343
   9        3PZ         0.93992   1.14386   0.11591   0.00140  -0.00468
  10        4S          0.00734   0.09432  -0.88232  -0.00892  -0.49565
  11        4PX        -0.00172   0.06781  -0.71482  -0.66544   0.21438
  12        4PY        -0.00280   0.11901  -1.27533   0.35637   0.35795
  13        4PZ        -0.33821  -0.62034  -0.07338  -0.00113   0.00256
  14 2   H  1S          0.00787  -0.01346   0.26046  -0.37419  -0.20833
  15        2S         -0.00891   0.00852  -0.21581   0.38842   0.15739
  16        3S         -0.00200   0.02750  -0.29990   0.27262   0.05037
  17 3   H  1S          0.00799  -0.01314   0.25140   0.37246  -0.21428
  18        2S         -0.00917   0.00745  -0.19840  -0.38277   0.16243
  19        3S         -0.00235   0.02772  -0.30150  -0.28971   0.06391
  20 4   C  1S          0.00036  -0.00166   0.01362   0.00050  -0.00715
  21        2S          0.00039  -0.00516   0.04832   0.00110  -0.02236
  22        2PX        -0.00500   0.04330  -0.40976  -0.81265  -0.50532
  23        2PY        -0.00992   0.07699  -0.71688   0.44785  -0.90152
  24        2PZ        -0.92473   0.93484   0.09630  -0.00014   0.00948
  25        3S         -0.00239   0.04443  -0.43626  -0.00770   0.19267
  26        3PX         0.00553  -0.07900   0.77418   0.96810   0.54523
  27        3PY         0.01071  -0.13953   1.35321  -0.52887   0.98281
  28        3PZ         0.94001  -1.14337  -0.12114   0.00019  -0.01208
  29        4S          0.01146  -0.09634   0.90957   0.02418  -0.36571
  30        4PX        -0.00091   0.06768  -0.71576  -0.69860  -0.33517
  31        4PY        -0.00221   0.11805  -1.24107   0.37973  -0.61170
  32        4PZ        -0.33827   0.61982   0.07721  -0.00018   0.00957
  33 5   H  1S          0.00761   0.01844  -0.29644   0.41918  -0.27094
  34        2S         -0.00949  -0.01499   0.27133  -0.42843   0.21400
  35        3S         -0.00084  -0.02541   0.28116  -0.24527   0.13390
  36 6   H  1S          0.00767   0.01846  -0.29364  -0.43196  -0.25466
  37        2S         -0.00976  -0.01558   0.27408   0.44090   0.20012
  38        3S         -0.00058  -0.02448   0.26929   0.24479   0.12120
                          36        37        38
                           V         V         V
     Eigenvalues --     3.31945  23.35183  23.70636
   1 1   C  1S         -0.00033  -1.41478  -1.45153
   2        2S         -0.00036   1.50884   1.56971
   3        2PX         0.79185  -0.00649   0.01210
   4        2PY        -0.43938  -0.01052   0.02126
   5        2PZ         0.00109  -0.00035  -0.00015
   6        3S         -0.00267  -0.29630  -0.39967
   7        3PX        -1.13224   0.02394  -0.05581
   8        3PY         0.62123   0.03946  -0.09718
   9        3PZ        -0.00164   0.00098   0.00046
  10        4S          0.00690   0.27535   0.76930
  11        4PX         1.99478  -0.02556   0.13447
  12        4PY        -1.08908  -0.04289   0.22988
  13        4PZ         0.00282  -0.00162  -0.00194
  14 2   H  1S          0.56499   0.01276   0.00700
  15        2S         -0.88220   0.00775  -0.01487
  16        3S         -0.46156  -0.08381  -0.03963
  17 3   H  1S         -0.57758   0.01475   0.00821
  18        2S          0.90038   0.00736  -0.01446
  19        3S          0.49255  -0.08648  -0.03925
  20 4   C  1S          0.00005  -1.44672   1.41953
  21        2S         -0.00029   1.54296  -1.53517
  22        2PX        -0.70163   0.00603   0.01262
  23        2PY         0.40728   0.01092   0.02152
  24        2PZ        -0.00094  -0.00038   0.00010
  25        3S          0.00631  -0.30254   0.39076
  26        3PX         0.99853  -0.02236  -0.05658
  27        3PY        -0.59045  -0.04002  -0.09742
  28        3PZ         0.00142   0.00108  -0.00025
  29        4S         -0.02869   0.27797  -0.76116
  30        4PX        -1.76326   0.02391   0.13022
  31        4PY         1.05534   0.04356   0.22758
  32        4PZ        -0.00248  -0.00178   0.00152
  33 5   H  1S          0.48219   0.01347  -0.00459
  34        2S         -0.75393   0.00825   0.01339
  35        3S         -0.43246  -0.08326   0.03689
  36 6   H  1S         -0.47494   0.01190  -0.00355
  37        2S          0.74472   0.00918   0.01350
  38        3S          0.41528  -0.08106   0.03702
     Density Matrix:
                           1         2         3         4         5
   1 1   C  1S          0.65940
   2        2S          0.56149   0.49198
   3        2PX        -0.00049  -0.00065   0.08430
   4        2PY        -0.00128  -0.00178   0.00372   0.08766
   5        2PZ         0.00006   0.00010  -0.00008  -0.00020   0.06448
   6        3S         -0.08888  -0.15376   0.00254   0.00633  -0.00016
   7        3PX         0.00090   0.00138   0.13054   0.00119  -0.00006
   8        3PY         0.00120   0.00184   0.00124   0.13107  -0.00019
   9        3PZ         0.00012   0.00020  -0.00014  -0.00032   0.10368
  10        4S         -0.07937  -0.11428  -0.01588  -0.02845   0.00043
  11        4PX         0.00025   0.00158   0.07006  -0.00455  -0.00037
  12        4PY         0.00063   0.00306  -0.00463   0.06541  -0.00063
  13        4PZ        -0.00006  -0.00014  -0.00056  -0.00094   0.09584
  14 2   H  1S         -0.02052  -0.03269   0.03488  -0.06279  -0.00073
  15        2S         -0.02293  -0.03668   0.04904  -0.08771  -0.00055
  16        3S          0.00052  -0.00079   0.02054  -0.03309   0.00001
  17 3   H  1S         -0.02109  -0.03356  -0.07270  -0.00220  -0.00086
  18        2S         -0.02329  -0.03719  -0.10037  -0.00258  -0.00070
  19        3S          0.00058  -0.00071  -0.03823   0.00092  -0.00005
  20 4   C  1S          0.00608   0.00981  -0.01088  -0.01889  -0.00028
  21        2S          0.00977   0.01527  -0.01741  -0.03025  -0.00046
  22        2PX         0.01037   0.01658  -0.01242  -0.03221   0.00030
  23        2PY         0.01800   0.02878  -0.03215  -0.04971   0.00061
  24        2PZ        -0.00031  -0.00050  -0.00027  -0.00037   0.06436
  25        3S         -0.02627  -0.03989   0.04879   0.08492   0.00141
  26        3PX         0.01597   0.02474  -0.01825  -0.04600   0.00037
  27        3PY         0.02771   0.04293  -0.04572  -0.07131   0.00081
  28        3PZ        -0.00052  -0.00084  -0.00047  -0.00066   0.10301
  29        4S          0.00541   0.00401   0.02113   0.03728   0.00161
  30        4PX         0.00309   0.00638  -0.01321  -0.02114   0.00044
  31        4PY         0.00517   0.01080  -0.02117  -0.03747   0.00095
  32        4PZ        -0.00044  -0.00071  -0.00071  -0.00108   0.09599
  33 5   H  1S          0.00419   0.00688  -0.00174  -0.01246  -0.00032
  34        2S          0.00624   0.01035   0.00358  -0.02498   0.00001
  35        3S          0.00318   0.00464   0.00433  -0.01745   0.00007
  36 6   H  1S          0.00414   0.00679  -0.00989  -0.00766  -0.00034
  37        2S          0.00619   0.01030  -0.02336  -0.00939  -0.00002
  38        3S          0.00315   0.00463  -0.01724  -0.00509   0.00004
                           6         7         8         9        10
   6        3S          0.45233
   7        3PX        -0.00188   0.20248
   8        3PY        -0.00146  -0.00479   0.19650
   9        3PZ        -0.00042  -0.00011  -0.00029   0.16671
  10        4S          0.27323  -0.02663  -0.04862   0.00058   0.18261
  11        4PX        -0.00689   0.10902  -0.01033  -0.00060  -0.01528
  12        4PY        -0.01256  -0.01051   0.09849  -0.00101  -0.02931
  13        4PZ         0.00066  -0.00075  -0.00123   0.15412   0.00146
  14 2   H  1S          0.08739   0.05637  -0.09806  -0.00122   0.06944
  15        2S          0.09817   0.07963  -0.13649  -0.00093   0.08233
  16        3S          0.00626   0.03366  -0.05087   0.00001   0.01154
  17 3   H  1S          0.08979  -0.11385  -0.00170  -0.00141   0.06953
  18        2S          0.09962  -0.15701  -0.00099  -0.00116   0.08088
  19        3S          0.00621  -0.05956   0.00332  -0.00007   0.01037
  20 4   C  1S         -0.02660  -0.01699  -0.02953  -0.00049   0.00513
  21        2S         -0.04024  -0.02641  -0.04593  -0.00079   0.00386
  22        2PX        -0.04642  -0.01767  -0.04566   0.00051  -0.01739
  23        2PY        -0.08053  -0.04551  -0.07071   0.00105  -0.02985
  24        2PZ         0.00148  -0.00037  -0.00049   0.10348   0.00163
  25        3S          0.10236   0.07165   0.12495   0.00236   0.00090
  26        3PX        -0.06699  -0.02609  -0.06502   0.00066  -0.02580
  27        3PY        -0.11612  -0.06453  -0.10137   0.00140  -0.04420
  28        3PZ         0.00246  -0.00066  -0.00088   0.16563   0.00271
  29        4S          0.00187   0.03199   0.05669   0.00269  -0.03243
  30        4PX        -0.02258  -0.01973  -0.02966   0.00073  -0.00634
  31        4PY        -0.03851  -0.02970  -0.05397   0.00157  -0.01000
  32        4PZ         0.00207  -0.00100  -0.00149   0.15435   0.00251
  33 5   H  1S         -0.02042  -0.00059  -0.01776  -0.00047  -0.01435
  34        2S         -0.03089   0.00884  -0.03662   0.00008  -0.01847
  35        3S         -0.01187   0.00830  -0.02622   0.00012  -0.00313
  36 6   H  1S         -0.02018  -0.01493  -0.00921  -0.00049  -0.01472
  37        2S         -0.03082  -0.03583  -0.01047   0.00003  -0.01952
  38        3S         -0.01192  -0.02668  -0.00600   0.00007  -0.00380
                          11        12        13        14        15
  11        4PX         0.05976
  12        4PY        -0.00919   0.05093
  13        4PZ        -0.00089  -0.00144   0.14248
  14 2   H  1S          0.03358  -0.05402  -0.00062   0.08099
  15        2S          0.04829  -0.07503  -0.00022   0.10940   0.14979
  16        3S          0.02090  -0.02781   0.00017   0.03666   0.05241
  17 3   H  1S         -0.06290   0.00169  -0.00071  -0.01324  -0.02457
  18        2S         -0.08712   0.00402  -0.00032  -0.02448  -0.04224
  19        3S         -0.03334   0.00431   0.00014  -0.01783  -0.02695
  20 4   C  1S         -0.00318  -0.00582  -0.00043   0.00423   0.00678
  21        2S         -0.00657  -0.01187  -0.00070   0.00700   0.01134
  22        2PX        -0.01321  -0.01976   0.00071   0.00183  -0.00260
  23        2PY        -0.01976  -0.03668   0.00140   0.01134   0.02414
  24        2PZ        -0.00051  -0.00073   0.09567  -0.00037  -0.00013
  25        3S          0.02325   0.04167   0.00206  -0.02110  -0.03414
  26        3PX        -0.02034  -0.02798   0.00097   0.00109  -0.00697
  27        3PY        -0.02789  -0.05348   0.00193   0.01695   0.03623
  28        3PZ        -0.00083  -0.00121   0.15312  -0.00054  -0.00015
  29        4S          0.00834   0.01597   0.00246  -0.01810  -0.02505
  30        4PX        -0.01495  -0.01226   0.00090  -0.00168  -0.00841
  31        4PY        -0.01241  -0.02954   0.00183   0.01521   0.02716
  32        4PZ        -0.00100  -0.00152   0.14270  -0.00030   0.00015
  33 5   H  1S          0.00214  -0.01591  -0.00023   0.01121   0.02329
  34        2S          0.00948  -0.02761   0.00034   0.02382   0.04440
  35        3S          0.00770  -0.01584   0.00022   0.01667   0.02791
  36 6   H  1S         -0.01457  -0.00553  -0.00025  -0.00915  -0.01828
  37        2S         -0.02820  -0.00479   0.00032  -0.01895  -0.03448
  38        3S         -0.01727  -0.00097   0.00019  -0.01027  -0.01788
                          16        17        18        19        20
  16        3S          0.02097
  17 3   H  1S         -0.01801   0.08237
  18        2S         -0.02704   0.10970   0.14818
  19        3S         -0.01267   0.03598   0.05085   0.02007
  20 4   C  1S          0.00376   0.00430   0.00678   0.00375   0.65948
  21        2S          0.00557   0.00711   0.01130   0.00551   0.56159
  22        2PX        -0.00338   0.00898   0.02220   0.01673   0.00123
  23        2PY         0.01767   0.00742   0.00976   0.00570   0.00185
  24        2PZ         0.00002  -0.00036  -0.00009   0.00005   0.00005
  25        3S         -0.01448  -0.02133  -0.03388  -0.01417  -0.08930
  26        3PX        -0.00680   0.01429   0.03496   0.02612  -0.00046
  27        3PY         0.02663   0.00957   0.01194   0.00714  -0.00107
  28        3PZ         0.00005  -0.00052  -0.00008   0.00010   0.00011
  29        4S         -0.00623  -0.01773  -0.02389  -0.00554  -0.08011
  30        4PX        -0.00699   0.01416   0.02784   0.01721  -0.00020
  31        4PY         0.01598   0.00666   0.00682   0.00204  -0.00019
  32        4PZ         0.00018  -0.00029   0.00019   0.00021  -0.00004
  33 5   H  1S          0.01619  -0.00902  -0.01803  -0.00937  -0.02015
  34        2S          0.02739  -0.01865  -0.03384  -0.01689  -0.02214
  35        3S          0.01466  -0.01012  -0.01754  -0.00897   0.00061
  36 6   H  1S         -0.00954   0.01122   0.02322   0.01592  -0.01979
  37        2S         -0.01730   0.02380   0.04421   0.02703  -0.02201
  38        3S         -0.00919   0.01668   0.02775   0.01447   0.00051
                          21        22        23        24        25
  21        2S          0.49209
  22        2PX         0.00178   0.08263
  23        2PY         0.00264   0.00367   0.08771
  24        2PZ         0.00007   0.00010   0.00011   0.06425
  25        3S         -0.15431  -0.00569  -0.00859  -0.00007   0.45388
  26        3PX        -0.00069   0.12852   0.00192   0.00006  -0.00037
  27        3PY        -0.00161   0.00194   0.13151   0.00003   0.00071
  28        3PZ         0.00019   0.00014   0.00018   0.10284  -0.00035
  29        4S         -0.11574   0.01352   0.02272   0.00038   0.27836
  30        4PX        -0.00145   0.07350  -0.00523   0.00032   0.00612
  31        4PY        -0.00223  -0.00509   0.06727   0.00059   0.00989
  32        4PZ        -0.00012   0.00051   0.00093   0.09583   0.00063
  33 5   H  1S         -0.03209  -0.03324   0.06385  -0.00092   0.08582
  34        2S         -0.03537  -0.04963   0.08857  -0.00073   0.09462
  35        3S         -0.00057  -0.02275   0.03345  -0.00009   0.00555
  36 6   H  1S         -0.03154   0.07115   0.00263  -0.00079   0.08434
  37        2S         -0.03520   0.10135   0.00061  -0.00056   0.09415
  38        3S         -0.00072   0.04070  -0.00330  -0.00003   0.00585
                          26        27        28        29        30
  26        3PX         0.20021
  27        3PY        -0.00245   0.19774
  28        3PZ         0.00007   0.00004   0.16460
  29        4S          0.02515   0.04189   0.00045   0.18617
  30        4PX         0.11495  -0.01078   0.00050   0.01554   0.06711
  31        4PY        -0.01061   0.10169   0.00095   0.02470  -0.01050
  32        4PZ         0.00064   0.00119   0.15338   0.00129   0.00077
  33 5   H  1S         -0.05305   0.10002  -0.00151   0.06684  -0.03449
  34        2S         -0.07967   0.13827  -0.00121   0.07672  -0.05222
  35        3S         -0.03699   0.05155  -0.00015   0.00897  -0.02439
  36 6   H  1S          0.11244   0.00342  -0.00132   0.06702   0.06608
  37        2S          0.15995  -0.00070  -0.00096   0.07829   0.09449
  38        3S          0.06391  -0.00662  -0.00005   0.01006   0.03812
                          31        32        33        34        35
  31        4PY         0.05382
  32        4PZ         0.00149   0.14293
  33 5   H  1S          0.05599  -0.00079   0.08100
  34        2S          0.07754  -0.00034   0.11006   0.15204
  35        3S          0.02906   0.00008   0.03805   0.05517   0.02286
  36 6   H  1S         -0.00198  -0.00070  -0.01237  -0.02612  -0.02011
  37        2S         -0.00649  -0.00022  -0.02619  -0.04869  -0.03195
  38        3S         -0.00654   0.00012  -0.02029  -0.03205  -0.01586
                          36        37        38
  36 6   H  1S          0.07995
  37        2S          0.10972   0.15299
  38        3S          0.03844   0.05613   0.02340
    Full Mulliken population analysis:
                           1         2         3         4         5
   1 1   C  1S          0.65940
   2        2S          0.49324   0.49198
   3        2PX         0.00000   0.00000   0.08430
   4        2PY         0.00000   0.00000   0.00000   0.08766
   5        2PZ         0.00000   0.00000   0.00000   0.00000   0.06448
   6        3S         -0.02926  -0.06440   0.00000   0.00000   0.00000
   7        3PX         0.00000   0.00000   0.08213   0.00000   0.00000
   8        3PY         0.00000   0.00000   0.00000   0.08246   0.00000
   9        3PZ         0.00000   0.00000   0.00000   0.00000   0.06523
  10        4S         -0.01220  -0.02139   0.00000   0.00000   0.00000
  11        4PX         0.00000   0.00000   0.01543   0.00000   0.00000
  12        4PY         0.00000   0.00000   0.00000   0.01440   0.00000
  13        4PZ         0.00000   0.00000   0.00000   0.00000   0.02111
  14 2   H  1S         -0.00023  -0.00032   0.00182   0.00550   0.00000
  15        2S         -0.00166  -0.00318   0.00435   0.01308   0.00000
  16        3S          0.00004  -0.00007   0.00070   0.00190  -0.00000
  17 3   H  1S         -0.00025  -0.00037   0.00788   0.00000   0.00000
  18        2S         -0.00174  -0.00333   0.01771   0.00000   0.00000
  19        3S          0.00005  -0.00007   0.00255  -0.00000   0.00000
  20 4   C  1S          0.00000   0.00000  -0.00002  -0.00006   0.00000
  21        2S          0.00000  -0.00000  -0.00002  -0.00006   0.00000
  22        2PX        -0.00002  -0.00002   0.00011   0.00086   0.00000
  23        2PY        -0.00006  -0.00005   0.00086   0.00197   0.00000
  24        2PZ        -0.00000  -0.00000  -0.00000  -0.00000   0.00042
  25        3S         -0.00059  -0.00100   0.00255   0.00769  -0.00000
  26        3PX        -0.00054  -0.00099   0.00019   0.00557   0.00000
  27        3PY        -0.00163  -0.00298   0.00554   0.01071   0.00000
  28        3PZ        -0.00000  -0.00000  -0.00000  -0.00000   0.00613
  29        4S          0.00034   0.00030   0.00096   0.00293  -0.00000
  30        4PX        -0.00018  -0.00045  -0.00072   0.00146   0.00000
  31        4PY        -0.00052  -0.00133   0.00147   0.00097   0.00000
  32        4PZ        -0.00000  -0.00000  -0.00000  -0.00000   0.00904
  33 5   H  1S          0.00000   0.00000  -0.00000  -0.00000   0.00000
  34        2S          0.00001   0.00002   0.00000  -0.00031  -0.00000
  35        3S          0.00007   0.00013   0.00001  -0.00070  -0.00000
  36 6   H  1S          0.00000   0.00000  -0.00000  -0.00000   0.00000
  37        2S          0.00001   0.00002  -0.00023  -0.00007   0.00000
  38        3S          0.00007   0.00013  -0.00056  -0.00012  -0.00000
                           6         7         8         9        10
   6        3S          0.45233
   7        3PX         0.00000   0.20248
   8        3PY         0.00000   0.00000   0.19650
   9        3PZ         0.00000   0.00000   0.00000   0.16671
  10        4S          0.21167   0.00000   0.00000   0.00000   0.18261
  11        4PX         0.00000   0.07124   0.00000   0.00000   0.00000
  12        4PY         0.00000   0.00000   0.06436   0.00000   0.00000
  13        4PZ         0.00000   0.00000   0.00000   0.10071   0.00000
  14 2   H  1S          0.01592   0.01093   0.03194   0.00001   0.01831
  15        2S          0.04114   0.01985   0.05719   0.00001   0.04735
  16        3S          0.00288   0.00401   0.01018  -0.00000   0.00870
  17 3   H  1S          0.01699   0.04425   0.00000   0.00001   0.01860
  18        2S          0.04263   0.07719   0.00000   0.00001   0.04702
  19        3S          0.00288   0.01382  -0.00000   0.00000   0.00786
  20 4   C  1S         -0.00060  -0.00058  -0.00173   0.00000   0.00032
  21        2S         -0.00101  -0.00106  -0.00319   0.00000   0.00029
  22        2PX         0.00243   0.00018   0.00553   0.00000   0.00079
  23        2PY         0.00729   0.00551   0.01062   0.00000   0.00235
  24        2PZ         0.00000  -0.00000  -0.00000   0.00616   0.00000
  25        3S          0.02186   0.01344   0.04061  -0.00000   0.00034
  26        3PX         0.01257  -0.00127   0.01856   0.00000   0.00398
  27        3PY         0.03774   0.01842   0.02849   0.00000   0.01180
  28        3PZ         0.00000  -0.00000  -0.00000   0.03537   0.00000
  29        4S          0.00071   0.00493   0.01514  -0.00000  -0.02037
  30        4PX         0.00635  -0.00406   0.00587   0.00000   0.00192
  31        4PY         0.01874   0.00588   0.00124   0.00000   0.00525
  32        4PZ         0.00000  -0.00000  -0.00000   0.04936   0.00000
  33 5   H  1S         -0.00005  -0.00000  -0.00019   0.00000  -0.00076
  34        2S         -0.00118   0.00007  -0.00318  -0.00000  -0.00308
  35        3S         -0.00192   0.00011  -0.00421  -0.00000  -0.00112
  36 6   H  1S         -0.00005  -0.00012  -0.00005   0.00000  -0.00077
  37        2S         -0.00115  -0.00253  -0.00051  -0.00000  -0.00322
  38        3S         -0.00192  -0.00352  -0.00055  -0.00000  -0.00136
                          11        12        13        14        15
  11        4PX         0.05976
  12        4PY         0.00000   0.05093
  13        4PZ         0.00000   0.00000   0.14248
  14 2   H  1S          0.00643   0.01737   0.00000   0.08099
  15        2S          0.01557   0.04064   0.00000   0.07727   0.14979
  16        3S          0.00528   0.01181  -0.00000   0.01370   0.04135
  17 3   H  1S          0.02357  -0.00000   0.00001  -0.00001  -0.00063
  18        2S          0.05482  -0.00001   0.00000  -0.00063  -0.00519
  19        3S          0.01638  -0.00001  -0.00000  -0.00197  -0.00778
  20 4   C  1S         -0.00019  -0.00059   0.00000   0.00000   0.00002
  21        2S         -0.00047  -0.00146   0.00000   0.00000   0.00003
  22        2PX        -0.00072   0.00137   0.00000  -0.00000   0.00000
  23        2PY         0.00137   0.00095   0.00000  -0.00000  -0.00036
  24        2PZ        -0.00000  -0.00000   0.00901   0.00000   0.00000
  25        3S          0.00653   0.02028  -0.00000  -0.00007  -0.00152
  26        3PX        -0.00418   0.00554   0.00000  -0.00000   0.00003
  27        3PY         0.00552   0.00123   0.00000  -0.00023  -0.00359
  28        3PZ        -0.00000  -0.00000   0.04897   0.00000   0.00000
  29        4S          0.00253   0.00838  -0.00000  -0.00106  -0.00452
  30        4PX        -0.00721   0.00310   0.00000   0.00001   0.00016
  31        4PY         0.00314  -0.00561   0.00000  -0.00243  -0.01027
  32        4PZ        -0.00000  -0.00000   0.08964   0.00000  -0.00000
  33 5   H  1S          0.00003  -0.00234   0.00000   0.00000   0.00000
  34        2S          0.00029  -0.00987  -0.00000   0.00000   0.00016
  35        3S          0.00031  -0.00730  -0.00000   0.00023   0.00146
  36 6   H  1S         -0.00175  -0.00046   0.00000  -0.00000  -0.00004
  37        2S         -0.00826  -0.00097  -0.00000  -0.00004  -0.00093
  38        3S         -0.00655  -0.00026  -0.00000  -0.00047  -0.00249
                          16        17        18        19        20
  16        3S          0.02097
  17 3   H  1S         -0.00199   0.08237
  18        2S         -0.00781   0.07749   0.14818
  19        3S         -0.00654   0.01344   0.04012   0.02007
  20 4   C  1S          0.00009   0.00000   0.00002   0.00009   0.65948
  21        2S          0.00016   0.00000   0.00003   0.00016   0.49332
  22        2PX         0.00001  -0.00000  -0.00028  -0.00059   0.00000
  23        2PY        -0.00074  -0.00000  -0.00008  -0.00013   0.00000
  24        2PZ        -0.00000   0.00000   0.00000  -0.00000   0.00000
  25        3S         -0.00251  -0.00007  -0.00152  -0.00246  -0.02939
  26        3PX         0.00006  -0.00016  -0.00291  -0.00367   0.00000
  27        3PY        -0.00447  -0.00007  -0.00066  -0.00066   0.00000
  28        3PZ        -0.00000   0.00000   0.00000  -0.00000   0.00000
  29        4S         -0.00235  -0.00105  -0.00433  -0.00209  -0.01232
  30        4PX         0.00017  -0.00189  -0.00881  -0.00680   0.00000
  31        4PY        -0.00755  -0.00059  -0.00143  -0.00053   0.00000
  32        4PZ        -0.00000   0.00000  -0.00000  -0.00000   0.00000
  33 5   H  1S          0.00023  -0.00000  -0.00004  -0.00042  -0.00022
  34        2S          0.00144  -0.00004  -0.00089  -0.00233  -0.00159
  35        3S          0.00247  -0.00046  -0.00242  -0.00285   0.00005
  36 6   H  1S         -0.00043   0.00000   0.00000   0.00022  -0.00020
  37        2S         -0.00241   0.00000   0.00015   0.00141  -0.00154
  38        3S         -0.00294   0.00023   0.00145   0.00243   0.00004
                          21        22        23        24        25
  21        2S          0.49209
  22        2PX         0.00000   0.08263
  23        2PY         0.00000   0.00000   0.08771
  24        2PZ         0.00000   0.00000   0.00000   0.06425
  25        3S         -0.06463   0.00000   0.00000   0.00000   0.45388
  26        3PX         0.00000   0.08085   0.00000   0.00000   0.00000
  27        3PY         0.00000   0.00000   0.08274   0.00000   0.00000
  28        3PZ         0.00000   0.00000   0.00000   0.06470   0.00000
  29        4S         -0.02166   0.00000   0.00000   0.00000   0.21564
  30        4PX         0.00000   0.01619   0.00000   0.00000   0.00000
  31        4PY         0.00000   0.00000   0.01481   0.00000   0.00000
  32        4PZ         0.00000   0.00000   0.00000   0.02110   0.00000
  33 5   H  1S         -0.00031   0.00147   0.00577   0.00000   0.01550
  34        2S         -0.00304   0.00376   0.01376   0.00000   0.03945
  35        3S         -0.00005   0.00067   0.00201   0.00000   0.00254
  36 6   H  1S         -0.00028   0.00681   0.00002   0.00000   0.01479
  37        2S         -0.00295   0.01725   0.00001   0.00000   0.03861
  38        3S         -0.00007   0.00272  -0.00001   0.00000   0.00266
                          26        27        28        29        30
  26        3PX         0.20021
  27        3PY         0.00000   0.19774
  28        3PZ         0.00000   0.00000   0.16460
  29        4S          0.00000   0.00000   0.00000   0.18617
  30        4PX         0.07512   0.00000   0.00000   0.00000   0.06711
  31        4PY         0.00000   0.06645   0.00000   0.00000   0.00000
  32        4PZ         0.00000   0.00000   0.10023   0.00000   0.00000
  33 5   H  1S          0.00877   0.03386   0.00001   0.01757   0.00566
  34        2S          0.01700   0.06045   0.00001   0.04401   0.01444
  35        3S          0.00378   0.01080   0.00000   0.00675   0.00530
  36 6   H  1S          0.04143   0.00008   0.00001   0.01742   0.02463
  37        2S          0.07712  -0.00002   0.00001   0.04453   0.05952
  38        3S          0.01490  -0.00010   0.00000   0.00753   0.01892
                          31        32        33        34        35
  31        4PY         0.05382
  32        4PZ         0.00000   0.14293
  33 5   H  1S          0.01882   0.00001   0.08100
  34        2S          0.04394   0.00000   0.07774   0.15204
  35        3S          0.01293  -0.00000   0.01422   0.04352   0.02286
  36 6   H  1S         -0.00005   0.00001  -0.00001  -0.00081  -0.00238
  37        2S         -0.00027   0.00000  -0.00082  -0.00678  -0.00980
  38        3S         -0.00021  -0.00000  -0.00241  -0.00983  -0.00852
                          36        37        38
  36 6   H  1S          0.07995
  37        2S          0.07751   0.15299
  38        3S          0.01436   0.04428   0.02340
     Gross orbital populations:
                           1
   1 1   C  1S          1.10435
   2        2S          0.88586
   3        2PX         0.22700
   4        2PY         0.23588
   5        2PZ         0.16641
   6        3S          0.79258
   7        3PX         0.56131
   8        3PY         0.55507
   9        3PZ         0.42357
  10        4S          0.50490
  11        4PX         0.25887
  12        4PY         0.21150
  13        4PZ         0.41192
  14 2   H  1S          0.27300
  15        2S          0.46731
  16        3S          0.08633
  17 3   H  1S          0.27726
  18        2S          0.46475
  19        3S          0.08259
  20 4   C  1S          1.10441
  21        2S          0.88584
  22        2PX         0.22199
  23        2PY         0.23629
  24        2PZ         0.16564
  25        3S          0.79261
  26        3PX         0.55197
  27        3PY         0.55716
  28        3PZ         0.42003
  29        4S          0.50609
  30        4PX         0.27582
  31        4PY         0.21667
  32        4PZ         0.41232
  33 5   H  1S          0.27307
  34        2S          0.46917
  35        3S          0.08848
  36 6   H  1S          0.26980
  37        2S          0.47094
  38        3S          0.09126
          Condensed to atoms (all electrons):
               1          2          3          4          5          6
     1  C    5.031074   0.387462   0.388443   0.602136  -0.035167  -0.034742
     2  H    0.387462   0.516401  -0.032525  -0.040931   0.005984  -0.009756
     3  H    0.388443  -0.032525   0.512733  -0.040481  -0.009464   0.005896
     4  C    0.602136  -0.040931  -0.040481   5.058945   0.383854   0.383318
     5  H   -0.035167   0.005984  -0.009464   0.383854   0.526870  -0.041361
     6  H   -0.034742  -0.009756   0.005896   0.383318  -0.041361   0.528644
 Mulliken charges:
               1
     1  C   -0.339206
     2  H    0.173365
     3  H    0.175397
     4  C   -0.346841
     5  H    0.169284
     6  H    0.168001
 Sum of Mulliken charges =   0.00000
 Mulliken charges with hydrogens summed into heavy atoms:
               1
     1  C    0.009557
     4  C   -0.009557
 Electronic spatial extent (au):  <R**2>=             83.7264
 Charge=              0.0000 electrons
 Dipole moment (field-independent basis, Debye):
    X=              0.0045    Y=              0.0265    Z=             -0.0702  Tot=              0.0752
 Quadrupole moment (field-independent basis, Debye-Ang):
   XX=            -12.2059   YY=            -12.2155   ZZ=            -15.6729
   XY=              0.0158   XZ=             -0.0008   YZ=             -0.0060
 Traceless Quadrupole moment (field-independent basis, Debye-Ang):
   XX=              1.1588   YY=              1.1493   ZZ=             -2.3081
   XY=              0.0158   XZ=             -0.0008   YZ=             -0.0060
 Octapole moment (field-independent basis, Debye-Ang**2):
  XXX=             -0.4029  YYY=             -0.0004  ZZZ=             -0.0715  XYY=              0.2312
  XXY=             -0.0422  XXZ=             -0.1017  XZZ=             -0.1001  YZZ=             -0.0816
  YYZ=             -0.1317  XYZ=             -0.0263
 Hexadecapole moment (field-independent basis, Debye-Ang**3):
 XXXX=            -34.3076 YYYY=            -55.1986 ZZZZ=            -17.8040 XXXY=             -7.2431
 XXXZ=              0.0105 YYYX=            -10.6953 YYYZ=              0.0126 ZZZX=              0.0162
 ZZZY=              0.0344 XXYY=            -16.1966 XXZZ=             -9.9321 YYZZ=            -13.6485
 XXYZ=              0.0068 YYXZ=              0.0005 ZZXY=             -3.2038
 N-N= 3.306881429308D+01 E-N=-2.478469971146D+02  KE= 7.815092826397D+01
 Orbital energies and kinetic energies (alpha):
                                 1                 2
   1         O               -10.290146         15.977957
   2         O               -10.288303         15.980408
   3         O                -0.863921          1.539506
   4         O                -0.672111          1.270428
   5         O                -0.559337          0.941961
   6         O                -0.509435          1.283869
   7         O                -0.436063          1.042623
   8         O                -0.357022          1.038711
   9         V                 0.080077          1.181763
  10         V                 0.140866          0.589737
  11         V                 0.164566          0.595343
  12         V                 0.169928          0.680692
  13         V                 0.240751          0.583749
  14         V                 0.372383          0.846971
  15         V                 0.393099          0.933324
  16         V                 0.400455          0.787348
  17         V                 0.463622          1.192819
  18         V                 0.488283          1.418983
  19         V                 0.493662          1.301113
  20         V                 0.591088          1.652884
  21         V                 0.665439          1.570475
  22         V                 0.690866          2.148069
  23         V                 0.772751          2.459000
  24         V                 0.775393          2.280314
  25         V                 0.844007          1.088252
  26         V                 0.952650          3.428949
  27         V                 2.231407          3.927218
  28         V                 2.290396          4.027715
  29         V                 2.332763          4.304322
  30         V                 2.407226          4.517280
  31         V                 2.671198          6.301237
  32         V                 2.817998          6.307123
  33         V                 2.877594          6.136665
  34         V                 2.951668          6.226870
  35         V                 3.141620          6.820732
  36         V                 3.319451          6.401802
  37         V                23.351831         60.074185
  38         V                23.706362         60.204266
 Total kinetic energy from orbitals= 7.815092826397D+01
 Calling FoFJK, ICntrl=      2127 FMM=F ISym2X=0 I1Cent= 0 IOpClX= 0 NMat=1 NMatS=1 NMatT=0.
 -------------------------------------------------------------------
 Center     Atomic                   Forces (Hartrees/Bohr)
 Number     Number              X              Y              Z
 -------------------------------------------------------------------
      1        6           0.014208478    0.007652800   -0.002677781
      2        1          -0.011018446    0.006700791    0.001387720
      3        1           0.002799071   -0.005281134    0.001260759
      4        6           0.011425924    0.010476289   -0.003264294
      5        1           0.000417606   -0.013086439    0.001601045
      6        1          -0.017832633   -0.006462307    0.001692552
 -------------------------------------------------------------------
 Cartesian Forces:  Max     0.017832633 RMS     0.008369075

 GradGradGradGradGradGradGradGradGradGradGradGradGradGradGradGradGradGrad
 Berny optimization.
 Search for a local minimum.
 Step number   1 out of a maximum of    2
 All quantities printed in internal units (Hartrees-Bohrs-Radians)
 Second derivative matrix not updated -- first step.
 The second derivative matrix:
                          X1        Y1        Z1        X2        Y2
           X1           0.76036
           Y1           0.09785   0.85626
           Z1           0.00417   0.00595   0.17061
           X2          -0.16538   0.09642   0.00136   0.14282
           Y2           0.10212  -0.27956  -0.00497  -0.11555   0.26820
           Z2           0.00218  -0.00627  -0.05441  -0.00200   0.00513
           X3          -0.35264  -0.00059  -0.00568  -0.00010  -0.00006
           Y3          -0.00619  -0.11051  -0.00135   0.03221   0.01915
           Z3          -0.00722  -0.00131  -0.05610   0.00103   0.00040
           X4          -0.26769  -0.17904  -0.00061   0.02268   0.01349
           Y4          -0.17931  -0.47455  -0.00096  -0.01309  -0.00779
           Z4           0.00086   0.00161  -0.09484  -0.00040  -0.00056
           X5           0.02364  -0.01365   0.00047  -0.00000   0.00000
           Y5           0.01153  -0.00666   0.00064   0.00000  -0.00000
           Z5          -0.00034   0.00021   0.01785   0.00017  -0.00009
           X6           0.00171  -0.00098   0.00028  -0.00000   0.00000
           Y6          -0.02599   0.01501   0.00069   0.00000  -0.00000
           Z6           0.00035  -0.00019   0.01690  -0.00017   0.00009
                          Z2        X3        Y3        Z3        X4
           Z2           0.02825
           X3          -0.00020   0.35267
           Y3           0.00113   0.00069   0.07594
           Z3           0.01054   0.00619   0.00090   0.02932
           X4           0.00040   0.00008  -0.02672  -0.00039   0.71039
           Y4          -0.00022  -0.00004   0.01542   0.00024   0.12332
           Z4           0.01551  -0.00031  -0.00068   0.01635  -0.00364
           X5          -0.00019  -0.00000   0.00000   0.00020  -0.14506
           Y5           0.00012   0.00000  -0.00000  -0.00012   0.09188
           Z5           0.00930   0.00018  -0.00011  -0.00950  -0.00237
           X6          -0.00018  -0.00000   0.00000   0.00019  -0.32039
           Y6           0.00010   0.00000  -0.00000  -0.00010  -0.02293
           Z6          -0.00919  -0.00018   0.00011   0.00939   0.00661
                          Y4        Z4        X5        Y5        Z5
           Y4           0.86367
           Z4          -0.00743   0.17751
           X5           0.08333  -0.00156   0.12358
           Y5          -0.29257   0.00563  -0.10237   0.28330
           Z5           0.00696  -0.05789   0.00209  -0.00602   0.03000
           X6          -0.01421   0.00506  -0.00216  -0.00105   0.00026
           Y6          -0.10419   0.00142   0.03268   0.01593  -0.00095
           Z6           0.00140  -0.05664  -0.00100  -0.00025   0.01024
                          X6        Y6        Z6
           X6           0.32085
           Y6           0.01624   0.07326
           Z6          -0.00561  -0.00116   0.02930
 ITU=  0
     Eigenvalues ---    0.03740   0.04377   0.09347   0.09953   0.13518
     Eigenvalues ---    0.17425   0.26534   0.28961   0.52774   0.69886
     Eigenvalues ---    0.97349   1.56591
 Angle between quadratic step and forces=  33.26 degrees.
 Linear search not attempted -- first point.
 B after Tr=     0.007841    0.007984   -0.007180
         Rot=    1.000000   -0.000007    0.000004   -0.000101 Ang=  -0.01 deg.
 Variable       Old X    -DE/DX   Delta X   Delta X   Delta X     New X
                                 (Linear)    (Quad)   (Total)
    X1       -0.63564   0.01421   0.00000   0.02266   0.03072  -0.60492
    Y1       -1.09906   0.00765   0.00000   0.02365   0.03151  -1.06755
    Z1        0.00990  -0.00268   0.00000  -0.01489  -0.02209  -0.01219
    X2        0.42697  -0.01102   0.00000  -0.04511  -0.03669   0.39028
    Y2       -2.88477   0.00670   0.00000   0.02206   0.03012  -2.85465
    Z2       -0.02663   0.00139   0.00000   0.01837   0.01115  -0.01548
    X3       -2.68750   0.00280   0.00000   0.03010   0.03817  -2.64933
    Y3       -1.10430  -0.00528   0.00000  -0.01934  -0.01189  -1.11618
    Z3       -0.02941   0.00126   0.00000   0.01817   0.01095  -0.01846
    X4        0.62788   0.01143   0.00000   0.00977   0.01739   0.64527
    Y4        1.08966   0.01048   0.00000   0.00941   0.01753   1.10719
    Z4        0.00796  -0.00326   0.00000  -0.01483  -0.02199  -0.01404
    X5       -0.28634   0.00042   0.00000  -0.02122  -0.01397  -0.30031
    Y5        2.96256  -0.01309   0.00000  -0.04492  -0.03700   2.92556
    Z5       -0.03551   0.00160   0.00000   0.01826   0.01112  -0.02439
    X6        2.72776  -0.01783   0.00000  -0.04323  -0.03563   2.69213
    Y6        1.22691  -0.00646   0.00000  -0.03880  -0.03027   1.19663
    Z6       -0.03281   0.00169   0.00000   0.01799   0.01085  -0.02196
         Item               Value     Threshold  Converged?
 Maximum Force            0.017833     0.000450     NO 
 RMS     Force            0.008369     0.000300     NO 
 Maximum Displacement     0.038171     0.001800     NO 
 RMS     Displacement     0.025392     0.001200     NO 
 Predicted change in Energy=-1.670748D-03
 GradGradGradGradGradGradGradGradGradGradGradGradGradGradGradGradGradGrad

 Unable to Open any file for archive entry.
 1\1\GINC-BHD0009\Force\RwB97XD\6-311G\C2H4\BWEIGHT\11-Jan-2023\0\\# WB
 97XD/6-311G SCF=XQC FORCE nosym pop=full guess=read\\MD Step 999\\0,1\
 C,-0.33636673,-0.58159657,0.00523909\H,0.22594252,-1.52655517,-0.01409
 359\H,-1.42216423,-0.58436907,-0.01556201\C,0.33225958,0.57662337,0.00
 421016\H,-0.15152521,1.56772006,-0.01879311\H,1.44346928,0.64925136,-0
 .01736108\\Version=ES64L-G16RevC.01\HF=-78.5555679\RMSD=5.682e-09\RMSF
 =8.369e-03\Dipole=0.0017546,0.0104192,-0.0276181\Quadrupole=0.861574,0
 .8544545,-1.7160285,0.0117671,-0.0006139,-0.0044688\PG=C01 [X(C2H4)]\\
 @
 The archive entry for this job was punched.


 NO SCIENCE HAS EVER MADE MORE RAPID PROGRESS IN A
 SHORTER TIME THAN CHEMISTRY.
   -- MARTIN HEINRICH KLOPROTH, 1791
 (FIRST PROFESSOR OF CHEMISTRY AT THE UNIVERSITY OF BERLIN)
 Job cpu time:       0 days  0 hours  0 minutes 49.8 seconds.
 Elapsed time:       0 days  0 hours  0 minutes 17.2 seconds.
 File lengths (MBytes):  RWF=    272 Int=      0 D2E=      0 Chk=     32 Scr=     32
 Normal termination of Gaussian 16 at Wed Jan 11 18:36:33 2023.
