 Entering Gaussian System, Link 0=g16
 Initial command:
 /software/gaussian/g16-c01/avx2/g16/l1.exe "/gpfs/fs2/scratch/bweight/software/many_molecule_many_mode_NAMD/src/NAMD/TEST_NVT/TRAJ/traj-35/G16/GS_NEW/Gau-542.inp" -scrdir="/gpfs/fs2/scratch/bweight/software/many_molecule_many_mode_NAMD/src/NAMD/TEST_NVT/TRAJ/traj-35/G16/GS_NEW/"
 Entering Link 1 = /software/gaussian/g16-c01/avx2/g16/l1.exe PID=       543.
  
 Copyright (c) 1988-2019, Gaussian, Inc.  All Rights Reserved.
  
 This is part of the Gaussian(R) 16 program.  It is based on
 the Gaussian(R) 09 system (copyright 2009, Gaussian, Inc.),
 the Gaussian(R) 03 system (copyright 2003, Gaussian, Inc.),
 the Gaussian(R) 98 system (copyright 1998, Gaussian, Inc.),
 the Gaussian(R) 94 system (copyright 1995, Gaussian, Inc.),
 the Gaussian 92(TM) system (copyright 1992, Gaussian, Inc.),
 the Gaussian 90(TM) system (copyright 1990, Gaussian, Inc.),
 the Gaussian 88(TM) system (copyright 1988, Gaussian, Inc.),
 the Gaussian 86(TM) system (copyright 1986, Carnegie Mellon
 University), and the Gaussian 82(TM) system (copyright 1983,
 Carnegie Mellon University). Gaussian is a federally registered
 trademark of Gaussian, Inc.
  
 This software contains proprietary and confidential information,
 including trade secrets, belonging to Gaussian, Inc.
  
 This software is provided under written license and may be
 used, copied, transmitted, or stored only in accord with that
 written license.
  
 The following legend is applicable only to US Government
 contracts under FAR:
  
                    RESTRICTED RIGHTS LEGEND
  
 Use, reproduction and disclosure by the US Government is
 subject to restrictions as set forth in subparagraphs (a)
 and (c) of the Commercial Computer Software - Restricted
 Rights clause in FAR 52.227-19.
  
 Gaussian, Inc.
 340 Quinnipiac St., Bldg. 40, Wallingford CT 06492
  
  
 ---------------------------------------------------------------
 Warning -- This program may not be used in any manner that
 competes with the business of Gaussian, Inc. or will provide
 assistance to any competitor of Gaussian, Inc.  The licensee
 of this program is prohibited from giving any competitor of
 Gaussian, Inc. access to this program.  By using this program,
 the user acknowledges that Gaussian, Inc. is engaged in the
 business of creating and licensing software in the field of
 computational chemistry and represents and warrants to the
 licensee that it is not a competitor of Gaussian, Inc. and that
 it will not use this program in any manner prohibited above.
 ---------------------------------------------------------------
  

 Cite this work as:
 Gaussian 16, Revision C.01,
 M. J. Frisch, G. W. Trucks, H. B. Schlegel, G. E. Scuseria, 
 M. A. Robb, J. R. Cheeseman, G. Scalmani, V. Barone, 
 G. A. Petersson, H. Nakatsuji, X. Li, M. Caricato, A. V. Marenich, 
 J. Bloino, B. G. Janesko, R. Gomperts, B. Mennucci, H. P. Hratchian, 
 J. V. Ortiz, A. F. Izmaylov, J. L. Sonnenberg, D. Williams-Young, 
 F. Ding, F. Lipparini, F. Egidi, J. Goings, B. Peng, A. Petrone, 
 T. Henderson, D. Ranasinghe, V. G. Zakrzewski, J. Gao, N. Rega, 
 G. Zheng, W. Liang, M. Hada, M. Ehara, K. Toyota, R. Fukuda, 
 J. Hasegawa, M. Ishida, T. Nakajima, Y. Honda, O. Kitao, H. Nakai, 
 T. Vreven, K. Throssell, J. A. Montgomery, Jr., J. E. Peralta, 
 F. Ogliaro, M. J. Bearpark, J. J. Heyd, E. N. Brothers, K. N. Kudin, 
 V. N. Staroverov, T. A. Keith, R. Kobayashi, J. Normand, 
 K. Raghavachari, A. P. Rendell, J. C. Burant, S. S. Iyengar, 
 J. Tomasi, M. Cossi, J. M. Millam, M. Klene, C. Adamo, R. Cammi, 
 J. W. Ochterski, R. L. Martin, K. Morokuma, O. Farkas, 
 J. B. Foresman, and D. J. Fox, Gaussian, Inc., Wallingford CT, 2019.
 
 ******************************************
 Gaussian 16:  ES64L-G16RevC.01  3-Jul-2019
                11-Jan-2023 
 ******************************************
 %oldchk=../GS_OLD/geometry.chk
 %chk=geometry.chk
 %nprocshared=4
 Will use up to    4 processors via shared memory.
 %mem=5GB
 Copying data from "../GS_OLD/geometry.chk" to current chk file "geometry.chk"
 IOpt=  2 FromEx=T IUOpen= 4 IOptOp= 5 NList=   0 IFRang= 0 IUIn= 4 IUOut= 2.
 -------------------------------------------------------
 # WB97XD/6-311G SCF=XQC FORCE nosym pop=full guess=read
 -------------------------------------------------------
 1/10=7,30=1,38=1/1,3;
 2/12=2,15=1,17=6,18=5,40=1/2;
 3/5=4,6=6,11=2,25=1,30=1,71=1,74=-58,116=-2/1,2,3;
 4/5=1/1;
 5/5=2,8=3,13=1,38=6/2,8;
 6/7=3,28=1/1;
 7/29=1,30=1/1,2,3,16;
 1/10=7,30=1/3;
 99//99;
 -----------
 MD Step 999
 -----------
 Symbolic Z-matrix:
 Charge =  0 Multiplicity = 1
 C                    -0.33773  -0.58344   0.00549 
 H                     0.23302  -1.52478  -0.0175 
 H                    -1.42449  -0.57612  -0.01823 
 C                     0.33187   0.57586   0.0038 
 H                    -0.14514   1.56695  -0.02147 
 H                     1.43937   0.65724  -0.02054 
 

 GradGradGradGradGradGradGradGradGradGradGradGradGradGradGradGradGradGrad
 Berny optimization.
 Initialization pass.
 Trust Radius=3.00D-01 FncErr=1.00D-07 GrdErr=1.00D-07 EigMax=2.50D+02 EigMin=1.00D-04
 Number of steps in this run=      2 maximum allowed number of steps=      2.
 GradGradGradGradGradGradGradGradGradGradGradGradGradGradGradGradGradGrad

                          Input orientation:                          
 ---------------------------------------------------------------------
 Center     Atomic      Atomic             Coordinates (Angstroms)
 Number     Number       Type             X           Y           Z
 ---------------------------------------------------------------------
      1          6           0       -0.337730   -0.583440    0.005491
      2          1           0        0.233021   -1.524783   -0.017498
      3          1           0       -1.424487   -0.576120   -0.018226
      4          6           0        0.331872    0.575859    0.003797
      5          1           0       -0.145142    1.566955   -0.021465
      6          1           0        1.439367    0.657239   -0.020541
 ---------------------------------------------------------------------
                    Distance matrix (angstroms):
                    1          2          3          4          5
     1  C    0.000000
     2  H    1.101095   0.000000
     3  H    1.087040   1.909789   0.000000
     4  C    1.338785   2.103074   2.100557   0.000000
     5  H    2.159170   3.114782   2.495898   1.100205   0.000000
     6  H    2.167496   2.493292   3.118147   1.110747   1.827088
                    6
     6  H    0.000000
 Symmetry turned off by external request.
 Stoichiometry    C2H4
 Framework group  C1[X(C2H4)]
 Deg. of freedom    12
 Full point group                 C1      NOp   1
 Rotational constants (GHZ):         143.4808180          29.6708856          24.5913138
 Standard basis: 6-311G (5D, 7F)
    38 basis functions,    72 primitive gaussians,    38 cartesian basis functions
     8 alpha electrons        8 beta electrons
       nuclear repulsion energy        33.0655524712 Hartrees.
 NAtoms=    6 NActive=    6 NUniq=    6 SFac= 1.00D+00 NAtFMM=   60 NAOKFM=F Big=F
 Integral buffers will be    131072 words long.
 Raffenetti 2 integral format.
 Two-electron integral symmetry is turned off.
 Nuclear repulsion after empirical dispersion term =       33.0647104079 Hartrees.
 One-electron integrals computed using PRISM.
 NBasis=    38 RedAO= T EigKep=  6.44D-03  NBF=    38
 NBsUse=    38 1.00D-06 EigRej= -1.00D+00 NBFU=    38
 Initial guess from the checkpoint file:  "geometry.chk"
 B after Tr=    -0.000303   -0.000515   -0.000439
         Rot=    1.000000    0.000004   -0.000001    0.000004 Ang=   0.00 deg.
 Keep R1 ints in memory in canonical form, NReq=4036876.
 Requested convergence on RMS density matrix=1.00D-08 within  32 cycles.
 Requested convergence on MAX density matrix=1.00D-06.
 Requested convergence on             energy=1.00D-06.
 No special actions if energy rises.
 SCF Done:  E(RwB97XD) =  -78.5552329624     A.U. after    8 cycles
            NFock=  8  Conv=0.53D-08     -V/T= 2.0052
 QCSCF skips out because SCF is already converged.

 **********************************************************************

            Population analysis using the SCF Density.

 **********************************************************************

 Alpha  occ. eigenvalues --  -10.28972 -10.28872  -0.86375  -0.67256  -0.55963
 Alpha  occ. eigenvalues --   -0.50903  -0.43627  -0.35677
 Alpha virt. eigenvalues --    0.07974   0.14086   0.16483   0.17001   0.24074
 Alpha virt. eigenvalues --    0.36967   0.39364   0.40244   0.46419   0.48874
 Alpha virt. eigenvalues --    0.49384   0.59097   0.66571   0.69130   0.77325
 Alpha virt. eigenvalues --    0.77471   0.84347   0.95142   2.23109   2.29127
 Alpha virt. eigenvalues --    2.33246   2.40714   2.67099   2.81800   2.87779
 Alpha virt. eigenvalues --    2.95155   3.14168   3.31993  23.35246  23.70532
     Molecular Orbital Coefficients:
                           1         2         3         4         5
                           O         O         O         O         O
     Eigenvalues --   -10.28972 -10.28872  -0.86375  -0.67256  -0.55963
   1 1   C  1S          0.28352   0.48687  -0.08822   0.06696  -0.00036
   2        2S          0.23352   0.40060  -0.13946   0.10721  -0.00059
   3        2PX         0.00015  -0.00006   0.02606   0.03487   0.13981
   4        2PY         0.00026  -0.00010   0.04665   0.05651  -0.07343
   5        2PZ        -0.00000  -0.00000  -0.00099   0.00138   0.00019
   6        3S          0.00659   0.01305   0.37424  -0.29254   0.00160
   7        3PX        -0.00042   0.00061   0.03485   0.05616   0.21936
   8        3PY        -0.00070   0.00108   0.06191   0.09228  -0.11635
   9        3PZ        -0.00002  -0.00002  -0.00165   0.00247   0.00028
  10        4S         -0.00194  -0.01488   0.19212  -0.22513   0.00077
  11        4PX         0.00086  -0.00199   0.00496   0.02250   0.11307
  12        4PY         0.00147  -0.00339   0.00877   0.03833  -0.06090
  13        4PZ         0.00002   0.00006  -0.00057   0.00125   0.00013
  14 2   H  1S         -0.00006  -0.00004   0.05232  -0.08541   0.10355
  15        2S         -0.00024   0.00020   0.05382  -0.10375   0.13144
  16        3S          0.00134   0.00129  -0.00192  -0.01462   0.04239
  17 3   H  1S         -0.00007  -0.00005   0.05386  -0.08960  -0.10763
  18        2S         -0.00025   0.00018   0.05483  -0.10774  -0.13540
  19        3S          0.00138   0.00132  -0.00194  -0.01567  -0.04357
  20 4   C  1S          0.48678  -0.28369  -0.08698  -0.06812  -0.00020
  21        2S          0.40074  -0.23331  -0.13733  -0.10926  -0.00031
  22        2PX        -0.00007  -0.00015  -0.02740   0.03918   0.11553
  23        2PY        -0.00011  -0.00027  -0.04621   0.07011  -0.07400
  24        2PZ        -0.00000   0.00000  -0.00079  -0.00165   0.00020
  25        3S          0.01205  -0.00804   0.36778   0.29865   0.00083
  26        3PX         0.00006   0.00076  -0.03402   0.06331   0.18064
  27        3PY         0.00013   0.00130  -0.05738   0.11253  -0.11451
  28        3PZ        -0.00003   0.00000  -0.00137  -0.00293   0.00030
  29        4S         -0.00865   0.01206   0.18866   0.23724  -0.00052
  30        4PX         0.00016  -0.00207  -0.00532   0.02783   0.09989
  31        4PY         0.00023  -0.00362  -0.00893   0.04812  -0.06252
  32        4PZ         0.00005  -0.00003  -0.00057  -0.00150   0.00016
  33 5   H  1S         -0.00008  -0.00002   0.05016   0.09557  -0.08845
  34        2S         -0.00013  -0.00029   0.05111   0.11317  -0.11097
  35        3S          0.00175  -0.00048  -0.00094   0.01710  -0.03556
  36 6   H  1S         -0.00007  -0.00002   0.04891   0.09313   0.08316
  37        2S         -0.00013  -0.00030   0.05037   0.11099   0.10497
  38        3S          0.00171  -0.00047  -0.00097   0.01645   0.03404
                           6         7         8         9        10
                           O         O         O         V         V
     Eigenvalues --    -0.50903  -0.43627  -0.35677   0.07974   0.14086
   1 1   C  1S         -0.00209   0.00028  -0.00076   0.00207  -0.03422
   2        2S         -0.00294   0.00049  -0.00124   0.00344  -0.05492
   3        2PX         0.09407  -0.10857  -0.00251   0.00106  -0.03084
   4        2PY         0.16971   0.06474  -0.00429   0.00178  -0.06603
   5        2PZ         0.00377   0.00001   0.17951  -0.18918  -0.00206
   6        3S          0.01376  -0.00119   0.00360  -0.01042   0.11986
   7        3PX         0.13616  -0.17366  -0.00354   0.00159  -0.03583
   8        3PY         0.24772   0.10399  -0.00604   0.00263  -0.08159
   9        3PZ         0.00598   0.00005   0.28861  -0.27802  -0.00328
  10        4S         -0.06185  -0.00402   0.00538  -0.01213   1.24730
  11        4PX         0.06807  -0.10854  -0.00289   0.00945  -0.18405
  12        4PY         0.12549   0.06587  -0.00496   0.01580  -0.38166
  13        4PZ         0.00339   0.00007   0.26702  -0.69502  -0.01154
  14 2   H  1S         -0.08228  -0.11348   0.00012   0.00322  -0.01925
  15        2S         -0.11480  -0.17530   0.00148   0.00508  -0.05119
  16        3S         -0.04294  -0.08095   0.00092   0.01380  -0.85138
  17 3   H  1S         -0.07969   0.11065   0.00005   0.00322  -0.01466
  18        2S         -0.11047   0.16999   0.00139   0.00516  -0.03986
  19        3S         -0.04093   0.07828   0.00087   0.01355  -0.77260
  20 4   C  1S         -0.00995  -0.00056  -0.00060  -0.00195  -0.03547
  21        2S         -0.01568  -0.00093  -0.00099  -0.00324  -0.05695
  22        2PX        -0.09851   0.12685   0.00251   0.00129   0.04128
  23        2PY        -0.16032  -0.07504   0.00463   0.00238   0.05973
  24        2PZ         0.00409   0.00019   0.17905   0.18946  -0.00206
  25        3S          0.04951   0.00268   0.00293   0.00970   0.12554
  26        3PX        -0.14628   0.20250   0.00351   0.00199   0.05101
  27        3PY        -0.23617  -0.11901   0.00651   0.00368   0.07072
  28        3PZ         0.00646   0.00028   0.28664   0.27802  -0.00312
  29        4S         -0.01964   0.00367   0.00475   0.01070   1.22016
  30        4PX        -0.07701   0.13062   0.00270   0.00971   0.27259
  31        4PY        -0.12290  -0.07570   0.00511   0.01758   0.41598
  32        4PZ         0.00376   0.00016   0.26768   0.69619  -0.01274
  33 5   H  1S         -0.07263  -0.12617   0.00019  -0.00299  -0.01003
  34        2S         -0.09840  -0.19623   0.00168  -0.00504  -0.03516
  35        3S         -0.03671  -0.09240   0.00091  -0.01271  -0.80478
  36 6   H  1S         -0.07924   0.12601   0.00011  -0.00298  -0.01447
  37        2S         -0.10800   0.19702   0.00156  -0.00499  -0.04616
  38        3S         -0.04058   0.09279   0.00083  -0.01284  -0.88249
                          11        12        13        14        15
                           V         V         V         V         V
     Eigenvalues --     0.16483   0.17001   0.24074   0.36967   0.39364
   1 1   C  1S          0.00125  -0.04533   0.00003   0.00771   0.00082
   2        2S          0.00201  -0.07391   0.00004   0.00994   0.00129
   3        2PX         0.09783  -0.01933   0.09928  -0.03436  -0.02320
   4        2PY        -0.05339  -0.03573  -0.05692  -0.06299   0.00961
   5        2PZ         0.00009  -0.00496   0.00001  -0.00339  -0.00013
   6        3S         -0.00422   0.16812   0.00023   0.03696  -0.00095
   7        3PX         0.13976  -0.01063   0.10406  -0.03979  -0.10512
   8        3PY        -0.07745  -0.02254  -0.06073  -0.07689   0.04986
   9        3PZ         0.00013  -0.00688  -0.00004  -0.00705  -0.00023
  10        4S         -0.06110   1.41393  -0.01628  -2.32879  -0.14833
  11        4PX         0.59630  -0.11537   1.17026  -1.48957  -0.52282
  12        4PY        -0.31671  -0.19618  -0.66563  -2.59149   0.14129
  13        4PZ         0.00066  -0.03239   0.00064  -0.03070  -0.00182
  14 2   H  1S         -0.02891  -0.02613   0.01422  -0.06412   0.07391
  15        2S         -0.08215  -0.01847  -0.02475  -0.70865   0.74923
  16        3S         -1.03359  -0.98557  -1.52901  -0.23706  -0.30835
  17 3   H  1S          0.02816  -0.02587  -0.01679  -0.05733  -0.07571
  18        2S          0.08115  -0.02295   0.01772  -0.65769  -0.75965
  19        3S          1.11086  -1.00257   1.55836  -0.31848   0.24028
  20 4   C  1S          0.00171   0.04264  -0.00007  -0.01984  -0.00006
  21        2S          0.00273   0.06939  -0.00014  -0.03287   0.00004
  22        2PX         0.10012  -0.02467  -0.10105  -0.03908  -0.03159
  23        2PY        -0.06179  -0.03853   0.05790  -0.06918   0.01423
  24        2PZ         0.00019   0.00493  -0.00003   0.00233   0.00021
  25        3S         -0.00553  -0.15323   0.00035   0.04936  -0.00375
  26        3PX         0.14394  -0.02045  -0.11591  -0.09199  -0.10929
  27        3PY        -0.08733  -0.02858   0.06507  -0.16467   0.05817
  28        3PZ         0.00027   0.00680  -0.00000   0.00261   0.00039
  29        4S         -0.07701  -1.36064   0.00997   3.12126   0.15398
  30        4PX         0.52348  -0.12594  -1.12109  -1.04689  -0.55977
  31        4PY        -0.33201  -0.20826   0.65399  -1.83353   0.13786
  32        4PZ         0.00125   0.03203  -0.00073   0.02450   0.00154
  33 5   H  1S          0.03141   0.02403   0.00521   0.00357  -0.08263
  34        2S          0.06644   0.02183  -0.03496  -0.01287  -0.81596
  35        3S          1.08571   0.95038  -1.54100   0.43536   0.48435
  36 6   H  1S         -0.03146   0.02515  -0.00358  -0.00036   0.08821
  37        2S         -0.06682   0.02003   0.03639  -0.04799   0.89419
  38        3S         -0.98153   0.96420   1.52320   0.44309  -0.46980
                          16        17        18        19        20
                           V         V         V         V         V
     Eigenvalues --     0.40244   0.46419   0.48874   0.49384   0.59097
   1 1   C  1S         -0.02037   0.01172   0.04622  -0.00071  -0.00041
   2        2S         -0.03534   0.02771   0.07727  -0.00100  -0.00074
   3        2PX         0.03172  -0.06051  -0.01225   0.00100   0.00151
   4        2PY         0.05777  -0.10572  -0.01533   0.00136   0.00227
   5        2PZ         0.00053  -0.00025  -0.00532  -0.15203  -0.19239
   6        3S          0.07409  -0.33531  -0.09359  -0.00576  -0.00051
   7        3PX         0.11166  -0.23830   0.03557  -0.00016   0.00504
   8        3PY         0.20905  -0.41383   0.07333  -0.00137   0.00760
   9        3PZ        -0.00228  -0.00307  -0.02371  -0.62862  -0.68426
  10        4S          3.06609   0.25759  -3.00871   0.09151   0.05224
  11        4PX         0.43489   0.27667  -0.82946   0.02914   0.01605
  12        4PY         0.78175   0.50976  -1.43449   0.05166   0.02874
  13        4PZ         0.00108   0.00150   0.07274   0.68635   1.24002
  14 2   H  1S         -0.02301  -0.03344   0.07478  -0.00271  -0.00124
  15        2S         -0.49808  -0.32686   0.88402  -0.02709  -0.00949
  16        3S          0.37355   0.08407  -0.64920   0.02888   0.01751
  17 3   H  1S         -0.02952  -0.03547   0.07262  -0.00263  -0.00120
  18        2S         -0.55360  -0.34894   0.85343  -0.02626  -0.00869
  19        3S          0.38381   0.08330  -0.61536   0.02775   0.01708
  20 4   C  1S          0.00255  -0.00224  -0.05095   0.00279   0.00051
  21        2S          0.00054   0.00380  -0.08875   0.00503   0.00096
  22        2PX         0.01212   0.05532  -0.02706   0.00026   0.00155
  23        2PY         0.02234   0.09470  -0.04927   0.00036   0.00301
  24        2PZ        -0.00307  -0.00156  -0.00545  -0.15252   0.19232
  25        3S          0.07542  -0.28638   0.23236  -0.01839  -0.00185
  26        3PX        -0.03697   0.23543  -0.05792   0.00052   0.00546
  27        3PY        -0.05505   0.40803  -0.10203   0.00027   0.01051
  28        3PZ        -0.00839  -0.00616  -0.02087  -0.63108   0.68283
  29        4S         -1.30152   0.67670   3.12851  -0.11284  -0.04536
  30        4PX         1.42205  -0.28162  -0.57046   0.01449   0.01642
  31        4PY         2.54719  -0.46266  -0.97045   0.02460   0.02715
  32        4PZ        -0.02765  -0.01328  -0.02044   0.69279  -1.23783
  33 5   H  1S         -0.04196  -0.06478  -0.06504   0.00249   0.00117
  34        2S         -0.81772  -0.67441  -0.83811   0.03636   0.00412
  35        3S         -0.29665   0.24729   0.52742  -0.01162  -0.01699
  36 6   H  1S         -0.03583  -0.06374  -0.06493   0.00251   0.00119
  37        2S         -0.74135  -0.66062  -0.83434   0.03613   0.00435
  38        3S         -0.30408   0.26647   0.54795  -0.01283  -0.01721
                          21        22        23        24        25
                           V         V         V         V         V
     Eigenvalues --     0.66571   0.69130   0.77325   0.77471   0.84347
   1 1   C  1S          0.00100   0.00061   0.05249   0.07148   0.00099
   2        2S          0.00209   0.00134   0.11085   0.15240   0.00232
   3        2PX        -0.14163  -0.19148  -0.02334   0.11529  -0.00815
   4        2PY         0.08283   0.11592  -0.03964   0.18537   0.01537
   5        2PZ        -0.00006  -0.00012   0.00058   0.00350   0.00013
   6        3S         -0.01744  -0.01725  -0.75422  -1.32443  -0.02695
   7        3PX        -0.64436  -0.66430  -0.16564   0.45174  -0.22721
   8        3PY         0.37234   0.40290  -0.28220   0.71422   0.17414
   9        3PZ        -0.00034  -0.00046   0.00226   0.01218   0.00043
  10        4S          0.03146   0.06873   0.78464   2.42067   0.00560
  11        4PX         1.07261   0.73862   0.16540  -0.78271   4.57319
  12        4PY        -0.62056  -0.46341   0.16779  -0.97964  -2.59895
  13        4PZ         0.00012  -0.00108   0.00573  -0.04047   0.00313
  14 2   H  1S          0.02705   0.05783   0.01067   0.03284  -0.02728
  15        2S          0.17908   0.62304   0.06801   0.09100  -1.59831
  16        3S         -1.07986  -1.05962  -0.13122  -1.07360  -1.23887
  17 3   H  1S         -0.02615  -0.05716   0.01074   0.03364   0.03152
  18        2S         -0.19766  -0.65674   0.10528   0.04693   1.64309
  19        3S          1.06742   1.01339  -0.10761  -1.24923   1.23837
  20 4   C  1S          0.00126   0.00030   0.08522   0.02963   0.00067
  21        2S          0.00257   0.00055   0.18139   0.06224   0.00128
  22        2PX        -0.14262   0.19211  -0.09497   0.05466   0.00904
  23        2PY         0.08195  -0.10595  -0.17278   0.10135   0.00433
  24        2PZ        -0.00006   0.00014   0.00388  -0.00093  -0.00013
  25        3S         -0.01853   0.00272  -1.50751  -0.34686  -0.00312
  26        3PX        -0.65610   0.66053  -0.34280   0.28641   0.22669
  27        3PY         0.38033  -0.36118  -0.63135   0.52884  -0.08478
  28        3PZ        -0.00036   0.00050   0.01371  -0.00362  -0.00037
  29        4S          0.01224  -0.04431   2.68861   0.05656  -0.02517
  30        4PX         1.29114  -0.83657   0.49722  -0.24226  -4.10080
  31        4PY        -0.74351   0.44554   1.02413  -0.72659   2.35261
  32        4PZ         0.00080   0.00081  -0.03899   0.02045  -0.00281
  33 5   H  1S         -0.02202   0.05593   0.03441   0.00255  -0.02335
  34        2S         -0.10505   0.55869   0.08202   0.08128  -1.39343
  35        3S          1.08211  -1.03726  -1.17402   0.33990  -1.08032
  36 6   H  1S          0.02293  -0.05598   0.03390   0.00323   0.02267
  37        2S          0.09969  -0.52563   0.08864   0.01296   1.37293
  38        3S         -1.08531   1.06725  -1.08186   0.24591   1.09448
                          26        27        28        29        30
                           V         V         V         V         V
     Eigenvalues --     0.95142   2.23109   2.29127   2.33246   2.40714
   1 1   C  1S          0.09615  -0.00943  -0.01453   0.00047  -0.00052
   2        2S          0.19986   0.00276  -0.01388   0.00095  -0.00063
   3        2PX        -0.09112  -0.06746  -0.13203   0.36005  -0.40218
   4        2PY        -0.15786  -0.12952  -0.23312  -0.20388   0.22588
   5        2PZ         0.00018  -0.00951  -0.01380   0.00007  -0.00057
   6        3S         -1.55016  -0.18997  -0.04477  -0.00077  -0.00499
   7        3PX        -0.23332   0.05859   0.20680  -0.43475   0.56266
   8        3PY        -0.39527   0.12893   0.38069   0.24864  -0.31741
   9        3PZ        -0.00169   0.00948   0.01719   0.00002   0.00065
  10        4S          5.70871  -0.08032  -0.87110   0.00256  -0.01489
  11        4PX         1.21685   0.05663  -0.18633  -0.09230   0.99581
  12        4PY         1.98616   0.07356  -0.36468   0.04182  -0.54475
  13        4PZ        -0.01462   0.00153   0.00610  -0.00027   0.00130
  14 2   H  1S          0.01526  -0.68612  -0.82034  -0.71951   0.63121
  15        2S         -0.29009   0.96941   1.22166   1.12998  -1.43438
  16        3S         -0.10210  -0.29298  -0.49276  -0.47105   0.35089
  17 3   H  1S          0.01569  -0.67554  -0.81481   0.71454  -0.65521
  18        2S         -0.25164   0.95536   1.22037  -1.12712   1.48500
  19        3S         -0.07683  -0.26865  -0.46902   0.46005  -0.34099
  20 4   C  1S         -0.09359  -0.01105   0.01222   0.00050   0.00035
  21        2S         -0.19404  -0.00118   0.01272   0.00069   0.00066
  22        2PX        -0.09240   0.14484  -0.11977   0.29003   0.42068
  23        2PY        -0.15939   0.25020  -0.19871  -0.16893  -0.24371
  24        2PZ         0.00027  -0.01158   0.01301   0.00030   0.00032
  25        3S          1.49861  -0.16318   0.01266   0.00057  -0.00004
  26        3PX        -0.22596  -0.18677   0.20753  -0.35966  -0.58856
  27        3PY        -0.39641  -0.31670   0.33736   0.20631   0.34155
  28        3PZ         0.00286   0.01247  -0.01661  -0.00030  -0.00042
  29        4S         -5.68455  -0.20198   0.89217   0.01591  -0.00035
  30        4PX         1.08786  -0.01343  -0.19643   0.14216  -0.84239
  31        4PY         1.97926  -0.03328  -0.30400  -0.08009   0.50199
  32        4PZ         0.00892   0.00424  -0.00477  -0.00005  -0.00116
  33 5   H  1S         -0.01795  -0.80671   0.64805   0.68986   0.70702
  34        2S          0.29028   1.17889  -0.99664  -0.98541  -1.48438
  35        3S          0.05709  -0.36149   0.38127   0.50450   0.44118
  36 6   H  1S         -0.01781  -0.80233   0.67046  -0.67581  -0.70372
  37        2S          0.31960   1.17007  -1.02255   0.96183   1.46989
  38        3S          0.07285  -0.36519   0.41252  -0.50123  -0.45087
                          31        32        33        34        35
                           V         V         V         V         V
     Eigenvalues --     2.67099   2.81800   2.87779   2.95155   3.14168
   1 1   C  1S          0.00036  -0.00193  -0.01361   0.00003  -0.01000
   2        2S          0.00026  -0.00549  -0.04392  -0.00025  -0.03069
   3        2PX         0.00335  -0.05545  -0.48241  -0.71512   0.43627
   4        2PY         0.00504  -0.09836  -0.87890   0.40128   0.75764
   5        2PZ        -0.92598   0.93284  -0.10416  -0.00087   0.00372
   6        3S         -0.00087   0.04508   0.38182   0.00452   0.25780
   7        3PX        -0.00210   0.09551   0.84468   0.86036  -0.40772
   8        3PY        -0.00307   0.16755   1.50729  -0.46758  -0.70424
   9        3PZ         0.94161  -1.14073   0.13065   0.00121  -0.00476
  10        4S          0.00912  -0.10639  -0.87881  -0.01255  -0.51119
  11        4PX        -0.00186  -0.07598  -0.71222  -0.66884   0.19464
  12        4PY        -0.00269  -0.13411  -1.27399   0.35149   0.32910
  13        4PZ        -0.33913   0.61846  -0.08257  -0.00099   0.00238
  14 2   H  1S          0.00911   0.01407   0.25643  -0.36986  -0.20394
  15        2S         -0.01028  -0.00822  -0.20986   0.38826   0.15448
  16        3S         -0.00229  -0.03119  -0.30044   0.27241   0.04182
  17 3   H  1S          0.00925   0.01351   0.24494   0.37044  -0.20707
  18        2S         -0.01057  -0.00677  -0.18910  -0.38428   0.15716
  19        3S         -0.00266  -0.03137  -0.30111  -0.29181   0.05329
  20 4   C  1S          0.00039   0.00185   0.01347   0.00057  -0.00715
  21        2S          0.00041   0.00581   0.04820   0.00133  -0.02182
  22        2PX        -0.00591  -0.04789  -0.39535  -0.82065  -0.51287
  23        2PY        -0.01091  -0.08532  -0.70089   0.45113  -0.91440
  24        2PZ        -0.92350  -0.93472   0.10830   0.00027   0.01130
  25        3S         -0.00243  -0.05012  -0.43600  -0.00986   0.18595
  26        3PX         0.00634   0.08811   0.75779   0.98141   0.56103
  27        3PY         0.01150   0.15576   1.33555  -0.53212   1.01031
  28        3PZ         0.93868   1.14240  -0.13646  -0.00030  -0.01440
  29        4S          0.01229   0.10796   0.90234   0.02916  -0.35102
  30        4PX        -0.00094  -0.07600  -0.70885  -0.70379  -0.35291
  31        4PY        -0.00204  -0.13276  -1.23588   0.37658  -0.64176
  32        4PZ        -0.33759  -0.61860   0.08714   0.00017   0.01153
  33 5   H  1S          0.00848  -0.02132  -0.29832   0.42105  -0.27801
  34        2S         -0.01059   0.01762   0.27504  -0.42702   0.22010
  35        3S         -0.00100   0.02868   0.28170  -0.24621   0.14256
  36 6   H  1S          0.00856  -0.02133  -0.29432  -0.43490  -0.26251
  37        2S         -0.01094   0.01829   0.27707   0.44048   0.20732
  38        3S         -0.00065   0.02731   0.26697   0.24743   0.13088
                          36        37        38
                           V         V         V
     Eigenvalues --     3.31993  23.35246  23.70532
   1 1   C  1S         -0.00039  -1.41604  -1.45029
   2        2S         -0.00050   1.51026   1.56834
   3        2PX         0.79832  -0.00645   0.01215
   4        2PY        -0.44266  -0.01042   0.02137
   5        2PZ         0.00081  -0.00040  -0.00019
   6        3S         -0.00156  -0.29708  -0.39908
   7        3PX        -1.13955   0.02354  -0.05568
   8        3PY         0.62601   0.03871  -0.09698
   9        3PZ        -0.00125   0.00112   0.00058
  10        4S         -0.00099   0.27824   0.76663
  11        4PX         2.00240  -0.02448   0.13409
  12        4PY        -1.09784  -0.04110   0.22983
  13        4PZ         0.00212  -0.00190  -0.00234
  14 2   H  1S          0.57016   0.01249   0.00699
  15        2S         -0.89023   0.00777  -0.01463
  16        3S         -0.46298  -0.08381  -0.03953
  17 3   H  1S         -0.58335   0.01451   0.00828
  18        2S          0.90919   0.00740  -0.01443
  19        3S          0.49387  -0.08642  -0.03941
  20 4   C  1S          0.00007  -1.44550   1.42076
  21        2S         -0.00025   1.54166  -1.53639
  22        2PX        -0.69616   0.00624   0.01264
  23        2PY         0.40133   0.01129   0.02148
  24        2PZ        -0.00071  -0.00043   0.00010
  25        3S          0.00577  -0.30213   0.39037
  26        3PX         0.99213  -0.02288  -0.05636
  27        3PY        -0.58271  -0.04094  -0.09682
  28        3PZ         0.00109   0.00123  -0.00023
  29        4S         -0.02445   0.27564  -0.75968
  30        4PX        -1.75066   0.02482   0.12981
  31        4PY         1.03987   0.04542   0.22578
  32        4PZ        -0.00188  -0.00198   0.00160
  33 5   H  1S          0.47530   0.01397  -0.00487
  34        2S         -0.74114   0.00804   0.01380
  35        3S         -0.43275  -0.08342   0.03737
  36 6   H  1S         -0.46897   0.01240  -0.00373
  37        2S          0.73345   0.00911   0.01362
  38        3S          0.41773  -0.08125   0.03715
     Density Matrix:
                           1         2         3         4         5
   1 1   C  1S          0.65939
   2        2S          0.56147   0.49192
   3        2PX        -0.00045  -0.00059   0.08417
   4        2PY        -0.00123  -0.00169   0.00373   0.08754
   5        2PZ         0.00006   0.00010  -0.00010  -0.00022   0.06448
   6        3S         -0.08883  -0.15367   0.00238   0.00611  -0.00015
   7        3PX         0.00091   0.00140   0.13041   0.00114  -0.00008
   8        3PY         0.00120   0.00185   0.00119   0.13089  -0.00021
   9        3PZ         0.00013   0.00022  -0.00017  -0.00035   0.10367
  10        4S         -0.07939  -0.11435  -0.01626  -0.02919   0.00047
  11        4PX         0.00027   0.00162   0.06983  -0.00452  -0.00043
  12        4PY         0.00068   0.00315  -0.00457   0.06526  -0.00077
  13        4PZ        -0.00008  -0.00020  -0.00062  -0.00106   0.09590
  14 2   H  1S         -0.02053  -0.03271   0.03489  -0.06260  -0.00088
  15        2S         -0.02305  -0.03686   0.04878  -0.08768  -0.00068
  16        3S          0.00050  -0.00081   0.02023  -0.03312  -0.00002
  17 3   H  1S         -0.02111  -0.03360  -0.07256  -0.00201  -0.00097
  18        2S         -0.02342  -0.03740  -0.10022  -0.00267  -0.00078
  19        3S          0.00056  -0.00075  -0.03808   0.00068  -0.00005
  20 4   C  1S          0.00606   0.00977  -0.01091  -0.01892  -0.00031
  21        2S          0.00972   0.01520  -0.01746  -0.03029  -0.00050
  22        2PX         0.01029   0.01645  -0.01248  -0.03213   0.00037
  23        2PY         0.01789   0.02860  -0.03210  -0.04969   0.00071
  24        2PZ        -0.00037  -0.00060  -0.00027  -0.00041   0.06431
  25        3S         -0.02611  -0.03966   0.04895   0.08508   0.00152
  26        3PX         0.01584   0.02453  -0.01836  -0.04601   0.00047
  27        3PY         0.02752   0.04262  -0.04579  -0.07144   0.00093
  28        3PZ        -0.00062  -0.00100  -0.00048  -0.00074   0.10295
  29        4S          0.00540   0.00398   0.02171   0.03825   0.00184
  30        4PX         0.00306   0.00632  -0.01327  -0.02127   0.00052
  31        4PY         0.00513   0.01072  -0.02130  -0.03777   0.00103
  32        4PZ        -0.00053  -0.00085  -0.00076  -0.00125   0.09613
  33 5   H  1S          0.00418   0.00686  -0.00172  -0.01252  -0.00035
  34        2S          0.00616   0.01023   0.00362  -0.02497   0.00002
  35        3S          0.00311   0.00453   0.00435  -0.01736   0.00008
  36 6   H  1S          0.00413   0.00677  -0.00998  -0.00770  -0.00036
  37        2S          0.00609   0.01015  -0.02339  -0.00933  -0.00000
  38        3S          0.00307   0.00450  -0.01717  -0.00500   0.00006
                           6         7         8         9        10
   6        3S          0.45210
   7        3PX        -0.00193   0.20239
   8        3PY        -0.00148  -0.00498   0.19621
   9        3PZ        -0.00044  -0.00015  -0.00033   0.16668
  10        4S          0.27345  -0.02706  -0.04951   0.00062   0.18338
  11        4PX        -0.00702   0.10873  -0.01036  -0.00071  -0.01557
  12        4PY        -0.01287  -0.01048   0.09826  -0.00123  -0.03000
  13        4PZ         0.00086  -0.00083  -0.00140   0.15418   0.00167
  14 2   H  1S          0.08747   0.05649  -0.09775  -0.00147   0.06981
  15        2S          0.09868   0.07937  -0.13642  -0.00115   0.08322
  16        3S          0.00632   0.03324  -0.05092  -0.00004   0.01184
  17 3   H  1S          0.08993  -0.11366  -0.00129  -0.00160   0.06984
  18        2S          0.10021  -0.15681  -0.00099  -0.00129   0.08168
  19        3S          0.00632  -0.05935   0.00300  -0.00008   0.01064
  20 4   C  1S         -0.02652  -0.01707  -0.02963  -0.00052   0.00503
  21        2S         -0.04010  -0.02654  -0.04611  -0.00085   0.00375
  22        2PX        -0.04606  -0.01772  -0.04550   0.00063  -0.01679
  23        2PY        -0.08005  -0.04544  -0.07065   0.00120  -0.02894
  24        2PZ         0.00178  -0.00037  -0.00055   0.10339   0.00186
  25        3S          0.10187   0.07206   0.12549   0.00255   0.00093
  26        3PX        -0.06638  -0.02620  -0.06496   0.00082  -0.02482
  27        3PY        -0.11529  -0.06462  -0.10152   0.00160  -0.04269
  28        3PZ         0.00293  -0.00066  -0.00099   0.16552   0.00308
  29        4S          0.00208   0.03294   0.05828   0.00306  -0.03221
  30        4PX        -0.02241  -0.01978  -0.02979   0.00086  -0.00586
  31        4PY        -0.03829  -0.02986  -0.05438   0.00171  -0.00922
  32        4PZ         0.00248  -0.00107  -0.00172   0.15455   0.00287
  33 5   H  1S         -0.02036  -0.00053  -0.01779  -0.00051  -0.01389
  34        2S         -0.03056   0.00894  -0.03654   0.00010  -0.01771
  35        3S         -0.01160   0.00834  -0.02611   0.00015  -0.00281
  36 6   H  1S         -0.02009  -0.01499  -0.00916  -0.00053  -0.01422
  37        2S         -0.03034  -0.03582  -0.01026   0.00007  -0.01866
  38        3S         -0.01156  -0.02657  -0.00583   0.00011  -0.00343
                          11        12        13        14        15
  11        4PX         0.05948
  12        4PY        -0.00913   0.05076
  13        4PZ        -0.00102  -0.00172   0.14262
  14 2   H  1S          0.03352  -0.05385  -0.00076   0.08081
  15        2S          0.04800  -0.07494  -0.00030   0.10925   0.14970
  16        3S          0.02063  -0.02777   0.00016   0.03652   0.05222
  17 3   H  1S         -0.06271   0.00176  -0.00081  -0.01335  -0.02440
  18        2S         -0.08687   0.00384  -0.00035  -0.02430  -0.04156
  19        3S         -0.03315   0.00410   0.00015  -0.01758  -0.02646
  20 4   C  1S         -0.00324  -0.00593  -0.00047   0.00422   0.00685
  21        2S         -0.00666  -0.01203  -0.00076   0.00699   0.01144
  22        2PX        -0.01335  -0.01959   0.00085   0.00179  -0.00256
  23        2PY        -0.01960  -0.03659   0.00158   0.01128   0.02416
  24        2PZ        -0.00056  -0.00089   0.09564  -0.00043  -0.00016
  25        3S          0.02348   0.04208   0.00223  -0.02111  -0.03447
  26        3PX        -0.02054  -0.02783   0.00115   0.00115  -0.00671
  27        3PY        -0.02776  -0.05346   0.00217   0.01693   0.03634
  28        3PZ        -0.00092  -0.00147   0.15312  -0.00064  -0.00019
  29        4S          0.00887   0.01696   0.00278  -0.01849  -0.02581
  30        4PX        -0.01506  -0.01226   0.00104  -0.00160  -0.00820
  31        4PY        -0.01238  -0.02970   0.00200   0.01530   0.02739
  32        4PZ        -0.00111  -0.00183   0.14297  -0.00036   0.00017
  33 5   H  1S          0.00230  -0.01587  -0.00025   0.01119   0.02323
  34        2S          0.00970  -0.02747   0.00040   0.02376   0.04424
  35        3S          0.00778  -0.01576   0.00026   0.01663   0.02783
  36 6   H  1S         -0.01466  -0.00542  -0.00026  -0.00913  -0.01818
  37        2S         -0.02825  -0.00456   0.00037  -0.01889  -0.03429
  38        3S         -0.01724  -0.00087   0.00023  -0.01024  -0.01778
                          16        17        18        19        20
  16        3S          0.02083
  17 3   H  1S         -0.01778   0.08221
  18        2S         -0.02657   0.10958   0.14810
  19        3S         -0.01238   0.03583   0.05062   0.01991
  20 4   C  1S          0.00383   0.00430   0.00686   0.00382   0.65949
  21        2S          0.00566   0.00711   0.01143   0.00562   0.56161
  22        2PX        -0.00332   0.00893   0.02217   0.01674   0.00122
  23        2PY         0.01778   0.00733   0.00979   0.00581   0.00183
  24        2PZ         0.00001  -0.00043  -0.00013   0.00004   0.00006
  25        3S         -0.01475  -0.02138  -0.03428  -0.01448  -0.08937
  26        3PX        -0.00662   0.01424   0.03489   0.02610  -0.00047
  27        3PY         0.02679   0.00961   0.01221   0.00739  -0.00109
  28        3PZ         0.00004  -0.00063  -0.00013   0.00008   0.00014
  29        4S         -0.00660  -0.01814  -0.02469  -0.00592  -0.08002
  30        4PX        -0.00686   0.01412   0.02780   0.01720  -0.00019
  31        4PY         0.01614   0.00671   0.00701   0.00218  -0.00017
  32        4PZ         0.00020  -0.00036   0.00019   0.00022  -0.00004
  33 5   H  1S          0.01618  -0.00903  -0.01799  -0.00929  -0.02019
  34        2S          0.02731  -0.01863  -0.03370  -0.01674  -0.02205
  35        3S          0.01461  -0.01011  -0.01746  -0.00889   0.00066
  36 6   H  1S         -0.00946   0.01120   0.02312   0.01586  -0.01984
  37        2S         -0.01716   0.02376   0.04403   0.02687  -0.02196
  38        3S         -0.00912   0.01663   0.02765   0.01438   0.00055
                          21        22        23        24        25
  21        2S          0.49213
  22        2PX         0.00176   0.08287
  23        2PY         0.00261   0.00350   0.08776
  24        2PZ         0.00009   0.00010   0.00013   0.06416
  25        3S         -0.15443  -0.00562  -0.00849  -0.00011   0.45426
  26        3PX        -0.00071   0.12877   0.00183   0.00005  -0.00030
  27        3PY        -0.00165   0.00187   0.13168   0.00003   0.00082
  28        3PZ         0.00023   0.00015   0.00021   0.10271  -0.00044
  29        4S         -0.11562   0.01296   0.02169   0.00047   0.27817
  30        4PX        -0.00142   0.07388  -0.00528   0.00034   0.00600
  31        4PY        -0.00216  -0.00515   0.06764   0.00063   0.00959
  32        4PZ        -0.00011   0.00059   0.00107   0.09589   0.00063
  33 5   H  1S         -0.03215  -0.03340   0.06408  -0.00100   0.08596
  34        2S         -0.03521  -0.04996   0.08858  -0.00077   0.09422
  35        3S         -0.00051  -0.02303   0.03339  -0.00008   0.00539
  36 6   H  1S         -0.03163   0.07141   0.00273  -0.00091   0.08457
  37        2S         -0.03510   0.10146   0.00045  -0.00065   0.09389
  38        3S         -0.00066   0.04075  -0.00355  -0.00004   0.00570
                          26        27        28        29        30
  26        3PX         0.20042
  27        3PY        -0.00227   0.19811
  28        3PZ         0.00006   0.00004   0.16443
  29        4S          0.02430   0.04036   0.00057   0.18504
  30        4PX         0.11542  -0.01069   0.00054   0.01505   0.06757
  31        4PY        -0.01056   0.10230   0.00101   0.02376  -0.01052
  32        4PZ         0.00075   0.00136   0.15352   0.00147   0.00086
  33 5   H  1S         -0.05312   0.10035  -0.00165   0.06629  -0.03466
  34        2S         -0.07991   0.13822  -0.00129   0.07553  -0.05251
  35        3S         -0.03729   0.05144  -0.00012   0.00853  -0.02462
  36 6   H  1S          0.11272   0.00374  -0.00152   0.06660   0.06640
  37        2S          0.15995  -0.00070  -0.00112   0.07726   0.09473
  38        3S          0.06391  -0.00689  -0.00007   0.00965   0.03823
                          31        32        33        34        35
  31        4PY         0.05436
  32        4PZ         0.00164   0.14334
  33 5   H  1S          0.05632  -0.00086   0.08134
  34        2S          0.07777  -0.00033   0.11020   0.15184
  35        3S          0.02914   0.00012   0.03811   0.05516   0.02289
  36 6   H  1S         -0.00191  -0.00080  -0.01229  -0.02624  -0.02029
  37        2S         -0.00661  -0.00027  -0.02633  -0.04909  -0.03224
  38        3S         -0.00672   0.00013  -0.02050  -0.03236  -0.01602
                          36        37        38
  36 6   H  1S          0.08028
  37        2S          0.10983   0.15272
  38        3S          0.03845   0.05603   0.02338
    Full Mulliken population analysis:
                           1         2         3         4         5
   1 1   C  1S          0.65939
   2        2S          0.49322   0.49192
   3        2PX         0.00000   0.00000   0.08417
   4        2PY         0.00000   0.00000   0.00000   0.08754
   5        2PZ         0.00000   0.00000   0.00000   0.00000   0.06448
   6        3S         -0.02924  -0.06436   0.00000   0.00000   0.00000
   7        3PX         0.00000   0.00000   0.08205   0.00000   0.00000
   8        3PY         0.00000   0.00000   0.00000   0.08235   0.00000
   9        3PZ         0.00000   0.00000   0.00000   0.00000   0.06522
  10        4S         -0.01221  -0.02140   0.00000   0.00000   0.00000
  11        4PX         0.00000   0.00000   0.01538   0.00000   0.00000
  12        4PY         0.00000   0.00000   0.00000   0.01437   0.00000
  13        4PZ         0.00000   0.00000   0.00000   0.00000   0.02112
  14 2   H  1S         -0.00023  -0.00032   0.00183   0.00543   0.00000
  15        2S         -0.00166  -0.00319   0.00438   0.01299   0.00000
  16        3S          0.00004  -0.00008   0.00070   0.00189   0.00000
  17 3   H  1S         -0.00025  -0.00036   0.00783  -0.00000   0.00000
  18        2S         -0.00175  -0.00334   0.01766  -0.00000   0.00000
  19        3S          0.00004  -0.00007   0.00254   0.00000   0.00000
  20 4   C  1S          0.00000   0.00000  -0.00002  -0.00006   0.00000
  21        2S          0.00000  -0.00000  -0.00002  -0.00005   0.00000
  22        2PX        -0.00002  -0.00002   0.00011   0.00085   0.00000
  23        2PY        -0.00006  -0.00005   0.00085   0.00196   0.00000
  24        2PZ        -0.00000  -0.00000  -0.00000  -0.00000   0.00041
  25        3S         -0.00058  -0.00099   0.00255   0.00767  -0.00000
  26        3PX        -0.00053  -0.00098   0.00019   0.00556   0.00000
  27        3PY        -0.00161  -0.00295   0.00553   0.01071   0.00000
  28        3PZ        -0.00000  -0.00000  -0.00000  -0.00000   0.00609
  29        4S          0.00034   0.00030   0.00099   0.00301  -0.00000
  30        4PX        -0.00018  -0.00045  -0.00072   0.00147   0.00000
  31        4PY        -0.00052  -0.00132   0.00148   0.00098   0.00000
  32        4PZ        -0.00000  -0.00000  -0.00000  -0.00000   0.00904
  33 5   H  1S          0.00000   0.00000  -0.00000  -0.00000   0.00000
  34        2S          0.00001   0.00002   0.00000  -0.00031  -0.00000
  35        3S          0.00007   0.00012   0.00002  -0.00069  -0.00000
  36 6   H  1S          0.00000   0.00000  -0.00000  -0.00000   0.00000
  37        2S          0.00001   0.00002  -0.00023  -0.00006   0.00000
  38        3S          0.00007   0.00012  -0.00056  -0.00011  -0.00000
                           6         7         8         9        10
   6        3S          0.45210
   7        3PX         0.00000   0.20239
   8        3PY         0.00000   0.00000   0.19621
   9        3PZ         0.00000   0.00000   0.00000   0.16668
  10        4S          0.21184   0.00000   0.00000   0.00000   0.18338
  11        4PX         0.00000   0.07105   0.00000   0.00000   0.00000
  12        4PY         0.00000   0.00000   0.06421   0.00000   0.00000
  13        4PZ         0.00000   0.00000   0.00000   0.10075   0.00000
  14 2   H  1S          0.01588   0.01107   0.03160   0.00001   0.01839
  15        2S          0.04127   0.02005   0.05683   0.00001   0.04781
  16        3S          0.00290   0.00401   0.01014   0.00000   0.00892
  17 3   H  1S          0.01697   0.04409  -0.00000   0.00001   0.01866
  18        2S          0.04281   0.07704  -0.00000   0.00001   0.04745
  19        3S          0.00293   0.01378   0.00000   0.00000   0.00807
  20 4   C  1S         -0.00059  -0.00058  -0.00173   0.00000   0.00032
  21        2S         -0.00100  -0.00106  -0.00319   0.00000   0.00028
  22        2PX         0.00240   0.00019   0.00549   0.00000   0.00076
  23        2PY         0.00722   0.00549   0.01059   0.00000   0.00227
  24        2PZ         0.00000  -0.00000  -0.00000   0.00612   0.00000
  25        3S          0.02168   0.01349   0.04068  -0.00000   0.00035
  26        3PX         0.01243  -0.00126   0.01853   0.00000   0.00383
  27        3PY         0.03738   0.01843   0.02853   0.00000   0.01139
  28        3PZ         0.00000  -0.00000  -0.00000   0.03523   0.00000
  29        4S          0.00079   0.00508   0.01555  -0.00000  -0.02021
  30        4PX         0.00630  -0.00405   0.00590   0.00000   0.00177
  31        4PY         0.01862   0.00592   0.00129   0.00000   0.00484
  32        4PZ         0.00000  -0.00000  -0.00000   0.04935   0.00000
  33 5   H  1S         -0.00005  -0.00000  -0.00018   0.00000  -0.00074
  34        2S         -0.00116   0.00007  -0.00316  -0.00000  -0.00295
  35        3S         -0.00188   0.00012  -0.00418  -0.00000  -0.00101
  36 6   H  1S         -0.00005  -0.00012  -0.00005   0.00000  -0.00074
  37        2S         -0.00112  -0.00250  -0.00050  -0.00000  -0.00306
  38        3S         -0.00185  -0.00348  -0.00053  -0.00000  -0.00122
                          11        12        13        14        15
  11        4PX         0.05948
  12        4PY         0.00000   0.05076
  13        4PZ         0.00000   0.00000   0.14262
  14 2   H  1S          0.00650   0.01723   0.00001   0.08081
  15        2S          0.01569   0.04040   0.00000   0.07717   0.14970
  16        3S          0.00529   0.01175  -0.00000   0.01364   0.04120
  17 3   H  1S          0.02349   0.00000   0.00001  -0.00001  -0.00060
  18        2S          0.05466   0.00002   0.00000  -0.00060  -0.00498
  19        3S          0.01630   0.00001  -0.00000  -0.00191  -0.00755
  20 4   C  1S         -0.00019  -0.00060   0.00000   0.00000   0.00002
  21        2S         -0.00047  -0.00148   0.00000   0.00000   0.00003
  22        2PX        -0.00072   0.00136   0.00000  -0.00000   0.00000
  23        2PY         0.00136   0.00095   0.00000  -0.00000  -0.00037
  24        2PZ        -0.00000  -0.00000   0.00899   0.00000   0.00000
  25        3S          0.00659   0.02047  -0.00000  -0.00007  -0.00155
  26        3PX        -0.00421   0.00551   0.00000  -0.00000   0.00003
  27        3PY         0.00550   0.00126   0.00000  -0.00023  -0.00363
  28        3PZ        -0.00000  -0.00000   0.04889   0.00000   0.00000
  29        4S          0.00269   0.00890  -0.00000  -0.00109  -0.00468
  30        4PX        -0.00725   0.00310   0.00000   0.00001   0.00015
  31        4PY         0.00313  -0.00561   0.00000  -0.00245  -0.01039
  32        4PZ        -0.00000  -0.00000   0.08973   0.00000  -0.00000
  33 5   H  1S          0.00003  -0.00233   0.00000   0.00000   0.00000
  34        2S          0.00031  -0.00979  -0.00000   0.00000   0.00016
  35        3S          0.00032  -0.00725  -0.00000   0.00023   0.00147
  36 6   H  1S         -0.00175  -0.00045   0.00000  -0.00000  -0.00004
  37        2S         -0.00822  -0.00093  -0.00000  -0.00004  -0.00092
  38        3S         -0.00651  -0.00023  -0.00000  -0.00047  -0.00248
                          16        17        18        19        20
  16        3S          0.02083
  17 3   H  1S         -0.00193   0.08221
  18        2S         -0.00758   0.07741   0.14810
  19        3S         -0.00634   0.01339   0.03994   0.01991
  20 4   C  1S          0.00010   0.00000   0.00002   0.00010   0.65949
  21        2S          0.00017   0.00000   0.00003   0.00017   0.49334
  22        2PX         0.00001  -0.00000  -0.00028  -0.00059   0.00000
  23        2PY        -0.00075  -0.00000  -0.00008  -0.00014   0.00000
  24        2PZ        -0.00000   0.00000   0.00000  -0.00000   0.00000
  25        3S         -0.00256  -0.00008  -0.00155  -0.00253  -0.02942
  26        3PX         0.00005  -0.00016  -0.00293  -0.00368   0.00000
  27        3PY        -0.00451  -0.00007  -0.00067  -0.00068   0.00000
  28        3PZ        -0.00000   0.00000   0.00000  -0.00000   0.00000
  29        4S         -0.00249  -0.00108  -0.00449  -0.00224  -0.01230
  30        4PX         0.00015  -0.00190  -0.00885  -0.00682   0.00000
  31        4PY        -0.00764  -0.00059  -0.00147  -0.00057   0.00000
  32        4PZ        -0.00000   0.00000  -0.00000  -0.00000   0.00000
  33 5   H  1S          0.00023  -0.00000  -0.00004  -0.00042  -0.00022
  34        2S          0.00144  -0.00004  -0.00090  -0.00232  -0.00160
  35        3S          0.00246  -0.00046  -0.00242  -0.00283   0.00005
  36 6   H  1S         -0.00043   0.00000   0.00000   0.00022  -0.00020
  37        2S         -0.00239   0.00000   0.00015   0.00141  -0.00155
  38        3S         -0.00292   0.00023   0.00145   0.00242   0.00004
                          21        22        23        24        25
  21        2S          0.49213
  22        2PX         0.00000   0.08287
  23        2PY         0.00000   0.00000   0.08776
  24        2PZ         0.00000   0.00000   0.00000   0.06416
  25        3S         -0.06467   0.00000   0.00000   0.00000   0.45426
  26        3PX         0.00000   0.08101   0.00000   0.00000   0.00000
  27        3PY         0.00000   0.00000   0.08284   0.00000   0.00000
  28        3PZ         0.00000   0.00000   0.00000   0.06462   0.00000
  29        4S         -0.02164   0.00000   0.00000   0.00000   0.21550
  30        4PX         0.00000   0.01627   0.00000   0.00000   0.00000
  31        4PY         0.00000   0.00000   0.01490   0.00000   0.00000
  32        4PZ         0.00000   0.00000   0.00000   0.02112   0.00000
  33 5   H  1S         -0.00032   0.00147   0.00588   0.00000   0.01565
  34        2S         -0.00305   0.00376   0.01384   0.00000   0.03946
  35        3S         -0.00005   0.00067   0.00201   0.00000   0.00248
  36 6   H  1S         -0.00029   0.00692   0.00002   0.00000   0.01495
  37        2S         -0.00297   0.01733   0.00001   0.00000   0.03869
  38        3S         -0.00006   0.00272  -0.00002   0.00000   0.00260
                          26        27        28        29        30
  26        3PX         0.20042
  27        3PY         0.00000   0.19811
  28        3PZ         0.00000   0.00000   0.16443
  29        4S          0.00000   0.00000   0.00000   0.18504
  30        4PX         0.07542   0.00000   0.00000   0.00000   0.06757
  31        4PY         0.00000   0.06685   0.00000   0.00000   0.00000
  32        4PZ         0.00000   0.00000   0.10032   0.00000   0.00000
  33 5   H  1S          0.00872   0.03424   0.00001   0.01747   0.00562
  34        2S          0.01689   0.06070   0.00001   0.04342   0.01435
  35        3S          0.00377   0.01080   0.00000   0.00642   0.00528
  36 6   H  1S          0.04175   0.00010   0.00001   0.01737   0.02474
  37        2S          0.07723  -0.00002   0.00001   0.04405   0.05962
  38        3S          0.01488  -0.00012   0.00000   0.00723   0.01894
                          31        32        33        34        35
  31        4PY         0.05436
  32        4PZ         0.00000   0.14334
  33 5   H  1S          0.01899   0.00001   0.08134
  34        2S          0.04417   0.00000   0.07784   0.15184
  35        3S          0.01298  -0.00000   0.01424   0.04352   0.02289
  36 6   H  1S         -0.00005   0.00001  -0.00001  -0.00086  -0.00245
  37        2S         -0.00031   0.00000  -0.00086  -0.00704  -0.01002
  38        3S         -0.00024  -0.00000  -0.00247  -0.01006  -0.00868
                          36        37        38
  36 6   H  1S          0.08028
  37        2S          0.07758   0.15272
  38        3S          0.01437   0.04421   0.02338
     Gross orbital populations:
                           1
   1 1   C  1S          1.10436
   2        2S          0.88586
   3        2PX         0.22670
   4        2PY         0.23548
   5        2PZ         0.16638
   6        3S          0.79223
   7        3PX         0.56126
   8        3PY         0.55437
   9        3PZ         0.42340
  10        4S          0.50680
  11        4PX         0.25848
  12        4PY         0.21163
  13        4PZ         0.41211
  14 2   H  1S          0.27241
  15        2S          0.46732
  16        3S          0.08631
  17 3   H  1S          0.27676
  18        2S          0.46481
  19        3S          0.08252
  20 4   C  1S          1.10440
  21        2S          0.88584
  22        2PX         0.22255
  23        2PY         0.23648
  24        2PZ         0.16543
  25        3S          0.79308
  26        3PX         0.55248
  27        3PY         0.55788
  28        3PZ         0.41964
  29        4S          0.50391
  30        4PX         0.27646
  31        4PY         0.21734
  32        4PZ         0.41291
  33 5   H  1S          0.27411
  34        2S          0.46859
  35        3S          0.08798
  36 6   H  1S          0.27082
  37        2S          0.47029
  38        3S          0.09065
          Condensed to atoms (all electrons):
               1          2          3          4          5          6
     1  C    5.029836   0.387560   0.388597   0.601711  -0.034593  -0.034058
     2  H    0.387560   0.515366  -0.031489  -0.041701   0.005989  -0.009689
     3  H    0.388597  -0.031489   0.511693  -0.041160  -0.009444   0.005881
     4  C    0.601711  -0.041701  -0.041160   5.062244   0.383911   0.383386
     5  H   -0.034593   0.005989  -0.009444   0.383911   0.527271  -0.042450
     6  H   -0.034058  -0.009689   0.005881   0.383386  -0.042450   0.528690
 Mulliken charges:
               1
     1  C   -0.339052
     2  H    0.173964
     3  H    0.175923
     4  C   -0.348391
     5  H    0.169316
     6  H    0.168240
 Sum of Mulliken charges =  -0.00000
 Mulliken charges with hydrogens summed into heavy atoms:
               1
     1  C    0.010835
     4  C   -0.010835
 Electronic spatial extent (au):  <R**2>=             83.7317
 Charge=             -0.0000 electrons
 Dipole moment (field-independent basis, Debye):
    X=              0.0098    Y=              0.0366    Z=             -0.0800  Tot=              0.0885
 Quadrupole moment (field-independent basis, Debye-Ang):
   XX=            -12.2024   YY=            -12.2193   ZZ=            -15.6739
   XY=              0.0142   XZ=             -0.0013   YZ=             -0.0045
 Traceless Quadrupole moment (field-independent basis, Debye-Ang):
   XX=              1.1628   YY=              1.1459   ZZ=             -2.3087
   XY=              0.0142   XZ=             -0.0013   YZ=             -0.0045
 Octapole moment (field-independent basis, Debye-Ang**2):
  XXX=             -0.4314  YYY=              0.0516  ZZZ=             -0.0474  XYY=              0.3194
  XXY=             -0.0178  XXZ=             -0.1065  XZZ=             -0.0890  YZZ=             -0.0688
  YYZ=             -0.1412  XYZ=             -0.0297
 Hexadecapole moment (field-independent basis, Debye-Ang**3):
 XXXX=            -34.3025 YYYY=            -55.2322 ZZZZ=            -17.8130 XXXY=             -7.2626
 XXXZ=              0.0185 YYYX=            -10.6974 YYYZ=              0.0222 ZZZX=              0.0234
 ZZZY=              0.0419 XXYY=            -16.1862 XXZZ=             -9.9293 YYZZ=            -13.6485
 XXYZ=              0.0088 YYXZ=             -0.0005 ZZXY=             -3.2068
 N-N= 3.306471040789D+01 E-N=-2.478385578627D+02  KE= 7.815175963918D+01
 Orbital energies and kinetic energies (alpha):
                                 1                 2
   1         O               -10.289725         15.976349
   2         O               -10.288720         15.982067
   3         O                -0.863747          1.537633
   4         O                -0.672556          1.271029
   5         O                -0.559633          0.942211
   6         O                -0.509034          1.284514
   7         O                -0.436268          1.043838
   8         O                -0.356765          1.038239
   9         V                 0.079744          1.182109
  10         V                 0.140861          0.589470
  11         V                 0.164833          0.593711
  12         V                 0.170008          0.680434
  13         V                 0.240742          0.583617
  14         V                 0.369668          0.844033
  15         V                 0.393638          0.934371
  16         V                 0.402442          0.795028
  17         V                 0.464191          1.191799
  18         V                 0.488740          1.416506
  19         V                 0.493843          1.302008
  20         V                 0.590967          1.652028
  21         V                 0.665707          1.572499
  22         V                 0.691295          2.146965
  23         V                 0.773254          2.441785
  24         V                 0.774708          2.300923
  25         V                 0.843467          1.087521
  26         V                 0.951419          3.421731
  27         V                 2.231094          3.932015
  28         V                 2.291273          4.024711
  29         V                 2.332463          4.306602
  30         V                 2.407137          4.515382
  31         V                 2.670988          6.300783
  32         V                 2.818004          6.307026
  33         V                 2.877794          6.139528
  34         V                 2.951548          6.226383
  35         V                 3.141679          6.819420
  36         V                 3.319927          6.402600
  37         V                23.352457         60.074720
  38         V                23.705324         60.203392
 Total kinetic energy from orbitals= 7.815175963918D+01
 Calling FoFJK, ICntrl=      2127 FMM=F ISym2X=0 I1Cent= 0 IOpClX= 0 NMat=1 NMatS=1 NMatT=0.
 -------------------------------------------------------------------
 Center     Atomic                   Forces (Hartrees/Bohr)
 Number     Number              X              Y              Z
 -------------------------------------------------------------------
      1        6           0.015894267    0.010080591   -0.003188921
      2        1          -0.012658783    0.006755146    0.001623657
      3        1           0.003571897   -0.006620390    0.001456482
      4        6           0.010499600    0.009320987   -0.003514867
      5        1          -0.001540566   -0.011779891    0.001759575
      6        1          -0.015766416   -0.007756443    0.001864074
 -------------------------------------------------------------------
 Cartesian Forces:  Max     0.015894267 RMS     0.008490409

 GradGradGradGradGradGradGradGradGradGradGradGradGradGradGradGradGradGrad
 Berny optimization.
 Search for a local minimum.
 Step number   1 out of a maximum of    2
 All quantities printed in internal units (Hartrees-Bohrs-Radians)
 Second derivative matrix not updated -- first step.
 The second derivative matrix:
                          X1        Y1        Z1        X2        Y2
           X1           0.75935
           Y1           0.09397   0.85066
           Z1           0.00453   0.00686   0.16865
           X2          -0.16689   0.09702   0.00166   0.14420
           Y2           0.10224  -0.27661  -0.00588  -0.11600   0.26513
           Z2           0.00264  -0.00740  -0.05384  -0.00242   0.00604
           X3          -0.35141   0.00166  -0.00647   0.00019   0.00012
           Y3          -0.00344  -0.11054  -0.00157   0.03198   0.01936
           Z3          -0.00830  -0.00152  -0.05542   0.00123   0.00049
           X4          -0.26671  -0.17782  -0.00055   0.02251   0.01364
           Y4          -0.17816  -0.47195  -0.00090  -0.01300  -0.00788
           Z4           0.00111   0.00202  -0.09440  -0.00047  -0.00066
           X5           0.02374  -0.01371   0.00052  -0.00000   0.00000
           Y5           0.01141  -0.00659   0.00071   0.00000  -0.00000
           Z5          -0.00040   0.00026   0.01793   0.00020  -0.00010
           X6           0.00192  -0.00111   0.00032  -0.00000   0.00000
           Y6          -0.02602   0.01503   0.00078   0.00000  -0.00000
           Z6           0.00042  -0.00022   0.01708  -0.00020   0.00010
                          Z2        X3        Y3        Z3        X4
           Z2           0.02794
           X3          -0.00022   0.35140
           Y3           0.00134  -0.00188   0.07579
           Z3           0.01051   0.00705   0.00101   0.02899
           X4           0.00043  -0.00017  -0.02666  -0.00041   0.71220
           Y4          -0.00022   0.00010   0.01540   0.00026   0.12387
           Z4           0.01529  -0.00035  -0.00077   0.01601  -0.00435
           X5          -0.00021  -0.00000   0.00000   0.00021  -0.14465
           Y5           0.00013   0.00000  -0.00000  -0.00014   0.09232
           Z5           0.00924   0.00021  -0.00013  -0.00944  -0.00260
           X6          -0.00021  -0.00000   0.00000   0.00021  -0.32318
           Y6           0.00011   0.00000  -0.00000  -0.00011  -0.02534
           Z6          -0.00915  -0.00020   0.00013   0.00934   0.00748
                          Y4        Z4        X5        Y5        Z5
           Y4           0.86549
           Z4          -0.00847   0.17848
           X5           0.08335  -0.00171   0.12336
           Y5          -0.29628   0.00627  -0.10257   0.28706
           Z5           0.00774  -0.05823   0.00229  -0.00671   0.03020
           X6          -0.01616   0.00577  -0.00244  -0.00117   0.00030
           Y6          -0.10479   0.00162   0.03292   0.01582  -0.00106
           Z6           0.00159  -0.05715  -0.00110  -0.00027   0.01029
                          X6        Y6        Z6
           X6           0.32371
           Y6           0.01843   0.07394
           Z6          -0.00640  -0.00134   0.02958
 ITU=  0
     Eigenvalues ---    0.03723   0.04380   0.09302   0.09976   0.13522
     Eigenvalues ---    0.17457   0.26439   0.29047   0.52850   0.70134
     Eigenvalues ---    0.97468   1.56058
 Angle between quadratic step and forces=  33.67 degrees.
 Linear search not attempted -- first point.
 B after Tr=     0.008520    0.009441   -0.008217
         Rot=    1.000000   -0.000041    0.000023   -0.000123 Ang=  -0.02 deg.
 Variable       Old X    -DE/DX   Delta X   Delta X   Delta X     New X
                                 (Linear)    (Quad)   (Total)
    X1       -0.63822   0.01589   0.00000   0.02509   0.03387  -0.60434
    Y1       -1.10254   0.01008   0.00000   0.02755   0.03684  -1.06571
    Z1        0.01038  -0.00319   0.00000  -0.01753  -0.02586  -0.01549
    X2        0.44035  -0.01266   0.00000  -0.05361  -0.04438   0.39597
    Y2       -2.88142   0.00676   0.00000   0.02199   0.03153  -2.84989
    Z2       -0.03307   0.00162   0.00000   0.02156   0.01312  -0.01994
    X3       -2.69189   0.00357   0.00000   0.03425   0.04305  -2.64884
    Y3       -1.08871  -0.00662   0.00000  -0.02815  -0.01937  -1.10808
    Z3       -0.03444   0.00146   0.00000   0.02097   0.01253  -0.02191
    X4        0.62715   0.01050   0.00000   0.01015   0.01840   0.64555
    Y4        1.08822   0.00932   0.00000   0.01156   0.02116   1.10938
    Z4        0.00718  -0.00351   0.00000  -0.01647  -0.02457  -0.01740
    X5       -0.27428  -0.00154   0.00000  -0.03201  -0.02421  -0.29849
    Y5        2.96112  -0.01178   0.00000  -0.04071  -0.03134   2.92977
    Z5       -0.04056   0.00176   0.00000   0.02070   0.01270  -0.02786
    X6        2.72001  -0.01577   0.00000  -0.03496  -0.02673   2.69328
    Y6        1.24200  -0.00776   0.00000  -0.04892  -0.03882   1.20319
    Z6       -0.03882   0.00186   0.00000   0.02007   0.01207  -0.02674
         Item               Value     Threshold  Converged?
 Maximum Force            0.015894     0.000450     NO 
 RMS     Force            0.008490     0.000300     NO 
 Maximum Displacement     0.044379     0.001800     NO 
 RMS     Displacement     0.028069     0.001200     NO 
 Predicted change in Energy=-1.869672D-03
 GradGradGradGradGradGradGradGradGradGradGradGradGradGradGradGradGradGrad

 Unable to Open any file for archive entry.
 1\1\GINC-BHD0007\Force\RwB97XD\6-311G\C2H4\BWEIGHT\11-Jan-2023\0\\# WB
 97XD/6-311G SCF=XQC FORCE nosym pop=full guess=read\\MD Step 999\\0,1\
 C,-0.3377302,-0.58344039,0.00549063\H,0.23302057,-1.5247832,-0.0174976
 8\H,-1.42448685,-0.57612031,-0.01822555\C,0.33187229,0.57585874,0.0037
 9742\H,-0.14514178,1.56695479,-0.02146513\H,1.43936712,0.65723929,-0.0
 2054148\\Version=ES64L-G16RevC.01\HF=-78.555233\RMSD=5.271e-09\RMSF=8.
 490e-03\Dipole=0.0038428,0.0144073,-0.0314738\Quadrupole=0.8645208,0.8
 519347,-1.7164555,0.0105749,-0.0009616,-0.0033488\PG=C01 [X(C2H4)]\\@
 The archive entry for this job was punched.


 Happiness is a conscious choice, not an automatic response.
 -- Mildred Barthel
 Job cpu time:       0 days  0 hours  0 minutes 50.0 seconds.
 Elapsed time:       0 days  0 hours  0 minutes 16.2 seconds.
 File lengths (MBytes):  RWF=    272 Int=      0 D2E=      0 Chk=     32 Scr=     32
 Normal termination of Gaussian 16 at Wed Jan 11 16:36:41 2023.
