6
MD Step 0
C  -0.33763715 -0.58748864 0.00000000
H  0.19552659 -1.51519357 0.00000000
H  -1.40763715 -0.58748864 0.00000000
C  0.33763715 0.58748865 0.00000000
H  -0.19552659 1.51519357 0.00000000
H  1.40763715 0.58748865 0.00000000
6
MD Step 1
C  -0.33800575 -0.58783533 -0.00039431
H  0.19788974 -1.51298837 0.00235222
H  -1.40541875 -0.58521123 0.00234785
C  0.33721636 0.58704662 -0.00039487
H  -0.19318709 1.51769209 0.00235410
H  1.41012255 0.58990573 0.00234972
6
MD Step 2
C  -0.33831590 -0.58808313 -0.00078636
H  0.20026266 -1.51110518 0.00469098
H  -1.40353391 -0.58309622 0.00468234
C  0.33675033 0.58651506 -0.00078746
H  -0.19087726 1.52044475 0.00469462
H  1.41280389 0.59244186 0.00468578
6
MD Step 3
C  -0.33856262 -0.58822974 -0.00117462
H  0.20263489 -1.50956337 0.00700699
H  -1.40203598 -0.58115969 0.00699443
C  0.33624566 0.58589949 -0.00117613
H  -0.18859892 1.52341227 0.00701190
H  1.41560898 0.59507802 0.00699826
6
MD Step 4
C  -0.33874450 -0.58827676 -0.00156032
H  0.20500935 -1.50835829 0.00930760
H  -1.40095182 -0.57940009 0.00929194
C  0.33570639 0.58520364 -0.00156201
H  -0.18633517 1.52656678 0.00931276
H  1.41847990 0.59781094 0.00929359
6
MD Step 5
C  -0.33885879 -0.58822470 -0.00194252
H  0.20737239 -1.50749141 0.01158687
H  -1.40031079 -0.57782814 0.01156950
C  0.33513898 0.58443432 -0.00194396
H  -0.18408074 1.52986257 0.01159048
H  1.42134450 0.60062322 0.01156456
6
MD Step 6
C  -0.33890846 -0.58807990 -0.00232500
H  0.20973579 -1.50692871 0.01386726
H  -1.40010194 -0.57642514 0.01385025
C  0.33454518 0.58359432 -0.00232557
H  -0.18180070 1.53327895 0.01386664
H  1.42415992 0.60352514 0.01383222
6
MD Step 7
C  -0.33889043 -0.58784270 -0.00270453
H  0.21206654 -1.50667173 0.01612924
H  -1.40034463 -0.57521341 0.01611541
C  0.33393377 0.58269420 -0.00270338
H  -0.17950147 1.53675054 0.01612067
H  1.42684314 0.60648427 0.01607539
6
MD Step 8
C  -0.33880193 -0.58751370 -0.00307714
H  0.21432519 -1.50672012 0.01834911
H  -1.40105003 -0.57421834 0.01834210
C  0.33331416 0.58174572 -0.00307321
H  -0.17719333 1.54020643 0.01832782
H  1.42931060 0.60946355 0.01826871
6
MD Step 9
C  -0.33865054 -0.58710366 -0.00344812
H  0.21652524 -1.50701315 0.02055811
H  -1.40216198 -0.57340931 0.02056217
C  0.33268630 0.58075184 -0.00344010
H  -0.17483207 1.54363046 0.02051816
H  1.43153882 0.61248052 0.02044178
6
MD Step 10
C  -0.33843253 -0.58661184 -0.00381045
H  0.21860577 -1.50755872 0.02271439
H  -1.40368637 -0.57282759 0.02273454
C  0.33206220 0.57972808 -0.00379686
H  -0.17244720 1.54693404 0.02264881
H  1.43343688 0.61547939 0.02255113
6
MD Step 11
C  -0.33815389 -0.58604696 -0.00416580
H  0.22055685 -1.50830913 0.02482794
H  -1.40556653 -0.57246147 0.02486962
C  0.33144483 0.57868143 -0.00414499
H  -0.17001768 1.55008229 0.02472868
H  1.43497276 0.61845621 0.02460534
6
MD Step 12
C  -0.33782319 -0.58542005 -0.00451757
H  0.22237846 -1.50920372 0.02691898
H  -1.40772653 -0.57228786 0.02698774
C  0.33083511 0.57761721 -0.00448771
H  -0.16751393 1.55305317 0.02677695
H  1.43613214 0.62141727 0.02662352
6
MD Step 13
C  -0.33743950 -0.58473234 -0.00485881
H  0.22400976 -1.51024133 0.02894649
H  -1.41014469 -0.57234358 0.02904827
C  0.33024391 0.57655094 -0.00481809
H  -0.16496929 1.55576685 0.02875190
H  1.43684719 0.62430785 0.02856355
6
MD Step 14
C  -0.33700715 -0.58399004 -0.00518716
H  0.22541794 -1.51139269 0.03089669
H  -1.41276613 -0.57263697 0.03103743
C  0.32967706 0.57549340 -0.00513374
H  -0.16239219 1.55817501 0.03063915
H  1.43708590 0.62710079 0.03041091
6
MD Step 15
C  -0.33653799 -0.58320665 -0.00550730
H  0.22661326 -1.51258670 0.03279765
H  -1.41548995 -0.57313345 0.03298255
C  0.32913297 0.57444811 -0.00543929
H  -0.15975186 1.56027603 0.03246606
H  1.43686700 0.62981124 0.03219353
6
MD Step 16
C  -0.33603717 -0.58238874 -0.00581673
H  0.22756553 -1.51379548 0.03463511
H  -1.41825574 -0.57383939 0.03486886
C  0.32861665 0.57342526 -0.00573235
H  -0.15706233 1.56203133 0.03421807
H  1.43617562 0.63241258 0.03389710
6
MD Step 17
C  -0.33550285 -0.58153558 -0.00610556
H  0.22820331 -1.51503633 0.03635117
H  -1.42104636 -0.57480332 0.03663872
C  0.32814003 0.57244192 -0.00600343
H  -0.15438362 1.56336465 0.03583765
H  1.43496234 0.63483534 0.03546356
6
MD Step 18
C  -0.33495257 -0.58066575 -0.00638344
H  0.22857263 -1.51621380 0.03800332
H  -1.42373025 -0.57595788 0.03834742
C  0.32769508 0.57149530 -0.00626207
H  -0.15166412 1.56432107 0.03738182
H  1.43330218 0.63712602 0.03695169
6
MD Step 19
C  -0.33438890 -0.57978264 -0.00664476
H  0.22863293 -1.51732491 0.03955928
H  -1.42626850 -0.57732379 0.03996224
C  0.32728840 0.57059700 -0.00650311
H  -0.14894410 1.56486258 0.03881890
H  1.43118942 0.63924242 0.03832998
6
MD Step 20
C  -0.33382244 -0.57889760 -0.00689232
H  0.22839573 -1.51832132 0.04103602
H  -1.42857740 -0.57887193 0.04149835
C  0.32691777 0.56974977 -0.00672946
H  -0.14621794 1.56500667 0.04016612
H  1.42867591 0.64119235 0.03961704
6
MD Step 21
C  -0.33325613 -0.57801411 -0.00712122
H  0.22783107 -1.51920349 0.04240561
H  -1.43062368 -0.58061685 0.04292719
C  0.32658805 0.56896310 -0.00693678
H  -0.14352724 1.56473265 0.04139651
H  1.42577697 0.64293979 0.04078627
6
MD Step 22
C  -0.33269668 -0.57713939 -0.00733085
H  0.22693717 -1.51995145 0.04366509
H  -1.43235560 -0.58254753 0.04424442
C  0.32629936 0.56824155 -0.00712482
H  -0.14089162 1.56405128 0.04250802
H  1.42254067 0.64447472 0.04183672
6
MD Step 23
C  -0.33214894 -0.57627872 -0.00751906
H  0.22570694 -1.52055868 0.04480271
H  -1.43373739 -0.58466093 0.04543730
C  0.32605283 0.56759034 -0.00729198
H  -0.13834192 1.56297112 0.04349010
H  1.41901383 0.64577947 0.04275870
6
MD Step 24
C  -0.33162418 -0.57544374 -0.00769092
H  0.22417818 -1.52098217 0.04584849
H  -1.43469970 -0.58691210 0.04653329
C  0.32584207 0.56700692 -0.00744338
H  -0.13587013 1.56154847 0.04437357
H  1.41529142 0.64687910 0.04358540
6
MD Step 25
C  -0.33112226 -0.57463454 -0.00784021
H  0.22232710 -1.52124907 0.04676704
H  -1.43524702 -0.58932046 0.04749699
C  0.32567127 0.56649880 -0.00757367
H  -0.13353498 1.55978053 0.04512489
H  1.41140902 0.64773468 0.04428337
6
MD Step 26
C  -0.33065223 -0.57386045 -0.00797099
H  0.22019220 -1.52133279 0.04758233
H  -1.43533380 -0.59184637 0.04835010
C  0.32553427 0.56606277 -0.00768704
H  -0.13133846 1.55772896 0.04576920
H  1.40746578 0.64836750 0.04488001
6
MD Step 27
C  -0.33021707 -0.57312463 -0.00808170
H  0.21778289 -1.52124440 0.04828579
H  -1.43495633 -0.59448227 0.04908318
C  0.32543006 0.56570027 -0.00778248
H  -0.12931619 1.55542799 0.04629961
H  1.40353176 0.64876755 0.04536951
6
MD Step 28
C  -0.32981587 -0.57242630 -0.00816744
H  0.21509256 -1.52101916 0.04884965
H  -1.43413952 -0.59723958 0.04966872
C  0.32536061 0.56541514 -0.00785594
H  -0.12752384 1.55289706 0.04669045
H  1.39965976 0.64890676 0.04572623
6
MD Step 29
C  -0.32945695 -0.57177397 -0.00823380
H  0.21217730 -1.52063750 0.04930638
H  -1.43285784 -0.60007015 0.05013686
C  0.32531765 0.56520051 -0.00791294
H  -0.12595834 1.55021902 0.04697542
H  1.39596286 0.64881809 0.04598636
6
MD Step 30
C  -0.32914002 -0.57116751 -0.00827815
H  0.20904889 -1.52013158 0.04964113
H  -1.43114238 -0.60297289 0.05047279
C  0.32530077 0.56505673 -0.00795149
H  -0.12466343 1.54743231 0.04714162
H  1.39250551 0.64848833 0.04613731
6
MD Step 31
C  -0.32886564 -0.57060766 -0.00829955
H  0.20573111 -1.51952836 0.04984881
H  -1.42902398 -0.60593739 0.05067128
C  0.32530802 0.56498199 -0.00797113
H  -0.12367284 1.54458655 0.04718567
H  1.38935838 0.64791484 0.04617617
6
MD Step 32
C  -0.32863905 -0.57009999 -0.00830292
H  0.20228272 -1.51882585 0.04995739
H  -1.42650963 -0.60892088 0.05075880
C  0.32533207 0.56496852 -0.00797657
H  -0.12298655 1.54176474 0.04713685
H  1.38661962 0.64712870 0.04613388
6
MD Step 33
C  -0.32845772 -0.56964233 -0.00828580
H  0.19872227 -1.51806757 0.04995273
H  -1.42365723 -0.61192291 0.05072185
C  0.32537294 0.56501527 -0.00796582
H  -0.12264453 1.53900696 0.04698259
H  1.38433773 0.64611967 0.04599752
6
MD Step 34
C  -0.32831381 -0.56922733 -0.00824090
H  0.19504262 -1.51732690 0.04979356
H  -1.42055994 -0.61497063 0.05052149
C  0.32543565 0.56512548 -0.00793259
H  -0.12271127 1.53632418 0.04668327
H  1.38252486 0.64485105 0.04572544
6
MD Step 35
C  -0.32820912 -0.56885748 -0.00817190
H  0.19129905 -1.51661757 0.04950049
H  -1.41725612 -0.61803026 0.05017806
C  0.32551523 0.56529198 -0.00788030
H  -0.12318699 1.53378590 0.04626040
H  1.38124456 0.64334856 0.04533951
6
MD Step 36
C  -0.32814662 -0.56853669 -0.00808449
H  0.18755836 -1.51594326 0.04910535
H  -1.41377910 -0.62105741 0.04972279
C  0.32560534 0.56550569 -0.00781404
H  -0.12405700 1.53146839 0.04574648
H  1.38055971 0.64164978 0.04487281
6
MD Step 37
C  -0.32812134 -0.56826109 -0.00797660
H  0.18384340 -1.51535213 0.04859599
H  -1.41021169 -0.62405232 0.04914523
C  0.32570767 0.56576509 -0.00773193
H  -0.12534605 1.52939804 0.04512998
H  1.38047561 0.63974882 0.04431215
6
MD Step 38
C  -0.32813250 -0.56803129 -0.00785128
H  0.18020499 -1.51486322 0.04798895
H  -1.40661217 -0.62698733 0.04846255
C  0.32581969 0.56606407 -0.00763651
H  -0.12704537 1.52762295 0.04442771
H  1.38101209 0.63766906 0.04367372
6
MD Step 39
C  -0.32817006 -0.56783889 -0.00770219
H  0.17664020 -1.51454690 0.04724820
H  -1.40309427 -0.62988820 0.04764176
C  0.32594831 0.56640575 -0.00752200
H  -0.12919335 1.52613059 0.04360355
H  1.38212179 0.63538181 0.04291845
6
MD Step 40
C  -0.32823332 -0.56768510 -0.00753337
H  0.17320219 -1.51441312 0.04639562
H  -1.39971434 -0.63272337 0.04670560
C  0.32609126 0.56678390 -0.00739169
H  -0.13176485 1.52495810 0.04267912
H  1.38380186 0.63291707 0.04206710
6
MD Step 41
C  -0.32831873 -0.56756847 -0.00734604
H  0.16992612 -1.51448423 0.04543740
H  -1.39654345 -0.63547768 0.04566183
C  0.32624935 0.56719536 -0.00724634
H  -0.13474450 1.52411798 0.04166012
H  1.38602064 0.63028993 0.04112389
6
MD Step 42
C  -0.32841922 -0.56748431 -0.00713788
H  0.16682435 -1.51479855 0.04435978
H  -1.39366996 -0.63815667 0.04449896
C  0.32642714 0.56764085 -0.00708352
H  -0.13813107 1.52359356 0.04053186
H  1.38871433 0.62749625 0.04007203
6
MD Step 43
C  -0.32853088 -0.56743115 -0.00690983
H  0.16392442 -1.51537092 0.04316743
H  -1.39115870 -0.64074789 0.04322330
C  0.32662637 0.56811843 -0.00690372
H  -0.14189895 1.52337783 0.03929809
H  1.39182748 0.62455134 0.03891382
6
MD Step 44
C  -0.32865342 -0.56741123 -0.00666650
H  0.16127059 -1.51619011 0.04188536
H  -1.38904710 -0.64321877 0.04186087
C  0.32684546 0.56862313 -0.00671063
H  -0.14599645 1.52347591 0.03798314
H  1.39531665 0.62149190 0.03767288
6
MD Step 45
C  -0.32878292 -0.56742320 -0.00640839
H  0.15888029 -1.51726197 0.04051576
H  -1.38738731 -0.64556022 0.04041538
C  0.32708675 0.56915428 -0.00650434
H  -0.15038964 1.52386193 0.03658821
H  1.39910835 0.61833266 0.03634918
6
MD Step 46
C  -0.32891703 -0.56746719 -0.00613724
H  0.15677363 -1.51857928 0.03906771
H  -1.38621481 -0.64775665 0.03889703
C  0.32735135 0.56971039 -0.00628605
H  -0.15503307 1.52450986 0.03512145
H  1.40313087 0.61509607 0.03495007
6
MD Step 47
C  -0.32905271 -0.56754254 -0.00585357
H  0.15495977 -1.52013527 0.03754372
H  -1.38556068 -0.64979948 0.03730940
C  0.32764134 0.57029136 -0.00605594
H  -0.15988388 1.52538096 0.03358445
H  1.40730272 0.61179883 0.03347641
6
MD Step 48
C  -0.32918797 -0.56764938 -0.00555837
H  0.15344620 -1.52191432 0.03594904
H  -1.38544131 -0.65167774 0.03565845
C  0.32795808 0.57089682 -0.00581466
H  -0.16489332 1.52643440 0.03198165
H  1.41154388 0.60846105 0.03193218
6
MD Step 49
C  -0.32931915 -0.56778591 -0.00525025
H  0.15222295 -1.52390830 0.03427586
H  -1.38587381 -0.65339415 0.03393700
C  0.32830478 0.57152874 -0.00556084
H  -0.17002357 1.52761248 0.03030421
H  1.41576166 0.60509026 0.03030813
6
MD Step 50
C  -0.32945093 -0.56795818 -0.00493586
H  0.15132075 -1.52605846 0.03256098
H  -1.38681720 -0.65490632 0.03218161
C  0.32867677 0.57218146 -0.00530024
H  -0.17518987 1.52890056 0.02858932
H  1.41991118 0.60173947 0.02864179
6
MD Step 51
C  -0.32957762 -0.56816164 -0.00461035
H  0.15070236 -1.52836597 0.03077768
H  -1.38828291 -0.65623722 0.03036579
C  0.32907963 0.57286012 -0.00502855
H  -0.18037159 1.53021830 0.02680895
H  1.42388622 0.59839773 0.02690495
6
MD Step 52
C  -0.32970138 -0.56839901 -0.00427640
H  0.15036901 -1.53078557 0.02894109
H  -1.39022811 -0.65736763 0.02850418
C  0.32951143 0.57356253 -0.00474814
H  -0.18550568 1.53152807 0.02497829
H  1.42762832 0.59509647 0.02511316
6
MD Step 53
C  -0.32982272 -0.56867090 -0.00393440
H  0.15030590 -1.53328176 0.02705368
H  -1.39261209 -0.65829193 0.02659875
C  0.32997184 0.57428843 -0.00445944
H  -0.19054302 1.53278075 0.02309966
H  1.43107222 0.59185423 0.02326910
6
MD Step 54
C  -0.32994199 -0.56897730 -0.00358407
H  0.15049176 -1.53582041 0.02511444
H  -1.39538838 -0.65900890 0.02464775
C  0.33046066 0.57503785 -0.00416230
H  -0.19543993 1.53392593 0.02117182
H  1.43415600 0.58868571 0.02137200
6
MD Step 55
C  -0.33006056 -0.56931873 -0.00322579
H  0.15090644 -1.53836249 0.02312582
H  -1.39849907 -0.65951460 0.02265284
C  0.33097655 0.57580984 -0.00385718
H  -0.20015155 1.53492008 0.01919734
H  1.43682913 0.58560875 0.01942493
6
MD Step 56
C  -0.33017428 -0.56968983 -0.00285386
H  0.15149394 -1.54090262 0.02105690
H  -1.40191400 -0.65984044 0.02058226
C  0.33152332 0.57660880 -0.00353917
H  -0.20467045 1.53568965 0.01714412
H  1.43901525 0.58260674 0.01739630
6
MD Step 57
C  -0.33029471 -0.57010017 -0.00247869
H  0.15228703 -1.54334475 0.01896604
H  -1.40550715 -0.65992740 0.01849339
C  0.33208917 0.57742328 -0.00321777
H  -0.20890136 1.53625705 0.01507259
H  1.44073854 0.57975277 0.01534714
6
MD Step 58
C  -0.33041800 -0.57054385 -0.00209462
H  0.15322723 -1.54568504 0.01682235
H  -1.40924097 -0.65980915 0.01635451
C  0.33267692 0.57825669 -0.00288806
H  -0.21284441 1.53655895 0.01295085
H  1.44194079 0.57702875 0.01324608
6
MD Step 59
C  -0.33054546 -0.57101963 -0.00170137
H  0.15428566 -1.54789129 0.01462482
H  -1.41304645 -0.65949019 0.01416382
C  0.33328384 0.57910685 -0.00254997
H  -0.21647364 1.53656817 0.01077785
H  1.44260377 0.57444577 0.01109254
6
MD Step 60
C  -0.33068234 -0.57152983 -0.00130283
H  0.15545685 -1.54991021 0.01239577
H  -1.41683133 -0.65895251 0.01194296
C  0.33390286 0.57996702 -0.00220718
H  -0.21974395 1.53628746 0.00857661
H  1.44274266 0.57203749 0.00890996
6
MD Step 61
C  -0.33083170 -0.57207430 -0.00090083
H  0.15672390 -1.55170368 0.01014593
H  -1.42051746 -0.65819147 0.00970209
C  0.33452843 0.58083196 -0.00186148
H  -0.22262704 1.53571400 0.00635812
H  1.44237023 0.56982461 0.00670965
6
MD Step 62
C  -0.33098962 -0.57264587 -0.00049033
H  0.15803160 -1.55327667 0.00784746
H  -1.42406956 -0.65724337 0.00741293
C  0.33516115 0.58170260 -0.00150839
H  -0.22513917 1.53481213 0.00409345
H  1.44146907 0.56778753 0.00446298
6
MD Step 63
C  -0.33116206 -0.57324678 -0.00007677
H  0.15938507 -1.55457866 0.00553124
H  -1.42739712 -0.65608592 0.00510612
C  0.33579135 0.58256929 -0.00115294
H  -0.22724183 1.53361256 0.00181421
H  1.44009121 0.56596473 0.00220167
6
MD Step 64
C  -0.33134266 -0.57386708 0.00034670
H  0.16072093 -1.55563391 0.00315905
H  -1.43048549 -0.65476887 0.00274321
C  0.33642068 0.58343378 -0.00078887
H  -0.22897240 1.53208226 -0.00051940
H  1.43822709 0.56432339 -0.00011396
6
MD Step 65
C  -0.33153708 -0.57450847 0.00077417
H  0.16204977 -1.55639846 0.00076439
H  -1.43325318 -0.65327001 0.00035779
C  0.33703844 0.58428511 -0.00042160
H  -0.23030035 1.53026778 -0.00287339
H  1.43594940 0.56290188 -0.00245006
6
MD Step 66
C  -0.33174188 -0.57516362 0.00120868
H  0.16333313 -1.55688445 -0.00166963
H  -1.43567675 -0.65161981 -0.00206696
C  0.33764215 0.58512057 -0.00004829
H  -0.23125186 1.52817084 -0.00526586
H  1.43328771 0.56168613 -0.00482486
6
MD Step 67
C  -0.33196540 -0.57583674 0.00164079
H  0.16460579 -1.55703727 -0.00408922
H  -1.43766845 -0.64977788 -0.00447689
C  0.33821729 0.58592500 0.00032238
H  -0.23178632 1.52587112 -0.00764250
H  1.43035124 0.56073203 -0.00718453
6
MD Step 68
C  -0.33220719 -0.57652341 0.00206954
H  0.16585616 -1.55685640 -0.00648882
H  -1.43919769 -0.64775403 -0.00686606
C  0.33875738 0.58669123 0.00068963
H  -0.23191709 1.52340509 -0.00999865
H  1.42720637 0.56004527 -0.00952481
6
MD Step 69
C  -0.33246751 -0.57721994 0.00249280
H  0.16708172 -1.55633976 -0.00885616
H  -1.44023582 -0.64555235 -0.00922172
C  0.33925487 0.58741076 0.00105165
H  -0.23165547 1.52082120 -0.01232292
H  1.42393125 0.55963678 -0.01183495
6
MD Step 70
C  -0.33274333 -0.57791949 0.00291132
H  0.16826584 -1.55550697 -0.01119544
H  -1.44077977 -0.64319452 -0.01154758
C  0.33970511 0.58807775 0.00140934
H  -0.23103373 1.51815591 -0.01462089
H  1.42059089 0.55949947 -0.01412113
6
MD Step 71
C  -0.33302959 -0.57861336 0.00332742
H  0.16938506 -1.55439183 -0.01352011
H  -1.44084460 -0.64071232 -0.01385664
C  0.34010525 0.58868787 0.00176518
H  -0.23009745 1.51544041 -0.01690769
H  1.41724322 0.55961553 -0.01639907
6
MD Step 72
C  -0.33332730 -0.57929898 0.00373690
H  0.17045622 -1.55299455 -0.01580596
H  -1.44041592 -0.63809993 -0.01612403
C  0.34044645 0.58923042 0.00211544
H  -0.22885750 1.51274736 -0.01916021
H  1.41398519 0.56000382 -0.01864651
6
MD Step 73
C  -0.33363249 -0.57996911 0.00414019
H  0.17147180 -1.55134642 -0.01805550
H  -1.43951487 -0.63537898 -0.01835174
C  0.34072479 0.58969932 0.00246085
H  -0.22735454 1.51012483 -0.02138260
H  1.41088554 0.56065513 -0.02086828
6
MD Step 74
C  -0.33394174 -0.58061730 0.00453679
H  0.17243188 -1.54947716 -0.02026591
H  -1.43816569 -0.63256603 -0.02053654
C  0.34093606 0.59008783 0.00280123
H  -0.22562600 1.50762761 -0.02357376
H  1.40801533 0.56156448 -0.02306385
6
MD Step 75
C  -0.33425963 -0.58124534 0.00491788
H  0.17338791 -1.54737046 -0.02238550
H  -1.43635136 -0.62962831 -0.02262577
C  0.34106849 0.59038124 0.00312823
H  -0.22366121 1.50536001 -0.02568289
H  1.40549006 0.56277508 -0.02518354
6
MD Step 76
C  -0.33457227 -0.58183711 0.00529272
H  0.17428664 -1.54512011 -0.02446888
H  -1.43417039 -0.62664059 -0.02467443
C  0.34112906 0.59058335 0.00345133
H  -0.22155723 1.50331787 -0.02776703
H  1.40331007 0.56422235 -0.02728406
6
MD Step 77
C  -0.33487969 -0.58239068 0.00565648
H  0.17516014 -1.54273816 -0.02648741
H  -1.43164445 -0.62359344 -0.02665341
C  0.34111162 0.59068442 0.00376596
H  -0.21932671 1.50157851 -0.02979879
H  1.40155118 0.56592456 -0.02933847
6
MD Step 78
C  -0.33517992 -0.58290262 0.00600608
H  0.17603174 -1.54024846 -0.02842270
H  -1.42881219 -0.62048745 -0.02854407
C  0.34101268 0.59067718 0.00406921
H  -0.21699122 1.50020508 -0.03176095
H  1.40026830 0.56788897 -0.03132974
6
MD Step 79
C  -0.33546863 -0.58336767 0.00634060
H  0.17691317 -1.53768867 -0.03026907
H  -1.42573130 -0.61733581 -0.03034084
C  0.34083196 0.59055736 0.00436027
H  -0.21458283 1.49924250 -0.03364897
H  1.39949130 0.57010934 -0.03325303
6
MD Step 80
C  -0.33573740 -0.58377700 0.00666300
H  0.17779372 -1.53512005 -0.03204409
H  -1.42248810 -0.61417467 -0.03206214
C  0.34057414 0.59032564 0.00464225
H  -0.21215382 1.49870557 -0.03548148
H  1.39921343 0.57255538 -0.03512588
6
MD Step 81
C  -0.33597821 -0.58412278 0.00697574
H  0.17866587 -1.53260041 -0.03376256
H  -1.41916985 -0.61103683 -0.03372391
C  0.34024441 0.58998332 0.00491771
H  -0.20974974 1.49860400 -0.03727395
H  1.39941754 0.57519888 -0.03696226
6
MD Step 82
C  -0.33618915 -0.58440373 0.00727548
H  0.17955763 -1.53015025 -0.03540372
H  -1.41583020 -0.60791861 -0.03530580
C  0.33984297 0.58952689 0.00518300
H  -0.20737582 1.49897447 -0.03900552
H  1.40010942 0.57804661 -0.03874057
6
MD Step 83
C  -0.33635896 -0.58460981 0.00756797
H  0.18044054 -1.52784403 -0.03700271
H  -1.41257979 -0.60487185 -0.03684533
C  0.33938026 0.58896358 0.00544413
H  -0.20508849 1.49978774 -0.04071131
H  1.40122589 0.58104848 -0.04049321
6
MD Step 84
C  -0.33648846 -0.58474350 0.00784767
H  0.18135499 -1.52568295 -0.03852495
H  -1.40945781 -0.60187744 -0.03830825
C  0.33885577 0.58829018 0.00569482
H  -0.20286886 1.50107457 -0.04235563
H  1.40276272 0.58422351 -0.04218384
6
MD Step 85
C  -0.33657432 -0.58480358 0.00811338
H  0.18231336 -1.52369134 -0.03996243
H  -1.40652759 -0.59894225 -0.03968788
C  0.33827415 0.58750934 0.00593334
H  -0.20071941 1.50282852 -0.04392915
H  1.40467838 0.58756313 -0.04380162
6
MD Step 86
C  -0.33661113 -0.58478711 0.00836634
H  0.18331115 -1.52190460 -0.04132230
H  -1.40386348 -0.59608763 -0.04099332
C  0.33764319 0.58662766 0.00616055
H  -0.19865262 1.50501756 -0.04543726
H  1.40690694 0.59104256 -0.04534989
6
MD Step 87
C  -0.33658973 -0.58468772 0.00861180
H  0.18431607 -1.52037919 -0.04263745
H  -1.40155948 -0.59336002 -0.04226074
C  0.33697541 0.58565743 0.00638188
H  -0.19670184 1.50757392 -0.04691076
H  1.40934947 0.59461024 -0.04685617
6
MD Step 88
C  -0.33651442 -0.58451267 0.00884309
H  0.18536893 -1.51909058 -0.04386523
H  -1.39962537 -0.59072927 -0.04344757
C  0.33627097 0.58459945 0.00658925
H  -0.19482054 1.51049660 -0.04830420
H  1.41197798 0.59828923 -0.04827516
6
MD Step 89
C  -0.33638720 -0.58426700 0.00905657
H  0.18648942 -1.51802759 -0.04498160
H  -1.39808046 -0.58818328 -0.04453030
C  0.33553339 0.58345886 0.00677773
H  -0.19297714 1.51375779 -0.04959052
H  1.41474222 0.60208292 -0.04957961
6
MD Step 90
C  -0.33620016 -0.58394591 0.00925843
H  0.18763095 -1.51723776 -0.04602632
H  -1.39699798 -0.58577325 -0.04555226
C  0.33477703 0.58225260 0.00695399
H  -0.19120087 1.51725870 -0.05080630
H  1.41752600 0.60592980 -0.05080287
6
MD Step 91
C  -0.33595911 -0.58355820 0.00944318
H  0.18881990 -1.51668741 -0.04696345
H  -1.39636377 -0.58347403 -0.04647713
C  0.33400359 0.58098581 0.00711094
H  -0.18944328 1.52097091 -0.05191225
H  1.42028918 0.60984317 -0.05190655
6
MD Step 92
C  -0.33566220 -0.58310491 0.00961318
H  0.19002895 -1.51638908 -0.04780837
H  -1.39620332 -0.58131123 -0.04732215
C  0.33322333 0.57967301 0.00725083
H  -0.18770584 1.52481063 -0.05292028
H  1.42294195 0.61378421 -0.05290120
6
MD Step 93
C  -0.33530884 -0.58258805 0.00977053
H  0.19122967 -1.51634913 -0.04857526
H  -1.39652870 -0.57930864 -0.04810316
C  0.33244616 0.57832909 0.00737577
H  -0.18598828 1.52869291 -0.05384107
H  1.42539910 0.61771469 -0.05379631
6
MD Step 94
C  -0.33490781 -0.58201882 0.00990976
H  0.19244166 -1.51651908 -0.04922799
H  -1.39728951 -0.57743936 -0.04878241
C  0.33167335 0.57696092 0.00747864
H  -0.18424073 1.53258228 -0.05463553
H  1.42763052 0.62164615 -0.05455482
6
MD Step 95
C  -0.33445225 -0.58139232 0.01004031
H  0.19358332 -1.51694601 -0.04983044
H  -1.39852383 -0.57577529 -0.04942729
C  0.33092267 0.57559230 0.00757085
H  -0.18251338 1.53634431 -0.05536380
H  1.42951239 0.62549022 -0.05523361
6
MD Step 96
C  -0.33395468 -0.58072288 0.01015496
H  0.19468224 -1.51756242 -0.05033525
H  -1.40014755 -0.57427713 -0.04998772
C  0.33019287 0.57422847 0.00764337
H  -0.18074789 1.53995763 -0.05597635
H  1.43103902 0.62926948 -0.05578610
6
MD Step 97
C  -0.33342310 -0.58001993 0.01025127
H  0.19573315 -1.51832983 -0.05072719
H  -1.40209932 -0.57293676 -0.05044702
C  0.32948768 0.57287992 0.00769317
H  -0.17891981 1.54337233 -0.05645585
H  1.43218055 0.63297475 -0.05619646
6
MD Step 98
C  -0.33286512 -0.57929224 0.01032777
H  0.19672422 -1.51921369 -0.05099720
H  -1.40431653 -0.57175150 -0.05079465
C  0.32881146 0.57155789 0.00771840
H  -0.17701328 1.54653681 -0.05679152
H  1.43290914 0.63659114 -0.05645529
6
MD Step 99
C  -0.33228501 -0.57854494 0.01038634
H  0.19762047 -1.52020123 -0.05115966
H  -1.40675416 -0.57074093 -0.05104454
C  0.32817202 0.57027702 0.00772166
H  -0.17503820 1.54938175 -0.05699592
H  1.43318239 0.64008114 -0.05657543
6
MD Step 100
C  -0.33169536 -0.57779138 0.01042185
H  0.19843536 -1.52123087 -0.05118058
H  -1.40931516 -0.56987610 -0.05115952
C  0.32756856 0.56904339 0.00769665
H  -0.17295992 1.55189202 -0.05703489
H  1.43301475 0.64345621 -0.05652559
6
MD Step 101
C  -0.33109918 -0.57703501 0.01043785
H  0.19912428 -1.52230000 -0.05108566
H  -1.41195960 -0.56918582 -0.05116488
C  0.32700971 0.56787219 0.00764819
H  -0.17080542 1.55400052 -0.05693289
H  1.43237091 0.64666969 -0.05633029
6
MD Step 102
C  -0.33050348 -0.57628318 0.01043443
H  0.19966745 -1.52338296 -0.05087693
H  -1.41462339 -0.56867457 -0.05106103
C  0.32649955 0.56677385 0.00757680
H  -0.16858155 1.55567122 -0.05669174
H  1.43124848 0.64969976 -0.05599264
6
MD Step 103
C  -0.32991659 -0.57554445 0.01041049
H  0.20005500 -1.52444689 -0.05054824
H  -1.41723505 -0.56833763 -0.05083981
C  0.32604008 0.56575644 0.00748158
H  -0.16629028 1.55688439 -0.05630577
H  1.42966288 0.65253433 -0.05550858
6
MD Step 104
C  -0.32934851 -0.57482903 0.01036334
H  0.20029037 -1.52544929 -0.05008208
H  -1.41971422 -0.56815812 -0.05048125
C  0.32563077 0.56482513 0.00735954
H  -0.16392570 1.55763994 -0.05575888
H  1.42765025 0.65517426 -0.05486416
6
MD Step 105
C  -0.32880335 -0.57414101 0.01029534
H  0.20034524 -1.52638380 -0.04949561
H  -1.42201848 -0.56815185 -0.05000146
C  0.32527615 0.56398957 0.00721417
H  -0.16151868 1.55791241 -0.05506884
H  1.42522206 0.65758800 -0.05407790
6
MD Step 106
C  -0.32828409 -0.57348328 0.01020950
H  0.20018946 -1.52725086 -0.04881064
H  -1.42411446 -0.56833785 -0.04942142
C  0.32498078 0.56325892 0.00704985
H  -0.15910739 1.55768089 -0.05425806
H  1.42239473 0.65974157 -0.05317285
6
MD Step 107
C  -0.32779900 -0.57286409 0.01010379
H  0.19983035 -1.52801901 -0.04801384
H  -1.42593943 -0.56869967 -0.04872588
C  0.32474257 0.56263525 0.00686456
H  -0.15669868 1.55696797 -0.05331566
H  1.41922831 0.66163788 -0.05213991
6
MD Step 108
C  -0.32735371 -0.57228893 0.00997806
H  0.19926533 -1.52867255 -0.04710505
H  -1.42744971 -0.56923246 -0.04791339
C  0.32456086 0.56212140 0.00665872
H  -0.15431470 1.55579245 -0.05224363
H  1.41577872 0.66326919 -0.05098231
6
MD Step 109
C  -0.32695781 -0.57176741 0.00982813
H  0.19852309 -1.52917102 -0.04605550
H  -1.42858044 -0.56990248 -0.04695321
C  0.32442946 0.56171418 0.00642753
H  -0.15195237 1.55420986 -0.05101705
H  1.41213768 0.66465826 -0.04967713
6
MD Step 110
C  -0.32660974 -0.57129758 0.00965929
H  0.19757108 -1.52954161 -0.04490194
H  -1.42933883 -0.57073845 -0.04588215
C  0.32435245 0.56141965 0.00617820
H  -0.14967407 1.55222018 -0.04967372
H  1.40833980 0.66576560 -0.04826217
6
MD Step 111
C  -0.32631580 -0.57088563 0.00946915
H  0.19643248 -1.52976272 -0.04362774
H  -1.42968741 -0.57171628 -0.04468247
C  0.32432433 0.56123382 0.00590819
H  -0.14749239 1.54988365 -0.04820077
H  1.40447776 0.66660661 -0.04672582
6
MD Step 112
C  -0.32607422 -0.57052941 0.00926197
H  0.19508868 -1.52986105 -0.04226204
H  -1.42964169 -0.57285513 -0.04338341
C  0.32434664 0.56115873 0.00562329
H  -0.14546552 1.54722347 -0.04662895
H  1.40060441 0.66715396 -0.04509882
6
MD Step 113
C  -0.32589123 -0.57023506 0.00903415
H  0.19357757 -1.52981360 -0.04077964
H  -1.42917191 -0.57412065 -0.04195900
C  0.32441135 0.56118637 0.00531941
H  -0.14360024 1.54432273 -0.04493746
H  1.39682895 0.66743598 -0.04336133
6
MD Step 114
C  -0.32576238 -0.56999773 0.00879115
H  0.19187923 -1.52966127 -0.03921714
H  -1.42831728 -0.57553746 -0.04044637
C  0.32452034 0.56131752 0.00500362
H  -0.14196361 1.54121010 -0.04316434
H  1.39320186 0.66742223 -0.04155094
6
MD Step 115
C  -0.32568856 -0.56981813 0.00853287
H  0.19001387 -1.52941093 -0.03757318
H  -1.42708761 -0.57709256 -0.03884424
C  0.32466884 0.56154570 0.00467608
H  -0.14058595 1.53795634 -0.04131139
H  1.38981072 0.66712163 -0.03966946
6
MD Step 116
C  -0.32566944 -0.56969579 0.00825973
H  0.18800115 -1.52907551 -0.03584959
H  -1.42550363 -0.57877530 -0.03715474
C  0.32485245 0.56186401 0.00433751
H  -0.13950007 1.53463269 -0.03938339
H  1.38673791 0.66654174 -0.03772135
6
MD Step 117
C  -0.32570315 -0.56962872 0.00797284
H  0.18585799 -1.52867553 -0.03405331
H  -1.42359858 -0.58057929 -0.03538540
C  0.32506756 0.56226557 0.00398951
H  -0.13874233 1.53130764 -0.03738968
H  1.38405671 0.66568670 -0.03571535
6
MD Step 118
C  -0.32579516 -0.56962265 0.00766589
H  0.18365254 -1.52818499 -0.03214141
H  -1.42136392 -0.58244917 -0.03349346
C  0.32530233 0.56273479 0.00362471
H  -0.13829862 1.52809891 -0.03529173
H  1.38188257 0.66461114 -0.03361261
6
MD Step 119
C  -0.32593633 -0.56966845 0.00734552
H  0.18136992 -1.52766436 -0.03015686
H  -1.41888305 -0.58441280 -0.03152313
C  0.32555961 0.56326974 0.00325097
H  -0.13823527 1.52503851 -0.03313297
H  1.38023745 0.66328593 -0.03145515
6
MD Step 120
C  -0.32612712 -0.56976702 0.00700881
H  0.17905895 -1.52711368 -0.02807948
H  -1.41618346 -0.58643627 -0.02945497
C  0.32583204 0.56385799 0.00286485
H  -0.13855338 1.52221703 -0.03089586
H  1.37919414 0.66174517 -0.02922451
6
MD Step 121
C  -0.32635790 -0.56990915 0.00666178
H  0.17671166 -1.52659153 -0.02594751
H  -1.41335603 -0.58854249 -0.02732850
C  0.32612255 0.56449675 0.00247316
H  -0.13930631 1.51966238 -0.02861876
H  1.37875511 0.65996589 -0.02695750
6
MD Step 122
C  -0.32662325 -0.57009011 0.00630602
H  0.17434917 -1.52612841 -0.02377024
H  -1.41046738 -0.59072602 -0.02515411
C  0.32642977 0.56517875 0.00207755
H  -0.14051376 1.51742396 -0.02631171
H  1.37893743 0.65795436 -0.02466290
6
MD Step 123
C  -0.32692136 -0.57030907 0.00593929
H  0.17201701 -1.52573014 -0.02153236
H  -1.40756279 -0.59295715 -0.02291739
C  0.32674873 0.56589306 0.00167530
H  -0.14216510 1.51556684 -0.02396050
H  1.37976784 0.65574183 -0.02232539
6
MD Step 124
C  -0.32724912 -0.57056409 0.00556025
H  0.16975431 -1.52540774 -0.01922462
H  -1.40469554 -0.59521219 -0.02061002
C  0.32707609 0.56663039 0.00126470
H  -0.14424877 1.51413995 -0.02155636
H  1.38125175 0.65335398 -0.01993522
6
MD Step 125
C  -0.32759982 -0.57084969 0.00517075
H  0.16757911 -1.52519104 -0.01685825
H  -1.40194001 -0.59748767 -0.01824420
C  0.32741251 0.56738558 0.00084759
H  -0.14676590 1.51316055 -0.01911006
H  1.38335881 0.65079659 -0.01750221