6
MD Step 0
C  -0.33763715 -0.58748864 0.00000000
H  0.19552659 -1.51519357 0.00000000
H  -1.40763715 -0.58748864 0.00000000
C  0.33763715 0.58748865 0.00000000
H  -0.19552659 1.51519357 0.00000000
H  1.40763715 0.58748865 0.00000000
6
MD Step 1
C  -0.33800552 -0.58783611 -0.00039445
H  0.19788874 -1.51298599 0.00235125
H  -1.40542180 -0.58520459 0.00234943
C  0.33721660 0.58704693 -0.00039459
H  -0.19319015 1.51768652 0.00235169
H  1.41012402 0.58990793 0.00234987
6
MD Step 2
C  -0.33831880 -0.58808803 -0.00079000
H  0.20028062 -1.51108057 0.00470898
H  -1.40352000 -0.58306302 0.00470542
C  0.33674748 0.58651232 -0.00079024
H  -0.19086346 1.52045361 0.00470975
H  1.41282673 0.59246619 0.00470599
6
MD Step 3
C  -0.33857145 -0.58824155 -0.00118457
H  0.20268873 -1.50949998 0.00706082
H  -1.40198859 -0.58108320 0.00705586
C  0.33623693 0.58589090 -0.00118480
H  -0.18855144 1.52345239 0.00706142
H  1.41566952 0.59514125 0.00705540
6
MD Step 4
C  -0.33876645 -0.58830267 -0.00158387
H  0.20514251 -1.50821352 0.00944056
H  -1.40082882 -0.57923726 0.00943502
C  0.33568463 0.58518195 -0.00158383
H  -0.18621072 1.52668116 0.00943996
H  1.41862009 0.59795616 0.00943090
6
MD Step 5
C  -0.33889514 -0.58826607 -0.00198118
H  0.20759422 -1.50725755 0.01180806
H  -1.40010607 -0.57757041 0.01180334
C  0.33510291 0.58439813 -0.00198045
H  -0.18387013 1.53005936 0.01180443
H  1.42157036 0.60085897 0.01179107
6
MD Step 6
C  -0.33895539 -0.58813304 -0.00237534
H  0.21002617 -1.50662836 0.01415625
H  -1.39984100 -0.57609379 0.01415447
C  0.33449862 0.58354730 -0.00237329
H  -0.18152426 1.53353600 0.01414681
H  1.42444612 0.60383005 0.01412726
6
MD Step 7
C  -0.33895024 -0.58791013 -0.00276937
H  0.21244267 -1.50629077 0.01650282
H  -1.40001706 -0.57479273 0.01650688
C  0.33387441 0.58263380 -0.00276510
H  -0.17914223 1.53708243 0.01648371
H  1.42720039 0.60687390 0.01645551
6
MD Step 8
C  -0.33887351 -0.58759454 -0.00315601
H  0.21478454 -1.50626471 0.01880440
H  -1.40066673 -0.57371260 0.01881807
C  0.33324308 0.58167282 -0.00314841
H  -0.17675404 1.54060738 0.01877063
H  1.42972856 0.60993338 0.01873058
6
MD Step 9
C  -0.33872945 -0.58719377 -0.00353732
H  0.21704616 -1.50650905 0.02107309
H  -1.40175420 -0.57284211 0.02110088
C  0.33260791 0.58067059 -0.00352504
H  -0.17433456 1.54407504 0.02101847
H  1.43198696 0.61300658 0.02096285
6
MD Step 10
C  -0.33851703 -0.58670980 -0.00390902
H  0.21918290 -1.50701555 0.02328340
H  -1.40326949 -0.57220642 0.02333057
C  0.33197820 0.57963994 -0.00389053
H  -0.17189704 1.54741284 0.02320063
H  1.43390055 0.61605380 0.02312510
6
MD Step 11
C  -0.33824507 -0.58615416 -0.00427566
H  0.22120161 -1.50771969 0.02546229
H  -1.40513900 -0.57177704 0.02553443
C  0.33135410 0.57858506 -0.00424920
H  -0.16940362 1.55060265 0.02534288
H  1.43545411 0.61908780 0.02524285
6
MD Step 12
C  -0.33791175 -0.58552745 -0.00463016
H  0.22304012 -1.50862291 0.02756788
H  -1.40734883 -0.57159302 0.02767115
C  0.33074697 0.57752169 -0.00459391
H  -0.16688675 1.55356022 0.02740245
H  1.43657115 0.62205264 0.02727283
6
MD Step 13
C  -0.33751738 -0.58483209 -0.00496673
H  0.22464422 -1.50971686 0.02956598
H  -1.40986902 -0.57168436 0.02970696
C  0.33016646 0.57646419 -0.00491887
H  -0.16437309 1.55621290 0.02934450
H  1.43719167 0.62490042 0.02917971
6
MD Step 14
C  -0.33707573 -0.58408363 -0.00529233
H  0.22603615 -1.51091627 0.03149823
H  -1.41258684 -0.57200406 0.03168288
C  0.32960898 0.57541399 -0.00523094
H  -0.16181609 1.55856837 0.03120980
H  1.43734080 0.62765955 0.03100473
6
MD Step 15
C  -0.33659029 -0.58328704 -0.00560298
H  0.22717475 -1.51220050 0.03334140
H  -1.41545013 -0.57256849 0.03357553
C  0.32908138 0.57438308 -0.00552624
H  -0.15923623 1.56057465 0.03297481
H  1.43698801 0.63029421 0.03272427
6
MD Step 16
C  -0.33607425 -0.58245682 -0.00590408
H  0.22807626 -1.51349406 0.03512803
H  -1.41834859 -0.57333718 0.03541620
C  0.32858064 0.57337371 -0.00581015
H  -0.15660120 1.56224087 0.03467154
H  1.43616759 0.63282490 0.03437127
6
MD Step 17
C  -0.33552554 -0.58159188 -0.00618527
H  0.22866624 -1.51481605 0.03679748
H  -1.42126485 -0.57436117 0.03714444
C  0.32811894 0.57240327 -0.00607275
H  -0.15397399 1.56348913 0.03623983
H  1.43482992 0.63517981 0.03588508
6
MD Step 18
C  -0.33495770 -0.58070668 -0.00645190
H  0.22896536 -1.51609524 0.03838201
H  -1.42408976 -0.57559786 0.03879072
C  0.32769230 0.57147307 -0.00631944
H  -0.15132821 1.56434042 0.03771180
H  1.43302735 0.63738070 0.03729916
6
MD Step 19
C  -0.33437598 -0.57980716 -0.00670088
H  0.22894754 -1.51731302 0.03986409
H  -1.42676684 -0.57705302 0.04033668
C  0.32730462 0.57059208 -0.00654752
H  -0.14868974 1.56477261 0.03907050
H  1.43077161 0.63940058 0.03859704
6
MD Step 20
C  -0.33379190 -0.57890549 -0.00693569
H  0.22862830 -1.51841584 0.04126488
H  -1.42920549 -0.57869297 0.04180150
C  0.32695275 0.56976219 -0.00676062
H  -0.14604895 1.56480860 0.04033745
H  1.42812160 0.64125199 0.03980179
6
MD Step 21
C  -0.33321125 -0.57800797 -0.00715423
H  0.22799376 -1.51938700 0.04257273
H  -1.43135380 -0.58051572 0.04317235
C  0.32663859 0.56899003 -0.00695706
H  -0.14343149 1.56444510 0.04150191
H  1.42511162 0.64291572 0.04090358
6
MD Step 22
C  -0.33263995 -0.57712096 -0.00735488
H  0.22703621 -1.52021153 0.04377887
H  -1.43316400 -0.58251567 0.04443915
C  0.32636305 0.56828099 -0.00713567
H  -0.14086288 1.56368809 0.04255617
H  1.42178638 0.64437640 0.04189571
6
MD Step 23
C  -0.33208032 -0.57624714 -0.00753280
H  0.22573283 -1.52089791 0.04485577
H  -1.43461466 -0.58470507 0.04557386
C  0.32612971 0.56764281 -0.00729231
H  -0.13838963 1.56253134 0.04347423
H  1.41817914 0.64560112 0.04275260
6
MD Step 24
C  -0.33154388 -0.57539842 -0.00769319
H  0.22412230 -1.52140152 0.04583437
H  -1.43563441 -0.58703772 0.04660479
C  0.32593187 0.56707266 -0.00743229
H  -0.13600288 1.56103291 0.04428791
H  1.41438781 0.64661634 0.04350854
6
MD Step 25
C  -0.33103211 -0.57457652 -0.00783146
H  0.22219018 -1.52173962 0.04668866
H  -1.43621753 -0.58952336 0.04750555
C  0.32577200 0.56657636 -0.00755177
H  -0.13375209 1.55920012 0.04497303
H  1.41045911 0.64739292 0.04413980
6
MD Step 26
C  -0.33055281 -0.57378951 -0.00795031
H  0.21996716 -1.52189297 0.04743466
H  -1.43632585 -0.59212987 0.04829020
C  0.32564513 0.56615196 -0.00765369
H  -0.13164707 1.55708740 0.04554697
H  1.40648582 0.64794470 0.04466581
6
MD Step 27
C  -0.33010672 -0.57303833 -0.00804576
H  0.21744913 -1.52188578 0.04805012
H  -1.43596894 -0.59486286 0.04893631
C  0.32555243 0.56580305 -0.00773488
H  -0.12973683 1.55471599 0.04598947
H  1.40252565 0.64824846 0.04506672
6
MD Step 28
C  -0.32970353 -0.57233296 -0.00812408
H  0.21469325 -1.52168932 0.04857127
H  -1.43510801 -0.59767001 0.04947751
C  0.32548506 0.56552278 -0.00780149
H  -0.12801372 1.55216939 0.04633798
H  1.39869589 0.64834028 0.04538275
6
MD Step 29
C  -0.32934258 -0.57167291 -0.00818144
H  0.21170202 -1.52133773 0.04897643
H  -1.43377207 -0.60055656 0.04989211
C  0.32544383 0.56531325 -0.00785040
H  -0.12652792 1.54947671 0.04657283
H  1.39505563 0.64819944 0.04559456
6
MD Step 30
C  -0.32901602 -0.57105047 -0.00820727
H  0.20844244 -1.52090815 0.04920543
H  -1.43203821 -0.60356601 0.05012230
C  0.32543594 0.56518233 -0.00787249
H  -0.12536760 1.54663129 0.04663642
H  1.39162373 0.64776787 0.04564274
6
MD Step 31
C  -0.32873516 -0.57047733 -0.00821201
H  0.20500318 -1.52036278 0.04931814
H  -1.42987316 -0.60662321 0.05022478
C  0.32544856 0.56511737 -0.00787756
H  -0.12450196 1.54374748 0.04658954
H  1.38853511 0.64710795 0.04559136
6
MD Step 32
C  -0.32849947 -0.56995330 -0.00819452
H  0.20140901 -1.51973385 0.04930801
H  -1.42731902 -0.60971925 0.05019316
C  0.32548017 0.56511633 -0.00786487
H  -0.12396475 1.54087394 0.04642734
H  1.38585286 0.64621672 0.04543570
6
MD Step 33
C  -0.32830670 -0.56947658 -0.00815262
H  0.19768063 -1.51906302 0.04916265
H  -1.42443269 -0.61285151 0.05001579
C  0.32553057 0.56517784 -0.00783274
H  -0.12379375 1.53805250 0.04613900
H  1.38362633 0.64508602 0.04516450
6
MD Step 34
C  -0.32815640 -0.56904732 -0.00808688
H  0.19385557 -1.51837930 0.04888524
H  -1.42126373 -0.61600253 0.04969610
C  0.32559734 0.56529772 -0.00778185
H  -0.12400892 1.53533833 0.04572893
H  1.38191084 0.64372388 0.04478206
6
MD Step 35
C  -0.32804685 -0.56866460 -0.00799736
H  0.18996915 -1.51771697 0.04847585
H  -1.41787226 -0.61915853 0.04923492
C  0.32567911 0.56547223 -0.00771240
H  -0.12463023 1.53278011 0.04519826
H  1.38074750 0.64213579 0.04428887
6
MD Step 36
C  -0.32798186 -0.56833323 -0.00789069
H  0.18609396 -1.51707480 0.04797156
H  -1.41428807 -0.62226963 0.04866852
C  0.32576884 0.56569150 -0.00763026
H  -0.12563711 1.53045864 0.04458466
H  1.38020167 0.64036473 0.04372333
6
MD Step 37
C  -0.32795252 -0.56804552 -0.00776075
H  0.18223086 -1.51652399 0.04733754
H  -1.41061868 -0.62535839 0.04796495
C  0.32587223 0.56595785 -0.00752999
H  -0.12707609 1.52837673 0.04385389
H  1.38025270 0.63838229 0.04304847
6
MD Step 38
C  -0.32796628 -0.56781044 -0.00761944
H  0.17848093 -1.51603439 0.04664007
H  -1.40687484 -0.62834722 0.04718913
C  0.32597864 0.56625696 -0.00742194
H  -0.12888798 1.52663118 0.04307242
H  1.38096667 0.63626168 0.04233193
6
MD Step 39
C  -0.32801462 -0.56762124 -0.00746230
H  0.17485215 -1.51566703 0.04585330
H  -1.40316317 -0.63125159 0.04631791
C  0.32609361 0.56659037 -0.00730190
H  -0.13110001 1.52521816 0.04221429
H  1.38230187 0.63398434 0.04154512
6
MD Step 40
C  -0.32808888 -0.56747132 -0.00728516
H  0.17135268 -1.51547903 0.04495335
H  -1.39959006 -0.63408600 0.04533015
C  0.32622293 0.56695975 -0.00716592
H  -0.13373179 1.52412677 0.04125503
H  1.38420379 0.63153415 0.04066091
6
MD Step 41
C  -0.32818996 -0.56736390 -0.00709434
H  0.16804686 -1.51546578 0.04397476
H  -1.39620268 -0.63680706 0.04426111
C  0.32636308 0.56735742 -0.00701920
H  -0.13673843 1.52339573 0.04022875
H  1.38666345 0.62895426 0.03971274
6
MD Step 42
C  -0.32831111 -0.56729471 -0.00688820
H  0.16495164 -1.51566353 0.04290754
H  -1.39309077 -0.63941694 0.04310308
C  0.32651841 0.56778372 -0.00685988
H  -0.14011379 1.52300962 0.03912446
H  1.38961473 0.62624386 0.03868753
6
MD Step 43
C  -0.32844764 -0.56726177 -0.00666735
H  0.16209340 -1.51609117 0.04175437
H  -1.39032703 -0.64190578 0.04186063
C  0.32669144 0.56823732 -0.00668811
H  -0.14383317 1.52295667 0.03794377
H  1.39299375 0.62341564 0.03758526
6
MD Step 44
C  -0.32859653 -0.56726479 -0.00643398
H  0.15950371 -1.51675327 0.04052682
H  -1.38796880 -0.64425540 0.04054685
C  0.32688332 0.56871587 -0.00650541
H  -0.14785741 1.52322551 0.03669724
H  1.39673709 0.62049208 0.03641528
6
MD Step 45
C  -0.32875401 -0.56730278 -0.00618929
H  0.15720441 -1.51765436 0.03923072
H  -1.38607098 -0.64645389 0.03916913
C  0.32709620 0.56921838 -0.00631241
H  -0.15214804 1.52379110 0.03538961
H  1.40076903 0.61749074 0.03518116
6
MD Step 46
C  -0.32891321 -0.56737159 -0.00593074
H  0.15519252 -1.51881345 0.03785154
H  -1.38469914 -0.64851057 0.03771468
C  0.32733556 0.56974769 -0.00610654
H  -0.15668278 1.52460087 0.03400483
H  1.40498867 0.61440948 0.03386551
6
MD Step 47
C  -0.32907057 -0.56747019 -0.00565876
H  0.15347702 -1.52022662 0.03639114
H  -1.38389047 -0.65041852 0.03618647
C  0.32760388 0.57030407 -0.00588783
H  -0.16141907 1.52561316 0.03254363
H  1.40930973 0.61126347 0.03246833
6
MD Step 48
C  -0.32922386 -0.56759858 -0.00537443
H  0.15206630 -1.52187956 0.03485533
H  -1.38366502 -0.65216709 0.03459104
C  0.32790263 0.57088727 -0.00565704
H  -0.16630743 1.52678596 0.03101090
H  1.41364998 0.60807262 0.03099408
6
MD Step 49
C  -0.32937271 -0.56775824 -0.00508007
H  0.15097116 -1.52374491 0.03325676
H  -1.38402210 -0.65373895 0.03294139
C  0.32823174 0.57149592 -0.00541602
H  -0.17128927 1.52808115 0.02941876
H  1.41793601 0.60486440 0.02945478
6
MD Step 50
C  -0.32951581 -0.56794933 -0.00477623
H  0.15018841 -1.52579930 0.03159860
H  -1.38495674 -0.65512674 0.03124087
C  0.32859224 0.57213024 -0.00516519
H  -0.17631444 1.52944910 0.02776979
H  1.42208805 0.60165713 0.02785298
6
MD Step 51
C  -0.32965242 -0.56817208 -0.00446326
H  0.14970953 -1.52801552 0.02988294
H  -1.38645143 -0.65632469 0.02949140
C  0.32898489 0.57279052 -0.00490481
H  -0.18133360 1.53083843 0.02606551
H  1.42602981 0.59846827 0.02619036
6
MD Step 52
C  -0.32978778 -0.56843208 -0.00414705
H  0.14955326 -1.53033081 0.02814257
H  -1.38844441 -0.65729600 0.02772521
C  0.32940469 0.57347156 -0.00464013
H  -0.18626632 1.53222970 0.02433953
H  1.42972235 0.59534649 0.02450099
6
MD Step 53
C  -0.32990979 -0.56871744 -0.00381475
H  0.14963003 -1.53278457 0.02630661
H  -1.39096785 -0.65811062 0.02587107
C  0.32986363 0.57418574 -0.00435974
H  -0.19113954 1.53349935 0.02251834
H  1.43302733 0.59223545 0.02271153
6
MD Step 54
C  -0.33002469 -0.56903371 -0.00347197
H  0.14995069 -1.53530916 0.02440669
H  -1.39393833 -0.65873426 0.02395969
C  0.33035580 0.57492745 -0.00406880
H  -0.19587740 1.53463120 0.02063450
H  1.43591946 0.58918230 0.02085515
6
MD Step 55
C  -0.33013596 -0.56938316 -0.00312089
H  0.15050433 -1.53785438 0.02245548
H  -1.39728241 -0.65915273 0.02200277
C  0.33087792 0.57569389 -0.00376941
H  -0.20042603 1.53559352 0.01870114
H  1.43836282 0.58621474 0.01894560
6
MD Step 56
C  -0.33024148 -0.56976211 -0.00275753
H  0.15124326 -1.54040413 0.02043143
H  -1.40095434 -0.65938786 0.01997775
C  0.33143193 0.57648773 -0.00345817
H  -0.20476987 1.53632403 0.01669599
H  1.44029547 0.58332525 0.01696125
6
MD Step 57
C  -0.33034793 -0.57017505 -0.00238676
H  0.15216795 -1.54289216 0.01836226
H  -1.40485272 -0.65941203 0.01791138
C  0.33201089 0.57730266 -0.00313966
H  -0.20884659 1.53681582 0.01464790
H  1.44171547 0.58055553 0.01493153
6
MD Step 58
C  -0.33045364 -0.57061785 -0.00200468
H  0.15322829 -1.54530307 0.01622678
H  -1.40892282 -0.65924896 0.01578149
C  0.33261562 0.57814028 -0.00281056
H  -0.21264812 1.53701756 0.01253504
H  1.44258041 0.57789697 0.01283525
6
MD Step 59
C  -0.33056333 -0.57109231 -0.00161400
H  0.15441073 -1.54758567 0.01404068
H  -1.41307089 -0.65888591 0.01360291
C  0.33324021 0.57899534 -0.00247349
H  -0.21613314 1.53692148 0.01037373
H  1.44289551 0.57537731 0.01068924
6
MD Step 60
C  -0.33068111 -0.57159928 -0.00121687
H  0.15569855 -1.54969432 0.01181671
H  -1.41720678 -0.65831455 0.01138767
C  0.33387877 0.57986256 -0.00213061
H  -0.21926812 1.53652301 0.00817712
H  1.44267284 0.57302028 0.00850712
6
MD Step 61
C  -0.33081104 -0.57213933 -0.00081569
H  0.15707642 -1.55158552 0.00956870
H  -1.42124166 -0.65752695 0.00914904
C  0.33452481 0.58073598 -0.00178423
H  -0.22202336 1.53582503 0.00595946
H  1.44193518 0.57084953 0.00630350
6
MD Step 62
C  -0.33095491 -0.57271060 -0.00041080
H  0.15851809 -1.55323134 0.00729904
H  -1.42510248 -0.65652844 0.00688897
C  0.33517339 0.58161112 -0.00143478
H  -0.22438601 1.53482513 0.00372302
H  1.44070294 0.56887579 0.00408092
6
MD Step 63
C  -0.33111593 -0.57331243 -0.00000441
H  0.16000891 -1.55459760 0.00502055
H  -1.42871096 -0.65531522 0.00462007
C  0.33581746 0.58248124 -0.00108437
H  -0.22633772 1.53353799 0.00148077
H  1.43901626 0.56711903 0.00185249
6
MD Step 64
C  -0.33129211 -0.57393897 0.00040615
H  0.16150776 -1.55568292 0.00271842
H  -1.43202338 -0.65391320 0.00232740
C  0.33645436 0.58334392 -0.00073055
H  -0.22789359 1.53195662 -0.00078289
H  1.43689574 0.56556986 -0.00039735
6
MD Step 65
C  -0.33148071 -0.57458354 0.00082387
H  0.16297336 -1.55649262 0.00037606
H  -1.43500487 -0.65235151 -0.00000558
C  0.33708145 0.58419662 -0.00037059
H  -0.22907575 1.53007864 -0.00308554
H  1.43436864 0.56421569 -0.00268627
6
MD Step 66
C  -0.33169156 -0.57525176 0.00123836
H  0.16444265 -1.55696030 -0.00194741
H  -1.43755133 -0.65058347 -0.00231950
C  0.33768315 0.58502348 -0.00001405
H  -0.22983450 1.52798483 -0.00536732
H  1.43154724 0.56311887 -0.00495469
6
MD Step 67
C  -0.33192723 -0.57594213 0.00164616
H  0.16591520 -1.55706471 -0.00423211
H  -1.43960722 -0.64860364 -0.00459414
C  0.33825037 0.58581503 0.00033591
H  -0.23016507 1.52572197 -0.00760873
H  1.42851042 0.56230070 -0.00718351
6
MD Step 68
C  -0.33218437 -0.57664736 0.00204931
H  0.16736133 -1.55682193 -0.00648953
H  -1.44115814 -0.64643972 -0.00684060
C  0.33877934 0.58656693 0.00068135
H  -0.23009934 1.52331044 -0.00982252
H  1.42531029 0.56174926 -0.00938596
6
MD Step 69
C  -0.33246119 -0.57736174 0.00244772
H  0.16876604 -1.55624123 -0.00871908
H  -1.44218690 -0.64410819 -0.00905781
C  0.33926437 0.58727261 0.00102234
H  -0.22966146 1.52078785 -0.01200923
H  1.42201537 0.56146335 -0.01156317
6
MD Step 70
C  -0.33275730 -0.57808111 0.00283933
H  0.17012816 -1.55532572 -0.01090898
H  -1.44267445 -0.64161502 -0.01123342
C  0.33969806 0.58792343 0.00135716
H  -0.22886832 1.51820767 -0.01415806
H  1.41870839 0.56145167 -0.01370502
6
MD Step 71
C  -0.33306166 -0.57879087 0.00323245
H  0.17138903 -1.55414397 -0.01310723
H  -1.44267162 -0.63902751 -0.01341506
C  0.34008338 0.58852091 0.00169400
H  -0.22780111 1.51556675 -0.01631924
H  1.41541272 0.56166140 -0.01586226
6
MD Step 72
C  -0.33337387 -0.57948719 0.00362414
H  0.17255777 -1.55270347 -0.01529701
H  -1.44217248 -0.63634767 -0.01558531
C  0.34041274 0.58905553 0.00203037
H  -0.22647857 1.51293073 -0.01847706
H  1.41221779 0.56210384 -0.01801996
6
MD Step 73
C  -0.33368789 -0.58016086 0.00401678
H  0.17361503 -1.55104694 -0.01749234
H  -1.44121089 -0.63360906 -0.01775782
C  0.34068425 0.58952316 0.00236890
H  -0.22495323 1.51033640 -0.02064732
H  1.40918022 0.56275817 -0.02019447
6
MD Step 74
C  -0.33400313 -0.58080832 0.00440690
H  0.17457799 -1.54918646 -0.01967327
H  -1.43979468 -0.63081098 -0.01991211
C  0.34089085 0.58991408 0.00270660
H  -0.22324527 1.50785614 -0.02281145
H  1.40638778 0.56363680 -0.02236791
6
MD Step 75
C  -0.33432720 -0.58143449 0.00478258
H  0.17551651 -1.54708686 -0.02176973
H  -1.43788937 -0.62790210 -0.02197710
C  0.34101776 0.59021044 0.00303203
H  -0.22132532 1.50561287 -0.02490012
H  1.40397326 0.56480160 -0.02447210
6
MD Step 76
C  -0.33465050 -0.58202763 0.00514868
H  0.17640337 -1.54481571 -0.02381051
H  -1.43556885 -0.62493099 -0.02398159
C  0.34106777 0.59041166 0.00335030
H  -0.21926391 1.50362819 -0.02694412
H  1.40196098 0.56621424 -0.02653788
6
MD Step 77
C  -0.33496483 -0.58257782 0.00550836
H  0.17722337 -1.54243287 -0.02581442
H  -1.43290482 -0.62193596 -0.02594457
C  0.34104293 0.59051606 0.00366488
H  -0.21712075 1.50193093 -0.02896401
H  1.40037534 0.56784568 -0.02858563
6
MD Step 78
C  -0.33527124 -0.58308479 0.00585542
H  0.17801906 -1.53994350 -0.02774433
H  -1.42991948 -0.61889856 -0.02782845
C  0.34093688 0.59051324 0.00396967
H  -0.21489752 1.50060209 -0.03092366
H  1.39928608 0.56972236 -0.03057956
6
MD Step 79
C  -0.33556401 -0.58354206 0.00619011
H  0.17879554 -1.53739273 -0.02960180
H  -1.42668047 -0.61583891 -0.02963507
C  0.34075081 0.59040025 0.00426509
H  -0.21263226 1.49967803 -0.03282573
H  1.39871117 0.57183126 -0.03252186
6
MD Step 80
C  -0.33583478 -0.58394107 0.00651516
H  0.17954424 -1.53484072 -0.03140298
H  -1.42327559 -0.61279138 -0.03138148
C  0.34048947 0.59017760 0.00455400
H  -0.21037432 1.49917339 -0.03468743
H  1.39864024 0.57414400 -0.03442856
6
MD Step 81
C  -0.33607871 -0.58427730 0.00682977
H  0.18027830 -1.53232583 -0.03314292
H  -1.41977537 -0.60976837 -0.03306345
C  0.34015506 0.58984337 0.00483557
H  -0.20814760 1.49911595 -0.03650419
H  1.39907079 0.57665280 -0.03629402
6
MD Step 82
C  -0.33629470 -0.58455052 0.00712959
H  0.18103296 -1.52986303 -0.03479471
H  -1.41623091 -0.60675952 -0.03465437
C  0.33974703 0.58939315 0.00510506
H  -0.20594923 1.49954643 -0.03824894
H  1.40000904 0.57937116 -0.03809048
6
MD Step 83
C  -0.33647495 -0.58475436 0.00741685
H  0.18180296 -1.52750566 -0.03637153
H  -1.41273513 -0.60379408 -0.03616911
C  0.33927251 0.58883063 0.00536459
H  -0.20381143 1.50045523 -0.03993455
H  1.40140773 0.58227158 -0.03982877
6
MD Step 84
C  -0.33661510 -0.58488636 0.00769069
H  0.18260127 -1.52528529 -0.03786760
H  -1.40936143 -0.60088146 -0.03760319
C  0.33873621 0.58815764 0.00561287
H  -0.20174195 1.50184144 -0.04155424
H  1.40322688 0.58534470 -0.04150049
6
MD Step 85
C  -0.33670919 -0.58494293 0.00795210
H  0.18342825 -1.52324146 -0.03928850
H  -1.40619247 -0.59804173 -0.03896408
C  0.33814542 0.58737933 0.00585053
H  -0.19975457 1.50368215 -0.04311220
H  1.40540470 0.58856884 -0.04310773
6
MD Step 86
C  -0.33675072 -0.58492028 0.00820303
H  0.18427651 -1.52141578 -0.04064594
H  -1.40331273 -0.59530026 -0.04026583
C  0.33750898 0.58650326 0.00607923
H  -0.19786400 1.50593802 -0.04461824
H  1.40786477 0.59191519 -0.04465789
6
MD Step 87
C  -0.33673759 -0.58481931 0.00844184
H  0.18515913 -1.51982253 -0.04192911
H  -1.40077762 -0.59265903 -0.04149920
C  0.33683235 0.58553452 0.00629659
H  -0.19605763 1.50858265 -0.04605912
H  1.41054693 0.59537649 -0.04613623
6
MD Step 88
C  -0.33667063 -0.58464399 0.00866490
H  0.18609983 -1.51845798 -0.04311425
H  -1.39862147 -0.59010630 -0.04264128
C  0.33611910 0.58447726 0.00649780
H  -0.19430570 1.51159368 -0.04740819
H  1.41339944 0.59895742 -0.04751550
6
MD Step 89
C  -0.33654438 -0.58439212 0.00887517
H  0.18707769 -1.51735542 -0.04421977
H  -1.39691151 -0.58767192 -0.04371311
C  0.33538003 0.58334390 0.00668559
H  -0.19261713 1.51489859 -0.04868081
H  1.41632535 0.60261936 -0.04880878
6
MD Step 90
C  -0.33635392 -0.58406197 0.00907592
H  0.18806669 -1.51654511 -0.04526657
H  -1.39570618 -0.58538755 -0.04473837
C  0.33462646 0.58214830 0.00686318
H  -0.19100059 1.51841587 -0.04989455
H  1.41922464 0.60632025 -0.05003130
6
MD Step 91
C  -0.33610249 -0.58365986 0.00926389
H  0.18908014 -1.51600936 -0.04623337
H  -1.39500889 -0.58324197 -0.04569624
C  0.33386253 0.58089808 0.00702616
H  -0.18942080 1.52210136 -0.05102466
H  1.42204105 0.61005943 -0.05115840
6
MD Step 92
C  -0.33579270 -0.58319124 0.00943735
H  0.19011864 -1.51573512 -0.04710902
H  -1.39482004 -0.58123350 -0.04657618
C  0.33309397 0.57960330 0.00717197
H  -0.18785160 1.52589727 -0.05205652
H  1.42471106 0.61382535 -0.05217540
6
MD Step 93
C  -0.33542768 -0.58266182 0.00959508
H  0.19117702 -1.51570750 -0.04788564
H  -1.39513014 -0.57936319 -0.04737073
C  0.33232690 0.57827509 0.00729867
H  -0.18626990 1.52974058 -0.05297893
H  1.42717199 0.61760257 -0.05307115
6
MD Step 94
C  -0.33501237 -0.58207880 0.00973519
H  0.19225217 -1.51590257 -0.04855106
H  -1.39591258 -0.57762729 -0.04806745
C  0.33156646 0.57692425 0.00740358
H  -0.18464888 1.53357208 -0.05377659
H  1.42937079 0.62137953 -0.05383103
6
MD Step 95
C  -0.33454938 -0.58144670 0.00985871
H  0.19331957 -1.51631182 -0.04911277
H  -1.39714839 -0.57604109 -0.04867426
C  0.33082080 0.57556506 0.00748770
H  -0.18298246 1.53731394 -0.05445398
H  1.43124106 0.62512475 -0.05445937
6
MD Step 96
C  -0.33404470 -0.58077312 0.00996447
H  0.19436766 -1.51690846 -0.04956368
H  -1.39879291 -0.57460477 -0.04918328
C  0.33009531 0.57420941 0.00754941
H  -0.18125186 1.54090525 -0.05500148
H  1.43273823 0.62882127 -0.05494747
6
MD Step 97
C  -0.33350245 -0.58006337 0.01005367
H  0.19536765 -1.51767875 -0.04991300
H  -1.40080787 -0.57333400 -0.04960347
C  0.32939767 0.57287172 0.00759019
H  -0.17945666 1.54427254 -0.05542592
H  1.43380963 0.63243614 -0.05530236
6
MD Step 98
C  -0.33293263 -0.57932847 0.01012283
H  0.19632130 -1.51857524 -0.05013854
H  -1.40311545 -0.57221264 -0.04991042
C  0.32872988 0.57156090 0.00760583
H  -0.17756808 1.54737832 -0.05570368
H  1.43444241 0.63596810 -0.05550252
6
MD Step 99
C  -0.33234255 -0.57857637 0.01017143
H  0.19721071 -1.51956826 -0.05023774
H  -1.40565111 -0.57124324 -0.05010001
C  0.32809674 0.57028865 0.00759575
H  -0.17557963 1.55017125 -0.05583099
H  1.43461321 0.63939698 -0.05554542
6
MD Step 100
C  -0.33173590 -0.57781120 0.01020243
H  0.19799425 -1.52065113 -0.05023240
H  -1.40836999 -0.57045140 -0.05019355
C  0.32750660 0.56907009 0.00756404
H  -0.17351181 1.55258248 -0.05582823
H  1.43428398 0.64267937 -0.05545156
6
MD Step 101
C  -0.33112410 -0.57704470 0.01021219
H  0.19867593 -1.52177177 -0.05009900
H  -1.41117937 -0.56981720 -0.05016463
C  0.32695964 0.56791211 0.00750645
H  -0.17134382 1.55459521 -0.05567211
H  1.43347116 0.64581797 -0.05520010
6
MD Step 102
C  -0.33051345 -0.57628325 0.01020173
H  0.19922940 -1.52290981 -0.04984591
H  -1.41401723 -0.56935102 -0.05002020
C  0.32646073 0.56682597 0.00742472
H  -0.16908942 1.55616896 -0.05537084
H  1.43216952 0.64878517 -0.05480026
6
MD Step 103
C  -0.32991371 -0.57553670 0.01016892
H  0.19965118 -1.52402450 -0.04946010
H  -1.41680109 -0.56904117 -0.04974484
C  0.32601054 0.56581844 0.00731669
H  -0.16674462 1.55729264 -0.05491233
H  1.43040474 0.65157614 -0.05424185
6
MD Step 104
C  -0.32933546 -0.57481566 0.01011084
H  0.19994595 -1.52507031 -0.04892220
H  -1.41944475 -0.56886881 -0.04931653
C  0.32560797 0.56489419 0.00717908
H  -0.16430259 1.55796980 -0.05427897
H  1.42821826 0.65419391 -0.05350955
6
MD Step 105
C  -0.32877804 -0.57411920 0.01003430
H  0.20005416 -1.52607004 -0.04828037
H  -1.42193251 -0.56887981 -0.04878354
C  0.32526252 0.56406775 0.00702113
H  -0.16182524 1.55814649 -0.05351849
H  1.42559473 0.65657663 -0.05265066
6
MD Step 106
C  -0.32825255 -0.57345837 0.00993529
H  0.19999257 -1.52697516 -0.04750805
H  -1.42417956 -0.56904598 -0.04811677
C  0.32497043 0.56334021 0.00683839
H  -0.15930477 1.55785111 -0.05260708
H  1.42260161 0.65873834 -0.05164371
6
MD Step 107
C  -0.32776745 -0.57284157 0.00981175
H  0.19976780 -1.52775266 -0.04659175
H  -1.42611983 -0.56935078 -0.04730083
C  0.32472940 0.56271345 0.00662881
H  -0.15674892 1.55710824 -0.05153394
H  1.41930247 0.66068224 -0.05047962
6
MD Step 108
C  -0.32732583 -0.57227167 0.00966600
H  0.19936023 -1.52840178 -0.04554766
H  -1.42772336 -0.56980547 -0.04635110
C  0.32454135 0.56219287 0.00639581
H  -0.15419694 1.55592214 -0.05031706
H  1.41574002 0.66238438 -0.04917718
6
MD Step 109
C  -0.32692698 -0.57174762 0.00950324
H  0.19873384 -1.52894427 -0.04441179
H  -1.42898684 -0.57043935 -0.04530348
C  0.32441079 0.56178570 0.00614647
H  -0.15170953 1.55428658 -0.04899351
H  1.41194546 0.66380358 -0.04777360
6
MD Step 110
C  -0.32657628 -0.57127466 0.00932259
H  0.19789694 -1.52936411 -0.04317834
H  -1.42987317 -0.57123998 -0.04415110
C  0.32433453 0.56149094 0.00588024
H  -0.14930906 1.55224485 -0.04756058
H  1.40799812 0.66494226 -0.04626737
6
MD Step 111
C  -0.32627817 -0.57085701 0.00912346
H  0.19685919 -1.52965034 -0.04184333
H  -1.43035470 -0.57219553 -0.04288924
C  0.32430898 0.56130649 0.00559693
H  -0.14702140 1.54984670 -0.04601742
H  1.40398185 0.66580344 -0.04465854
6
MD Step 112
C  -0.32604016 -0.57050216 0.00890180
H  0.19565701 -1.52977209 -0.04037880
H  -1.43038851 -0.57327006 -0.04148888
C  0.32432598 0.56122503 0.00529195
H  -0.14485081 1.54717278 -0.04434062
H  1.40000849 0.66641593 -0.04292490
6
MD Step 113
C  -0.32585574 -0.57020316 0.00866568
H  0.19424887 -1.52978267 -0.03883910
H  -1.43002116 -0.57450646 -0.04000512
C  0.32439065 0.56125131 0.00497563
H  -0.14288213 1.54423003 -0.04258519
H  1.39611242 0.66672962 -0.04112090
6
MD Step 114
C  -0.32572836 -0.56996338 0.00841342
H  0.19266161 -1.52967365 -0.03721217
H  -1.42924214 -0.57588237 -0.03842568
C  0.32449662 0.56137813 0.00464624
H  -0.14113643 1.54109620 -0.04074281
H  1.39239444 0.66676189 -0.03923864
6
MD Step 115
C  -0.32565724 -0.56978188 0.00814650
H  0.19090368 -1.52946092 -0.03550751
H  -1.42807034 -0.57739545 -0.03676032
C  0.32464081 0.56160069 0.00430593
H  -0.13965554 1.53783281 -0.03882561
H  1.38893397 0.66651082 -0.03729002
6
MD Step 116
C  -0.32564512 -0.56966144 0.00786247
H  0.18901235 -1.52913730 -0.03370797
H  -1.42650660 -0.57901683 -0.03499208
C  0.32481558 0.56190893 0.00395201
H  -0.13845476 1.53453081 -0.03682012
H  1.38583385 0.66600248 -0.03526149
6
MD Step 117
C  -0.32569118 -0.56960130 0.00756149
H  0.18701017 -1.52871565 -0.03181385
H  -1.42457708 -0.58073400 -0.03312182
C  0.32501621 0.56229489 0.00358488
H  -0.13756483 1.53126588 -0.03472935
H  1.38317470 0.66524717 -0.03315545
6
MD Step 118
C  -0.32579231 -0.56959848 0.00724516
H  0.18491238 -1.52822075 -0.02983497
H  -1.42232525 -0.58254318 -0.03116018
C  0.32523978 0.56275161 0.00320656
H  -0.13702335 1.52810439 -0.03256507
H  1.38102021 0.66424702 -0.03098276
6
MD Step 119
C  -0.32595037 -0.56965526 0.00690976
H  0.18277076 -1.52764524 -0.02774605
H  -1.41976750 -0.58440611 -0.02908257
C  0.32547780 0.56326607 0.00281278
H  -0.13683069 1.52514530 -0.03030505
H  1.37945862 0.66303983 -0.02872037
6
MD Step 120
C  -0.32616021 -0.56976698 0.00655747
H  0.18060024 -1.52702183 -0.02556059
H  -1.41696572 -0.58632211 -0.02690356
C  0.32572874 0.56383150 0.00240606
H  -0.13702087 1.52244556 -0.02796392
H  1.37852771 0.66162575 -0.02638165
6
MD Step 121
C  -0.32641417 -0.56992658 0.00619231
H  0.17840539 -1.52639615 -0.02330370
H  -1.41399969 -0.58830175 -0.02464946
C  0.32599362 0.56444312 0.00199086
H  -0.13763432 1.52004490 -0.02556712
H  1.37823984 0.65999405 -0.02399066
6
MD Step 122
C  -0.32670876 -0.57013150 0.00581379
H  0.17622020 -1.52578598 -0.02097144
H  -1.41092561 -0.59032711 -0.02231736
C  0.32626917 0.56509171 0.00156649
H  -0.13867740 1.51800410 -0.02311163
H  1.37862102 0.65816326 -0.02154315
6
MD Step 123
C  -0.32703841 -0.57037728 0.00542296
H  0.17406907 -1.52521903 -0.01856973
H  -1.40781352 -0.59239004 -0.01991428
C  0.32655439 0.56577017 0.00113390
H  -0.14015968 1.51636496 -0.02060359
H  1.37967171 0.65614251 -0.01904411
6
MD Step 124
C  -0.32739354 -0.57065556 0.00502437
H  0.17195414 -1.52474450 -0.01612674
H  -1.40475810 -0.59450424 -0.01746945
C  0.32685266 0.56647570 0.00069788
H  -0.14210549 1.51513675 -0.01807043
H  1.38135453 0.65391935 -0.01651983
6
MD Step 125
C  -0.32777289 -0.57096664 0.00461430
H  0.16992861 -1.52435870 -0.01361842
H  -1.40180304 -0.59663224 -0.01495959
C  0.32715913 0.56719765 0.00025412
H  -0.14448045 1.51436878 -0.01548841
H  1.38366850 0.65153356 -0.01394590