 Entering Gaussian System, Link 0=g16
 Initial command:
 /software/gaussian/g16-c01/avx2/g16/l1.exe "/gpfs/fs2/scratch/bweight/software/many_molecule_many_mode_NAMD/src/ELECTRONIC_STRUCTURE_INPUT/EXAMPLE/G16/DIMER/Gau-27886.inp" -scrdir="/gpfs/fs2/scratch/bweight/software/many_molecule_many_mode_NAMD/src/ELECTRONIC_STRUCTURE_INPUT/EXAMPLE/G16/DIMER/"
 Entering Link 1 = /software/gaussian/g16-c01/avx2/g16/l1.exe PID=     27892.
  
 Copyright (c) 1988-2019, Gaussian, Inc.  All Rights Reserved.
  
 This is part of the Gaussian(R) 16 program.  It is based on
 the Gaussian(R) 09 system (copyright 2009, Gaussian, Inc.),
 the Gaussian(R) 03 system (copyright 2003, Gaussian, Inc.),
 the Gaussian(R) 98 system (copyright 1998, Gaussian, Inc.),
 the Gaussian(R) 94 system (copyright 1995, Gaussian, Inc.),
 the Gaussian 92(TM) system (copyright 1992, Gaussian, Inc.),
 the Gaussian 90(TM) system (copyright 1990, Gaussian, Inc.),
 the Gaussian 88(TM) system (copyright 1988, Gaussian, Inc.),
 the Gaussian 86(TM) system (copyright 1986, Carnegie Mellon
 University), and the Gaussian 82(TM) system (copyright 1983,
 Carnegie Mellon University). Gaussian is a federally registered
 trademark of Gaussian, Inc.
  
 This software contains proprietary and confidential information,
 including trade secrets, belonging to Gaussian, Inc.
  
 This software is provided under written license and may be
 used, copied, transmitted, or stored only in accord with that
 written license.
  
 The following legend is applicable only to US Government
 contracts under FAR:
  
                    RESTRICTED RIGHTS LEGEND
  
 Use, reproduction and disclosure by the US Government is
 subject to restrictions as set forth in subparagraphs (a)
 and (c) of the Commercial Computer Software - Restricted
 Rights clause in FAR 52.227-19.
  
 Gaussian, Inc.
 340 Quinnipiac St., Bldg. 40, Wallingford CT 06492
  
  
 ---------------------------------------------------------------
 Warning -- This program may not be used in any manner that
 competes with the business of Gaussian, Inc. or will provide
 assistance to any competitor of Gaussian, Inc.  The licensee
 of this program is prohibited from giving any competitor of
 Gaussian, Inc. access to this program.  By using this program,
 the user acknowledges that Gaussian, Inc. is engaged in the
 business of creating and licensing software in the field of
 computational chemistry and represents and warrants to the
 licensee that it is not a competitor of Gaussian, Inc. and that
 it will not use this program in any manner prohibited above.
 ---------------------------------------------------------------
  

 Cite this work as:
 Gaussian 16, Revision C.01,
 M. J. Frisch, G. W. Trucks, H. B. Schlegel, G. E. Scuseria, 
 M. A. Robb, J. R. Cheeseman, G. Scalmani, V. Barone, 
 G. A. Petersson, H. Nakatsuji, X. Li, M. Caricato, A. V. Marenich, 
 J. Bloino, B. G. Janesko, R. Gomperts, B. Mennucci, H. P. Hratchian, 
 J. V. Ortiz, A. F. Izmaylov, J. L. Sonnenberg, D. Williams-Young, 
 F. Ding, F. Lipparini, F. Egidi, J. Goings, B. Peng, A. Petrone, 
 T. Henderson, D. Ranasinghe, V. G. Zakrzewski, J. Gao, N. Rega, 
 G. Zheng, W. Liang, M. Hada, M. Ehara, K. Toyota, R. Fukuda, 
 J. Hasegawa, M. Ishida, T. Nakajima, Y. Honda, O. Kitao, H. Nakai, 
 T. Vreven, K. Throssell, J. A. Montgomery, Jr., J. E. Peralta, 
 F. Ogliaro, M. J. Bearpark, J. J. Heyd, E. N. Brothers, K. N. Kudin, 
 V. N. Staroverov, T. A. Keith, R. Kobayashi, J. Normand, 
 K. Raghavachari, A. P. Rendell, J. C. Burant, S. S. Iyengar, 
 J. Tomasi, M. Cossi, J. M. Millam, M. Klene, C. Adamo, R. Cammi, 
 J. W. Ochterski, R. L. Martin, K. Morokuma, O. Farkas, 
 J. B. Foresman, and D. J. Fox, Gaussian, Inc., Wallingford CT, 2019.
 
 ******************************************
 Gaussian 16:  ES64L-G16RevC.01  3-Jul-2019
                27-Dec-2022 
 ******************************************
 %chk=geometry.chk
 %nprocshared=1
 Will use up to    1 processors via shared memory.
 %mem=5GB
 ----------------------------------------------------------
 # BPL/sto-3g nosymm iop(2/12=3,3/33=1) guess=only pop=full
 ----------------------------------------------------------
 1/38=1,172=1/1;
 2/12=3,15=1,17=6,18=5,40=1/2;
 3/6=3,11=2,25=1,30=1,33=1,74=403,89=1/1,2;
 4//1;
 6/7=3,28=1/1;
 99/5=2/99;
 ---------
 MD Step 1
 ---------
 Symbolic Z-matrix:
 Charge =  0 Multiplicity = 1
 C                    -1.59611  -0.22883   0. 
 C                    -0.20095  -0.22883   0. 
 C                     0.49659   0.97892   0. 
 C                    -0.20107   2.18743  -0.0012 
 C                    -1.59589   2.18735  -0.00168 
 C                    -2.29349   0.97914  -0.00068 
 H                    -2.14587  -1.18115   0.00045 
 H                     0.34856  -1.18135   0.00132 
 H                     1.59627   0.979     0.00063 
 H                     0.34913   3.13957  -0.00126 
 H                    -2.14601   3.13963  -0.00263 
 H                    -3.3931    0.97933  -0.00086 
 C                    -1.59611  -0.22883   0. 
 C                    -0.20095  -0.22883   0. 
 C                     0.49659   0.97892   0. 
 C                    -0.20107   2.18743  -0.0012 
 C                    -1.59589   2.18735  -0.00168 
 C                    -2.29349   0.97914  -0.00068 
 H                    -2.14587  -1.18115   0.00045 
 H                     0.34856  -1.18135   0.00132 
 H                     1.59627   0.979     0.00063 
 H                     0.34913   3.13957  -0.00126 
 H                    -2.14601   3.13963  -0.00263 
 H                    -3.3931    0.97933  -0.00086 
 
                          Input orientation:                          
 ---------------------------------------------------------------------
 Center     Atomic      Atomic             Coordinates (Angstroms)
 Number     Number       Type             X           Y           Z
 ---------------------------------------------------------------------
      1          6           0       -1.596110   -0.228833    0.000000
      2          6           0       -0.200950   -0.228833    0.000000
      3          6           0        0.496588    0.978918    0.000000
      4          6           0       -0.201066    2.187427   -0.001199
      5          6           0       -1.595891    2.187349   -0.001678
      6          6           0       -2.293492    0.979143   -0.000682
      7          1           0       -2.145869   -1.181150    0.000450
      8          1           0        0.348558   -1.181346    0.001315
      9          1           0        1.596268    0.978998    0.000634
     10          1           0        0.349134    3.139570   -0.001258
     11          1           0       -2.146013    3.139630   -0.002631
     12          1           0       -3.393096    0.979326   -0.000862
     13          6           0       -1.596110   -0.228833    0.000000
     14          6           0       -0.200950   -0.228833    0.000000
     15          6           0        0.496588    0.978918    0.000000
     16          6           0       -0.201066    2.187427   -0.001199
     17          6           0       -1.595891    2.187349   -0.001678
     18          6           0       -2.293492    0.979143   -0.000682
     19          1           0       -2.145869   -1.181150    0.000450
     20          1           0        0.348558   -1.181346    0.001315
     21          1           0        1.596268    0.978998    0.000634
     22          1           0        0.349134    3.139570   -0.001258
     23          1           0       -2.146013    3.139630   -0.002631
     24          1           0       -3.393096    0.979326   -0.000862
 ---------------------------------------------------------------------
                    Distance matrix (angstroms):
                    1          2          3          4          5
     1  C    0.000000
     2  C    1.395160   0.000000
     3  C    2.416205   1.394712   0.000000
     4  C    2.790065   2.416260   1.395427   0.000000
     5  C    2.416183   2.789946   2.416356   1.394825   0.000000
     6  C    1.394829   2.416183   2.790080   2.416236   1.395138
     7  H    1.099610   2.165553   3.412986   3.889675   3.413102
     8  H    2.165414   1.099655   2.165330   3.413316   3.889601
     9  H    3.413229   2.165375   1.099680   2.165806   3.413209
    10  H    3.889745   3.413024   2.165678   1.099680   2.165606
    11  H    3.413055   3.889707   3.413506   2.165528   1.099761
    12  H    2.165365   3.413128   3.889684   3.412999   2.165471
    13  C    0.000000   1.395160   2.416205   2.790065   2.416183
    14  C    1.395160   0.000000   1.394712   2.416260   2.789946
    15  C    2.416205   1.394712   0.000000   1.395427   2.416356
    16  C    2.790065   2.416260   1.395427   0.000000   1.394825
    17  C    2.416183   2.789946   2.416356   1.394825   0.000000
    18  C    1.394829   2.416183   2.790080   2.416236   1.395138
    19  H    1.099610   2.165553   3.412986   3.889675   3.413102
    20  H    2.165414   1.099655   2.165330   3.413316   3.889601
    21  H    3.413229   2.165375   1.099680   2.165806   3.413209
    22  H    3.889745   3.413024   2.165678   1.099680   2.165606
    23  H    3.413055   3.889707   3.413506   2.165528   1.099761
    24  H    2.165365   3.413128   3.889684   3.412999   2.165471
                    6          7          8          9         10
     6  C    0.000000
     7  H    2.165331   0.000000
     8  H    3.412938   2.494427   0.000000
     9  H    3.889760   4.320860   2.494768   0.000000
    10  H    3.413344   4.989355   4.320917   2.494678   0.000000
    11  H    2.165516   4.320781   4.989362   4.321228   2.495147
    12  H    1.099604   2.494641   4.320704   4.989364   4.320988
    13  C    1.394829   1.099610   2.165414   3.413229   3.889745
    14  C    2.416183   2.165553   1.099655   2.165375   3.413024
    15  C    2.790080   3.412986   2.165330   1.099680   2.165678
    16  C    2.416236   3.889675   3.413316   2.165806   1.099680
    17  C    1.395138   3.413102   3.889601   3.413209   2.165606
    18  C    0.000000   2.165331   3.412938   3.889760   3.413344
    19  H    2.165331   0.000000   2.494427   4.320860   4.989355
    20  H    3.412938   2.494427   0.000000   2.494768   4.320917
    21  H    3.889760   4.320860   2.494768   0.000000   2.494678
    22  H    3.413344   4.989355   4.320917   2.494678   0.000000
    23  H    2.165516   4.320781   4.989362   4.321228   2.495147
    24  H    1.099604   2.494641   4.320704   4.989364   4.320988
                   11         12         13         14         15
    11  H    0.000000
    12  H    2.494420   0.000000
    13  C    3.413055   2.165365   0.000000
    14  C    3.889707   3.413128   1.395160   0.000000
    15  C    3.413506   3.889684   2.416205   1.394712   0.000000
    16  C    2.165528   3.412999   2.790065   2.416260   1.395427
    17  C    1.099761   2.165471   2.416183   2.789946   2.416356
    18  C    2.165516   1.099604   1.394829   2.416183   2.790080
    19  H    4.320781   2.494641   1.099610   2.165553   3.412986
    20  H    4.989362   4.320704   2.165414   1.099655   2.165330
    21  H    4.321228   4.989364   3.413229   2.165375   1.099680
    22  H    2.495147   4.320988   3.889745   3.413024   2.165678
    23  H    0.000000   2.494420   3.413055   3.889707   3.413506
    24  H    2.494420   0.000000   2.165365   3.413128   3.889684
                   16         17         18         19         20
    16  C    0.000000
    17  C    1.394825   0.000000
    18  C    2.416236   1.395138   0.000000
    19  H    3.889675   3.413102   2.165331   0.000000
    20  H    3.413316   3.889601   3.412938   2.494427   0.000000
    21  H    2.165806   3.413209   3.889760   4.320860   2.494768
    22  H    1.099680   2.165606   3.413344   4.989355   4.320917
    23  H    2.165528   1.099761   2.165516   4.320781   4.989362
    24  H    3.412999   2.165471   1.099604   2.494641   4.320704
                   21         22         23         24
    21  H    0.000000
    22  H    2.494678   0.000000
    23  H    4.321228   2.495147   0.000000
    24  H    4.989364   4.320988   2.494420   0.000000
 Symmetry turned off by external request.
 Stoichiometry    C12H12
 Framework group  C1[X(C12H12)]
 Deg. of freedom    66
 Full point group                 C1      NOp   1
 Rotational constants (GHZ):           2.8432825           2.8431320           1.4216037
 Standard basis: STO-3G (5D, 7F)
                         Coordinates in L301:                         
 ---------------------------------------------------------------------
 Center     Atomic      Atomic             Coordinates (Angstroms)
 Number     Number       Type             X           Y           Z
 ---------------------------------------------------------------------
      1          6           0       -1.596110   -0.228833    0.000000
      2          6           0       -0.200950   -0.228833    0.000000
      3          6           0        0.496588    0.978918    0.000000
      4          6           0       -0.201066    2.187427   -0.001199
      5          6           0       -1.595891    2.187349   -0.001678
      6          6           0       -2.293492    0.979143   -0.000682
      7          1           0       -2.145869   -1.181150    0.000450
      8          1           0        0.348558   -1.181346    0.001315
      9          1           0        1.596268    0.978998    0.000634
     10          1           0        0.349134    3.139570   -0.001258
     11          1           0       -2.146013    3.139630   -0.002631
     12          1           0       -3.393096    0.979326   -0.000862
     13          6           0       -1.596110   -0.228833    0.000000
     14          6           0       -0.200950   -0.228833    0.000000
     15          6           0        0.496588    0.978918    0.000000
     16          6           0       -0.201066    2.187427   -0.001199
     17          6           0       -1.595891    2.187349   -0.001678
     18          6           0       -2.293492    0.979143   -0.000682
     19          1           0       -2.145869   -1.181150    0.000450
     20          1           0        0.348558   -1.181346    0.001315
     21          1           0        1.596268    0.978998    0.000634
     22          1           0        0.349134    3.139570   -0.001258
     23          1           0       -2.146013    3.139630   -0.002631
     24          1           0       -3.393096    0.979326   -0.000862
 ---------------------------------------------------------------------
 FixB: optimizing general contractions.
 Ernie: Thresh=  0.10000D-02 Tol=  0.10000D-05 Strict=F.
 IA=     1 ShT= 0 ShC= 0 NL=   1 NS=   0.
 IA=     1 L=0 SC=0 ISt=    0 NBk=    0 NP=    0 IndPr=    0.
 IA=     1 ShT= 1 ShC= 0 NL=   1 NS=   0.
 IA=     1 L=1 SC=0 ISt=    0 NBk=    0 NP=    0 IndPr=    0.
 IA=     2 ShT= 0 ShC= 0 NL=   1 NS=   0.
 IA=     2 L=0 SC=0 ISt=    0 NBk=    0 NP=    0 IndPr=    0.
 IA=     2 ShT= 1 ShC= 0 NL=   1 NS=   0.
 IA=     2 L=1 SC=0 ISt=    0 NBk=    0 NP=    0 IndPr=    0.
 IA=     3 ShT= 0 ShC= 0 NL=   1 NS=   0.
 IA=     3 L=0 SC=0 ISt=    0 NBk=    0 NP=    0 IndPr=    0.
 IA=     3 ShT= 1 ShC= 0 NL=   1 NS=   0.
 IA=     3 L=1 SC=0 ISt=    0 NBk=    0 NP=    0 IndPr=    0.
 IA=     4 ShT= 0 ShC= 0 NL=   1 NS=   0.
 IA=     4 L=0 SC=0 ISt=    0 NBk=    0 NP=    0 IndPr=    0.
 IA=     4 ShT= 1 ShC= 0 NL=   1 NS=   0.
 IA=     4 L=1 SC=0 ISt=    0 NBk=    0 NP=    0 IndPr=    0.
 IA=     5 ShT= 0 ShC= 0 NL=   1 NS=   0.
 IA=     5 L=0 SC=0 ISt=    0 NBk=    0 NP=    0 IndPr=    0.
 IA=     5 ShT= 1 ShC= 0 NL=   1 NS=   0.
 IA=     5 L=1 SC=0 ISt=    0 NBk=    0 NP=    0 IndPr=    0.
 IA=     6 ShT= 0 ShC= 0 NL=   1 NS=   0.
 IA=     6 L=0 SC=0 ISt=    0 NBk=    0 NP=    0 IndPr=    0.
 IA=     6 ShT= 1 ShC= 0 NL=   1 NS=   0.
 IA=     6 L=1 SC=0 ISt=    0 NBk=    0 NP=    0 IndPr=    0.
 IA=     7 ShT= 0 ShC= 0 NL=   1 NS=   0.
 IA=     7 L=0 SC=0 ISt=    0 NBk=    0 NP=    0 IndPr=    0.
 IA=     8 ShT= 0 ShC= 0 NL=   1 NS=   0.
 IA=     8 L=0 SC=0 ISt=    0 NBk=    0 NP=    0 IndPr=    0.
 IA=     9 ShT= 0 ShC= 0 NL=   1 NS=   0.
 IA=     9 L=0 SC=0 ISt=    0 NBk=    0 NP=    0 IndPr=    0.
 IA=    10 ShT= 0 ShC= 0 NL=   1 NS=   0.
 IA=    10 L=0 SC=0 ISt=    0 NBk=    0 NP=    0 IndPr=    0.
 IA=    11 ShT= 0 ShC= 0 NL=   1 NS=   0.
 IA=    11 L=0 SC=0 ISt=    0 NBk=    0 NP=    0 IndPr=    0.
 IA=    12 ShT= 0 ShC= 0 NL=   1 NS=   0.
 IA=    12 L=0 SC=0 ISt=    0 NBk=    0 NP=    0 IndPr=    0.
 IA=    13 ShT= 0 ShC= 0 NL=   1 NS=   0.
 IA=    13 L=0 SC=0 ISt=    0 NBk=    0 NP=    0 IndPr=    0.
 IA=    13 ShT= 1 ShC= 0 NL=   1 NS=   0.
 IA=    13 L=1 SC=0 ISt=    0 NBk=    0 NP=    0 IndPr=    0.
 IA=    14 ShT= 0 ShC= 0 NL=   1 NS=   0.
 IA=    14 L=0 SC=0 ISt=    0 NBk=    0 NP=    0 IndPr=    0.
 IA=    14 ShT= 1 ShC= 0 NL=   1 NS=   0.
 IA=    14 L=1 SC=0 ISt=    0 NBk=    0 NP=    0 IndPr=    0.
 IA=    15 ShT= 0 ShC= 0 NL=   1 NS=   0.
 IA=    15 L=0 SC=0 ISt=    0 NBk=    0 NP=    0 IndPr=    0.
 IA=    15 ShT= 1 ShC= 0 NL=   1 NS=   0.
 IA=    15 L=1 SC=0 ISt=    0 NBk=    0 NP=    0 IndPr=    0.
 IA=    16 ShT= 0 ShC= 0 NL=   1 NS=   0.
 IA=    16 L=0 SC=0 ISt=    0 NBk=    0 NP=    0 IndPr=    0.
 IA=    16 ShT= 1 ShC= 0 NL=   1 NS=   0.
 IA=    16 L=1 SC=0 ISt=    0 NBk=    0 NP=    0 IndPr=    0.
 IA=    17 ShT= 0 ShC= 0 NL=   1 NS=   0.
 IA=    17 L=0 SC=0 ISt=    0 NBk=    0 NP=    0 IndPr=    0.
 IA=    17 ShT= 1 ShC= 0 NL=   1 NS=   0.
 IA=    17 L=1 SC=0 ISt=    0 NBk=    0 NP=    0 IndPr=    0.
 IA=    18 ShT= 0 ShC= 0 NL=   1 NS=   0.
 IA=    18 L=0 SC=0 ISt=    0 NBk=    0 NP=    0 IndPr=    0.
 IA=    18 ShT= 1 ShC= 0 NL=   1 NS=   0.
 IA=    18 L=1 SC=0 ISt=    0 NBk=    0 NP=    0 IndPr=    0.
 IA=    19 ShT= 0 ShC= 0 NL=   1 NS=   0.
 IA=    19 L=0 SC=0 ISt=    0 NBk=    0 NP=    0 IndPr=    0.
 IA=    20 ShT= 0 ShC= 0 NL=   1 NS=   0.
 IA=    20 L=0 SC=0 ISt=    0 NBk=    0 NP=    0 IndPr=    0.
 IA=    21 ShT= 0 ShC= 0 NL=   1 NS=   0.
 IA=    21 L=0 SC=0 ISt=    0 NBk=    0 NP=    0 IndPr=    0.
 IA=    22 ShT= 0 ShC= 0 NL=   1 NS=   0.
 IA=    22 L=0 SC=0 ISt=    0 NBk=    0 NP=    0 IndPr=    0.
 IA=    23 ShT= 0 ShC= 0 NL=   1 NS=   0.
 IA=    23 L=0 SC=0 ISt=    0 NBk=    0 NP=    0 IndPr=    0.
 IA=    24 ShT= 0 ShC= 0 NL=   1 NS=   0.
 IA=    24 L=0 SC=0 ISt=    0 NBk=    0 NP=    0 IndPr=    0.
 LdAtmC:  AtmChg=     6.000000     6.000000     6.000000     6.000000     6.000000
 LdAtmC:  AtmChg=     6.000000     1.000000     1.000000     1.000000     1.000000
 LdAtmC:  AtmChg=     1.000000     1.000000     6.000000     6.000000     6.000000
 LdAtmC:  AtmChg=     6.000000     6.000000     6.000000     1.000000     1.000000
 LdAtmC:  AtmChg=     1.000000     1.000000     1.000000     1.000000
 RepNN0:  I=    13 J=     1 R= 0.00D+00
 RepNN0:  I=    14 J=     2 R= 0.00D+00
 RepNN0:  I=    15 J=     3 R= 0.00D+00
 RepNN0:  I=    16 J=     4 R= 0.00D+00
 RepNN0:  I=    17 J=     5 R= 0.00D+00
 RepNN0:  I=    18 J=     6 R= 0.00D+00
 RepNN0:  I=    19 J=     7 R= 0.00D+00
 RepNN0:  I=    20 J=     8 R= 0.00D+00
 RepNN0:  I=    21 J=     9 R= 0.00D+00
 RepNN0:  I=    22 J=    10 R= 0.00D+00
 RepNN0:  I=    23 J=    11 R= 0.00D+00
 RepNN0:  I=    24 J=    12 R= 0.00D+00
 AtZEff=     -3.6000000     -3.6000000     -3.6000000     -3.6000000     -3.6000000
 AtZEff=     -3.6000000     -1.0000000     -1.0000000     -1.0000000     -1.0000000
 AtZEff=     -1.0000000     -1.0000000     -3.6000000     -3.6000000     -3.6000000
 AtZEff=     -3.6000000     -3.6000000     -3.6000000     -1.0000000     -1.0000000
 AtZEff=     -1.0000000     -1.0000000     -1.0000000     -1.0000000
    72 basis functions,   216 primitive gaussians,    72 cartesian basis functions
    42 alpha electrons       42 beta electrons
       nuclear repulsion energy                  Inf Hartrees.
 IS=     1 IAt=     1 ISR=     1 T=0 IP=      1 IndIP=      1 IndIPD=      0 C=  2.707814D+00  0.000000D+00                             NZ=T
 IS=     1 IAt=     1 ISR=     1 T=0 IP=      2 IndIP=      2 IndIPD=      1 C=  2.618880D+00  0.000000D+00                             NZ=T
 IS=     1 IAt=     1 ISR=     1 T=0 IP=      3 IndIP=      3 IndIPD=      2 C=  8.161906D-01  0.000000D+00                             NZ=T
 IS=     2 IAt=     1 ISR=     2 T=1 IP=      1 IndIP=      4 IndIPD=      0 C= -1.600172D-01  8.560445D-01                             NZ=T
 IS=     2 IAt=     1 ISR=     2 T=1 IP=      2 IndIP=      5 IndIPD=      1 C=  2.140359D-01  5.383038D-01                             NZ=T
 IS=     2 IAt=     1 ISR=     2 T=1 IP=      3 IndIP=      6 IndIPD=      2 C=  1.615361D-01  8.527636D-02                             NZ=T
 IS=     3 IAt=     2 ISR=     1 T=0 IP=      1 IndIP=      7 IndIPD=      0 C=  2.707814D+00  0.000000D+00                             NZ=T
 IS=     3 IAt=     2 ISR=     1 T=0 IP=      2 IndIP=      8 IndIPD=      1 C=  2.618880D+00  0.000000D+00                             NZ=T
 IS=     3 IAt=     2 ISR=     1 T=0 IP=      3 IndIP=      9 IndIPD=      2 C=  8.161906D-01  0.000000D+00                             NZ=T
 IS=     4 IAt=     2 ISR=     2 T=1 IP=      1 IndIP=     10 IndIPD=      0 C= -1.600172D-01  8.560445D-01                             NZ=T
 IS=     4 IAt=     2 ISR=     2 T=1 IP=      2 IndIP=     11 IndIPD=      1 C=  2.140359D-01  5.383038D-01                             NZ=T
 IS=     4 IAt=     2 ISR=     2 T=1 IP=      3 IndIP=     12 IndIPD=      2 C=  1.615361D-01  8.527636D-02                             NZ=T
 IS=     5 IAt=     3 ISR=     1 T=0 IP=      1 IndIP=     13 IndIPD=      0 C=  2.707814D+00  0.000000D+00                             NZ=T
 IS=     5 IAt=     3 ISR=     1 T=0 IP=      2 IndIP=     14 IndIPD=      1 C=  2.618880D+00  0.000000D+00                             NZ=T
 IS=     5 IAt=     3 ISR=     1 T=0 IP=      3 IndIP=     15 IndIPD=      2 C=  8.161906D-01  0.000000D+00                             NZ=T
 IS=     6 IAt=     3 ISR=     2 T=1 IP=      1 IndIP=     16 IndIPD=      0 C= -1.600172D-01  8.560445D-01                             NZ=T
 IS=     6 IAt=     3 ISR=     2 T=1 IP=      2 IndIP=     17 IndIPD=      1 C=  2.140359D-01  5.383038D-01                             NZ=T
 IS=     6 IAt=     3 ISR=     2 T=1 IP=      3 IndIP=     18 IndIPD=      2 C=  1.615361D-01  8.527636D-02                             NZ=T
 IS=     7 IAt=     4 ISR=     1 T=0 IP=      1 IndIP=     19 IndIPD=      0 C=  2.707814D+00  0.000000D+00                             NZ=T
 IS=     7 IAt=     4 ISR=     1 T=0 IP=      2 IndIP=     20 IndIPD=      1 C=  2.618880D+00  0.000000D+00                             NZ=T
 IS=     7 IAt=     4 ISR=     1 T=0 IP=      3 IndIP=     21 IndIPD=      2 C=  8.161906D-01  0.000000D+00                             NZ=T
 IS=     8 IAt=     4 ISR=     2 T=1 IP=      1 IndIP=     22 IndIPD=      0 C= -1.600172D-01  8.560445D-01                             NZ=T
 IS=     8 IAt=     4 ISR=     2 T=1 IP=      2 IndIP=     23 IndIPD=      1 C=  2.140359D-01  5.383038D-01                             NZ=T
 IS=     8 IAt=     4 ISR=     2 T=1 IP=      3 IndIP=     24 IndIPD=      2 C=  1.615361D-01  8.527636D-02                             NZ=T
 IS=     9 IAt=     5 ISR=     1 T=0 IP=      1 IndIP=     25 IndIPD=      0 C=  2.707814D+00  0.000000D+00                             NZ=T
 IS=     9 IAt=     5 ISR=     1 T=0 IP=      2 IndIP=     26 IndIPD=      1 C=  2.618880D+00  0.000000D+00                             NZ=T
 IS=     9 IAt=     5 ISR=     1 T=0 IP=      3 IndIP=     27 IndIPD=      2 C=  8.161906D-01  0.000000D+00                             NZ=T
 IS=    10 IAt=     5 ISR=     2 T=1 IP=      1 IndIP=     28 IndIPD=      0 C= -1.600172D-01  8.560445D-01                             NZ=T
 IS=    10 IAt=     5 ISR=     2 T=1 IP=      2 IndIP=     29 IndIPD=      1 C=  2.140359D-01  5.383038D-01                             NZ=T
 IS=    10 IAt=     5 ISR=     2 T=1 IP=      3 IndIP=     30 IndIPD=      2 C=  1.615361D-01  8.527636D-02                             NZ=T
 IS=    11 IAt=     6 ISR=     1 T=0 IP=      1 IndIP=     31 IndIPD=      0 C=  2.707814D+00  0.000000D+00                             NZ=T
 IS=    11 IAt=     6 ISR=     1 T=0 IP=      2 IndIP=     32 IndIPD=      1 C=  2.618880D+00  0.000000D+00                             NZ=T
 IS=    11 IAt=     6 ISR=     1 T=0 IP=      3 IndIP=     33 IndIPD=      2 C=  8.161906D-01  0.000000D+00                             NZ=T
 IS=    12 IAt=     6 ISR=     2 T=1 IP=      1 IndIP=     34 IndIPD=      0 C= -1.600172D-01  8.560445D-01                             NZ=T
 IS=    12 IAt=     6 ISR=     2 T=1 IP=      2 IndIP=     35 IndIPD=      1 C=  2.140359D-01  5.383038D-01                             NZ=T
 IS=    12 IAt=     6 ISR=     2 T=1 IP=      3 IndIP=     36 IndIPD=      2 C=  1.615361D-01  8.527636D-02                             NZ=T
 IS=    13 IAt=     7 ISR=     1 T=0 IP=      1 IndIP=     37 IndIPD=      0 C=  2.769344D-01  0.000000D+00                             NZ=T
 IS=    13 IAt=     7 ISR=     1 T=0 IP=      2 IndIP=     38 IndIPD=      1 C=  2.678389D-01  0.000000D+00                             NZ=T
 IS=    13 IAt=     7 ISR=     1 T=0 IP=      3 IndIP=     39 IndIPD=      2 C=  8.347367D-02  0.000000D+00                             NZ=T
 IS=    14 IAt=     8 ISR=     1 T=0 IP=      1 IndIP=     40 IndIPD=      0 C=  2.769344D-01  0.000000D+00                             NZ=T
 IS=    14 IAt=     8 ISR=     1 T=0 IP=      2 IndIP=     41 IndIPD=      1 C=  2.678389D-01  0.000000D+00                             NZ=T
 IS=    14 IAt=     8 ISR=     1 T=0 IP=      3 IndIP=     42 IndIPD=      2 C=  8.347367D-02  0.000000D+00                             NZ=T
 IS=    15 IAt=     9 ISR=     1 T=0 IP=      1 IndIP=     43 IndIPD=      0 C=  2.769344D-01  0.000000D+00                             NZ=T
 IS=    15 IAt=     9 ISR=     1 T=0 IP=      2 IndIP=     44 IndIPD=      1 C=  2.678389D-01  0.000000D+00                             NZ=T
 IS=    15 IAt=     9 ISR=     1 T=0 IP=      3 IndIP=     45 IndIPD=      2 C=  8.347367D-02  0.000000D+00                             NZ=T
 IS=    16 IAt=    10 ISR=     1 T=0 IP=      1 IndIP=     46 IndIPD=      0 C=  2.769344D-01  0.000000D+00                             NZ=T
 IS=    16 IAt=    10 ISR=     1 T=0 IP=      2 IndIP=     47 IndIPD=      1 C=  2.678389D-01  0.000000D+00                             NZ=T
 IS=    16 IAt=    10 ISR=     1 T=0 IP=      3 IndIP=     48 IndIPD=      2 C=  8.347367D-02  0.000000D+00                             NZ=T
 IS=    17 IAt=    11 ISR=     1 T=0 IP=      1 IndIP=     49 IndIPD=      0 C=  2.769344D-01  0.000000D+00                             NZ=T
 IS=    17 IAt=    11 ISR=     1 T=0 IP=      2 IndIP=     50 IndIPD=      1 C=  2.678389D-01  0.000000D+00                             NZ=T
 IS=    17 IAt=    11 ISR=     1 T=0 IP=      3 IndIP=     51 IndIPD=      2 C=  8.347367D-02  0.000000D+00                             NZ=T
 IS=    18 IAt=    12 ISR=     1 T=0 IP=      1 IndIP=     52 IndIPD=      0 C=  2.769344D-01  0.000000D+00                             NZ=T
 IS=    18 IAt=    12 ISR=     1 T=0 IP=      2 IndIP=     53 IndIPD=      1 C=  2.678389D-01  0.000000D+00                             NZ=T
 IS=    18 IAt=    12 ISR=     1 T=0 IP=      3 IndIP=     54 IndIPD=      2 C=  8.347367D-02  0.000000D+00                             NZ=T
 IS=    19 IAt=    13 ISR=     1 T=0 IP=      1 IndIP=     55 IndIPD=      0 C=  2.707814D+00  0.000000D+00                             NZ=T
 IS=    19 IAt=    13 ISR=     1 T=0 IP=      2 IndIP=     56 IndIPD=      1 C=  2.618880D+00  0.000000D+00                             NZ=T
 IS=    19 IAt=    13 ISR=     1 T=0 IP=      3 IndIP=     57 IndIPD=      2 C=  8.161906D-01  0.000000D+00                             NZ=T
 IS=    20 IAt=    13 ISR=     2 T=1 IP=      1 IndIP=     58 IndIPD=      0 C= -1.600172D-01  8.560445D-01                             NZ=T
 IS=    20 IAt=    13 ISR=     2 T=1 IP=      2 IndIP=     59 IndIPD=      1 C=  2.140359D-01  5.383038D-01                             NZ=T
 IS=    20 IAt=    13 ISR=     2 T=1 IP=      3 IndIP=     60 IndIPD=      2 C=  1.615361D-01  8.527636D-02                             NZ=T
 IS=    21 IAt=    14 ISR=     1 T=0 IP=      1 IndIP=     61 IndIPD=      0 C=  2.707814D+00  0.000000D+00                             NZ=T
 IS=    21 IAt=    14 ISR=     1 T=0 IP=      2 IndIP=     62 IndIPD=      1 C=  2.618880D+00  0.000000D+00                             NZ=T
 IS=    21 IAt=    14 ISR=     1 T=0 IP=      3 IndIP=     63 IndIPD=      2 C=  8.161906D-01  0.000000D+00                             NZ=T
 IS=    22 IAt=    14 ISR=     2 T=1 IP=      1 IndIP=     64 IndIPD=      0 C= -1.600172D-01  8.560445D-01                             NZ=T
 IS=    22 IAt=    14 ISR=     2 T=1 IP=      2 IndIP=     65 IndIPD=      1 C=  2.140359D-01  5.383038D-01                             NZ=T
 IS=    22 IAt=    14 ISR=     2 T=1 IP=      3 IndIP=     66 IndIPD=      2 C=  1.615361D-01  8.527636D-02                             NZ=T
 IS=    23 IAt=    15 ISR=     1 T=0 IP=      1 IndIP=     67 IndIPD=      0 C=  2.707814D+00  0.000000D+00                             NZ=T
 IS=    23 IAt=    15 ISR=     1 T=0 IP=      2 IndIP=     68 IndIPD=      1 C=  2.618880D+00  0.000000D+00                             NZ=T
 IS=    23 IAt=    15 ISR=     1 T=0 IP=      3 IndIP=     69 IndIPD=      2 C=  8.161906D-01  0.000000D+00                             NZ=T
 IS=    24 IAt=    15 ISR=     2 T=1 IP=      1 IndIP=     70 IndIPD=      0 C= -1.600172D-01  8.560445D-01                             NZ=T
 IS=    24 IAt=    15 ISR=     2 T=1 IP=      2 IndIP=     71 IndIPD=      1 C=  2.140359D-01  5.383038D-01                             NZ=T
 IS=    24 IAt=    15 ISR=     2 T=1 IP=      3 IndIP=     72 IndIPD=      2 C=  1.615361D-01  8.527636D-02                             NZ=T
 IS=    25 IAt=    16 ISR=     1 T=0 IP=      1 IndIP=     73 IndIPD=      0 C=  2.707814D+00  0.000000D+00                             NZ=T
 IS=    25 IAt=    16 ISR=     1 T=0 IP=      2 IndIP=     74 IndIPD=      1 C=  2.618880D+00  0.000000D+00                             NZ=T
 IS=    25 IAt=    16 ISR=     1 T=0 IP=      3 IndIP=     75 IndIPD=      2 C=  8.161906D-01  0.000000D+00                             NZ=T
 IS=    26 IAt=    16 ISR=     2 T=1 IP=      1 IndIP=     76 IndIPD=      0 C= -1.600172D-01  8.560445D-01                             NZ=T
 IS=    26 IAt=    16 ISR=     2 T=1 IP=      2 IndIP=     77 IndIPD=      1 C=  2.140359D-01  5.383038D-01                             NZ=T
 IS=    26 IAt=    16 ISR=     2 T=1 IP=      3 IndIP=     78 IndIPD=      2 C=  1.615361D-01  8.527636D-02                             NZ=T
 IS=    27 IAt=    17 ISR=     1 T=0 IP=      1 IndIP=     79 IndIPD=      0 C=  2.707814D+00  0.000000D+00                             NZ=T
 IS=    27 IAt=    17 ISR=     1 T=0 IP=      2 IndIP=     80 IndIPD=      1 C=  2.618880D+00  0.000000D+00                             NZ=T
 IS=    27 IAt=    17 ISR=     1 T=0 IP=      3 IndIP=     81 IndIPD=      2 C=  8.161906D-01  0.000000D+00                             NZ=T
 IS=    28 IAt=    17 ISR=     2 T=1 IP=      1 IndIP=     82 IndIPD=      0 C= -1.600172D-01  8.560445D-01                             NZ=T
 IS=    28 IAt=    17 ISR=     2 T=1 IP=      2 IndIP=     83 IndIPD=      1 C=  2.140359D-01  5.383038D-01                             NZ=T
 IS=    28 IAt=    17 ISR=     2 T=1 IP=      3 IndIP=     84 IndIPD=      2 C=  1.615361D-01  8.527636D-02                             NZ=T
 IS=    29 IAt=    18 ISR=     1 T=0 IP=      1 IndIP=     85 IndIPD=      0 C=  2.707814D+00  0.000000D+00                             NZ=T
 IS=    29 IAt=    18 ISR=     1 T=0 IP=      2 IndIP=     86 IndIPD=      1 C=  2.618880D+00  0.000000D+00                             NZ=T
 IS=    29 IAt=    18 ISR=     1 T=0 IP=      3 IndIP=     87 IndIPD=      2 C=  8.161906D-01  0.000000D+00                             NZ=T
 IS=    30 IAt=    18 ISR=     2 T=1 IP=      1 IndIP=     88 IndIPD=      0 C= -1.600172D-01  8.560445D-01                             NZ=T
 IS=    30 IAt=    18 ISR=     2 T=1 IP=      2 IndIP=     89 IndIPD=      1 C=  2.140359D-01  5.383038D-01                             NZ=T
 IS=    30 IAt=    18 ISR=     2 T=1 IP=      3 IndIP=     90 IndIPD=      2 C=  1.615361D-01  8.527636D-02                             NZ=T
 IS=    31 IAt=    19 ISR=     1 T=0 IP=      1 IndIP=     91 IndIPD=      0 C=  2.769344D-01  0.000000D+00                             NZ=T
 IS=    31 IAt=    19 ISR=     1 T=0 IP=      2 IndIP=     92 IndIPD=      1 C=  2.678389D-01  0.000000D+00                             NZ=T
 IS=    31 IAt=    19 ISR=     1 T=0 IP=      3 IndIP=     93 IndIPD=      2 C=  8.347367D-02  0.000000D+00                             NZ=T
 IS=    32 IAt=    20 ISR=     1 T=0 IP=      1 IndIP=     94 IndIPD=      0 C=  2.769344D-01  0.000000D+00                             NZ=T
 IS=    32 IAt=    20 ISR=     1 T=0 IP=      2 IndIP=     95 IndIPD=      1 C=  2.678389D-01  0.000000D+00                             NZ=T
 IS=    32 IAt=    20 ISR=     1 T=0 IP=      3 IndIP=     96 IndIPD=      2 C=  8.347367D-02  0.000000D+00                             NZ=T
 IS=    33 IAt=    21 ISR=     1 T=0 IP=      1 IndIP=     97 IndIPD=      0 C=  2.769344D-01  0.000000D+00                             NZ=T
 IS=    33 IAt=    21 ISR=     1 T=0 IP=      2 IndIP=     98 IndIPD=      1 C=  2.678389D-01  0.000000D+00                             NZ=T
 IS=    33 IAt=    21 ISR=     1 T=0 IP=      3 IndIP=     99 IndIPD=      2 C=  8.347367D-02  0.000000D+00                             NZ=T
 IS=    34 IAt=    22 ISR=     1 T=0 IP=      1 IndIP=    100 IndIPD=      0 C=  2.769344D-01  0.000000D+00                             NZ=T
 IS=    34 IAt=    22 ISR=     1 T=0 IP=      2 IndIP=    101 IndIPD=      1 C=  2.678389D-01  0.000000D+00                             NZ=T
 IS=    34 IAt=    22 ISR=     1 T=0 IP=      3 IndIP=    102 IndIPD=      2 C=  8.347367D-02  0.000000D+00                             NZ=T
 IS=    35 IAt=    23 ISR=     1 T=0 IP=      1 IndIP=    103 IndIPD=      0 C=  2.769344D-01  0.000000D+00                             NZ=T
 IS=    35 IAt=    23 ISR=     1 T=0 IP=      2 IndIP=    104 IndIPD=      1 C=  2.678389D-01  0.000000D+00                             NZ=T
 IS=    35 IAt=    23 ISR=     1 T=0 IP=      3 IndIP=    105 IndIPD=      2 C=  8.347367D-02  0.000000D+00                             NZ=T
 IS=    36 IAt=    24 ISR=     1 T=0 IP=      1 IndIP=    106 IndIPD=      0 C=  2.769344D-01  0.000000D+00                             NZ=T
 IS=    36 IAt=    24 ISR=     1 T=0 IP=      2 IndIP=    107 IndIPD=      1 C=  2.678389D-01  0.000000D+00                             NZ=T
 IS=    36 IAt=    24 ISR=     1 T=0 IP=      3 IndIP=    108 IndIPD=      2 C=  8.347367D-02  0.000000D+00                             NZ=T
 IExCor=  403 DFT=T Ex=B Corr=P81 ExCW=0 ScaHFX=  0.000000
 ScaDFX=  1.000000  1.000000  1.000000  1.000000 ScalE2=  1.000000  1.000000
 IRadAn=      5 IRanWt=     -1 IRanGd=            0 ICorTp=0 IEmpDi=  4
 NAtoms=   24 NActive=   24 NUniq=   24 SFac= 1.00D+00 NAtFMM=   60 NAOKFM=F Big=F
 Integral buffers will be    131072 words long.
 Raffenetti 2 integral format.
 Two-electron integral symmetry is turned off.
 NPDir=0 NMtPBC=     1 NCelOv=     1 NCel=       1 NClECP=     1 NCelD=      1
         NCelK=      1 NCelE2=     1 NClLst=     1 CellRange=     0.0.
 One-electron integrals computed using PRISM.
 Entering OneElI...
 Calculate overlap and kinetic energy integrals
    NBasis =  72  MinDer = 0  MaxDer = 0
 Requested accuracy = 0.1000D-12
 PrmmSu-InSpLW:  IPartL=    0 NPrtUS=    1 NPrtUL=    1 DoSpLW=F IThBeg=    0 IThEnd=    0 NThAct=    1.
 PrSmSu:  IncTry=   512 NBBP=            654 NTPThr=   100 NPartT=    1 Incr=           6 LDynOK=F GPUOK=F.
 PrsmSu:  NPrtUS=   1 ThrOK=F IAlg=2 LenDen=           0 ISkipM=0 DoSpLW=F IThBeg=    0 IThEnd=    0.
 Prism:   IPart=     0 DynPar=F LinDyn=F Incr=           6.
 PRISM was handed   670991679 working-precision words and   654 shell-pairs
 IPart=  0 NShTot=         654 NBatch=           8 AvBLen=        81.8
 PrSmSu:  NxtVal=              7.
 *** Overlap *** 
                1             2             3             4             5 
      1  0.100000D+01
      2  0.248362D+00  0.100000D+01
      3  0.000000D+00  0.000000D+00  0.100000D+01
      4  0.000000D+00  0.000000D+00  0.000000D+00  0.100000D+01
      5  0.000000D+00  0.000000D+00  0.000000D+00  0.000000D+00  0.100000D+01
      6  0.000000D+00  0.379483D-01  0.629143D-01  0.000000D+00  0.000000D+00
      7  0.379483D-01  0.367071D+00  0.389644D+00  0.000000D+00  0.000000D+00
      8 -0.629143D-01 -0.389644D+00 -0.328091D+00  0.000000D+00  0.000000D+00
      9  0.000000D+00  0.000000D+00  0.000000D+00  0.214903D+00  0.000000D+00
     10  0.000000D+00  0.000000D+00  0.000000D+00  0.000000D+00  0.214903D+00
     11  0.000000D+00  0.184258D-02  0.367417D-02  0.212046D-02  0.000000D+00
     12  0.184258D-02  0.612758D-01  0.780740D-01  0.450586D-01  0.000000D+00
     13 -0.367417D-02 -0.780740D-01 -0.841755D-01 -0.633899D-01  0.000000D+00
     14 -0.212046D-02 -0.450586D-01 -0.633899D-01 -0.109223D-01  0.000000D+00
     15  0.000000D+00  0.000000D+00  0.000000D+00  0.000000D+00  0.256617D-01
     16  0.000000D+00  0.422135D-03  0.560031D-03  0.969991D-03  0.000000D+00
     17  0.422135D-03  0.263745D-01  0.211832D-01  0.366901D-01 -0.182064D-04
     18 -0.560031D-03 -0.211832D-01 -0.816502D-02 -0.317800D-01  0.157699D-04
     19 -0.969991D-03 -0.366901D-01 -0.317800D-01 -0.448605D-01  0.273140D-04
     20  0.000000D+00  0.182064D-04  0.157699D-04  0.273140D-04  0.101834D-01
     21  0.000000D+00  0.184273D-02  0.000000D+00  0.424247D-02 -0.294633D-05
     22  0.184273D-02  0.612788D-01  0.817083D-05  0.901471D-01 -0.626058D-04
     23  0.000000D+00 -0.817083D-05  0.256631D-01 -0.132720D-04  0.000000D+00
     24 -0.424247D-02 -0.901471D-01 -0.132720D-04 -0.120764D+00  0.101691D-03
     25  0.294633D-05  0.626058D-04  0.000000D+00  0.101691D-03  0.256630D-01
     26  0.000000D+00  0.379784D-01 -0.314805D-01  0.545292D-01 -0.307861D-04
     27  0.379784D-01  0.367238D+00 -0.194873D+00  0.337550D+00 -0.190574D-03
     28  0.314805D-01  0.194873D+00  0.792613D-01  0.235176D+00 -0.132776D-03
     29 -0.545292D-01 -0.337550D+00  0.235176D+00 -0.192331D+00  0.229989D-03
     30  0.307861D-04  0.190574D-03 -0.132776D-03  0.229989D-03  0.215032D+00
     31  0.608938D-01  0.485238D+00 -0.231958D+00 -0.401808D+00  0.189867D-03
     32  0.529064D-02  0.955903D-01  0.111001D+00 -0.543691D-01  0.750597D-04
     33  0.918754D-04  0.644416D-02  0.999309D-02  0.378087D-02  0.198461D-05
     34  0.121576D-04  0.184525D-02  0.166064D-02  0.287557D-02 -0.107394D-05
     35  0.919390D-04  0.644696D-02 -0.172214D-02  0.105491D-01 -0.823956D-05
     36  0.529129D-02  0.955987D-01 -0.102581D+00  0.689681D-01 -0.492075D-04
     37  0.100000D+01  0.248362D+00  0.000000D+00  0.000000D+00  0.000000D+00
     38  0.248362D+00  0.100000D+01  0.000000D+00  0.000000D+00  0.000000D+00
     39  0.000000D+00  0.000000D+00  0.100000D+01  0.000000D+00  0.000000D+00
     40  0.000000D+00  0.000000D+00  0.000000D+00  0.100000D+01  0.000000D+00
     41  0.000000D+00  0.000000D+00  0.000000D+00  0.000000D+00  0.100000D+01
     42  0.000000D+00  0.379483D-01  0.629143D-01  0.000000D+00  0.000000D+00
     43  0.379483D-01  0.367071D+00  0.389644D+00  0.000000D+00  0.000000D+00
     44 -0.629143D-01 -0.389644D+00 -0.328091D+00  0.000000D+00  0.000000D+00
     45  0.000000D+00  0.000000D+00  0.000000D+00  0.214903D+00  0.000000D+00
     46  0.000000D+00  0.000000D+00  0.000000D+00  0.000000D+00  0.214903D+00
     47  0.000000D+00  0.184258D-02  0.367417D-02  0.212046D-02  0.000000D+00
     48  0.184258D-02  0.612758D-01  0.780740D-01  0.450586D-01  0.000000D+00
     49 -0.367417D-02 -0.780740D-01 -0.841755D-01 -0.633899D-01  0.000000D+00
     50 -0.212046D-02 -0.450586D-01 -0.633899D-01 -0.109223D-01  0.000000D+00
     51  0.000000D+00  0.000000D+00  0.000000D+00  0.000000D+00  0.256617D-01
     52  0.000000D+00  0.422135D-03  0.560031D-03  0.969991D-03  0.000000D+00
     53  0.422135D-03  0.263745D-01  0.211832D-01  0.366901D-01 -0.182064D-04
     54 -0.560031D-03 -0.211832D-01 -0.816502D-02 -0.317800D-01  0.157699D-04
     55 -0.969991D-03 -0.366901D-01 -0.317800D-01 -0.448605D-01  0.273140D-04
     56  0.000000D+00  0.182064D-04  0.157699D-04  0.273140D-04  0.101834D-01
     57  0.000000D+00  0.184273D-02  0.000000D+00  0.424247D-02 -0.294633D-05
     58  0.184273D-02  0.612788D-01  0.817083D-05  0.901471D-01 -0.626058D-04
     59  0.000000D+00 -0.817083D-05  0.256631D-01 -0.132720D-04  0.000000D+00
     60 -0.424247D-02 -0.901471D-01 -0.132720D-04 -0.120764D+00  0.101691D-03
     61  0.294633D-05  0.626058D-04  0.000000D+00  0.101691D-03  0.256630D-01
     62  0.000000D+00  0.379784D-01 -0.314805D-01  0.545292D-01 -0.307861D-04
     63  0.379784D-01  0.367238D+00 -0.194873D+00  0.337550D+00 -0.190574D-03
     64  0.314805D-01  0.194873D+00  0.792613D-01  0.235176D+00 -0.132776D-03
     65 -0.545292D-01 -0.337550D+00  0.235176D+00 -0.192331D+00  0.229989D-03
     66  0.307861D-04  0.190574D-03 -0.132776D-03  0.229989D-03  0.215032D+00
     67  0.608938D-01  0.485238D+00 -0.231958D+00 -0.401808D+00  0.189867D-03
     68  0.529064D-02  0.955903D-01  0.111001D+00 -0.543691D-01  0.750597D-04
     69  0.918754D-04  0.644416D-02  0.999309D-02  0.378087D-02  0.198461D-05
     70  0.121576D-04  0.184525D-02  0.166064D-02  0.287557D-02 -0.107394D-05
     71  0.919390D-04  0.644696D-02 -0.172214D-02  0.105491D-01 -0.823956D-05
     72  0.529129D-02  0.955987D-01 -0.102581D+00  0.689681D-01 -0.492075D-04
                6             7             8             9            10 
      6  0.100000D+01
      7  0.248362D+00  0.100000D+01
      8  0.000000D+00  0.000000D+00  0.100000D+01
      9  0.000000D+00  0.000000D+00  0.000000D+00  0.100000D+01
     10  0.000000D+00  0.000000D+00  0.000000D+00  0.000000D+00  0.100000D+01
     11  0.000000D+00  0.379891D-01  0.314989D-01  0.545388D-01  0.000000D+00
     12  0.379891D-01  0.367296D+00  0.194954D+00  0.337552D+00  0.000000D+00
     13 -0.314989D-01 -0.194954D+00  0.792110D-01 -0.235246D+00  0.000000D+00
     14 -0.545388D-01 -0.337552D+00 -0.235246D+00 -0.192239D+00  0.000000D+00
     15  0.000000D+00  0.000000D+00  0.000000D+00  0.000000D+00  0.215078D+00
     16  0.000000D+00  0.184220D-02  0.000000D+00  0.424140D-02 -0.210467D-05
     17  0.184220D-02  0.612687D-01 -0.432716D-05  0.901340D-01 -0.447264D-04
     18  0.000000D+00  0.432716D-05  0.256584D-01  0.702874D-05  0.000000D+00
     19 -0.424140D-02 -0.901340D-01  0.702874D-05 -0.120749D+00  0.726505D-04
     20  0.210467D-05  0.447264D-04  0.000000D+00  0.726505D-04  0.256583D-01
     21  0.000000D+00  0.422347D-03 -0.560271D-03  0.970447D-03  0.000000D+00
     22  0.422347D-03  0.263820D-01 -0.211880D-01  0.366999D-01 -0.254875D-04
     23  0.560271D-03  0.211880D-01 -0.816509D-02  0.317868D-01 -0.220755D-04
     24 -0.970447D-03 -0.366999D-01  0.317868D-01 -0.448716D-01  0.382370D-04
     25  0.000000D+00  0.254875D-04 -0.220755D-04  0.382370D-04  0.101865D-01
     26  0.000000D+00  0.184273D-02 -0.367420D-02  0.212103D-02 -0.119749D-05
     27  0.184273D-02  0.612788D-01 -0.780722D-01  0.450693D-01 -0.254452D-04
     28  0.367420D-02  0.780722D-01 -0.841640D-01  0.634006D-01 -0.357948D-04
     29 -0.212103D-02 -0.450693D-01  0.634006D-01 -0.109366D-01  0.206635D-04
     30  0.119749D-05  0.254452D-04 -0.357948D-04  0.206635D-04  0.256631D-01
     31  0.528877D-02  0.955660D-01 -0.110984D+00 -0.543424D-01  0.256785D-04
     32  0.608874D-01  0.485213D+00  0.231835D+00 -0.401861D+00  0.554793D-03
     33  0.529116D-02  0.955971D-01  0.102593D+00  0.689480D-01  0.361913D-04
     34  0.919502D-04  0.644745D-02  0.172285D-02  0.105498D-01 -0.394002D-05
     35  0.121597D-04  0.184544D-02 -0.166066D-02  0.287593D-02 -0.224630D-05
     36  0.919122D-04  0.644578D-02 -0.999499D-02  0.378289D-02 -0.269903D-05
     37  0.000000D+00  0.379483D-01 -0.629143D-01  0.000000D+00  0.000000D+00
     38  0.379483D-01  0.367071D+00 -0.389644D+00  0.000000D+00  0.000000D+00
     39  0.629143D-01  0.389644D+00 -0.328091D+00  0.000000D+00  0.000000D+00
     40  0.000000D+00  0.000000D+00  0.000000D+00  0.214903D+00  0.000000D+00
     41  0.000000D+00  0.000000D+00  0.000000D+00  0.000000D+00  0.214903D+00
     42  0.100000D+01  0.248362D+00  0.000000D+00  0.000000D+00  0.000000D+00
     43  0.248362D+00  0.100000D+01  0.000000D+00  0.000000D+00  0.000000D+00
     44  0.000000D+00  0.000000D+00  0.100000D+01  0.000000D+00  0.000000D+00
     45  0.000000D+00  0.000000D+00  0.000000D+00  0.100000D+01  0.000000D+00
     46  0.000000D+00  0.000000D+00  0.000000D+00  0.000000D+00  0.100000D+01
     47  0.000000D+00  0.379891D-01  0.314989D-01  0.545388D-01  0.000000D+00
     48  0.379891D-01  0.367296D+00  0.194954D+00  0.337552D+00  0.000000D+00
     49 -0.314989D-01 -0.194954D+00  0.792110D-01 -0.235246D+00  0.000000D+00
     50 -0.545388D-01 -0.337552D+00 -0.235246D+00 -0.192239D+00  0.000000D+00
     51  0.000000D+00  0.000000D+00  0.000000D+00  0.000000D+00  0.215078D+00
     52  0.000000D+00  0.184220D-02  0.000000D+00  0.424140D-02 -0.210467D-05
     53  0.184220D-02  0.612687D-01 -0.432716D-05  0.901340D-01 -0.447264D-04
     54  0.000000D+00  0.432716D-05  0.256584D-01  0.702874D-05  0.000000D+00
     55 -0.424140D-02 -0.901340D-01  0.702874D-05 -0.120749D+00  0.726505D-04
     56  0.210467D-05  0.447264D-04  0.000000D+00  0.726505D-04  0.256583D-01
     57  0.000000D+00  0.422347D-03 -0.560271D-03  0.970447D-03  0.000000D+00
     58  0.422347D-03  0.263820D-01 -0.211880D-01  0.366999D-01 -0.254875D-04
     59  0.560271D-03  0.211880D-01 -0.816509D-02  0.317868D-01 -0.220755D-04
     60 -0.970447D-03 -0.366999D-01  0.317868D-01 -0.448716D-01  0.382370D-04
     61  0.000000D+00  0.254875D-04 -0.220755D-04  0.382370D-04  0.101865D-01
     62  0.000000D+00  0.184273D-02 -0.367420D-02  0.212103D-02 -0.119749D-05
     63  0.184273D-02  0.612788D-01 -0.780722D-01  0.450693D-01 -0.254452D-04
     64  0.367420D-02  0.780722D-01 -0.841640D-01  0.634006D-01 -0.357948D-04
     65 -0.212103D-02 -0.450693D-01  0.634006D-01 -0.109366D-01  0.206635D-04
     66  0.119749D-05  0.254452D-04 -0.357948D-04  0.206635D-04  0.256631D-01
     67  0.528877D-02  0.955660D-01 -0.110984D+00 -0.543424D-01  0.256785D-04
     68  0.608874D-01  0.485213D+00  0.231835D+00 -0.401861D+00  0.554793D-03
     69  0.529116D-02  0.955971D-01  0.102593D+00  0.689480D-01  0.361913D-04
     70  0.919502D-04  0.644745D-02  0.172285D-02  0.105498D-01 -0.394002D-05
     71  0.121597D-04  0.184544D-02 -0.166066D-02  0.287593D-02 -0.224630D-05
     72  0.919122D-04  0.644578D-02 -0.999499D-02  0.378289D-02 -0.269903D-05
               11            12            13            14            15 
     11  0.100000D+01
     12  0.248362D+00  0.100000D+01
     13  0.000000D+00  0.000000D+00  0.100000D+01
     14  0.000000D+00  0.000000D+00  0.000000D+00  0.100000D+01
     15  0.000000D+00  0.000000D+00  0.000000D+00  0.000000D+00  0.100000D+01
     16  0.000000D+00  0.379240D-01 -0.314345D-01  0.544522D-01 -0.540238D-04
     17  0.379240D-01  0.366937D+00 -0.194757D+00  0.337367D+00 -0.334713D-03
     18  0.314345D-01  0.194757D+00  0.791020D-01  0.235061D+00 -0.233212D-03
     19 -0.544522D-01 -0.337367D+00  0.235061D+00 -0.192385D+00  0.403980D-03
     20  0.540238D-04  0.334713D-03 -0.233212D-03  0.403980D-03  0.214799D+00
     21  0.000000D+00  0.184156D-02 -0.367175D-02  0.212048D-02 -0.294445D-05
     22  0.184156D-02  0.612562D-01 -0.780389D-01  0.450684D-01 -0.625809D-04
     23  0.367175D-02  0.780389D-01 -0.841198D-01  0.633948D-01 -0.880286D-04
     24 -0.212048D-02 -0.450684D-01  0.633948D-01 -0.109587D-01  0.508375D-04
     25  0.294445D-05  0.625809D-04 -0.880286D-04  0.508375D-04  0.256525D-01
     26  0.000000D+00  0.422108D-03 -0.111999D-02  0.000000D+00  0.000000D+00
     27  0.422108D-03  0.263736D-01 -0.423647D-01  0.341641D-05 -0.103555D-04
     28  0.111999D-02  0.423647D-01 -0.632071D-01  0.591838D-05 -0.179393D-04
     29  0.000000D+00 -0.341641D-05  0.591838D-05  0.101830D-01  0.000000D+00
     30  0.000000D+00  0.103555D-04 -0.179393D-04  0.000000D+00  0.101830D-01
     31  0.919641D-04  0.644807D-02 -0.827693D-02 -0.676595D-02  0.140953D-05
     32  0.529177D-02  0.956049D-01 -0.845094D-02 -0.123328D+00  0.750725D-04
     33  0.608838D-01  0.485198D+00  0.463931D+00  0.337502D-04  0.267471D-03
     34  0.528708D-02  0.955441D-01 -0.841204D-02  0.123262D+00 -0.717671D-04
     35  0.917745D-04  0.643971D-02 -0.826614D-02  0.675878D-02 -0.822985D-05
     36  0.121610D-04  0.184556D-02 -0.332116D-02  0.000000D+00  0.000000D+00
     37  0.000000D+00  0.184258D-02 -0.367417D-02 -0.212046D-02  0.000000D+00
     38  0.184258D-02  0.612758D-01 -0.780740D-01 -0.450586D-01  0.000000D+00
     39  0.367417D-02  0.780740D-01 -0.841755D-01 -0.633899D-01  0.000000D+00
     40  0.212046D-02  0.450586D-01 -0.633899D-01 -0.109223D-01  0.000000D+00
     41  0.000000D+00  0.000000D+00  0.000000D+00  0.000000D+00  0.256617D-01
     42  0.000000D+00  0.379891D-01 -0.314989D-01 -0.545388D-01  0.000000D+00
     43  0.379891D-01  0.367296D+00 -0.194954D+00 -0.337552D+00  0.000000D+00
     44  0.314989D-01  0.194954D+00  0.792110D-01 -0.235246D+00  0.000000D+00
     45  0.545388D-01  0.337552D+00 -0.235246D+00 -0.192239D+00  0.000000D+00
     46  0.000000D+00  0.000000D+00  0.000000D+00  0.000000D+00  0.215078D+00
     47  0.100000D+01  0.248362D+00  0.000000D+00  0.000000D+00  0.000000D+00
     48  0.248362D+00  0.100000D+01  0.000000D+00  0.000000D+00  0.000000D+00
     49  0.000000D+00  0.000000D+00  0.100000D+01  0.000000D+00  0.000000D+00
     50  0.000000D+00  0.000000D+00  0.000000D+00  0.100000D+01  0.000000D+00
     51  0.000000D+00  0.000000D+00  0.000000D+00  0.000000D+00  0.100000D+01
     52  0.000000D+00  0.379240D-01 -0.314345D-01  0.544522D-01 -0.540238D-04
     53  0.379240D-01  0.366937D+00 -0.194757D+00  0.337367D+00 -0.334713D-03
     54  0.314345D-01  0.194757D+00  0.791020D-01  0.235061D+00 -0.233212D-03
     55 -0.544522D-01 -0.337367D+00  0.235061D+00 -0.192385D+00  0.403980D-03
     56  0.540238D-04  0.334713D-03 -0.233212D-03  0.403980D-03  0.214799D+00
     57  0.000000D+00  0.184156D-02 -0.367175D-02  0.212048D-02 -0.294445D-05
     58  0.184156D-02  0.612562D-01 -0.780389D-01  0.450684D-01 -0.625809D-04
     59  0.367175D-02  0.780389D-01 -0.841198D-01  0.633948D-01 -0.880286D-04
     60 -0.212048D-02 -0.450684D-01  0.633948D-01 -0.109587D-01  0.508375D-04
     61  0.294445D-05  0.625809D-04 -0.880286D-04  0.508375D-04  0.256525D-01
     62  0.000000D+00  0.422108D-03 -0.111999D-02  0.000000D+00  0.000000D+00
     63  0.422108D-03  0.263736D-01 -0.423647D-01  0.341641D-05 -0.103555D-04
     64  0.111999D-02  0.423647D-01 -0.632071D-01  0.591838D-05 -0.179393D-04
     65  0.000000D+00 -0.341641D-05  0.591838D-05  0.101830D-01  0.000000D+00
     66  0.000000D+00  0.103555D-04 -0.179393D-04  0.000000D+00  0.101830D-01
     67  0.919641D-04  0.644807D-02 -0.827693D-02 -0.676595D-02  0.140953D-05
     68  0.529177D-02  0.956049D-01 -0.845094D-02 -0.123328D+00  0.750725D-04
     69  0.608838D-01  0.485198D+00  0.463931D+00  0.337502D-04  0.267471D-03
     70  0.528708D-02  0.955441D-01 -0.841204D-02  0.123262D+00 -0.717671D-04
     71  0.917745D-04  0.643971D-02 -0.826614D-02  0.675878D-02 -0.822985D-05
     72  0.121610D-04  0.184556D-02 -0.332116D-02  0.000000D+00  0.000000D+00
               16            17            18            19            20 
     16  0.100000D+01
     17  0.248362D+00  0.100000D+01
     18  0.000000D+00  0.000000D+00  0.100000D+01
     19  0.000000D+00  0.000000D+00  0.000000D+00  0.100000D+01
     20  0.000000D+00  0.000000D+00  0.000000D+00  0.000000D+00  0.100000D+01
     21  0.000000D+00  0.379788D-01 -0.629645D-01 -0.352104D-05 -0.216228D-04
     22  0.379788D-01  0.367240D+00 -0.389765D+00 -0.217960D-04 -0.133850D-03
     23  0.629645D-01  0.389765D+00 -0.328102D+00 -0.303727D-04 -0.186519D-03
     24  0.352104D-05  0.217960D-04 -0.303727D-04  0.215034D+00  0.000000D+00
     25  0.216228D-04  0.133850D-03 -0.186519D-03  0.000000D+00  0.215033D+00
     26  0.000000D+00  0.184237D-02 -0.367328D-02 -0.212116D-02  0.000000D+00
     27  0.184237D-02  0.612718D-01 -0.780583D-01 -0.450752D-01  0.192868D-04
     28  0.367328D-02  0.780583D-01 -0.841402D-01 -0.634047D-01  0.271296D-04
     29  0.212116D-02  0.450752D-01 -0.634047D-01 -0.109536D-01  0.156661D-04
     30  0.000000D+00 -0.192868D-04  0.271296D-04  0.156661D-04  0.256598D-01
     31  0.121615D-04  0.184560D-02 -0.166059D-02 -0.287629D-02  0.140801D-05
     32  0.918438D-04  0.644277D-02  0.172010D-02 -0.105429D-01  0.786778D-05
     33  0.528536D-02  0.955218D-01  0.102508D+00 -0.689211D-01  0.104543D-03
     34  0.608839D-01  0.485198D+00  0.232117D+00  0.401688D+00 -0.248908D-04
     35  0.528910D-02  0.955703D-01 -0.110991D+00  0.543386D-01 -0.817188D-04
     36  0.919593D-04  0.644785D-02 -0.999800D-02 -0.378399D-02  0.105554D-05
     37  0.000000D+00  0.422135D-03 -0.560031D-03 -0.969991D-03  0.000000D+00
     38  0.422135D-03  0.263745D-01 -0.211832D-01 -0.366901D-01  0.182064D-04
     39  0.560031D-03  0.211832D-01 -0.816502D-02 -0.317800D-01  0.157699D-04
     40  0.969991D-03  0.366901D-01 -0.317800D-01 -0.448605D-01  0.273140D-04
     41  0.000000D+00 -0.182064D-04  0.157699D-04  0.273140D-04  0.101834D-01
     42  0.000000D+00  0.184220D-02  0.000000D+00 -0.424140D-02  0.210467D-05
     43  0.184220D-02  0.612687D-01  0.432716D-05 -0.901340D-01  0.447264D-04
     44  0.000000D+00 -0.432716D-05  0.256584D-01  0.702874D-05  0.000000D+00
     45  0.424140D-02  0.901340D-01  0.702874D-05 -0.120749D+00  0.726505D-04
     46 -0.210467D-05 -0.447264D-04  0.000000D+00  0.726505D-04  0.256583D-01
     47  0.000000D+00  0.379240D-01  0.314345D-01 -0.544522D-01  0.540238D-04
     48  0.379240D-01  0.366937D+00  0.194757D+00 -0.337367D+00  0.334713D-03
     49 -0.314345D-01 -0.194757D+00  0.791020D-01  0.235061D+00 -0.233212D-03
     50  0.544522D-01  0.337367D+00  0.235061D+00 -0.192385D+00  0.403980D-03
     51 -0.540238D-04 -0.334713D-03 -0.233212D-03  0.403980D-03  0.214799D+00
     52  0.100000D+01  0.248362D+00  0.000000D+00  0.000000D+00  0.000000D+00
     53  0.248362D+00  0.100000D+01  0.000000D+00  0.000000D+00  0.000000D+00
     54  0.000000D+00  0.000000D+00  0.100000D+01  0.000000D+00  0.000000D+00
     55  0.000000D+00  0.000000D+00  0.000000D+00  0.100000D+01  0.000000D+00
     56  0.000000D+00  0.000000D+00  0.000000D+00  0.000000D+00  0.100000D+01
     57  0.000000D+00  0.379788D-01 -0.629645D-01 -0.352104D-05 -0.216228D-04
     58  0.379788D-01  0.367240D+00 -0.389765D+00 -0.217960D-04 -0.133850D-03
     59  0.629645D-01  0.389765D+00 -0.328102D+00 -0.303727D-04 -0.186519D-03
     60  0.352104D-05  0.217960D-04 -0.303727D-04  0.215034D+00  0.000000D+00
     61  0.216228D-04  0.133850D-03 -0.186519D-03  0.000000D+00  0.215033D+00
     62  0.000000D+00  0.184237D-02 -0.367328D-02 -0.212116D-02  0.000000D+00
     63  0.184237D-02  0.612718D-01 -0.780583D-01 -0.450752D-01  0.192868D-04
     64  0.367328D-02  0.780583D-01 -0.841402D-01 -0.634047D-01  0.271296D-04
     65  0.212116D-02  0.450752D-01 -0.634047D-01 -0.109536D-01  0.156661D-04
     66  0.000000D+00 -0.192868D-04  0.271296D-04  0.156661D-04  0.256598D-01
     67  0.121615D-04  0.184560D-02 -0.166059D-02 -0.287629D-02  0.140801D-05
     68  0.918438D-04  0.644277D-02  0.172010D-02 -0.105429D-01  0.786778D-05
     69  0.528536D-02  0.955218D-01  0.102508D+00 -0.689211D-01  0.104543D-03
     70  0.608839D-01  0.485198D+00  0.232117D+00  0.401688D+00 -0.248908D-04
     71  0.528910D-02  0.955703D-01 -0.110991D+00  0.543386D-01 -0.817188D-04
     72  0.919593D-04  0.644785D-02 -0.999800D-02 -0.378399D-02  0.105554D-05
               21            22            23            24            25 
     21  0.100000D+01
     22  0.248362D+00  0.100000D+01
     23  0.000000D+00  0.000000D+00  0.100000D+01
     24  0.000000D+00  0.000000D+00  0.000000D+00  0.100000D+01
     25  0.000000D+00  0.000000D+00  0.000000D+00  0.000000D+00  0.100000D+01
     26  0.000000D+00  0.379503D-01 -0.314602D-01 -0.544874D-01  0.449174D-04
     27  0.379503D-01  0.367082D+00 -0.194835D+00 -0.337443D+00  0.278175D-03
     28  0.314602D-01  0.194835D+00  0.791484D-01 -0.235134D+00  0.193836D-03
     29  0.544874D-01  0.337443D+00 -0.235134D+00 -0.192328D+00  0.335713D-03
     30 -0.449174D-04 -0.278175D-03  0.193836D-03  0.335713D-03  0.214911D+00
     31  0.919217D-04  0.644620D-02 -0.172217D-02 -0.105479D-01  0.666348D-05
     32  0.121655D-04  0.184598D-02  0.166064D-02 -0.287700D-02  0.255614D-05
     33  0.918827D-04  0.644448D-02  0.999292D-02 -0.378269D-02  0.723762D-05
     34  0.528806D-02  0.955568D-01  0.110977D+00  0.543310D-01  0.239640D-04
     35  0.608724D-01  0.485152D+00 -0.232053D+00  0.401693D+00 -0.401996D-03
     36  0.528986D-02  0.955802D-01 -0.102572D+00 -0.689453D-01  0.465714D-04
     37  0.000000D+00  0.184273D-02  0.000000D+00 -0.424247D-02  0.294633D-05
     38  0.184273D-02  0.612788D-01 -0.817083D-05 -0.901471D-01  0.626058D-04
     39  0.000000D+00  0.817083D-05  0.256631D-01 -0.132720D-04  0.000000D+00
     40  0.424247D-02  0.901471D-01 -0.132720D-04 -0.120764D+00  0.101691D-03
     41 -0.294633D-05 -0.626058D-04  0.000000D+00  0.101691D-03  0.256630D-01
     42  0.000000D+00  0.422347D-03  0.560271D-03 -0.970447D-03  0.000000D+00
     43  0.422347D-03  0.263820D-01  0.211880D-01 -0.366999D-01  0.254875D-04
     44 -0.560271D-03 -0.211880D-01 -0.816509D-02  0.317868D-01 -0.220755D-04
     45  0.970447D-03  0.366999D-01  0.317868D-01 -0.448716D-01  0.382370D-04
     46  0.000000D+00 -0.254875D-04 -0.220755D-04  0.382370D-04  0.101865D-01
     47  0.000000D+00  0.184156D-02  0.367175D-02 -0.212048D-02  0.294445D-05
     48  0.184156D-02  0.612562D-01  0.780389D-01 -0.450684D-01  0.625809D-04
     49 -0.367175D-02 -0.780389D-01 -0.841198D-01  0.633948D-01 -0.880286D-04
     50  0.212048D-02  0.450684D-01  0.633948D-01 -0.109587D-01  0.508375D-04
     51 -0.294445D-05 -0.625809D-04 -0.880286D-04  0.508375D-04  0.256525D-01
     52  0.000000D+00  0.379788D-01  0.629645D-01  0.352104D-05  0.216228D-04
     53  0.379788D-01  0.367240D+00  0.389765D+00  0.217960D-04  0.133850D-03
     54 -0.629645D-01 -0.389765D+00 -0.328102D+00 -0.303727D-04 -0.186519D-03
     55 -0.352104D-05 -0.217960D-04 -0.303727D-04  0.215034D+00  0.000000D+00
     56 -0.216228D-04 -0.133850D-03 -0.186519D-03  0.000000D+00  0.215033D+00
     57  0.100000D+01  0.248362D+00  0.000000D+00  0.000000D+00  0.000000D+00
     58  0.248362D+00  0.100000D+01  0.000000D+00  0.000000D+00  0.000000D+00
     59  0.000000D+00  0.000000D+00  0.100000D+01  0.000000D+00  0.000000D+00
     60  0.000000D+00  0.000000D+00  0.000000D+00  0.100000D+01  0.000000D+00
     61  0.000000D+00  0.000000D+00  0.000000D+00  0.000000D+00  0.100000D+01
     62  0.000000D+00  0.379503D-01 -0.314602D-01 -0.544874D-01  0.449174D-04
     63  0.379503D-01  0.367082D+00 -0.194835D+00 -0.337443D+00  0.278175D-03
     64  0.314602D-01  0.194835D+00  0.791484D-01 -0.235134D+00  0.193836D-03
     65  0.544874D-01  0.337443D+00 -0.235134D+00 -0.192328D+00  0.335713D-03
     66 -0.449174D-04 -0.278175D-03  0.193836D-03  0.335713D-03  0.214911D+00
     67  0.919217D-04  0.644620D-02 -0.172217D-02 -0.105479D-01  0.666348D-05
     68  0.121655D-04  0.184598D-02  0.166064D-02 -0.287700D-02  0.255614D-05
     69  0.918827D-04  0.644448D-02  0.999292D-02 -0.378269D-02  0.723762D-05
     70  0.528806D-02  0.955568D-01  0.110977D+00  0.543310D-01  0.239640D-04
     71  0.608724D-01  0.485152D+00 -0.232053D+00  0.401693D+00 -0.401996D-03
     72  0.528986D-02  0.955802D-01 -0.102572D+00 -0.689453D-01  0.465714D-04
               26            27            28            29            30 
     26  0.100000D+01
     27  0.248362D+00  0.100000D+01
     28  0.000000D+00  0.000000D+00  0.100000D+01
     29  0.000000D+00  0.000000D+00  0.000000D+00  0.100000D+01
     30  0.000000D+00  0.000000D+00  0.000000D+00  0.000000D+00  0.100000D+01
     31  0.529175D-02  0.956047D-01  0.842769D-02 -0.123330D+00  0.646250D-04
     32  0.919816D-04  0.644884D-02  0.827669D-02 -0.676812D-02  0.625596D-05
     33  0.121568D-04  0.184517D-02  0.332051D-02  0.000000D+00  0.112341D-05
     34  0.918335D-04  0.644231D-02  0.826972D-02  0.676075D-02 -0.180251D-05
     35  0.528927D-02  0.955725D-01  0.841628D-02  0.123294D+00 -0.111225D-03
     36  0.608947D-01  0.485242D+00 -0.463957D+00  0.772134D-04 -0.759476D-04
     37  0.000000D+00  0.379784D-01  0.314805D-01 -0.545292D-01  0.307861D-04
     38  0.379784D-01  0.367238D+00  0.194873D+00 -0.337550D+00  0.190574D-03
     39 -0.314805D-01 -0.194873D+00  0.792613D-01  0.235176D+00 -0.132776D-03
     40  0.545292D-01  0.337550D+00  0.235176D+00 -0.192331D+00  0.229989D-03
     41 -0.307861D-04 -0.190574D-03 -0.132776D-03  0.229989D-03  0.215032D+00
     42  0.000000D+00  0.184273D-02  0.367420D-02 -0.212103D-02  0.119749D-05
     43  0.184273D-02  0.612788D-01  0.780722D-01 -0.450693D-01  0.254452D-04
     44 -0.367420D-02 -0.780722D-01 -0.841640D-01  0.634006D-01 -0.357948D-04
     45  0.212103D-02  0.450693D-01  0.634006D-01 -0.109366D-01  0.206635D-04
     46 -0.119749D-05 -0.254452D-04 -0.357948D-04  0.206635D-04  0.256631D-01
     47  0.000000D+00  0.422108D-03  0.111999D-02  0.000000D+00  0.000000D+00
     48  0.422108D-03  0.263736D-01  0.423647D-01 -0.341641D-05  0.103555D-04
     49 -0.111999D-02 -0.423647D-01 -0.632071D-01  0.591838D-05 -0.179393D-04
     50  0.000000D+00  0.341641D-05  0.591838D-05  0.101830D-01  0.000000D+00
     51  0.000000D+00 -0.103555D-04 -0.179393D-04  0.000000D+00  0.101830D-01
     52  0.000000D+00  0.184237D-02  0.367328D-02  0.212116D-02  0.000000D+00
     53  0.184237D-02  0.612718D-01  0.780583D-01  0.450752D-01 -0.192868D-04
     54 -0.367328D-02 -0.780583D-01 -0.841402D-01 -0.634047D-01  0.271296D-04
     55 -0.212116D-02 -0.450752D-01 -0.634047D-01 -0.109536D-01  0.156661D-04
     56  0.000000D+00  0.192868D-04  0.271296D-04  0.156661D-04  0.256598D-01
     57  0.000000D+00  0.379503D-01  0.314602D-01  0.544874D-01 -0.449174D-04
     58  0.379503D-01  0.367082D+00  0.194835D+00  0.337443D+00 -0.278175D-03
     59 -0.314602D-01 -0.194835D+00  0.791484D-01 -0.235134D+00  0.193836D-03
     60 -0.544874D-01 -0.337443D+00 -0.235134D+00 -0.192328D+00  0.335713D-03
     61  0.449174D-04  0.278175D-03  0.193836D-03  0.335713D-03  0.214911D+00
     62  0.100000D+01  0.248362D+00  0.000000D+00  0.000000D+00  0.000000D+00
     63  0.248362D+00  0.100000D+01  0.000000D+00  0.000000D+00  0.000000D+00
     64  0.000000D+00  0.000000D+00  0.100000D+01  0.000000D+00  0.000000D+00
     65  0.000000D+00  0.000000D+00  0.000000D+00  0.100000D+01  0.000000D+00
     66  0.000000D+00  0.000000D+00  0.000000D+00  0.000000D+00  0.100000D+01
     67  0.529175D-02  0.956047D-01  0.842769D-02 -0.123330D+00  0.646250D-04
     68  0.919816D-04  0.644884D-02  0.827669D-02 -0.676812D-02  0.625596D-05
     69  0.121568D-04  0.184517D-02  0.332051D-02  0.000000D+00  0.112341D-05
     70  0.918335D-04  0.644231D-02  0.826972D-02  0.676075D-02 -0.180251D-05
     71  0.528927D-02  0.955725D-01  0.841628D-02  0.123294D+00 -0.111225D-03
     72  0.608947D-01  0.485242D+00 -0.463957D+00  0.772134D-04 -0.759476D-04
               31            32            33            34            35 
     31  0.100000D+01
     32  0.500386D-01  0.100000D+01
     33  0.761151D-03  0.500066D-01  0.100000D+01
     34  0.111395D-03  0.761033D-03  0.500151D-01  0.100000D+01
     35  0.761313D-03  0.111393D-03  0.760393D-03  0.499711D-01  0.100000D+01
     36  0.500185D-01  0.761472D-03  0.111392D-03  0.760886D-03  0.500392D-01
     37  0.608938D-01  0.529064D-02  0.918754D-04  0.121576D-04  0.919390D-04
     38  0.485238D+00  0.955903D-01  0.644416D-02  0.184525D-02  0.644696D-02
     39 -0.231958D+00  0.111001D+00  0.999309D-02  0.166064D-02 -0.172214D-02
     40 -0.401808D+00 -0.543691D-01  0.378087D-02  0.287557D-02  0.105491D-01
     41  0.189867D-03  0.750597D-04  0.198461D-05 -0.107394D-05 -0.823956D-05
     42  0.528877D-02  0.608874D-01  0.529116D-02  0.919502D-04  0.121597D-04
     43  0.955660D-01  0.485213D+00  0.955971D-01  0.644745D-02  0.184544D-02
     44 -0.110984D+00  0.231835D+00  0.102593D+00  0.172285D-02 -0.166066D-02
     45 -0.543424D-01 -0.401861D+00  0.689480D-01  0.105498D-01  0.287593D-02
     46  0.256785D-04  0.554793D-03  0.361913D-04 -0.394002D-05 -0.224630D-05
     47  0.919641D-04  0.529177D-02  0.608838D-01  0.528708D-02  0.917745D-04
     48  0.644807D-02  0.956049D-01  0.485198D+00  0.955441D-01  0.643971D-02
     49 -0.827693D-02 -0.845094D-02  0.463931D+00 -0.841204D-02 -0.826614D-02
     50 -0.676595D-02 -0.123328D+00  0.337502D-04  0.123262D+00  0.675878D-02
     51  0.140953D-05  0.750725D-04  0.267471D-03 -0.717671D-04 -0.822985D-05
     52  0.121615D-04  0.918438D-04  0.528536D-02  0.608839D-01  0.528910D-02
     53  0.184560D-02  0.644277D-02  0.955218D-01  0.485198D+00  0.955703D-01
     54 -0.166059D-02  0.172010D-02  0.102508D+00  0.232117D+00 -0.110991D+00
     55 -0.287629D-02 -0.105429D-01 -0.689211D-01  0.401688D+00  0.543386D-01
     56  0.140801D-05  0.786778D-05  0.104543D-03 -0.248908D-04 -0.817188D-04
     57  0.919217D-04  0.121655D-04  0.918827D-04  0.528806D-02  0.608724D-01
     58  0.644620D-02  0.184598D-02  0.644448D-02  0.955568D-01  0.485152D+00
     59 -0.172217D-02  0.166064D-02  0.999292D-02  0.110977D+00 -0.232053D+00
     60 -0.105479D-01 -0.287700D-02 -0.378269D-02  0.543310D-01  0.401693D+00
     61  0.666348D-05  0.255614D-05  0.723762D-05  0.239640D-04 -0.401996D-03
     62  0.529175D-02  0.919816D-04  0.121568D-04  0.918335D-04  0.528927D-02
     63  0.956047D-01  0.644884D-02  0.184517D-02  0.644231D-02  0.955725D-01
     64  0.842769D-02  0.827669D-02  0.332051D-02  0.826972D-02  0.841628D-02
     65 -0.123330D+00 -0.676812D-02  0.000000D+00  0.676075D-02  0.123294D+00
     66  0.646250D-04  0.625596D-05  0.112341D-05 -0.180251D-05 -0.111225D-03
     67  0.100000D+01  0.500386D-01  0.761151D-03  0.111395D-03  0.761313D-03
     68  0.500386D-01  0.100000D+01  0.500066D-01  0.761033D-03  0.111393D-03
     69  0.761151D-03  0.500066D-01  0.100000D+01  0.500151D-01  0.760393D-03
     70  0.111395D-03  0.761033D-03  0.500151D-01  0.100000D+01  0.499711D-01
     71  0.761313D-03  0.111393D-03  0.760393D-03  0.499711D-01  0.100000D+01
     72  0.500185D-01  0.761472D-03  0.111392D-03  0.760886D-03  0.500392D-01
               36            37            38            39            40 
     36  0.100000D+01
     37  0.529129D-02  0.100000D+01
     38  0.955987D-01  0.248362D+00  0.100000D+01
     39 -0.102581D+00  0.000000D+00  0.000000D+00  0.100000D+01
     40  0.689681D-01  0.000000D+00  0.000000D+00  0.000000D+00  0.100000D+01
     41 -0.492075D-04  0.000000D+00  0.000000D+00  0.000000D+00  0.000000D+00
     42  0.919122D-04  0.000000D+00  0.379483D-01  0.629143D-01  0.000000D+00
     43  0.644578D-02  0.379483D-01  0.367071D+00  0.389644D+00  0.000000D+00
     44 -0.999499D-02 -0.629143D-01 -0.389644D+00 -0.328091D+00  0.000000D+00
     45  0.378289D-02  0.000000D+00  0.000000D+00  0.000000D+00  0.214903D+00
     46 -0.269903D-05  0.000000D+00  0.000000D+00  0.000000D+00  0.000000D+00
     47  0.121610D-04  0.000000D+00  0.184258D-02  0.367417D-02  0.212046D-02
     48  0.184556D-02  0.184258D-02  0.612758D-01  0.780740D-01  0.450586D-01
     49 -0.332116D-02 -0.367417D-02 -0.780740D-01 -0.841755D-01 -0.633899D-01
     50  0.000000D+00 -0.212046D-02 -0.450586D-01 -0.633899D-01 -0.109223D-01
     51  0.000000D+00  0.000000D+00  0.000000D+00  0.000000D+00  0.000000D+00
     52  0.919593D-04  0.000000D+00  0.422135D-03  0.560031D-03  0.969991D-03
     53  0.644785D-02  0.422135D-03  0.263745D-01  0.211832D-01  0.366901D-01
     54 -0.999800D-02 -0.560031D-03 -0.211832D-01 -0.816502D-02 -0.317800D-01
     55 -0.378399D-02 -0.969991D-03 -0.366901D-01 -0.317800D-01 -0.448605D-01
     56  0.105554D-05  0.000000D+00  0.182064D-04  0.157699D-04  0.273140D-04
     57  0.528986D-02  0.000000D+00  0.184273D-02  0.000000D+00  0.424247D-02
     58  0.955802D-01  0.184273D-02  0.612788D-01  0.817083D-05  0.901471D-01
     59 -0.102572D+00  0.000000D+00 -0.817083D-05  0.256631D-01 -0.132720D-04
     60 -0.689453D-01 -0.424247D-02 -0.901471D-01 -0.132720D-04 -0.120764D+00
     61  0.465714D-04  0.294633D-05  0.626058D-04  0.000000D+00  0.101691D-03
     62  0.608947D-01  0.000000D+00  0.379784D-01 -0.314805D-01  0.545292D-01
     63  0.485242D+00  0.379784D-01  0.367238D+00 -0.194873D+00  0.337550D+00
     64 -0.463957D+00  0.314805D-01  0.194873D+00  0.792613D-01  0.235176D+00
     65  0.772134D-04 -0.545292D-01 -0.337550D+00  0.235176D+00 -0.192331D+00
     66 -0.759476D-04  0.307861D-04  0.190574D-03 -0.132776D-03  0.229989D-03
     67  0.500185D-01  0.608938D-01  0.485238D+00 -0.231958D+00 -0.401808D+00
     68  0.761472D-03  0.529064D-02  0.955903D-01  0.111001D+00 -0.543691D-01
     69  0.111392D-03  0.918754D-04  0.644416D-02  0.999309D-02  0.378087D-02
     70  0.760886D-03  0.121576D-04  0.184525D-02  0.166064D-02  0.287557D-02
     71  0.500392D-01  0.919390D-04  0.644696D-02 -0.172214D-02  0.105491D-01
     72  0.100000D+01  0.529129D-02  0.955987D-01 -0.102581D+00  0.689681D-01
               41            42            43            44            45 
     41  0.100000D+01
     42  0.000000D+00  0.100000D+01
     43  0.000000D+00  0.248362D+00  0.100000D+01
     44  0.000000D+00  0.000000D+00  0.000000D+00  0.100000D+01
     45  0.000000D+00  0.000000D+00  0.000000D+00  0.000000D+00  0.100000D+01
     46  0.214903D+00  0.000000D+00  0.000000D+00  0.000000D+00  0.000000D+00
     47  0.000000D+00  0.000000D+00  0.379891D-01  0.314989D-01  0.545388D-01
     48  0.000000D+00  0.379891D-01  0.367296D+00  0.194954D+00  0.337552D+00
     49  0.000000D+00 -0.314989D-01 -0.194954D+00  0.792110D-01 -0.235246D+00
     50  0.000000D+00 -0.545388D-01 -0.337552D+00 -0.235246D+00 -0.192239D+00
     51  0.256617D-01  0.000000D+00  0.000000D+00  0.000000D+00  0.000000D+00
     52  0.000000D+00  0.000000D+00  0.184220D-02  0.000000D+00  0.424140D-02
     53 -0.182064D-04  0.184220D-02  0.612687D-01 -0.432716D-05  0.901340D-01
     54  0.157699D-04  0.000000D+00  0.432716D-05  0.256584D-01  0.702874D-05
     55  0.273140D-04 -0.424140D-02 -0.901340D-01  0.702874D-05 -0.120749D+00
     56  0.101834D-01  0.210467D-05  0.447264D-04  0.000000D+00  0.726505D-04
     57 -0.294633D-05  0.000000D+00  0.422347D-03 -0.560271D-03  0.970447D-03
     58 -0.626058D-04  0.422347D-03  0.263820D-01 -0.211880D-01  0.366999D-01
     59  0.000000D+00  0.560271D-03  0.211880D-01 -0.816509D-02  0.317868D-01
     60  0.101691D-03 -0.970447D-03 -0.366999D-01  0.317868D-01 -0.448716D-01
     61  0.256630D-01  0.000000D+00  0.254875D-04 -0.220755D-04  0.382370D-04
     62 -0.307861D-04  0.000000D+00  0.184273D-02 -0.367420D-02  0.212103D-02
     63 -0.190574D-03  0.184273D-02  0.612788D-01 -0.780722D-01  0.450693D-01
     64 -0.132776D-03  0.367420D-02  0.780722D-01 -0.841640D-01  0.634006D-01
     65  0.229989D-03 -0.212103D-02 -0.450693D-01  0.634006D-01 -0.109366D-01
     66  0.215032D+00  0.119749D-05  0.254452D-04 -0.357948D-04  0.206635D-04
     67  0.189867D-03  0.528877D-02  0.955660D-01 -0.110984D+00 -0.543424D-01
     68  0.750597D-04  0.608874D-01  0.485213D+00  0.231835D+00 -0.401861D+00
     69  0.198461D-05  0.529116D-02  0.955971D-01  0.102593D+00  0.689480D-01
     70 -0.107394D-05  0.919502D-04  0.644745D-02  0.172285D-02  0.105498D-01
     71 -0.823956D-05  0.121597D-04  0.184544D-02 -0.166066D-02  0.287593D-02
     72 -0.492075D-04  0.919122D-04  0.644578D-02 -0.999499D-02  0.378289D-02
               46            47            48            49            50 
     46  0.100000D+01
     47  0.000000D+00  0.100000D+01
     48  0.000000D+00  0.248362D+00  0.100000D+01
     49  0.000000D+00  0.000000D+00  0.000000D+00  0.100000D+01
     50  0.000000D+00  0.000000D+00  0.000000D+00  0.000000D+00  0.100000D+01
     51  0.215078D+00  0.000000D+00  0.000000D+00  0.000000D+00  0.000000D+00
     52 -0.210467D-05  0.000000D+00  0.379240D-01 -0.314345D-01  0.544522D-01
     53 -0.447264D-04  0.379240D-01  0.366937D+00 -0.194757D+00  0.337367D+00
     54  0.000000D+00  0.314345D-01  0.194757D+00  0.791020D-01  0.235061D+00
     55  0.726505D-04 -0.544522D-01 -0.337367D+00  0.235061D+00 -0.192385D+00
     56  0.256583D-01  0.540238D-04  0.334713D-03 -0.233212D-03  0.403980D-03
     57  0.000000D+00  0.000000D+00  0.184156D-02 -0.367175D-02  0.212048D-02
     58 -0.254875D-04  0.184156D-02  0.612562D-01 -0.780389D-01  0.450684D-01
     59 -0.220755D-04  0.367175D-02  0.780389D-01 -0.841198D-01  0.633948D-01
     60  0.382370D-04 -0.212048D-02 -0.450684D-01  0.633948D-01 -0.109587D-01
     61  0.101865D-01  0.294445D-05  0.625809D-04 -0.880286D-04  0.508375D-04
     62 -0.119749D-05  0.000000D+00  0.422108D-03 -0.111999D-02  0.000000D+00
     63 -0.254452D-04  0.422108D-03  0.263736D-01 -0.423647D-01  0.341641D-05
     64 -0.357948D-04  0.111999D-02  0.423647D-01 -0.632071D-01  0.591838D-05
     65  0.206635D-04  0.000000D+00 -0.341641D-05  0.591838D-05  0.101830D-01
     66  0.256631D-01  0.000000D+00  0.103555D-04 -0.179393D-04  0.000000D+00
     67  0.256785D-04  0.919641D-04  0.644807D-02 -0.827693D-02 -0.676595D-02
     68  0.554793D-03  0.529177D-02  0.956049D-01 -0.845094D-02 -0.123328D+00
     69  0.361913D-04  0.608838D-01  0.485198D+00  0.463931D+00  0.337502D-04
     70 -0.394002D-05  0.528708D-02  0.955441D-01 -0.841204D-02  0.123262D+00
     71 -0.224630D-05  0.917745D-04  0.643971D-02 -0.826614D-02  0.675878D-02
     72 -0.269903D-05  0.121610D-04  0.184556D-02 -0.332116D-02  0.000000D+00
               51            52            53            54            55 
     51  0.100000D+01
     52 -0.540238D-04  0.100000D+01
     53 -0.334713D-03  0.248362D+00  0.100000D+01
     54 -0.233212D-03  0.000000D+00  0.000000D+00  0.100000D+01
     55  0.403980D-03  0.000000D+00  0.000000D+00  0.000000D+00  0.100000D+01
     56  0.214799D+00  0.000000D+00  0.000000D+00  0.000000D+00  0.000000D+00
     57 -0.294445D-05  0.000000D+00  0.379788D-01 -0.629645D-01 -0.352104D-05
     58 -0.625809D-04  0.379788D-01  0.367240D+00 -0.389765D+00 -0.217960D-04
     59 -0.880286D-04  0.629645D-01  0.389765D+00 -0.328102D+00 -0.303727D-04
     60  0.508375D-04  0.352104D-05  0.217960D-04 -0.303727D-04  0.215034D+00
     61  0.256525D-01  0.216228D-04  0.133850D-03 -0.186519D-03  0.000000D+00
     62  0.000000D+00  0.000000D+00  0.184237D-02 -0.367328D-02 -0.212116D-02
     63 -0.103555D-04  0.184237D-02  0.612718D-01 -0.780583D-01 -0.450752D-01
     64 -0.179393D-04  0.367328D-02  0.780583D-01 -0.841402D-01 -0.634047D-01
     65  0.000000D+00  0.212116D-02  0.450752D-01 -0.634047D-01 -0.109536D-01
     66  0.101830D-01  0.000000D+00 -0.192868D-04  0.271296D-04  0.156661D-04
     67  0.140953D-05  0.121615D-04  0.184560D-02 -0.166059D-02 -0.287629D-02
     68  0.750725D-04  0.918438D-04  0.644277D-02  0.172010D-02 -0.105429D-01
     69  0.267471D-03  0.528536D-02  0.955218D-01  0.102508D+00 -0.689211D-01
     70 -0.717671D-04  0.608839D-01  0.485198D+00  0.232117D+00  0.401688D+00
     71 -0.822985D-05  0.528910D-02  0.955703D-01 -0.110991D+00  0.543386D-01
     72  0.000000D+00  0.919593D-04  0.644785D-02 -0.999800D-02 -0.378399D-02
               56            57            58            59            60 
     56  0.100000D+01
     57 -0.216228D-04  0.100000D+01
     58 -0.133850D-03  0.248362D+00  0.100000D+01
     59 -0.186519D-03  0.000000D+00  0.000000D+00  0.100000D+01
     60  0.000000D+00  0.000000D+00  0.000000D+00  0.000000D+00  0.100000D+01
     61  0.215033D+00  0.000000D+00  0.000000D+00  0.000000D+00  0.000000D+00
     62  0.000000D+00  0.000000D+00  0.379503D-01 -0.314602D-01 -0.544874D-01
     63  0.192868D-04  0.379503D-01  0.367082D+00 -0.194835D+00 -0.337443D+00
     64  0.271296D-04  0.314602D-01  0.194835D+00  0.791484D-01 -0.235134D+00
     65  0.156661D-04  0.544874D-01  0.337443D+00 -0.235134D+00 -0.192328D+00
     66  0.256598D-01 -0.449174D-04 -0.278175D-03  0.193836D-03  0.335713D-03
     67  0.140801D-05  0.919217D-04  0.644620D-02 -0.172217D-02 -0.105479D-01
     68  0.786778D-05  0.121655D-04  0.184598D-02  0.166064D-02 -0.287700D-02
     69  0.104543D-03  0.918827D-04  0.644448D-02  0.999292D-02 -0.378269D-02
     70 -0.248908D-04  0.528806D-02  0.955568D-01  0.110977D+00  0.543310D-01
     71 -0.817188D-04  0.608724D-01  0.485152D+00 -0.232053D+00  0.401693D+00
     72  0.105554D-05  0.528986D-02  0.955802D-01 -0.102572D+00 -0.689453D-01
               61            62            63            64            65 
     61  0.100000D+01
     62  0.449174D-04  0.100000D+01
     63  0.278175D-03  0.248362D+00  0.100000D+01
     64  0.193836D-03  0.000000D+00  0.000000D+00  0.100000D+01
     65  0.335713D-03  0.000000D+00  0.000000D+00  0.000000D+00  0.100000D+01
     66  0.214911D+00  0.000000D+00  0.000000D+00  0.000000D+00  0.000000D+00
     67  0.666348D-05  0.529175D-02  0.956047D-01  0.842769D-02 -0.123330D+00
     68  0.255614D-05  0.919816D-04  0.644884D-02  0.827669D-02 -0.676812D-02
     69  0.723762D-05  0.121568D-04  0.184517D-02  0.332051D-02  0.000000D+00
     70  0.239640D-04  0.918335D-04  0.644231D-02  0.826972D-02  0.676075D-02
     71 -0.401996D-03  0.528927D-02  0.955725D-01  0.841628D-02  0.123294D+00
     72  0.465714D-04  0.608947D-01  0.485242D+00 -0.463957D+00  0.772134D-04
               66            67            68            69            70 
     66  0.100000D+01
     67  0.646250D-04  0.100000D+01
     68  0.625596D-05  0.500386D-01  0.100000D+01
     69  0.112341D-05  0.761151D-03  0.500066D-01  0.100000D+01
     70 -0.180251D-05  0.111395D-03  0.761033D-03  0.500151D-01  0.100000D+01
     71 -0.111225D-03  0.761313D-03  0.111393D-03  0.760393D-03  0.499711D-01
     72 -0.759476D-04  0.500185D-01  0.761472D-03  0.111392D-03  0.760886D-03
               71            72 
     71  0.100000D+01
     72  0.500392D-01  0.100000D+01
 *** Kinetic Energy *** 
                1             2             3             4             5 
      1  0.158911D+02
      2 -0.858900D-01  0.472250D+00
      3  0.000000D+00  0.000000D+00  0.147773D+01
      4  0.000000D+00  0.000000D+00  0.000000D+00  0.147773D+01
      5  0.000000D+00  0.000000D+00  0.000000D+00  0.000000D+00  0.147773D+01
      6 -0.353940D-04 -0.843110D-02 -0.116376D-01  0.000000D+00  0.000000D+00
      7 -0.843110D-02  0.460533D-01  0.149720D+00  0.000000D+00  0.000000D+00
      8  0.116376D-01 -0.149720D+00 -0.309536D+00  0.000000D+00  0.000000D+00
      9  0.000000D+00  0.000000D+00  0.000000D+00  0.749266D-01  0.000000D+00
     10  0.000000D+00  0.000000D+00  0.000000D+00  0.000000D+00  0.749266D-01
     11  0.000000D+00 -0.229207D-02 -0.307089D-02 -0.177229D-02  0.000000D+00
     12 -0.229207D-02 -0.175274D-01 -0.892898D-02 -0.515315D-02  0.000000D+00
     13  0.307089D-02  0.892898D-02 -0.908513D-02 -0.300399D-02  0.000000D+00
     14  0.177229D-02  0.515315D-02 -0.300399D-02 -0.561373D-02  0.000000D+00
     15  0.000000D+00  0.000000D+00  0.000000D+00  0.000000D+00 -0.388005D-02
     16  0.000000D+00 -0.785956D-03 -0.807216D-03 -0.139812D-02  0.000000D+00
[...]
  71 23  H  1S         -0.00000   0.00000   0.00004  -0.00005  -0.00016
  72 24  H  1S         -0.00000   0.00000   0.00004   0.00003  -0.00002
                          46        47        48        49        50
  46        2PZ         5.62688
  47 15  C  1S          0.00000   4.08571
  48        2S          0.00000   0.05303   4.85335
  49        2PX         0.00000   0.00000   0.00000   4.29805
  50        2PY         0.00000   0.00000   0.00000   0.00000   4.33426
  51        2PZ        -0.02562   0.00000   0.00000   0.00000   0.00000
  52 16  C  1S          0.00000   0.00000   0.00313   0.00070   0.00252
  53        2S         -0.00000   0.15383   0.03269  -0.05247  -0.14341
  54        2PX        -0.00000   0.10984   0.13164   0.00495  -0.06386
  55        2PY        -0.00000   0.06513  -0.35530  -0.02708  -0.05478
  56        2PZ         0.00038  -0.00008  -0.00010  -0.00000   0.00000
  57 17  C  1S         -0.00000   0.00000  -0.00000  -0.00001   0.00000
  58        2S         -0.00000   0.00098   0.20720  -0.03582   0.00062
  59        2PX        -0.00000   0.00338   0.23495  -0.06809   0.00498
  60        2PY        -0.00000   0.00167  -0.03980   0.03933  -0.00034
  61        2PZ        -0.00005  -0.00000  -0.00010  -0.00004   0.00001
  62 18  C  1S         -0.00000   0.00000   0.00000   0.00000  -0.00000
  63        2S          0.00000   0.00001   0.01263  -0.14274   0.00000
  64        2PX        -0.00000   0.00012   0.03507  -0.19022   0.00000
  65        2PY        -0.00000   0.00000   0.00000   0.00001  -0.00080
  66        2PZ         0.00034  -0.00000  -0.00001   0.00000   0.00000
  67 19  H  1S          0.00000   0.00000   0.00004  -0.00003   0.00004
  68 20  H  1S         -0.00000  -0.00013   0.00310  -0.00460  -0.40949
  69 21  H  1S         -0.00000  -0.00044  -0.17574   0.18343   0.00010
  70 22  H  1S         -0.00000   0.00056   0.00663  -0.00546   0.12350
  71 23  H  1S         -0.00000  -0.00000  -0.00073   0.00354   0.01096
  72 24  H  1S         -0.00000   0.00000   0.00000  -0.00002  -0.00000
                          51        52        53        54        55
  51        2PZ         0.72818
  52 16  C  1S         -0.00000   0.56126
  53        2S          0.00022  -0.00607   7.39653
  54        2PX         0.00012   0.00000   0.00000   5.25059
  55        2PY         0.00010   0.00000   0.00000   0.00000   1.73469
  56        2PZ        -0.07684   0.00000   0.00000   0.00000   0.00000
  57 17  C  1S         -0.00000  -0.00000   0.00234   0.00291   0.00000
  58        2S          0.00000   0.00330   0.07265  -0.55102  -0.00001
  59        2PX         0.00001   0.00597   0.30325  -0.58452  -0.00001
  60        2PY         0.00001  -0.00000  -0.00002   0.00002   0.09125
  61        2PZ         0.00018  -0.00000  -0.00004   0.00008   0.00000
  62 18  C  1S          0.00000  -0.00000  -0.00000  -0.00000  -0.00001
  63        2S         -0.00000  -0.00000   0.00350  -0.00802  -0.00438
  64        2PX        -0.00000   0.00002   0.01264  -0.01595  -0.01212
  65        2PY        -0.00000  -0.00001  -0.00422   0.00290   0.00011
  66        2PZ         0.00063   0.00000   0.00000  -0.00001  -0.00000
  67 19  H  1S         -0.00000   0.00000   0.00000  -0.00000  -0.00001
  68 20  H  1S          0.00002   0.00000  -0.00060  -0.00009  -0.00061
  69 21  H  1S          0.00007   0.00003  -0.03002  -0.01932  -0.01282
  70 22  H  1S          0.00000   0.00360  -0.00170   0.03579  -0.21485
  71 23  H  1S         -0.00000   0.00000   0.00232  -0.00041   0.00019
  72 24  H  1S          0.00000   0.00000   0.00004   0.00003  -0.00002
                          56        57        58        59        60
  56        2PZ         1.72339
  57 17  C  1S          0.00000   0.75501
  58        2S          0.00004  -0.06051   4.79490
  59        2PX         0.00007   0.00000   0.00000   3.75161
  60        2PY        -0.00000   0.00000   0.00000   0.00000   1.52452
  61        2PZ         0.02326   0.00000   0.00000   0.00000   0.00000
  62 18  C  1S         -0.00000   0.00000   0.00242   0.00063   0.00219
  63        2S          0.00000   0.00233   0.03582  -0.21330  -0.34343
  64        2PX        -0.00000   0.00077   0.12674   0.08650  -0.21065
  65        2PY         0.00000   0.00216  -0.13644  -0.10223  -0.09939
  66        2PZ         0.00169   0.00000   0.00021  -0.00013  -0.00006
  67 19  H  1S          0.00000   0.00000   0.00004   0.00001  -0.00000
  68 20  H  1S         -0.00000   0.00000   0.00006   0.00016  -0.00025
  69 21  H  1S         -0.00001   0.00000   0.00069   0.00180  -0.00075
  70 22  H  1S         -0.00000  -0.00001   0.00837   0.02132   0.00343
  71 23  H  1S         -0.00000   0.00353  -0.28535  -0.01689  -0.19673
  72 24  H  1S          0.00000   0.00013   0.00041   0.00370  -0.00158
                          61        62        63        64        65
  61        2PZ         1.46499
  62 18  C  1S         -0.00000   0.54954
  63        2S          0.00011  -0.06051   4.79072
  64        2PX         0.00003   0.00000   0.00000   3.67018
  65        2PY         0.00013   0.00000   0.00000   0.00000   2.06581
  66        2PZ         0.05769   0.00000   0.00000   0.00000   0.00000
  67 19  H  1S          0.00000   0.00000   0.00050  -0.00031   0.00239
  68 20  H  1S          0.00000   0.00000   0.00370   0.00729   0.00020
  69 21  H  1S          0.00000   0.00000   0.00164   0.00371  -0.00000
  70 22  H  1S          0.00000   0.00000   0.00405   0.00543   0.00177
  71 23  H  1S         -0.00000  -0.00001  -0.03721  -0.00169  -0.04573
  72 24  H  1S          0.00000   0.00371  -0.22239  -0.20564   0.00000
                          66        67        68        69        70
  66        2PZ         0.88022
  67 19  H  1S         -0.00000   0.92247
  68 20  H  1S          0.00000  -0.00136   4.22923
  69 21  H  1S          0.00000  -0.00000   0.14565   3.60382
  70 22  H  1S         -0.00000  -0.00000   0.00074   0.04225   1.36479
  71 23  H  1S         -0.00004  -0.00000   0.00018   0.00100   0.01822
  72 24  H  1S         -0.00000  -0.00128  -0.00000  -0.00000  -0.00000
                          71        72
  71 23  H  1S          1.82324
  72 24  H  1S         -0.00134   0.92502
     Gross orbital populations:
                           1
   1 1   C  1S          6.86270
   2        2S          4.50146
   3        2PX         1.21378
   4        2PY         1.47100
   5        2PZ         1.41244
   6 2   C  1S          1.05221
   7        2S          1.62767
   8        2PX         6.31510
   9        2PY         8.98297
  10        2PZ         6.18458
  11 3   C  1S          5.63645
  12        2S          6.50621
  13        2PX         7.15323
  14        2PY         1.05138
  15        2PZ         1.39049
  16 4   C  1S          3.04881
  17        2S         15.02055
  18        2PX         8.23932
  19        2PY         2.23439
  20        2PZ         3.32562
  21 5   C  1S          1.41851
  22        2S          8.22528
  23        2PX         6.75448
  24        2PY         1.49961
  25        2PZ         3.08943
  26 6   C  1S          1.00873
  27        2S          7.15965
  28        2PX         6.69706
  29        2PY         2.92323
  30        2PZ         1.82459
  31 7   H  1S          1.02008
  32 8   H  1S          7.68236
  33 9   H  1S          8.98715
  34 10  H  1S          2.77916
  35 11  H  1S          2.52765
  36 12  H  1S          1.01568
  37 13  C  1S          5.74706
  38        2S          3.39468
  39        2PX         2.07092
  40        2PY         1.45379
  41        2PZ         1.43418
  42 14  C  1S          1.04233
  43        2S          1.40420
  44        2PX         1.05992
  45        2PY         7.08673
  46        2PZ         6.49322
  47 15  C  1S          5.37424
  48        2S          7.10503
  49        2PX         4.85106
  50        2PY         3.80180
  51        2PZ         1.12073
  52 16  C  1S          1.13311
  53        2S         15.02055
  54        2PX         8.23932
  55        2PY         2.23439
  56        2PZ         3.32562
  57 17  C  1S          1.41851
  58        2S          8.22528
  59        2PX         6.75448
  60        2PY         1.49961
  61        2PZ         3.08943
  62 18  C  1S          1.00873
  63        2S          7.15965
  64        2PX         6.69706
  65        2PY         2.92323
  66        2PZ         1.82459
  67 19  H  1S          1.02008
  68 20  H  1S          7.68236
  69 21  H  1S          8.98715
  70 22  H  1S          2.77916
  71 23  H  1S          2.52765
  72 24  H  1S          1.01568
          Condensed to atoms (all electrons):
               1          2          3          4          5          6
     1  C   12.875226  -1.896996   0.000341  -0.012286   0.007649  -0.708722
     2  C   -1.896996  25.909666  -0.805398  -0.156653   0.006230  -0.001340
     3  C    0.000341  -0.805398  15.041953  -0.819094   0.085627   0.138995
     4  C   -0.012286  -0.156653  -0.819094  18.478651  -0.597856  -0.023673
     5  C    0.007649   0.006230   0.085627  -0.597856  12.170004  -0.787916
     6  C   -0.708722  -0.001340   0.138995  -0.023673  -0.787916  11.835451
     7  H   -0.402142  -0.000703   0.000052  -0.000012   0.000050   0.002571
     8  H    0.027069  -0.360469  -0.004196  -0.001317  -0.000032   0.011195
     9  H    0.001871   0.069966   1.362985  -0.063292   0.001737   0.005354
    10  H    0.000093  -0.001652   0.058412  -0.158910   0.033112   0.011251
    11  H    0.000113   0.000169  -0.015387   0.002236  -0.495437  -0.084684
    12  H    0.010926   0.000656  -0.000014   0.000050   0.002652  -0.424319
    13  C    7.758376  -1.743357  -0.101767  -0.000483  -0.004958  -0.628715
    14  C   -1.121632   4.332952  -0.491333  -0.682629  -0.076347   0.008049
    15  C   -0.002834  -0.747217   6.477035  -0.262825   0.349095  -0.285280
    16  C   -0.012523  -0.156170  -0.816931  17.009551  -0.630481  -0.023859
    17  C    0.007649   0.006230   0.085627  -0.597856  12.170004  -0.787916
    18  C   -0.708722  -0.001340   0.138995  -0.023673  -0.787916  11.835451
    19  H   -0.402142  -0.000703   0.000052  -0.000012   0.000050   0.002571
    20  H    0.027069  -0.360469  -0.004196  -0.001317  -0.000032   0.011195
    21  H    0.001871   0.069966   1.362985  -0.063292   0.001737   0.005354
    22  H    0.000093  -0.001652   0.058412  -0.158910   0.033112   0.011251
    23  H    0.000113   0.000169  -0.015387   0.002236  -0.495437  -0.084684
    24  H    0.010926   0.000656  -0.000014   0.000050   0.002652  -0.424319
               7          8          9         10         11         12
     1  C   -0.402142   0.027069   0.001871   0.000093   0.000113   0.010926
     2  C   -0.000703  -0.360469   0.069966  -0.001652   0.000169   0.000656
     3  C    0.000052  -0.004196   1.362985   0.058412  -0.015387  -0.000014
     4  C   -0.000012  -0.001317  -0.063292  -0.158910   0.002236   0.000050
     5  C    0.000050  -0.000032   0.001737   0.033112  -0.495437   0.002652
     6  C    0.002571   0.011195   0.005354   0.011251  -0.084684  -0.424319
     7  H    0.922471  -0.001360  -0.000001  -0.000000  -0.000002  -0.001282
     8  H   -0.001360   4.229235   0.145655   0.000739   0.000176  -0.000001
     9  H   -0.000001   0.145655   3.603820   0.042249   0.001003  -0.000000
    10  H   -0.000000   0.000739   0.042249   1.364788   0.018216  -0.000001
    11  H   -0.000002   0.000176   0.001003   0.018216   1.823244  -0.001344
    12  H   -0.001282  -0.000001  -0.000000  -0.000001  -0.001344   0.925021
    13  C   -0.424581   0.141731   0.010928   0.000960   0.002472   0.002524
    14  C    0.002539  -0.479261   0.059788  -0.008511  -0.000172   0.000050
    15  C    0.000047  -0.411097   0.007416   0.125232   0.013764  -0.000014
    16  C   -0.000012  -0.001310  -0.062138  -0.177168   0.002112   0.000050
    17  C    0.000050  -0.000032   0.001737   0.033112  -0.495437   0.002652
    18  C    0.002571   0.011195   0.005354   0.011251  -0.084684  -0.424319
    19  H    0.922471  -0.001360  -0.000001  -0.000000  -0.000002  -0.001282
    20  H   -0.001360   4.229235   0.145655   0.000739   0.000176  -0.000001
    21  H   -0.000001   0.145655   3.603820   0.042249   0.001003  -0.000000
    22  H   -0.000000   0.000739   0.042249   1.364788   0.018216  -0.000001
    23  H   -0.000002   0.000176   0.001003   0.018216   1.823244  -0.001344
    24  H   -0.001282  -0.000001  -0.000000  -0.000001  -0.001344   0.925021
              13         14         15         16         17         18
     1  C    7.758376  -1.121632  -0.002834  -0.012523   0.007649  -0.708722
     2  C   -1.743357   4.332952  -0.747217  -0.156170   0.006230  -0.001340
     3  C   -0.101767  -0.491333   6.477035  -0.816931   0.085627   0.138995
     4  C   -0.000483  -0.682629  -0.262825  17.009551  -0.597856  -0.023673
     5  C   -0.004958  -0.076347   0.349095  -0.630481  12.170004  -0.787916
     6  C   -0.628715   0.008049  -0.285280  -0.023859  -0.787916  11.835451
     7  H   -0.424581   0.002539   0.000047  -0.000012   0.000050   0.002571
     8  H    0.141731  -0.479261  -0.411097  -0.001310  -0.000032   0.011195
     9  H    0.010928   0.059788   0.007416  -0.062138   0.001737   0.005354
    10  H    0.000960  -0.008511   0.125232  -0.177168   0.033112   0.011251
    11  H    0.002472  -0.000172   0.013764   0.002112  -0.495437  -0.084684
    12  H    0.002524   0.000050  -0.000014   0.000050   0.002652  -0.424319
    13  C   10.921249  -0.847631  -0.085616  -0.000873  -0.004958  -0.628715
    14  C   -0.847631  18.414691  -0.860559  -0.669733  -0.076347   0.008049
    15  C   -0.085616  -0.860559  18.405602  -0.269044   0.349095  -0.285280
    16  C   -0.000873  -0.669733  -0.269044  16.654320  -0.630481  -0.023859
    17  C   -0.004958  -0.076347   0.349095  -0.630481  12.170004  -0.787916
    18  C   -0.628715   0.008049  -0.285280  -0.023859  -0.787916  11.835451
    19  H   -0.424581   0.002539   0.000047  -0.000012   0.000050   0.002571
    20  H    0.141731  -0.479261  -0.411097  -0.001310  -0.000032   0.011195
    21  H    0.010928   0.059788   0.007416  -0.062138   0.001737   0.005354
    22  H    0.000960  -0.008511   0.125232  -0.177168   0.033112   0.011251
    23  H    0.002472  -0.000172   0.013764   0.002112  -0.495437  -0.084684
    24  H    0.002524   0.000050  -0.000014   0.000050   0.002652  -0.424319
              19         20         21         22         23         24
     1  C   -0.402142   0.027069   0.001871   0.000093   0.000113   0.010926
     2  C   -0.000703  -0.360469   0.069966  -0.001652   0.000169   0.000656
     3  C    0.000052  -0.004196   1.362985   0.058412  -0.015387  -0.000014
     4  C   -0.000012  -0.001317  -0.063292  -0.158910   0.002236   0.000050
     5  C    0.000050  -0.000032   0.001737   0.033112  -0.495437   0.002652
     6  C    0.002571   0.011195   0.005354   0.011251  -0.084684  -0.424319
     7  H    0.922471  -0.001360  -0.000001  -0.000000  -0.000002  -0.001282
     8  H   -0.001360   4.229235   0.145655   0.000739   0.000176  -0.000001
     9  H   -0.000001   0.145655   3.603820   0.042249   0.001003  -0.000000
    10  H   -0.000000   0.000739   0.042249   1.364788   0.018216  -0.000001
    11  H   -0.000002   0.000176   0.001003   0.018216   1.823244  -0.001344
    12  H   -0.001282  -0.000001  -0.000000  -0.000001  -0.001344   0.925021
    13  C   -0.424581   0.141731   0.010928   0.000960   0.002472   0.002524
    14  C    0.002539  -0.479261   0.059788  -0.008511  -0.000172   0.000050
    15  C    0.000047  -0.411097   0.007416   0.125232   0.013764  -0.000014
    16  C   -0.000012  -0.001310  -0.062138  -0.177168   0.002112   0.000050
    17  C    0.000050  -0.000032   0.001737   0.033112  -0.495437   0.002652
    18  C    0.002571   0.011195   0.005354   0.011251  -0.084684  -0.424319
    19  H    0.922471  -0.001360  -0.000001  -0.000000  -0.000002  -0.001282
    20  H   -0.001360   4.229235   0.145655   0.000739   0.000176  -0.000001
    21  H   -0.000001   0.145655   3.603820   0.042249   0.001003  -0.000000
    22  H   -0.000000   0.000739   0.042249   1.364788   0.018216  -0.000001
    23  H   -0.000002   0.000176   0.001003   0.018216   1.823244  -0.001344
    24  H   -0.001282  -0.000001  -0.000000  -0.000001  -0.001344   0.925021
 Mulliken charges:
               1
     1  C   -9.461388
     2  C  -18.162543
     3  C  -15.737753
     4  C  -25.868686
     5  C  -14.987302
     6  C  -13.613261
     7  H   -0.020081
     8  H   -6.682364
     9  H   -7.987155
    10  H   -1.779164
    11  H   -1.527653
    12  H   -0.015678
    13  C   -8.100623
    14  C  -11.086395
    15  C  -16.252869
    16  C  -23.952985
    17  C  -14.987302
    18  C  -13.613261
    19  H   -0.020081
    20  H   -6.682364
    21  H   -7.987155
    22  H   -1.779164
    23  H   -1.527653
    24  H   -0.015678
 Sum of Mulliken charges =-221.84856
 Mulliken charges with hydrogens summed into heavy atoms:
               1
     1  C   -9.501550
     2  C  -31.527272
     3  C  -31.712063
     4  C  -29.427014
     5  C  -18.042608
     6  C  -13.644618
    13  C   -8.100623
    14  C  -11.086395
    15  C  -16.252869
    16  C  -23.952985
    17  C  -14.987302
    18  C  -13.613261
 N-N=                Inf E-N=-1.065475067196D+04  KE= 8.122146656454D+02
 Orbital energies and kinetic energies (alpha):
                                 1                 2
   1         O               -34.660880         17.240721
   2         O               -34.580313         17.081140
   3         O               -34.580272         17.081102
   4         O               -34.437538         16.800528
   5         O               -34.437512         16.800523
   6         O               -34.360559         16.649189
   7         O                -2.335552          0.919060
   8         O                -2.335392          0.918427
   9         O                -2.333724          0.678561
  10         O                -2.238688          1.483583
  11         O                -2.238583          1.483806
  12         O                -2.157508          1.971799
  13         O                -1.980630          1.911998
  14         O                -1.980538          1.912152
  15         O                -1.956191          1.308261
  16         O                -1.950055          2.838247
  17         O                -1.935498          2.208324
  18         O                -1.935481          2.208376
  19         O                -1.889494          3.362573
  20         O                -1.845893          2.341118
  21         O                -1.845841          2.340981
  22         O                -1.821595          1.263575
  23         O                -1.813859          2.300133
  24         O                -1.813833          2.299918
  25         O                -1.652983          2.165230
  26         O                -1.619682          1.823493
  27         O                -1.619675          1.823377
  28         O                -1.580104          1.322971
  29         O                -1.580054          1.323020
  30         O                -1.562099          1.083873
  31         O                -0.949626          1.285102
  32         O                -0.945368          1.343093
  33         O                -0.945362          1.343180
  34         O                -0.943314          1.455604
  35         O                -0.943283          1.419532
  36         O                -0.943281          1.419870
 Total kinetic energy from orbitals= 3.062627973826D+02

 This type of calculation cannot be archived.


 THE FIRST AND LAST THING REQUIRED OF GENIUS IS THE LOVE OF TRUTH.

                          -- GOETHE
 Job cpu time:       0 days  0 hours  0 minutes  5.7 seconds.
 Elapsed time:       0 days  0 hours  0 minutes 12.0 seconds.
 File lengths (MBytes):  RWF=    272 Int=      0 D2E=      0 Chk=     32 Scr=     32
 Normal termination of Gaussian 16 at Tue Dec 27 19:35:05 2022.
