 Entering Gaussian System, Link 0=g16
 Initial command:
 /software/gaussian/g16-c01/avx2/g16/l1.exe "/gpfs/fs2/scratch/bweight/software/many_molecule_many_mode_NAMD/src/NAMD/TEST_NVT/TRAJ/traj-22/G16/GS_NEW/Gau-17898.inp" -scrdir="/gpfs/fs2/scratch/bweight/software/many_molecule_many_mode_NAMD/src/NAMD/TEST_NVT/TRAJ/traj-22/G16/GS_NEW/"
 Entering Link 1 = /software/gaussian/g16-c01/avx2/g16/l1.exe PID=     17899.
  
 Copyright (c) 1988-2019, Gaussian, Inc.  All Rights Reserved.
  
 This is part of the Gaussian(R) 16 program.  It is based on
 the Gaussian(R) 09 system (copyright 2009, Gaussian, Inc.),
 the Gaussian(R) 03 system (copyright 2003, Gaussian, Inc.),
 the Gaussian(R) 98 system (copyright 1998, Gaussian, Inc.),
 the Gaussian(R) 94 system (copyright 1995, Gaussian, Inc.),
 the Gaussian 92(TM) system (copyright 1992, Gaussian, Inc.),
 the Gaussian 90(TM) system (copyright 1990, Gaussian, Inc.),
 the Gaussian 88(TM) system (copyright 1988, Gaussian, Inc.),
 the Gaussian 86(TM) system (copyright 1986, Carnegie Mellon
 University), and the Gaussian 82(TM) system (copyright 1983,
 Carnegie Mellon University). Gaussian is a federally registered
 trademark of Gaussian, Inc.
  
 This software contains proprietary and confidential information,
 including trade secrets, belonging to Gaussian, Inc.
  
 This software is provided under written license and may be
 used, copied, transmitted, or stored only in accord with that
 written license.
  
 The following legend is applicable only to US Government
 contracts under FAR:
  
                    RESTRICTED RIGHTS LEGEND
  
 Use, reproduction and disclosure by the US Government is
 subject to restrictions as set forth in subparagraphs (a)
 and (c) of the Commercial Computer Software - Restricted
 Rights clause in FAR 52.227-19.
  
 Gaussian, Inc.
 340 Quinnipiac St., Bldg. 40, Wallingford CT 06492
  
  
 ---------------------------------------------------------------
 Warning -- This program may not be used in any manner that
 competes with the business of Gaussian, Inc. or will provide
 assistance to any competitor of Gaussian, Inc.  The licensee
 of this program is prohibited from giving any competitor of
 Gaussian, Inc. access to this program.  By using this program,
 the user acknowledges that Gaussian, Inc. is engaged in the
 business of creating and licensing software in the field of
 computational chemistry and represents and warrants to the
 licensee that it is not a competitor of Gaussian, Inc. and that
 it will not use this program in any manner prohibited above.
 ---------------------------------------------------------------
  

 Cite this work as:
 Gaussian 16, Revision C.01,
 M. J. Frisch, G. W. Trucks, H. B. Schlegel, G. E. Scuseria, 
 M. A. Robb, J. R. Cheeseman, G. Scalmani, V. Barone, 
 G. A. Petersson, H. Nakatsuji, X. Li, M. Caricato, A. V. Marenich, 
 J. Bloino, B. G. Janesko, R. Gomperts, B. Mennucci, H. P. Hratchian, 
 J. V. Ortiz, A. F. Izmaylov, J. L. Sonnenberg, D. Williams-Young, 
 F. Ding, F. Lipparini, F. Egidi, J. Goings, B. Peng, A. Petrone, 
 T. Henderson, D. Ranasinghe, V. G. Zakrzewski, J. Gao, N. Rega, 
 G. Zheng, W. Liang, M. Hada, M. Ehara, K. Toyota, R. Fukuda, 
 J. Hasegawa, M. Ishida, T. Nakajima, Y. Honda, O. Kitao, H. Nakai, 
 T. Vreven, K. Throssell, J. A. Montgomery, Jr., J. E. Peralta, 
 F. Ogliaro, M. J. Bearpark, J. J. Heyd, E. N. Brothers, K. N. Kudin, 
 V. N. Staroverov, T. A. Keith, R. Kobayashi, J. Normand, 
 K. Raghavachari, A. P. Rendell, J. C. Burant, S. S. Iyengar, 
 J. Tomasi, M. Cossi, J. M. Millam, M. Klene, C. Adamo, R. Cammi, 
 J. W. Ochterski, R. L. Martin, K. Morokuma, O. Farkas, 
 J. B. Foresman, and D. J. Fox, Gaussian, Inc., Wallingford CT, 2019.
 
 ******************************************
 Gaussian 16:  ES64L-G16RevC.01  3-Jul-2019
                11-Jan-2023 
 ******************************************
 %oldchk=../GS_OLD/geometry.chk
 %chk=geometry.chk
 %nprocshared=4
 Will use up to    4 processors via shared memory.
 %mem=5GB
 Copying data from "../GS_OLD/geometry.chk" to current chk file "geometry.chk"
 IOpt=  2 FromEx=T IUOpen= 4 IOptOp= 5 NList=   0 IFRang= 0 IUIn= 4 IUOut= 2.
 -------------------------------------------------------
 # WB97XD/6-311G SCF=XQC FORCE nosym pop=full guess=read
 -------------------------------------------------------
 1/10=7,30=1,38=1/1,3;
 2/12=2,15=1,17=6,18=5,40=1/2;
 3/5=4,6=6,11=2,25=1,30=1,71=1,74=-58,116=-2/1,2,3;
 4/5=1/1;
 5/5=2,8=3,13=1,38=6/2,8;
 6/7=3,28=1/1;
 7/29=1,30=1/1,2,3,16;
 1/10=7,30=1/3;
 99//99;
 -----------
 MD Step 999
 -----------
 Symbolic Z-matrix:
 Charge =  0 Multiplicity = 1
 C                    -0.33505  -0.58006   0.00596 
 H                     0.20635  -1.53204  -0.01913 
 H                    -1.41718  -0.59145  -0.01947 
 C                     0.33293   0.57627   0.0042 
 H                    -0.16911   1.56495  -0.01994 
 H                     1.448     0.64661  -0.01967 
 

 GradGradGradGradGradGradGradGradGradGradGradGradGradGradGradGradGradGrad
 Berny optimization.
 Initialization pass.
 Trust Radius=3.00D-01 FncErr=1.00D-07 GrdErr=1.00D-07 EigMax=2.50D+02 EigMin=1.00D-04
 Number of steps in this run=      2 maximum allowed number of steps=      2.
 GradGradGradGradGradGradGradGradGradGradGradGradGradGradGradGradGradGrad

                          Input orientation:                          
 ---------------------------------------------------------------------
 Center     Atomic      Atomic             Coordinates (Angstroms)
 Number     Number       Type             X           Y           Z
 ---------------------------------------------------------------------
      1          6           0       -0.335050   -0.580064    0.005961
      2          1           0        0.206347   -1.532045   -0.019131
      3          1           0       -1.417176   -0.591447   -0.019468
      4          6           0        0.332931    0.576267    0.004196
      5          1           0       -0.169113    1.564953   -0.019944
      6          1           0        1.448002    0.646614   -0.019669
 ---------------------------------------------------------------------
                    Distance matrix (angstroms):
                    1          2          3          4          5
     1  C    0.000000
     2  H    1.095449   0.000000
     3  H    1.082484   1.876313   0.000000
     4  C    1.335404   2.112237   2.104041   0.000000
     5  H    2.151581   3.119674   2.491530   1.109113   0.000000
     6  H    2.164409   2.507640   3.121224   1.117542   1.859679
                    6
     6  H    0.000000
 Symmetry turned off by external request.
 Stoichiometry    C2H4
 Framework group  C1[X(C2H4)]
 Deg. of freedom    12
 Full point group                 C1      NOp   1
 Rotational constants (GHZ):         143.6198965          29.7250801          24.6328711
 Standard basis: 6-311G (5D, 7F)
    38 basis functions,    72 primitive gaussians,    38 cartesian basis functions
     8 alpha electrons        8 beta electrons
       nuclear repulsion energy        33.0849970113 Hartrees.
 NAtoms=    6 NActive=    6 NUniq=    6 SFac= 1.00D+00 NAtFMM=   60 NAOKFM=F Big=F
 Integral buffers will be    131072 words long.
 Raffenetti 2 integral format.
 Two-electron integral symmetry is turned off.
 Nuclear repulsion after empirical dispersion term =       33.0841578540 Hartrees.
 One-electron integrals computed using PRISM.
 NBasis=    38 RedAO= T EigKep=  6.38D-03  NBF=    38
 NBsUse=    38 1.00D-06 EigRej= -1.00D+00 NBFU=    38
 Initial guess from the checkpoint file:  "geometry.chk"
 B after Tr=    -0.000217   -0.000400   -0.000582
         Rot=    1.000000   -0.000002    0.000002    0.000006 Ang=  -0.00 deg.
 Keep R1 ints in memory in canonical form, NReq=4036876.
 Requested convergence on RMS density matrix=1.00D-08 within  32 cycles.
 Requested convergence on MAX density matrix=1.00D-06.
 Requested convergence on             energy=1.00D-06.
 No special actions if energy rises.
 SCF Done:  E(RwB97XD) =  -78.5557996207     A.U. after    8 cycles
            NFock=  8  Conv=0.71D-08     -V/T= 2.0051
 QCSCF skips out because SCF is already converged.

 **********************************************************************

            Population analysis using the SCF Density.

 **********************************************************************

 Alpha  occ. eigenvalues --  -10.29105 -10.28714  -0.86423  -0.67193  -0.55887
 Alpha  occ. eigenvalues --   -0.51032  -0.43569  -0.35737
 Alpha virt. eigenvalues --    0.08042   0.14100   0.16431   0.16989   0.24086
 Alpha virt. eigenvalues --    0.37649   0.39212   0.39813   0.46291   0.48825
 Alpha virt. eigenvalues --    0.49345   0.59127   0.66496   0.69082   0.77194
 Alpha virt. eigenvalues --    0.77679   0.84273   0.95435   2.23188   2.28901
 Alpha virt. eigenvalues --    2.33356   2.40720   2.67158   2.81773   2.87842
 Alpha virt. eigenvalues --    2.95113   3.14221   3.31789  23.35137  23.70793
     Molecular Orbital Coefficients:
                           1         2         3         4         5
                           O         O         O         O         O
     Eigenvalues --   -10.29105 -10.28714  -0.86423  -0.67193  -0.55887
   1 1   C  1S          0.06477   0.55965  -0.08873   0.06639  -0.00060
   2        2S          0.05351   0.46059  -0.14024   0.10635  -0.00098
   3        2PX         0.00016  -0.00001   0.02580   0.03800   0.13763
   4        2PY         0.00028   0.00000   0.04649   0.06205  -0.07466
   5        2PZ         0.00000  -0.00001  -0.00106   0.00163   0.00013
   6        3S          0.00081   0.01465   0.37600  -0.29012   0.00274
   7        3PX        -0.00064   0.00038   0.03381   0.06070   0.21537
   8        3PY        -0.00109   0.00070   0.06072   0.10030  -0.11762
   9        3PZ        -0.00001  -0.00003  -0.00178   0.00287   0.00019
  10        4S          0.00429  -0.01448   0.19156  -0.22578   0.00265
  11        4PX         0.00160  -0.00142   0.00460   0.02405   0.11156
  12        4PY         0.00276  -0.00249   0.00844   0.04150  -0.06190
  13        4PZ        -0.00000   0.00007  -0.00061   0.00142   0.00009
  14 2   H  1S         -0.00004  -0.00006   0.05254  -0.08832   0.10256
  15        2S         -0.00031   0.00008   0.05372  -0.10590   0.12974
  16        3S          0.00072   0.00173  -0.00168  -0.01535   0.04206
  17 3   H  1S         -0.00005  -0.00008   0.05429  -0.09191  -0.10509
  18        2S         -0.00031   0.00007   0.05479  -0.10940  -0.13194
  19        3S          0.00073   0.00178  -0.00165  -0.01636  -0.04279
  20 4   C  1S          0.55967  -0.06497  -0.08668  -0.06865  -0.00025
  21        2S          0.46063  -0.05326  -0.13687  -0.11007  -0.00040
  22        2PX        -0.00001  -0.00016  -0.02821   0.03639   0.11811
  23        2PY        -0.00002  -0.00028  -0.04741   0.06480  -0.07323
  24        2PZ        -0.00000   0.00000  -0.00075  -0.00144   0.00013
  25        3S          0.01424  -0.00255   0.36672   0.30071   0.00116
  26        3PX        -0.00027   0.00072  -0.03550   0.05938   0.18517
  27        3PY        -0.00043   0.00123  -0.05937   0.10521  -0.11392
  28        3PZ        -0.00002  -0.00001  -0.00128  -0.00263   0.00019
  29        4S         -0.01281   0.00758   0.18850   0.23861   0.00003
  30        4PX         0.00104  -0.00186  -0.00567   0.02616   0.10201
  31        4PY         0.00173  -0.00323  -0.00914   0.04462  -0.06166
  32        4PZ         0.00005  -0.00001  -0.00055  -0.00138   0.00009
  33 5   H  1S         -0.00005  -0.00004   0.04927   0.09240  -0.08952
  34        2S          0.00000  -0.00031   0.05052   0.11098  -0.11342
  35        3S          0.00178   0.00026  -0.00120   0.01670  -0.03650
  36 6   H  1S         -0.00004  -0.00004   0.04796   0.09095   0.08548
  37        2S         -0.00001  -0.00032   0.04982   0.10958   0.10858
  38        3S          0.00173   0.00027  -0.00127   0.01613   0.03518
                           6         7         8         9        10
                           O         O         O         V         V
     Eigenvalues --    -0.51032  -0.43569  -0.35737   0.08042   0.14100
   1 1   C  1S         -0.00438   0.00011  -0.00083   0.00214  -0.03196
   2        2S         -0.00665   0.00019  -0.00136   0.00354  -0.05122
   3        2PX         0.09479  -0.11089  -0.00261   0.00115  -0.03169
   4        2PY         0.16723   0.06622  -0.00444   0.00201  -0.06316
   5        2PZ         0.00394   0.00001   0.17946  -0.18888  -0.00181
   6        3S          0.02393  -0.00028   0.00399  -0.01068   0.11063
   7        3PX         0.13762  -0.17657  -0.00368   0.00176  -0.03772
   8        3PY         0.24427   0.10622  -0.00626   0.00302  -0.07834
   9        3PZ         0.00625   0.00004   0.28874  -0.27802  -0.00286
  10        4S         -0.04861  -0.00312   0.00520  -0.01263   1.18946
  11        4PX         0.06948  -0.11046  -0.00308   0.00961  -0.19702
  12        4PY         0.12424   0.06652  -0.00529   0.01670  -0.38008
  13        4PZ         0.00358   0.00005   0.26672  -0.69723  -0.01112
  14 2   H  1S         -0.07996  -0.11521   0.00008   0.00337  -0.01503
  15        2S         -0.11004  -0.17805   0.00159   0.00544  -0.04428
  16        3S         -0.04102  -0.08270   0.00089   0.01383  -0.80750
  17 3   H  1S         -0.07879   0.11300   0.00005   0.00339  -0.01170
  18        2S         -0.10774   0.17358   0.00157   0.00543  -0.03693
  19        3S         -0.03985   0.08020   0.00088   0.01344  -0.75595
  20 4   C  1S         -0.00757  -0.00042  -0.00055  -0.00200  -0.03749
  21        2S         -0.01179  -0.00069  -0.00090  -0.00332  -0.06022
  22        2PX        -0.09823   0.12420   0.00258   0.00128   0.04084
  23        2PY        -0.16306  -0.07326   0.00464   0.00224   0.06334
  24        2PZ         0.00410   0.00011   0.17936   0.18951  -0.00239
  25        3S          0.03873   0.00193   0.00264   0.00999   0.13337
  26        3PX        -0.14509   0.19964   0.00361   0.00196   0.04975
  27        3PY        -0.23930  -0.11678   0.00650   0.00343   0.07506
  28        3PZ         0.00648   0.00016   0.28695   0.27769  -0.00364
  29        4S         -0.03543   0.00265   0.00515   0.01089   1.27359
  30        4PX        -0.07543   0.12801   0.00269   0.01020   0.26246
  31        4PY        -0.12314  -0.07467   0.00492   0.01757   0.41967
  32        4PZ         0.00370   0.00009   0.26670   0.69858  -0.01356
  33 5   H  1S         -0.07524  -0.12468   0.00021  -0.00298  -0.01393
  34        2S         -0.10317  -0.19495   0.00157  -0.00487  -0.04014
  35        3S         -0.03840  -0.09180   0.00093  -0.01353  -0.84646
  36 6   H  1S         -0.08092   0.12379   0.00018  -0.00299  -0.01702
  37        2S         -0.11127   0.19464   0.00155  -0.00501  -0.04800
  38        3S         -0.04152   0.09181   0.00090  -0.01390  -0.90038
                          11        12        13        14        15
                           V         V         V         V         V
     Eigenvalues --     0.16431   0.16989   0.24086   0.37649   0.39212
   1 1   C  1S          0.00037  -0.04609   0.00020   0.01119   0.00100
   2        2S          0.00060  -0.07511   0.00030   0.01581   0.00146
   3        2PX         0.09553  -0.02132   0.10066  -0.03697  -0.02299
   4        2PY        -0.05442  -0.03840  -0.05757  -0.06700   0.01043
   5        2PZ        -0.00000  -0.00529   0.00000  -0.00381  -0.00018
   6        3S         -0.00119   0.16938   0.00020   0.02979   0.00330
   7        3PX         0.13740  -0.01329   0.10681  -0.04868  -0.10312
   8        3PY        -0.07880  -0.02540  -0.06217  -0.09530   0.05355
   9        3PZ        -0.00001  -0.00738  -0.00003  -0.00786  -0.00023
  10        4S         -0.02678   1.46674  -0.03603  -2.82347  -0.21974
  11        4PX         0.56878  -0.12590   1.16706  -1.60887  -0.56963
  12        4PY        -0.31466  -0.22008  -0.67532  -2.80450   0.11402
  13        4PZ         0.00016  -0.03452   0.00040  -0.03263  -0.00213
  14 2   H  1S         -0.03041  -0.02464   0.01335  -0.05401   0.07599
  15        2S         -0.08226  -0.01726  -0.02227  -0.63002   0.76923
  16        3S         -1.03705  -1.02015  -1.55325  -0.35006  -0.33421
  17 3   H  1S          0.02881  -0.02491  -0.01542  -0.04549  -0.07679
  18        2S          0.08015  -0.02015   0.01616  -0.55629  -0.77199
  19        3S          1.06979  -1.03922   1.59315  -0.43142   0.25078
  20 4   C  1S          0.00152   0.04171  -0.00020  -0.02000  -0.00040
  21        2S          0.00244   0.06793  -0.00034  -0.03266  -0.00059
  22        2PX         0.10264  -0.02406  -0.09981  -0.04120  -0.03274
  23        2PY        -0.06171  -0.03552   0.05728  -0.07518   0.01126
  24        2PZ         0.00016   0.00486   0.00001   0.00267   0.00030
  25        3S         -0.00505  -0.15161   0.00032   0.03921   0.00052
  26        3PX         0.14798  -0.01951  -0.11307  -0.09054  -0.11309
  27        3PY        -0.08774  -0.02497   0.06360  -0.16930   0.05060
  28        3PZ         0.00022   0.00666   0.00004   0.00316   0.00062
  29        4S         -0.06375  -1.29990   0.02604   3.44368   0.19307
  30        4PX         0.54486  -0.12329  -1.12454  -1.25751  -0.54741
  31        4PY        -0.33238  -0.18282   0.64341  -2.23084   0.06965
  32        4PZ         0.00099   0.03174  -0.00030   0.03026   0.00252
  33 5   H  1S          0.03201   0.02496   0.00618   0.01506  -0.07963
  34        2S          0.07001   0.02177  -0.03398   0.12507  -0.78080
  35        3S          1.08740   0.89732  -1.51077   0.45590   0.48856
  36 6   H  1S         -0.03170   0.02617  -0.00506   0.00699   0.08816
  37        2S         -0.07035   0.02279   0.03541   0.05476   0.88858
  38        3S         -1.00081   0.93663   1.48504   0.48389  -0.45955
                          16        17        18        19        20
                           V         V         V         V         V
     Eigenvalues --     0.39813   0.46291   0.48825   0.49345   0.59127
   1 1   C  1S         -0.01687   0.01368  -0.04617  -0.00067  -0.00039
   2        2S         -0.03000   0.03092  -0.07706  -0.00091  -0.00070
   3        2PX         0.02365  -0.06240   0.01141   0.00113   0.00159
   4        2PY         0.04314  -0.10685   0.01307   0.00163   0.00235
   5        2PZ        -0.00007  -0.00063   0.00520  -0.15137  -0.19282
   6        3S          0.07639  -0.33874   0.08361  -0.00676  -0.00075
   7        3PX         0.09725  -0.24263  -0.03627   0.00029   0.00528
   8        3PY         0.18212  -0.41342  -0.07583  -0.00034   0.00798
   9        3PZ        -0.00344  -0.00409   0.02286  -0.62705  -0.68614
  10        4S          2.42012  -0.01434   3.18649   0.10521   0.05337
  11        4PX         0.10272   0.17742   0.79269   0.03141   0.01765
  12        4PY         0.21259   0.35245   1.39741   0.05632   0.02879
  13        4PZ        -0.00536   0.00075  -0.07562   0.68427   1.24266
  14 2   H  1S         -0.02866  -0.03221  -0.07791  -0.00271  -0.00133
  15        2S         -0.56839  -0.29925  -0.93402  -0.02774  -0.00974
  16        3S          0.25889   0.04457   0.64233   0.03039   0.01812
  17 3   H  1S         -0.03525  -0.03587  -0.07531  -0.00265  -0.00123
  18        2S         -0.62835  -0.34468  -0.91369  -0.02743  -0.00779
  19        3S          0.26753   0.04809   0.59829   0.02912   0.01758
  20 4   C  1S         -0.00318  -0.00405   0.05095   0.00280   0.00056
  21        2S         -0.00879   0.00082   0.08882   0.00504   0.00106
  22        2PX         0.00538   0.05335   0.02718   0.00030   0.00153
  23        2PY         0.01197   0.09375   0.05131   0.00064   0.00297
  24        2PZ        -0.00252  -0.00131   0.00533  -0.15283   0.19231
  25        3S          0.08421  -0.28079  -0.24014  -0.01831  -0.00221
  26        3PX        -0.05038   0.23001   0.05606   0.00050   0.00545
  27        3PY        -0.07712   0.40652   0.10487   0.00098   0.01031
  28        3PZ        -0.00741  -0.00551   0.02000  -0.63155   0.68216
  29        4S         -0.57566   0.88461  -3.04960  -0.11776  -0.04746
  30        4PX         1.13052  -0.40381   0.63917   0.02103   0.01562
  31        4PY         2.05129  -0.65975   1.07726   0.03481   0.02866
  32        4PZ        -0.02195  -0.01076   0.01938   0.69461  -1.23817
  33 5   H  1S         -0.04958  -0.06593   0.06162   0.00234   0.00116
  34        2S         -0.85372  -0.67117   0.76988   0.03346   0.00442
  35        3S         -0.12727   0.30134  -0.54818  -0.01431  -0.01725
  36 6   H  1S         -0.04191  -0.06327   0.06312   0.00244   0.00124
  37        2S         -0.76912  -0.63312   0.77315   0.03351   0.00572
  38        3S         -0.15335   0.30987  -0.57713  -0.01567  -0.01756
                          21        22        23        24        25
                           V         V         V         V         V
     Eigenvalues --     0.66496   0.69082   0.77194   0.77679   0.84273
   1 1   C  1S          0.00072  -0.00058   0.05511   0.07073   0.00104
   2        2S          0.00145  -0.00132   0.11636   0.15080   0.00228
   3        2PX        -0.11975   0.20553  -0.01882   0.11480  -0.00943
   4        2PY         0.07016  -0.12318  -0.03432   0.18732   0.01129
   5        2PZ        -0.00001   0.00013   0.00075   0.00380   0.00014
   6        3S         -0.01057   0.01789  -0.79813  -1.31357  -0.01972
   7        3PX        -0.57304   0.73085  -0.14842   0.45332  -0.22327
   8        3PY         0.33272  -0.43669  -0.26581   0.73393   0.15222
   9        3PZ        -0.00012   0.00056   0.00277   0.01322   0.00065
  10        4S          0.01564  -0.09845   0.81043   2.46442  -0.09806
  11        4PX         1.07966  -0.83896   0.08957  -0.73471   4.45788
  12        4PY        -0.63095   0.49025   0.15746  -1.02724  -2.60205
  13        4PZ         0.00010   0.00074   0.00464  -0.04365   0.00131
  14 2   H  1S          0.01928  -0.06023   0.01256   0.03145  -0.02717
  15        2S          0.08035  -0.64305   0.09162   0.08420  -1.54936
  16        3S         -0.98659   1.16135  -0.14784  -1.10746  -1.22327
  17 3   H  1S         -0.01879   0.05982   0.01239   0.03241   0.02969
  18        2S         -0.08986   0.68362   0.10002   0.06721   1.58903
  19        3S          0.97867  -1.13651  -0.15803  -1.23640   1.22722
  20 4   C  1S          0.00090  -0.00087   0.08562   0.02585   0.00087
  21        2S          0.00180  -0.00169   0.18216   0.05440   0.00187
  22        2PX        -0.16238  -0.17561  -0.09402   0.05702   0.01206
  23        2PY         0.09269   0.09804  -0.16764   0.10430  -0.00258
  24        2PZ        -0.00002  -0.00015   0.00367  -0.00099  -0.00014
  25        3S         -0.01258   0.00505  -1.51363  -0.28428  -0.01448
  26        3PX        -0.71687  -0.58033  -0.34023   0.29686   0.24915
  27        3PY         0.41130   0.32135  -0.60847   0.53846  -0.11942
  28        3PZ        -0.00012  -0.00051   0.01301  -0.00370  -0.00050
  29        4S          0.01374   0.05666   2.71333  -0.05557   0.08310
  30        4PX         1.28305   0.63751   0.51880  -0.28223  -4.22979
  31        4PY        -0.73022  -0.37156   0.94659  -0.69000   2.36178
  32        4PZ         0.00016  -0.00035  -0.03733   0.02119  -0.00062
  33 5   H  1S         -0.02897  -0.05397   0.03498   0.00055  -0.02307
  34        2S         -0.18886  -0.55828   0.07225   0.06809  -1.41935
  35        3S          1.15797   0.90918  -1.12363   0.34869  -1.10387
  36 6   H  1S          0.02937   0.05329   0.03477   0.00151   0.02374
  37        2S          0.18258   0.52437   0.06406   0.02519   1.40974
  38        3S         -1.16104  -0.90777  -1.08324   0.28409   1.10744
                          26        27        28        29        30
                           V         V         V         V         V
     Eigenvalues --     0.95435   2.23188   2.28901   2.33356   2.40720
   1 1   C  1S          0.09560  -0.01077  -0.01453  -0.00037  -0.00049
   2        2S          0.19866   0.00049  -0.01517  -0.00092  -0.00049
   3        2PX        -0.09213  -0.08537  -0.13322  -0.33420  -0.41225
   4        2PY        -0.15979  -0.15731  -0.23104   0.19106   0.23826
   5        2PZ         0.00022  -0.01117  -0.01411   0.00011  -0.00041
   6        3S         -1.53611  -0.18326  -0.02907   0.00273  -0.00490
   7        3PX        -0.23829   0.08295   0.21037   0.39668   0.57306
   8        3PY        -0.40609   0.16724   0.37827  -0.22912  -0.33520
   9        3PZ        -0.00187   0.01127   0.01752  -0.00021   0.00046
  10        4S          5.71605  -0.13267  -0.89764  -0.00236  -0.03979
  11        4PX         1.19417   0.05656  -0.19254   0.02051   0.96778
  12        4PY         1.99942   0.06770  -0.34990  -0.00534  -0.54899
  13        4PZ        -0.01520   0.00320   0.00663   0.00023   0.00086
  14 2   H  1S          0.01550  -0.72339  -0.77668   0.69214   0.67074
  15        2S         -0.28905   1.03178   1.16969  -1.05281  -1.48205
  16        3S         -0.08297  -0.30850  -0.46244   0.46322   0.37979
  17 3   H  1S          0.01552  -0.71789  -0.77386  -0.68162  -0.69220
  18        2S         -0.26503   1.02700   1.16614   1.04171   1.52690
  19        3S         -0.07426  -0.28545  -0.44889  -0.45177  -0.37307
  20 4   C  1S         -0.09413  -0.00974   0.01202  -0.00037   0.00024
  21        2S         -0.19532   0.00128   0.01167  -0.00056   0.00033
  22        2PX        -0.09339   0.12824  -0.12614  -0.31564   0.41363
  23        2PY        -0.16095   0.22566  -0.21538   0.18113  -0.23329
  24        2PZ         0.00034  -0.01034   0.01332  -0.00007   0.00011
  25        3S          1.50858  -0.17200   0.02146   0.00047   0.00028
  26        3PX        -0.23192  -0.16343   0.21699   0.39834  -0.58127
  27        3PY        -0.40494  -0.28413   0.36313  -0.22623   0.32646
  28        3PZ         0.00288   0.01109  -0.01713   0.00007  -0.00017
  29        4S         -5.69054  -0.14550   0.88229  -0.01216   0.02176
  30        4PX         1.12286  -0.01491  -0.19679  -0.08782  -0.86463
  31        4PY         1.99385  -0.03342  -0.32936   0.04992   0.49256
  32        4PZ         0.00830   0.00271  -0.00466   0.00010  -0.00056
  33 5   H  1S         -0.01812  -0.77750   0.69328  -0.71899   0.66753
  34        2S          0.29018   1.12562  -1.05375   1.05529  -1.43187
  35        3S          0.05685  -0.35318   0.41557  -0.51885   0.41692
  36 6   H  1S         -0.01816  -0.76721   0.71270   0.71092  -0.66575
  37        2S          0.30848   1.10819  -1.08118  -1.03995   1.42327
  38        3S          0.05776  -0.35109   0.43587   0.51739  -0.42128
                          31        32        33        34        35
                           V         V         V         V         V
     Eigenvalues --     2.67158   2.81773   2.87842   2.95113   3.14221
   1 1   C  1S          0.00043   0.00193  -0.01312   0.00011  -0.00936
   2        2S          0.00041   0.00565  -0.04448   0.00003  -0.02891
   3        2PX         0.00437   0.05592  -0.46895  -0.73691   0.45361
   4        2PY         0.00734   0.09761  -0.83579   0.40980   0.80072
   5        2PZ        -0.92251  -0.93590  -0.10850  -0.00075   0.00602
   6        3S         -0.00203  -0.04718   0.39486   0.00156   0.24436
   7        3PX        -0.00378  -0.09742   0.83867   0.88840  -0.44457
   8        3PY        -0.00655  -0.16883   1.47160  -0.48228  -0.78552
   9        3PZ         0.93663   1.14451   0.13596   0.00108  -0.00798
  10        4S          0.01181   0.10899  -0.88182  -0.00938  -0.47397
  11        4PX        -0.00102   0.07875  -0.72148  -0.66504   0.23071
  12        4PY        -0.00090   0.13677  -1.27220   0.35371   0.40982
  13        4PZ        -0.33657  -0.62030  -0.08613  -0.00088   0.00527
  14 2   H  1S          0.00933  -0.01573   0.26993  -0.37512  -0.22337
  15        2S         -0.01082   0.01018  -0.22984   0.38249   0.16978
  16        3S         -0.00210   0.03118  -0.29739   0.27332   0.07077
  17 3   H  1S          0.00939  -0.01492   0.25769   0.37786  -0.21841
  18        2S         -0.01099   0.00860  -0.20729  -0.37998   0.16384
  19        3S         -0.00262   0.03225  -0.30444  -0.29139   0.07339
  20 4   C  1S          0.00035  -0.00190   0.01382   0.00055  -0.00718
  21        2S          0.00027  -0.00594   0.04834   0.00131  -0.02319
  22        2PX        -0.00525   0.05015  -0.41479  -0.79835  -0.49880
  23        2PY        -0.00915   0.08970  -0.74546   0.44765  -0.87881
  24        2PZ        -0.92713   0.93108   0.10849   0.00050   0.00909
  25        3S         -0.00126   0.05125  -0.43518  -0.01042   0.20292
  26        3PX         0.00500  -0.09123   0.77731   0.94844   0.52814
  27        3PY         0.00855  -0.16189   1.38351  -0.52331   0.93723
  28        3PZ         0.94275  -1.13977  -0.13711  -0.00062  -0.01121
  29        4S          0.01009  -0.11141   0.91845   0.02854  -0.38930
  30        4PX        -0.00001   0.07745  -0.71283  -0.69674  -0.31564
  31        4PY        -0.00029   0.13647  -1.25182   0.37592  -0.56342
  32        4PZ        -0.33977   0.61828   0.08775   0.00040   0.00857
  33 5   H  1S          0.00882   0.02132  -0.29277   0.41870  -0.25602
  34        2S         -0.01076  -0.01733   0.26397  -0.43364   0.20106
  35        3S         -0.00111  -0.02957   0.28421  -0.24110   0.11516
  36 6   H  1S          0.00896   0.02192  -0.29392  -0.42568  -0.24858
  37        2S         -0.01121  -0.01852   0.27264   0.44034   0.19516
  38        3S         -0.00081  -0.02766   0.26640   0.24221   0.11285
                          36        37        38
                           V         V         V
     Eigenvalues --     3.31789  23.35137  23.70793
   1 1   C  1S         -0.00058  -1.41111  -1.45512
   2        2S         -0.00092   1.50483   1.57361
   3        2PX         0.78044  -0.00665   0.01190
   4        2PY        -0.43938  -0.01077   0.02109
   5        2PZ         0.00049  -0.00044  -0.00020
   6        3S          0.00299  -0.29475  -0.40083
   7        3PX        -1.11652   0.02481  -0.05569
   8        3PY         0.62695   0.04091  -0.09744
   9        3PZ        -0.00077   0.00125   0.00063
  10        4S         -0.03255   0.27029   0.77334
  11        4PX         1.95820  -0.02770   0.13242
  12        4PY        -1.10925  -0.04629   0.23083
  13        4PZ         0.00125  -0.00211  -0.00250
  14 2   H  1S          0.55749   0.01350   0.00706
  15        2S         -0.86784   0.00767  -0.01463
  16        3S         -0.46582  -0.08433  -0.03897
  17 3   H  1S         -0.56959   0.01539   0.00866
  18        2S          0.88452   0.00700  -0.01559
  19        3S          0.48799  -0.08652  -0.04022
  20 4   C  1S          0.00023  -1.45027   1.41592
  21        2S          0.00011   1.54679  -1.53141
  22        2PX        -0.71580   0.00573   0.01274
  23        2PY         0.40507   0.01034   0.02152
  24        2PZ        -0.00031  -0.00040   0.00008
  25        3S          0.00172  -0.30373   0.39084
  26        3PX         1.01835  -0.02155  -0.05731
  27        3PY        -0.58273  -0.03842  -0.09808
  28        3PZ         0.00048   0.00115  -0.00019
  29        4S          0.00546   0.28278  -0.76228
  30        4PX        -1.79828   0.02184   0.13342
  31        4PY         1.02977   0.04051   0.22842
  32        4PZ        -0.00077  -0.00184   0.00153
  33 5   H  1S          0.48809   0.01254  -0.00427
  34        2S         -0.76396   0.00823   0.01355
  35        3S         -0.42281  -0.08254   0.03714
  36 6   H  1S         -0.48394   0.01126  -0.00302
  37        2S          0.75986   0.00960   0.01252
  38        3S          0.41725  -0.08112   0.03566
     Density Matrix:
                           1         2         3         4         5
   1 1   C  1S          0.65941
   2        2S          0.56154   0.49207
   3        2PX        -0.00053  -0.00071   0.08467
   4        2PY        -0.00132  -0.00185   0.00361   0.08792
   5        2PZ         0.00006   0.00010  -0.00009  -0.00019   0.06445
   6        3S         -0.08897  -0.15392   0.00268   0.00648  -0.00012
   7        3PX         0.00091   0.00140   0.13090   0.00119  -0.00006
   8        3PY         0.00122   0.00187   0.00116   0.13148  -0.00015
   9        3PZ         0.00013   0.00022  -0.00015  -0.00030   0.10370
  10        4S         -0.07922  -0.11401  -0.01509  -0.02732   0.00034
  11        4PX         0.00023   0.00151   0.07046  -0.00461  -0.00046
  12        4PY         0.00059   0.00297  -0.00462   0.06559  -0.00082
  13        4PZ        -0.00010  -0.00024  -0.00062  -0.00105   0.09577
  14 2   H  1S         -0.02058  -0.03277   0.03462  -0.06339  -0.00098
  15        2S         -0.02278  -0.03641   0.04905  -0.08792  -0.00072
  16        3S          0.00058  -0.00069   0.02088  -0.03302  -0.00004
  17 3   H  1S         -0.02109  -0.03356  -0.07311  -0.00205  -0.00104
  18        2S         -0.02307  -0.03685  -0.10073  -0.00184  -0.00079
  19        3S          0.00062  -0.00066  -0.03845   0.00149  -0.00006
  20 4   C  1S          0.00612   0.00987  -0.01092  -0.01881  -0.00030
  21        2S          0.00983   0.01537  -0.01747  -0.03010  -0.00048
  22        2PX         0.01040   0.01662  -0.01236  -0.03217   0.00036
  23        2PY         0.01819   0.02909  -0.03237  -0.04972   0.00067
  24        2PZ        -0.00039  -0.00064  -0.00029  -0.00047   0.06441
  25        3S         -0.02651  -0.04025   0.04900   0.08444   0.00145
  26        3PX         0.01604   0.02485  -0.01815  -0.04570   0.00047
  27        3PY         0.02803   0.04346  -0.04592  -0.07102   0.00088
  28        3PZ        -0.00067  -0.00107  -0.00051  -0.00083   0.10304
  29        4S          0.00536   0.00395   0.02054   0.03558   0.00195
  30        4PX         0.00309   0.00640  -0.01293  -0.02081   0.00050
  31        4PY         0.00528   0.01098  -0.02086  -0.03722   0.00094
  32        4PZ        -0.00057  -0.00092  -0.00082  -0.00135   0.09575
  33 5   H  1S          0.00421   0.00692  -0.00169  -0.01227  -0.00035
  34        2S          0.00641   0.01066   0.00349  -0.02494  -0.00003
  35        3S          0.00331   0.00487   0.00424  -0.01760   0.00008
  36 6   H  1S          0.00415   0.00681  -0.00988  -0.00769  -0.00036
  37        2S          0.00624   0.01038  -0.02348  -0.00943  -0.00004
  38        3S          0.00323   0.00474  -0.01739  -0.00510   0.00006
                           6         7         8         9        10
   6        3S          0.45271
   7        3PX        -0.00195   0.20268
   8        3PY        -0.00158  -0.00461   0.19715
   9        3PZ        -0.00040  -0.00011  -0.00024   0.16684
  10        4S          0.27238  -0.02565  -0.04716   0.00042   0.18062
  11        4PX        -0.00656   0.10943  -0.01035  -0.00076  -0.01455
  12        4PY        -0.01227  -0.01032   0.09880  -0.00131  -0.02829
  13        4PZ         0.00102  -0.00083  -0.00139   0.15408   0.00155
  14 2   H  1S          0.08755   0.05568  -0.09900  -0.00162   0.06905
  15        2S          0.09741   0.07924  -0.13684  -0.00122   0.08092
  16        3S          0.00601   0.03405  -0.05080  -0.00007   0.01098
  17 3   H  1S          0.08974  -0.11434  -0.00161  -0.00171   0.06870
  18        2S          0.09872  -0.15737  -0.00003  -0.00130   0.07910
  19        3S          0.00612  -0.05982   0.00414  -0.00008   0.00987
  20 4   C  1S         -0.02672  -0.01700  -0.02934  -0.00051   0.00521
  21        2S         -0.04045  -0.02642  -0.04559  -0.00082   0.00390
  22        2PX        -0.04644  -0.01753  -0.04555   0.00063  -0.01781
  23        2PY        -0.08139  -0.04593  -0.07082   0.00115  -0.03145
  24        2PZ         0.00190  -0.00040  -0.00063   0.10362   0.00183
  25        3S          0.10312   0.07174   0.12384   0.00243   0.00116
  26        3PX        -0.06714  -0.02589  -0.06447   0.00082  -0.02656
  27        3PY        -0.11762  -0.06498  -0.10110   0.00153  -0.04684
  28        3PZ         0.00316  -0.00070  -0.00112   0.16578   0.00305
  29        4S          0.00185   0.03102   0.05398   0.00323  -0.03238
  30        4PX        -0.02260  -0.01926  -0.02913   0.00083  -0.00682
  31        4PY        -0.03900  -0.02932  -0.05375   0.00156  -0.01138
  32        4PZ         0.00269  -0.00114  -0.00188   0.15405   0.00283
  33 5   H  1S         -0.02059  -0.00069  -0.01767  -0.00051  -0.01523
  34        2S         -0.03185   0.00847  -0.03676   0.00002  -0.02009
  35        3S         -0.01256   0.00807  -0.02649   0.00014  -0.00387
  36 6   H  1S         -0.02018  -0.01489  -0.00928  -0.00052  -0.01515
  37        2S         -0.03096  -0.03593  -0.01054   0.00001  -0.02019
  38        3S         -0.01214  -0.02683  -0.00599   0.00012  -0.00410
                          11        12        13        14        15
  11        4PX         0.06017
  12        4PY        -0.00912   0.05105
  13        4PZ        -0.00108  -0.00183   0.14231
  14 2   H  1S          0.03346  -0.05434  -0.00084   0.08149
  15        2S          0.04838  -0.07499  -0.00030   0.10959   0.14950
  16        3S          0.02119  -0.02772   0.00014   0.03678   0.05246
  17 3   H  1S         -0.06328   0.00175  -0.00087  -0.01305  -0.02487
  18        2S         -0.08752   0.00448  -0.00032  -0.02475  -0.04327
  19        3S         -0.03361   0.00466   0.00014  -0.01817  -0.02760
  20 4   C  1S         -0.00314  -0.00565  -0.00045   0.00423   0.00662
  21        2S         -0.00650  -0.01160  -0.00072   0.00699   0.01105
  22        2PX        -0.01326  -0.01999   0.00085   0.00193  -0.00270
  23        2PY        -0.02016  -0.03667   0.00153   0.01151   0.02417
  24        2PZ        -0.00061  -0.00101   0.09570  -0.00045  -0.00011
  25        3S          0.02309   0.04095   0.00209  -0.02098  -0.03320
  26        3PX        -0.02045  -0.02813   0.00115   0.00097  -0.00750
  27        3PY        -0.02840  -0.05324   0.00209   0.01699   0.03605
  28        3PZ        -0.00100  -0.00167   0.15311  -0.00066  -0.00010
  29        4S          0.00762   0.01437   0.00294  -0.01727  -0.02340
  30        4PX        -0.01480  -0.01228   0.00100  -0.00172  -0.00866
  31        4PY        -0.01233  -0.02938   0.00186   0.01541   0.02727
  32        4PZ        -0.00120  -0.00203   0.14229  -0.00037   0.00026
  33 5   H  1S          0.00201  -0.01570  -0.00026   0.01125   0.02345
  34        2S          0.00922  -0.02748   0.00031   0.02386   0.04463
  35        3S          0.00759  -0.01587   0.00026   0.01673   0.02801
  36 6   H  1S         -0.01471  -0.00586  -0.00026  -0.00908  -0.01821
  37        2S         -0.02851  -0.00527   0.00032  -0.01890  -0.03450
  38        3S         -0.01744  -0.00114   0.00025  -0.01028  -0.01798
                          16        17        18        19        20
  16        3S          0.02107
  17 3   H  1S         -0.01843   0.08283
  18        2S         -0.02780   0.11000   0.14824
  19        3S         -0.01308   0.03623   0.05112   0.02025
  20 4   C  1S          0.00365   0.00431   0.00672   0.00368   0.65947
  21        2S          0.00537   0.00712   0.01120   0.00540   0.56155
  22        2PX        -0.00357   0.00897   0.02207   0.01655   0.00122
  23        2PY         0.01751   0.00747   0.00967   0.00556   0.00191
  24        2PZ         0.00002  -0.00045  -0.00008   0.00005   0.00007
  25        3S         -0.01385  -0.02137  -0.03359  -0.01391  -0.08918
  26        3PX        -0.00724   0.01430   0.03483   0.02592  -0.00046
  27        3PY         0.02635   0.00947   0.01158   0.00686  -0.00102
  28        3PZ         0.00005  -0.00065  -0.00006   0.00009   0.00014
  29        4S         -0.00547  -0.01722  -0.02298  -0.00516  -0.08023
  30        4PX        -0.00719   0.01395   0.02744   0.01698  -0.00022
  31        4PY         0.01593   0.00629   0.00613   0.00169  -0.00023
  32        4PZ         0.00021  -0.00036   0.00029   0.00023  -0.00001
  33 5   H  1S          0.01626  -0.00914  -0.01826  -0.00952  -0.01999
  34        2S          0.02760  -0.01888  -0.03426  -0.01713  -0.02217
  35        3S          0.01476  -0.01023  -0.01775  -0.00908   0.00055
  36 6   H  1S         -0.00960   0.01125   0.02321   0.01586  -0.01976
  37        2S         -0.01746   0.02397   0.04438   0.02705  -0.02219
  38        3S         -0.00931   0.01679   0.02787   0.01451   0.00044
                          21        22        23        24        25
  21        2S          0.49202
  22        2PX         0.00176   0.08230
  23        2PY         0.00273   0.00396   0.08757
  24        2PZ         0.00010   0.00012   0.00018   0.06438
  25        3S         -0.15412  -0.00564  -0.00886  -0.00015   0.45327
  26        3PX        -0.00068   0.12817   0.00204   0.00008  -0.00035
  27        3PY        -0.00155   0.00214   0.13116   0.00010   0.00050
  28        3PZ         0.00024   0.00017   0.00028   0.10300  -0.00050
  29        4S         -0.11592   0.01438   0.02425   0.00059   0.27865
  30        4PX        -0.00154   0.07295  -0.00514   0.00033   0.00652
  31        4PY        -0.00233  -0.00513   0.06683   0.00061   0.01025
  32        4PZ        -0.00007   0.00063   0.00111   0.09570   0.00047
  33 5   H  1S         -0.03186  -0.03338   0.06322  -0.00093   0.08519
  34        2S         -0.03543  -0.04971   0.08843  -0.00075   0.09480
  35        3S         -0.00068  -0.02259   0.03361  -0.00006   0.00581
  36 6   H  1S         -0.03151   0.07075   0.00298  -0.00089   0.08428
  37        2S         -0.03547   0.10103   0.00136  -0.00068   0.09484
  38        3S         -0.00081   0.04052  -0.00285  -0.00003   0.00604
                          26        27        28        29        30
  26        3PX         0.19998
  27        3PY        -0.00262   0.19704
  28        3PZ         0.00010   0.00014   0.16478
  29        4S          0.02636   0.04425   0.00076   0.18796
  30        4PX         0.11431  -0.01083   0.00052   0.01635   0.06642
  31        4PY        -0.01094   0.10095   0.00097   0.02613  -0.01064
  32        4PZ         0.00080   0.00142   0.15312   0.00162   0.00085
  33 5   H  1S         -0.05362   0.09912  -0.00154   0.06734  -0.03456
  34        2S         -0.08030   0.13812  -0.00125   0.07829  -0.05225
  35        3S         -0.03695   0.05180  -0.00009   0.00972  -0.02426
  36 6   H  1S          0.11196   0.00379  -0.00148   0.06788   0.06556
  37        2S          0.15970   0.00022  -0.00116   0.08001   0.09395
  38        3S          0.06374  -0.00603  -0.00006   0.01062   0.03781
                          31        32        33        34        35
  31        4PY         0.05331
  32        4PZ         0.00158   0.14229
  33 5   H  1S          0.05554  -0.00080   0.08037
  34        2S          0.07751  -0.00034   0.10993   0.15277
  35        3S          0.02919   0.00015   0.03817   0.05559   0.02304
  36 6   H  1S         -0.00186  -0.00077  -0.01246  -0.02593  -0.01983
  37        2S         -0.00617  -0.00030  -0.02607  -0.04820  -0.03157
  38        3S         -0.00635   0.00016  -0.02009  -0.03176  -0.01569
                          36        37        38
  36 6   H  1S          0.07950
  37        2S          0.10947   0.15309
  38        3S          0.03828   0.05603   0.02331
    Full Mulliken population analysis:
                           1         2         3         4         5
   1 1   C  1S          0.65941
   2        2S          0.49328   0.49207
   3        2PX         0.00000   0.00000   0.08467
   4        2PY         0.00000   0.00000   0.00000   0.08792
   5        2PZ         0.00000   0.00000   0.00000   0.00000   0.06445
   6        3S         -0.02929  -0.06446   0.00000   0.00000   0.00000
   7        3PX         0.00000   0.00000   0.08235   0.00000   0.00000
   8        3PY         0.00000   0.00000   0.00000   0.08272   0.00000
   9        3PZ         0.00000   0.00000   0.00000   0.00000   0.06524
  10        4S         -0.01218  -0.02134   0.00000   0.00000   0.00000
  11        4PX         0.00000   0.00000   0.01552   0.00000   0.00000
  12        4PY         0.00000   0.00000   0.00000   0.01444   0.00000
  13        4PZ         0.00000   0.00000   0.00000   0.00000   0.02109
  14 2   H  1S         -0.00023  -0.00033   0.00178   0.00573   0.00000
  15        2S         -0.00167  -0.00319   0.00423   0.01333   0.00000
  16        3S          0.00005  -0.00007   0.00069   0.00191   0.00000
  17 3   H  1S         -0.00026  -0.00038   0.00804   0.00000   0.00000
  18        2S         -0.00174  -0.00333   0.01784   0.00000   0.00000
  19        3S          0.00005  -0.00006   0.00256  -0.00000   0.00000
  20 4   C  1S          0.00000   0.00000  -0.00002  -0.00006   0.00000
  21        2S          0.00000  -0.00000  -0.00002  -0.00006   0.00000
  22        2PX        -0.00002  -0.00002   0.00011   0.00087   0.00000
  23        2PY        -0.00006  -0.00005   0.00087   0.00199   0.00000
  24        2PZ        -0.00000  -0.00000  -0.00000  -0.00000   0.00042
  25        3S         -0.00060  -0.00102   0.00258   0.00769  -0.00000
  26        3PX        -0.00055  -0.00100   0.00019   0.00556   0.00000
  27        3PY        -0.00166  -0.00304   0.00558   0.01070   0.00000
  28        3PZ        -0.00000  -0.00000  -0.00000  -0.00000   0.00617
  29        4S          0.00034   0.00030   0.00093   0.00280  -0.00000
  30        4PX        -0.00018  -0.00046  -0.00070   0.00144   0.00000
  31        4PY        -0.00053  -0.00135   0.00144   0.00095   0.00000
  32        4PZ        -0.00000  -0.00000  -0.00000  -0.00000   0.00904
  33 5   H  1S          0.00000   0.00000  -0.00000  -0.00000   0.00000
  34        2S          0.00001   0.00002   0.00000  -0.00032   0.00000
  35        3S          0.00008   0.00013   0.00001  -0.00071  -0.00000
  36 6   H  1S          0.00000   0.00000  -0.00000  -0.00000   0.00000
  37        2S          0.00001   0.00002  -0.00024  -0.00007   0.00000
  38        3S          0.00007   0.00013  -0.00057  -0.00011  -0.00000
                           6         7         8         9        10
   6        3S          0.45271
   7        3PX         0.00000   0.20268
   8        3PY         0.00000   0.00000   0.19715
   9        3PZ         0.00000   0.00000   0.00000   0.16684
  10        4S          0.21101   0.00000   0.00000   0.00000   0.18062
  11        4PX         0.00000   0.07151   0.00000   0.00000   0.00000
  12        4PY         0.00000   0.00000   0.06456   0.00000   0.00000
  13        4PZ         0.00000   0.00000   0.00000   0.10068   0.00000
  14 2   H  1S          0.01615   0.01052   0.03288   0.00001   0.01829
  15        2S          0.04109   0.01915   0.05814   0.00001   0.04670
  16        3S          0.00277   0.00392   0.01027   0.00000   0.00829
  17 3   H  1S          0.01714   0.04471   0.00001   0.00002   0.01844
  18        2S          0.04247   0.07751   0.00000   0.00002   0.04611
  19        3S          0.00285   0.01387  -0.00001   0.00000   0.00750
  20 4   C  1S         -0.00061  -0.00058  -0.00173   0.00000   0.00033
  21        2S         -0.00102  -0.00107  -0.00319   0.00000   0.00030
  22        2PX         0.00244   0.00018   0.00554   0.00000   0.00081
  23        2PY         0.00741   0.00558   0.01067   0.00000   0.00248
  24        2PZ         0.00000  -0.00000  -0.00000   0.00621   0.00000
  25        3S          0.02212   0.01351   0.04036  -0.00000   0.00044
  26        3PX         0.01264  -0.00128   0.01844   0.00000   0.00410
  27        3PY         0.03833   0.01859   0.02838   0.00000   0.01251
  28        3PZ         0.00000  -0.00000  -0.00000   0.03556   0.00000
  29        4S          0.00070   0.00479   0.01442  -0.00000  -0.02037
  30        4PX         0.00636  -0.00397   0.00576   0.00000   0.00207
  31        4PY         0.01899   0.00580   0.00118   0.00000   0.00597
  32        4PZ         0.00000  -0.00000  -0.00000   0.04937   0.00000
  33 5   H  1S         -0.00006  -0.00000  -0.00019   0.00000  -0.00082
  34        2S         -0.00124   0.00006  -0.00325  -0.00000  -0.00338
  35        3S         -0.00205   0.00010  -0.00428  -0.00000  -0.00140
  36 6   H  1S         -0.00005  -0.00012  -0.00005   0.00000  -0.00079
  37        2S         -0.00116  -0.00254  -0.00051  -0.00000  -0.00333
  38        3S         -0.00195  -0.00354  -0.00054  -0.00000  -0.00146
                          11        12        13        14        15
  11        4PX         0.06017
  12        4PY         0.00000   0.05105
  13        4PZ         0.00000   0.00000   0.14231
  14 2   H  1S          0.00619   0.01768   0.00001   0.08149
  15        2S          0.01507   0.04107   0.00000   0.07741   0.14950
  16        3S          0.00517   0.01189  -0.00000   0.01374   0.04139
  17 3   H  1S          0.02372  -0.00001   0.00001  -0.00001  -0.00069
  18        2S          0.05503  -0.00003   0.00000  -0.00068  -0.00558
  19        3S          0.01649  -0.00002  -0.00000  -0.00206  -0.00816
  20 4   C  1S         -0.00018  -0.00057   0.00000   0.00000   0.00002
  21        2S         -0.00046  -0.00143   0.00000   0.00000   0.00003
  22        2PX        -0.00072   0.00138   0.00000  -0.00000   0.00000
  23        2PY         0.00140   0.00094   0.00000  -0.00000  -0.00035
  24        2PZ        -0.00000  -0.00000   0.00903   0.00000   0.00000
  25        3S          0.00649   0.01994  -0.00000  -0.00007  -0.00145
  26        3PX        -0.00422   0.00556   0.00000  -0.00000   0.00004
  27        3PY         0.00562   0.00117   0.00000  -0.00022  -0.00351
  28        3PZ        -0.00000  -0.00000   0.04906   0.00000   0.00000
  29        4S          0.00231   0.00754  -0.00000  -0.00100  -0.00418
  30        4PX        -0.00715   0.00310   0.00000   0.00002   0.00020
  31        4PY         0.00311  -0.00563   0.00000  -0.00243  -0.01024
  32        4PZ        -0.00000  -0.00000   0.08951   0.00000  -0.00000
  33 5   H  1S          0.00002  -0.00233   0.00000   0.00000   0.00000
  34        2S          0.00026  -0.00989  -0.00000   0.00000   0.00016
  35        3S          0.00027  -0.00734  -0.00000   0.00023   0.00146
  36 6   H  1S         -0.00177  -0.00049   0.00000  -0.00000  -0.00004
  37        2S         -0.00836  -0.00106  -0.00000  -0.00004  -0.00089
  38        3S         -0.00662  -0.00030  -0.00000  -0.00046  -0.00246
                          16        17        18        19        20
  16        3S          0.02107
  17 3   H  1S         -0.00209   0.08283
  18        2S         -0.00821   0.07770   0.14824
  19        3S         -0.00686   0.01354   0.04033   0.02025
  20 4   C  1S          0.00009   0.00000   0.00002   0.00009   0.65947
  21        2S          0.00016   0.00000   0.00003   0.00016   0.49329
  22        2PX         0.00001  -0.00000  -0.00028  -0.00058   0.00000
  23        2PY        -0.00073  -0.00000  -0.00008  -0.00013   0.00000
  24        2PZ        -0.00000   0.00000   0.00000  -0.00000   0.00000
  25        3S         -0.00238  -0.00007  -0.00150  -0.00242  -0.02936
  26        3PX         0.00007  -0.00016  -0.00289  -0.00363   0.00000
  27        3PY        -0.00440  -0.00007  -0.00064  -0.00064   0.00000
  28        3PZ        -0.00000   0.00000   0.00000  -0.00000   0.00000
  29        4S         -0.00205  -0.00102  -0.00416  -0.00195  -0.01234
  30        4PX         0.00020  -0.00186  -0.00866  -0.00669   0.00000
  31        4PY        -0.00750  -0.00056  -0.00129  -0.00044   0.00000
  32        4PZ        -0.00000   0.00000  -0.00000  -0.00000   0.00000
  33 5   H  1S          0.00023  -0.00000  -0.00004  -0.00043  -0.00021
  34        2S          0.00144  -0.00004  -0.00093  -0.00239  -0.00157
  35        3S          0.00248  -0.00047  -0.00248  -0.00291   0.00004
  36 6   H  1S         -0.00043   0.00000   0.00000   0.00022  -0.00020
  37        2S         -0.00238   0.00000   0.00015   0.00141  -0.00154
  38        3S         -0.00294   0.00023   0.00145   0.00243   0.00003
                          21        22        23        24        25
  21        2S          0.49202
  22        2PX         0.00000   0.08230
  23        2PY         0.00000   0.00000   0.08757
  24        2PZ         0.00000   0.00000   0.00000   0.06438
  25        3S         -0.06455   0.00000   0.00000   0.00000   0.45327
  26        3PX         0.00000   0.08064   0.00000   0.00000   0.00000
  27        3PY         0.00000   0.00000   0.08252   0.00000   0.00000
  28        3PZ         0.00000   0.00000   0.00000   0.06480   0.00000
  29        4S         -0.02169   0.00000   0.00000   0.00000   0.21587
  30        4PX         0.00000   0.01607   0.00000   0.00000   0.00000
  31        4PY         0.00000   0.00000   0.01472   0.00000   0.00000
  32        4PZ         0.00000   0.00000   0.00000   0.02108   0.00000
  33 5   H  1S         -0.00029   0.00148   0.00552   0.00000   0.01513
  34        2S         -0.00301   0.00386   0.01353   0.00000   0.03916
  35        3S         -0.00006   0.00068   0.00200   0.00000   0.00265
  36 6   H  1S         -0.00027   0.00666   0.00002   0.00000   0.01463
  37        2S         -0.00295   0.01712   0.00001   0.00000   0.03867
  38        3S         -0.00008   0.00271  -0.00001   0.00000   0.00275
                          26        27        28        29        30
  26        3PX         0.19998
  27        3PY         0.00000   0.19704
  28        3PZ         0.00000   0.00000   0.16478
  29        4S          0.00000   0.00000   0.00000   0.18796
  30        4PX         0.07469   0.00000   0.00000   0.00000   0.06642
  31        4PY         0.00000   0.06597   0.00000   0.00000   0.00000
  32        4PZ         0.00000   0.00000   0.10006   0.00000   0.00000
  33 5   H  1S          0.00904   0.03292   0.00001   0.01759   0.00585
  34        2S          0.01762   0.05969   0.00001   0.04469   0.01493
  35        3S          0.00390   0.01078   0.00000   0.00729   0.00545
  36 6   H  1S          0.04097   0.00009   0.00001   0.01758   0.02443
  37        2S          0.07682   0.00001   0.00001   0.04537   0.05921
  38        3S          0.01488  -0.00009   0.00000   0.00793   0.01880
                          31        32        33        34        35
  31        4PY         0.05331
  32        4PZ         0.00000   0.14229
  33 5   H  1S          0.01851   0.00001   0.08037
  34        2S          0.04360   0.00000   0.07765   0.15277
  35        3S          0.01292  -0.00000   0.01426   0.04386   0.02304
  36 6   H  1S         -0.00004   0.00001  -0.00001  -0.00076  -0.00230
  37        2S         -0.00025   0.00000  -0.00076  -0.00644  -0.00949
  38        3S         -0.00020  -0.00000  -0.00233  -0.00955  -0.00832
                          36        37        38
  36 6   H  1S          0.07950
  37        2S          0.07733   0.15309
  38        3S          0.01430   0.04420   0.02331
     Gross orbital populations:
                           1
   1 1   C  1S          1.10434
   2        2S          0.88586
   3        2PX         0.22786
   4        2PY         0.23672
   5        2PZ         0.16643
   6        3S          0.79329
   7        3PX         0.56172
   8        3PY         0.55672
   9        3PZ         0.42396
  10        4S          0.50088
  11        4PX         0.25886
  12        4PY         0.21122
  13        4PZ         0.41170
  14 2   H  1S          0.27458
  15        2S          0.46658
  16        3S          0.08580
  17 3   H  1S          0.27871
  18        2S          0.46440
  19        3S          0.08236
  20 4   C  1S          1.10442
  21        2S          0.88584
  22        2PX         0.22124
  23        2PY         0.23579
  24        2PZ         0.16593
  25        3S          0.79184
  26        3PX         0.55144
  27        3PY         0.55561
  28        3PZ         0.42048
  29        4S          0.50965
  30        4PX         0.27532
  31        4PY         0.21599
  32        4PZ         0.41135
  33 5   H  1S          0.27112
  34        2S          0.47057
  35        3S          0.08987
  36 6   H  1S          0.26842
  37        2S          0.47144
  38        3S          0.09171
          Condensed to atoms (all electrons):
               1          2          3          4          5          6
     1  C    5.032326   0.387485   0.388548   0.602894  -0.036271  -0.035416
     2  H    0.387485   0.517143  -0.034332  -0.039708   0.005997  -0.009629
     3  H    0.388548  -0.034332   0.514463  -0.039427  -0.009692   0.005898
     4  C    0.602894  -0.039708  -0.039427   5.054306   0.383757   0.383079
     5  H   -0.036271   0.005997  -0.009692   0.383757   0.527721  -0.039953
     6  H   -0.035416  -0.009629   0.005898   0.383079  -0.039953   0.527579
 Mulliken charges:
               1
     1  C   -0.339566
     2  H    0.173043
     3  H    0.174542
     4  C   -0.344901
     5  H    0.168440
     6  H    0.168442
 Sum of Mulliken charges =   0.00000
 Mulliken charges with hydrogens summed into heavy atoms:
               1
     1  C    0.008019
     4  C   -0.008019
 Electronic spatial extent (au):  <R**2>=             83.6977
 Charge=              0.0000 electrons
 Dipole moment (field-independent basis, Debye):
    X=             -0.0059    Y=              0.0116    Z=             -0.0815  Tot=              0.0825
 Quadrupole moment (field-independent basis, Debye-Ang):
   XX=            -12.2106   YY=            -12.2086   ZZ=            -15.6660
   XY=              0.0285   XZ=              0.0011   YZ=              0.0010
 Traceless Quadrupole moment (field-independent basis, Debye-Ang):
   XX=              1.1511   YY=              1.1531   ZZ=             -2.3043
   XY=              0.0285   XZ=              0.0011   YZ=              0.0010
 Octapole moment (field-independent basis, Debye-Ang**2):
  XXX=             -0.2953  YYY=             -0.1276  ZZZ=             -0.0632  XYY=              0.1162
  XXY=             -0.0282  XXZ=             -0.1130  XZZ=             -0.0992  YZZ=             -0.0982
  YYZ=             -0.1477  XYZ=             -0.0303
 Hexadecapole moment (field-independent basis, Debye-Ang**3):
 XXXX=            -34.2859 YYYY=            -55.1718 ZZZZ=            -17.7888 XXXY=             -7.2119
 XXXZ=              0.0160 YYYX=            -10.6797 YYYZ=              0.0237 ZZZX=              0.0173
 ZZZY=              0.0288 XXYY=            -16.1878 XXZZ=             -9.9237 YYZZ=            -13.6448
 XXYZ=              0.0072 YYXZ=              0.0011 ZZXY=             -3.2006
 N-N= 3.308415785405D+01 E-N=-2.478803676279D+02  KE= 7.815400080196D+01
 Orbital energies and kinetic energies (alpha):
                                 1                 2
   1         O               -10.291052         15.979138
   2         O               -10.287136         15.979040
   3         O                -0.864233          1.542059
   4         O                -0.671929          1.269925
   5         O                -0.558870          0.942130
   6         O                -0.510318          1.283665
   7         O                -0.435694          1.041582
   8         O                -0.357370          1.039461
   9         V                 0.080422          1.181310
  10         V                 0.140996          0.589663
  11         V                 0.164305          0.597757
  12         V                 0.169892          0.679437
  13         V                 0.240857          0.583684
  14         V                 0.376488          0.855323
  15         V                 0.392118          0.932002
  16         V                 0.398128          0.773964
  17         V                 0.462905          1.194958
  18         V                 0.488247          1.419515
  19         V                 0.493451          1.300241
  20         V                 0.591275          1.654227
  21         V                 0.664960          1.572472
  22         V                 0.690823          2.144766
  23         V                 0.771937          2.444241
  24         V                 0.776786          2.292884
  25         V                 0.842729          1.085471
  26         V                 0.954353          3.439374
  27         V                 2.231881          3.923422
  28         V                 2.289012          4.033270
  29         V                 2.333563          4.300869
  30         V                 2.407196          4.518876
  31         V                 2.671582          6.301841
  32         V                 2.817725          6.306205
  33         V                 2.878417          6.134152
  34         V                 2.951132          6.227255
  35         V                 3.142208          6.822339
  36         V                 3.317890          6.400351
  37         V                23.351371         60.073560
  38         V                23.707929         60.205502
 Total kinetic energy from orbitals= 7.815400080196D+01
 Calling FoFJK, ICntrl=      2127 FMM=F ISym2X=0 I1Cent= 0 IOpClX= 0 NMat=1 NMatS=1 NMatT=0.
 -------------------------------------------------------------------
 Center     Atomic                   Forces (Hartrees/Bohr)
 Number     Number              X              Y              Z
 -------------------------------------------------------------------
      1        6           0.012331130    0.005280506   -0.003467150
      2        1          -0.007320413    0.005579267    0.001719152
      3        1           0.000131826   -0.003447522    0.001548249
      4        6           0.011182340    0.013451035   -0.003440732
      5        1           0.004046464   -0.015492791    0.001774271
      6        1          -0.020371347   -0.005370494    0.001866209
 -------------------------------------------------------------------
 Cartesian Forces:  Max     0.020371347 RMS     0.008558987

 GradGradGradGradGradGradGradGradGradGradGradGradGradGradGradGradGradGrad
 Berny optimization.
 Search for a local minimum.
 Step number   1 out of a maximum of    2
 All quantities printed in internal units (Hartrees-Bohrs-Radians)
 Second derivative matrix not updated -- first step.
 The second derivative matrix:
                          X1        Y1        Z1        X2        Y2
           X1           0.76362
           Y1           0.10230   0.86784
           Z1           0.00489   0.00759   0.17415
           X2          -0.16259   0.09531   0.00182   0.13992
           Y2           0.10190  -0.28749  -0.00650  -0.11480   0.27644
           Z2           0.00289  -0.00818  -0.05600  -0.00260   0.00676
           X3          -0.35665  -0.00255  -0.00703  -0.00038  -0.00021
           Y3          -0.00890  -0.11056  -0.00170   0.03281   0.01862
           Z3          -0.00902  -0.00163  -0.05693   0.00131   0.00046
           X4          -0.26939  -0.18061  -0.00049   0.02306   0.01310
           Y4          -0.18121  -0.47793  -0.00081  -0.01332  -0.00757
           Z4           0.00122   0.00218  -0.09555  -0.00052  -0.00073
           X5           0.02336  -0.01349   0.00049  -0.00000   0.00000
           Y5           0.01185  -0.00684   0.00067   0.00000  -0.00000
           Z5          -0.00049   0.00031   0.01729   0.00023  -0.00012
           X6           0.00165  -0.00095   0.00032  -0.00001   0.00000
           Y6          -0.02594   0.01499   0.00075   0.00000  -0.00000
           Z6           0.00051  -0.00027   0.01705  -0.00023   0.00012
                          Z2        X3        Y3        Z3        X4
           Z2           0.02910
           X3          -0.00026   0.35675
           Y3           0.00138   0.00292   0.07644
           Z3           0.01061   0.00767   0.00117   0.02991
           X4           0.00038   0.00029  -0.02684  -0.00037   0.70886
           Y4          -0.00020  -0.00017   0.01550   0.00024   0.12428
           Z4           0.01629  -0.00038  -0.00085   0.01642  -0.00422
           X5          -0.00020  -0.00000   0.00000   0.00020  -0.14619
           Y5           0.00013   0.00000  -0.00000  -0.00013   0.09173
           Z5           0.00937   0.00022  -0.00014  -0.00951  -0.00242
           X6          -0.00021  -0.00000   0.00000   0.00021  -0.31662
           Y6           0.00011   0.00000  -0.00000  -0.00011  -0.02166
           Z6          -0.00936  -0.00022   0.00014   0.00950   0.00711
                          Y4        Z4        X5        Y5        Z5
           Y4           0.85813
           Z4          -0.00793   0.17618
           X5           0.08389  -0.00160   0.12489
           Y5          -0.28417   0.00578  -0.10255   0.27472
           Z5           0.00717  -0.05675   0.00217  -0.00616   0.02945
           X6          -0.01348   0.00550  -0.00205  -0.00103   0.00028
           Y6          -0.10397   0.00154   0.03214   0.01630  -0.00105
           Z6           0.00154  -0.05658  -0.00106  -0.00029   0.01015
                          X6        Y6        Z6
           X6           0.31704
           Y6           0.01546   0.07268
           Z6          -0.00610  -0.00124   0.02925
 ITU=  0
     Eigenvalues ---    0.03777   0.04381   0.09321   0.10026   0.13546
     Eigenvalues ---    0.17383   0.26698   0.28893   0.52871   0.69600
     Eigenvalues ---    0.97420   1.57488
 Angle between quadratic step and forces=  34.77 degrees.
 Linear search not attempted -- first point.
 B after Tr=     0.005668    0.006836   -0.008318
         Rot=    1.000000   -0.000058    0.000031   -0.000118 Ang=  -0.02 deg.
 Variable       Old X    -DE/DX   Delta X   Delta X   Delta X     New X
                                 (Linear)    (Quad)   (Total)
    X1       -0.63315   0.01233   0.00000   0.01765   0.02357  -0.60958
    Y1       -1.09616   0.00528   0.00000   0.01965   0.02634  -1.06982
    Z1        0.01126  -0.00347   0.00000  -0.01806  -0.02655  -0.01528
    X2        0.38994  -0.00732   0.00000  -0.02108  -0.01473   0.37520
    Y2       -2.89514   0.00558   0.00000   0.02519   0.03212  -2.86303
    Z2       -0.03615   0.00172   0.00000   0.02191   0.01328  -0.02288
    X3       -2.67807   0.00013   0.00000   0.01744   0.02337  -2.65470
    Y3       -1.11767  -0.00345   0.00000  -0.01341  -0.00720  -1.12487
    Z3       -0.03679   0.00155   0.00000   0.02147   0.01286  -0.02393
    X4        0.62915   0.01118   0.00000   0.00580   0.01121   0.64035
    Y4        1.08899   0.01345   0.00000   0.00867   0.01566   1.10464
    Z4        0.00793  -0.00344   0.00000  -0.01636  -0.02451  -0.01658
    X5       -0.31958   0.00405   0.00000   0.00209   0.00708  -0.31250
    Y5        2.95733  -0.01549   0.00000  -0.04611  -0.03935   2.91799
    Z5       -0.03769   0.00177   0.00000   0.02066   0.01266  -0.02503
    X6        2.73633  -0.02037   0.00000  -0.05589  -0.05050   2.68583
    Y6        1.22192  -0.00537   0.00000  -0.03503  -0.02757   1.19436
    Z6       -0.03717   0.00187   0.00000   0.02027   0.01226  -0.02491
         Item               Value     Threshold  Converged?
 Maximum Force            0.020371     0.000450     NO 
 RMS     Force            0.008559     0.000300     NO 
 Maximum Displacement     0.050496     0.001800     NO 
 RMS     Displacement     0.023959     0.001200     NO 
 Predicted change in Energy=-1.579986D-03
 GradGradGradGradGradGradGradGradGradGradGradGradGradGradGradGradGradGrad

 Unable to Open any file for archive entry.
 1\1\GINC-BHD0004\Force\RwB97XD\6-311G\C2H4\BWEIGHT\11-Jan-2023\0\\# WB
 97XD/6-311G SCF=XQC FORCE nosym pop=full guess=read\\MD Step 999\\0,1\
 C,-0.33505004,-0.58006389,0.00596106\H,0.20634688,-1.53204474,-0.01913
 143\H,-1.41717571,-0.59144742,-0.0194682\C,0.33293114,0.5762668,0.0041
 9613\H,-0.16911292,1.56495279,-0.01994431\H,1.44800173,0.64661368,-0.0
 1966931\\Version=ES64L-G16RevC.01\HF=-78.5557996\RMSD=7.117e-09\RMSF=8
 .559e-03\Dipole=-0.0023305,0.0045614,-0.0320598\Quadrupole=0.8558498,0
 .8573132,-1.713163,0.0211728,0.0008539,0.0007648\PG=C01 [X(C2H4)]\\@
 The archive entry for this job was punched.


 KNOWING HOW CONTENTED, FREE, AND JOYFUL IS LIFE IN
 THE REALMS OF SCIENCE, ONE FERVENTLY WISHES THAT
 MANY WOULD ENTER HER PORTALS.
   --  DMITRI IVANOVICH MENDELEEV
 "FIRST PRINCIPLES OF CHEMISTRY", LONGMANS, GREEN,
 AND CO.  LONDON, 1891
 Job cpu time:       0 days  0 hours  0 minutes 56.7 seconds.
 Elapsed time:       0 days  0 hours  0 minutes 18.7 seconds.
 File lengths (MBytes):  RWF=    272 Int=      0 D2E=      0 Chk=     32 Scr=     32
 Normal termination of Gaussian 16 at Wed Jan 11 18:30:37 2023.
