 Entering Gaussian System, Link 0=g16
 Initial command:
 /software/gaussian/g16-c01/sse4/g16/l1.exe "/gpfs/fs2/scratch/bweight/software/many_molecule_many_mode_NAMD/src/NAMD/TEST_ETHYLENE/G16/GS_NEW/Gau-20616.inp" -scrdir="/gpfs/fs2/scratch/bweight/software/many_molecule_many_mode_NAMD/src/NAMD/TEST_ETHYLENE/G16/GS_NEW/"
 Entering Link 1 = /software/gaussian/g16-c01/sse4/g16/l1.exe PID=     20617.
  
 Copyright (c) 1988-2019, Gaussian, Inc.  All Rights Reserved.
  
 This is part of the Gaussian(R) 16 program.  It is based on
 the Gaussian(R) 09 system (copyright 2009, Gaussian, Inc.),
 the Gaussian(R) 03 system (copyright 2003, Gaussian, Inc.),
 the Gaussian(R) 98 system (copyright 1998, Gaussian, Inc.),
 the Gaussian(R) 94 system (copyright 1995, Gaussian, Inc.),
 the Gaussian 92(TM) system (copyright 1992, Gaussian, Inc.),
 the Gaussian 90(TM) system (copyright 1990, Gaussian, Inc.),
 the Gaussian 88(TM) system (copyright 1988, Gaussian, Inc.),
 the Gaussian 86(TM) system (copyright 1986, Carnegie Mellon
 University), and the Gaussian 82(TM) system (copyright 1983,
 Carnegie Mellon University). Gaussian is a federally registered
 trademark of Gaussian, Inc.
  
 This software contains proprietary and confidential information,
 including trade secrets, belonging to Gaussian, Inc.
  
 This software is provided under written license and may be
 used, copied, transmitted, or stored only in accord with that
 written license.
  
 The following legend is applicable only to US Government
 contracts under FAR:
  
                    RESTRICTED RIGHTS LEGEND
  
 Use, reproduction and disclosure by the US Government is
 subject to restrictions as set forth in subparagraphs (a)
 and (c) of the Commercial Computer Software - Restricted
 Rights clause in FAR 52.227-19.
  
 Gaussian, Inc.
 340 Quinnipiac St., Bldg. 40, Wallingford CT 06492
  
  
 ---------------------------------------------------------------
 Warning -- This program may not be used in any manner that
 competes with the business of Gaussian, Inc. or will provide
 assistance to any competitor of Gaussian, Inc.  The licensee
 of this program is prohibited from giving any competitor of
 Gaussian, Inc. access to this program.  By using this program,
 the user acknowledges that Gaussian, Inc. is engaged in the
 business of creating and licensing software in the field of
 computational chemistry and represents and warrants to the
 licensee that it is not a competitor of Gaussian, Inc. and that
 it will not use this program in any manner prohibited above.
 ---------------------------------------------------------------
  

 Cite this work as:
 Gaussian 16, Revision C.01,
 M. J. Frisch, G. W. Trucks, H. B. Schlegel, G. E. Scuseria, 
 M. A. Robb, J. R. Cheeseman, G. Scalmani, V. Barone, 
 G. A. Petersson, H. Nakatsuji, X. Li, M. Caricato, A. V. Marenich, 
 J. Bloino, B. G. Janesko, R. Gomperts, B. Mennucci, H. P. Hratchian, 
 J. V. Ortiz, A. F. Izmaylov, J. L. Sonnenberg, D. Williams-Young, 
 F. Ding, F. Lipparini, F. Egidi, J. Goings, B. Peng, A. Petrone, 
 T. Henderson, D. Ranasinghe, V. G. Zakrzewski, J. Gao, N. Rega, 
 G. Zheng, W. Liang, M. Hada, M. Ehara, K. Toyota, R. Fukuda, 
 J. Hasegawa, M. Ishida, T. Nakajima, Y. Honda, O. Kitao, H. Nakai, 
 T. Vreven, K. Throssell, J. A. Montgomery, Jr., J. E. Peralta, 
 F. Ogliaro, M. J. Bearpark, J. J. Heyd, E. N. Brothers, K. N. Kudin, 
 V. N. Staroverov, T. A. Keith, R. Kobayashi, J. Normand, 
 K. Raghavachari, A. P. Rendell, J. C. Burant, S. S. Iyengar, 
 J. Tomasi, M. Cossi, J. M. Millam, M. Klene, C. Adamo, R. Cammi, 
 J. W. Ochterski, R. L. Martin, K. Morokuma, O. Farkas, 
 J. B. Foresman, and D. J. Fox, Gaussian, Inc., Wallingford CT, 2019.
 
 ******************************************
 Gaussian 16:  ES64L-G16RevC.01  3-Jul-2019
                 1-Jan-2023 
 ******************************************
 %oldchk=../GS_OLD/geometry.chk
 %chk=geometry.chk
 %nprocshared=1
 Will use up to    1 processors via shared memory.
 %mem=5GB
 Copying data from "../GS_OLD/geometry.chk" to current chk file "geometry.chk"
 IOpt=  2 FromEx=T IUOpen= 4 IOptOp= 5 NList=   0 IFRang= 0 IUIn= 4 IUOut= 2.
 -----------------------------------------
 # BLYP/3-21G SCF=XQC FORCE nosym pop=full
 -----------------------------------------
 1/10=7,30=1,38=1/1,3;
 2/12=2,15=1,17=6,18=5,40=1/2;
 3/5=5,11=2,25=1,30=1,71=1,74=402/1,2,3;
 4//1;
 5/5=2,8=3,13=1,38=5/2,8;
 6/7=3,28=1/1;
 7/29=1,30=1/1,2,3,16;
 1/10=7,30=1/3;
 99//99;
 -----------
 MD Step 158
 -----------
 Symbolic Z-matrix:
 Charge =  0 Multiplicity = 1
 C                    -0.27401  -0.62586   0.14836 
 H                    -0.26688  -1.55202  -0.59872 
 H                    -1.27307  -0.93897   0.68494 
 C                     0.38475   0.75933  -0.22227 
 H                    -0.06225   1.66433  -0.51163 
 H                     0.33041  -0.70768   1.36914 
 

 GradGradGradGradGradGradGradGradGradGradGradGradGradGradGradGradGradGrad
 Berny optimization.
 Initialization pass.
 Trust Radius=3.00D-01 FncErr=1.00D-07 GrdErr=1.00D-07 EigMax=2.50D+02 EigMin=1.00D-04
 Number of steps in this run=      2 maximum allowed number of steps=      2.
 GradGradGradGradGradGradGradGradGradGradGradGradGradGradGradGradGradGrad

                          Input orientation:                          
 ---------------------------------------------------------------------
 Center     Atomic      Atomic             Coordinates (Angstroms)
 Number     Number       Type             X           Y           Z
 ---------------------------------------------------------------------
      1          6           0       -0.274005   -0.625862    0.148363
      2          1           0       -0.266878   -1.552017   -0.598716
      3          1           0       -1.273069   -0.938967    0.684943
      4          6           0        0.384750    0.759331   -0.222267
      5          1           0       -0.062247    1.664335   -0.511634
      6          1           0        0.330408   -0.707679    1.369137
 ---------------------------------------------------------------------
                    Distance matrix (angstroms):
                    1          2          3          4          5
     1  C    0.000000
     2  H    1.189934   0.000000
     3  H    1.176470   1.742421   0.000000
     4  C    1.578000   2.430774   2.540789   0.000000
     5  H    2.392788   3.224031   3.110476   1.050034   0.000000
     6  H    1.364661   2.223084   1.758622   2.165095   3.052528
                    6
     6  H    0.000000
 Symmetry turned off by external request.
 Stoichiometry    C2H4
 Framework group  C1[X(C2H4)]
 Deg. of freedom    12
 Full point group                 C1      NOp   1
 Rotational constants (GHZ):         121.3126448          21.0231003          20.2644171
 Standard basis: 3-21G (6D, 7F)
    26 basis functions,    42 primitive gaussians,    26 cartesian basis functions
     8 alpha electrons        8 beta electrons
       nuclear repulsion energy        29.4894658711 Hartrees.
 NAtoms=    6 NActive=    6 NUniq=    6 SFac= 1.00D+00 NAtFMM=   60 NAOKFM=F Big=F
 Integral buffers will be    131072 words long.
 Raffenetti 2 integral format.
 Two-electron integral symmetry is turned off.
 One-electron integrals computed using PRISM.
 NBasis=    26 RedAO= T EigKep=  3.30D-02  NBF=    26
 NBsUse=    26 1.00D-06 EigRej= -1.00D+00 NBFU=    26
 ExpMin= 1.83D-01 ExpMax= 1.72D+02 ExpMxC= 1.72D+02 IAcc=3 IRadAn=         5 AccDes= 0.00D+00
 Harris functional with IExCor=  402 and IRadAn=       5 diagonalized for initial guess.
 HarFok:  IExCor=  402 AccDes= 0.00D+00 IRadAn=         5 IDoV= 1 UseB2=F ITyADJ=14
 ICtDFT=  3500011 ScaDFX=  1.000000  1.000000  1.000000  1.000000
 FoFCou: FMM=F IPFlag=           0 FMFlag=      100000 FMFlg1=           0
         NFxFlg=           0 DoJE=T BraDBF=F KetDBF=T FulRan=T
         wScrn=  0.000000 ICntrl=       500 IOpCl=  0 I1Cent=   200000004 NGrid=           0
         NMat0=    1 NMatS0=      1 NMatT0=    0 NMatD0=    1 NMtDS0=    0 NMtDT0=    0
 Symmetry not used in FoFCou.
 Keep J ints in memory in canonical form, NReq=925759.
 Requested convergence on RMS density matrix=1.00D-08 within  32 cycles.
 Requested convergence on MAX density matrix=1.00D-06.
 Requested convergence on             energy=1.00D-06.
 No special actions if energy rises.
 Integral accuracy reduced to 1.0D-05 until final iterations.
 EnCoef did     2 forward-backward iterations
 EnCoef did     9 forward-backward iterations
 EnCoef did     8 forward-backward iterations
 Rare condition: small coef for last iteration:  0.000D+00
 Failed to achieve initial convergence to 1.0D-08 in 10 cycles.
 Switch to full accuracy anyway.
 EnCoef did    10 forward-backward iterations
 EnCoef did     5 forward-backward iterations
 Rare condition: small coef for last iteration:  0.000D+00
 EnCoef did   100 forward-backward iterations
 SCF Done:  E(RB-LYP) =  -77.8981265397     A.U. after   28 cycles
            NFock= 28  Conv=0.28D-08     -V/T= 2.0137
 QCSCF skips out because SCF is already converged.

 **********************************************************************

            Population analysis using the SCF Density.

 **********************************************************************

 Alpha  occ. eigenvalues --   -9.91247  -9.90509  -0.65086  -0.53279  -0.38981
 Alpha  occ. eigenvalues --   -0.35986  -0.27714  -0.13280
 Alpha virt. eigenvalues --   -0.13245   0.02795   0.08261   0.12247   0.13767
 Alpha virt. eigenvalues --    0.24209   0.64371   0.68493   0.69621   0.74379
 Alpha virt. eigenvalues --    0.80930   0.87178   0.88424   0.93131   0.94648
 Alpha virt. eigenvalues --    0.95487   1.34306   1.62615
     Molecular Orbital Coefficients:
                           1         2         3         4         5
                           O         O         O         O         O
     Eigenvalues --    -9.91247  -9.90509  -0.65086  -0.53279  -0.38981
   1 1   C  1S          0.98410   0.05606  -0.17423   0.11285   0.00998
   2        2S          0.10945   0.00447   0.17608  -0.11092  -0.00777
   3        2PX         0.00009   0.00001   0.01562   0.05144  -0.19966
   4        2PY        -0.00033  -0.00081   0.04719   0.12836  -0.26573
   5        2PZ         0.00093   0.00034  -0.00850  -0.02945  -0.05484
   6        3S         -0.07328   0.00918   0.46670  -0.38813  -0.05376
   7        3PX        -0.00096   0.00169   0.00207   0.03491  -0.15312
   8        3PY        -0.00233   0.00999   0.00579   0.05764  -0.21129
   9        3PZ        -0.00252  -0.00336   0.01814  -0.02461  -0.05048
  10 2   H  1S         -0.00048  -0.00086   0.08314  -0.11078   0.14214
  11        2S          0.01176   0.00272   0.02139  -0.06116   0.12285
  12 3   H  1S         -0.00005  -0.00050   0.07882  -0.10834   0.10935
  13        2S          0.01255   0.00097   0.01058  -0.04589   0.09837
  14 4   C  1S         -0.05634   0.98344  -0.14112  -0.14739   0.01858
  15        2S         -0.00801   0.10403   0.15405   0.15934  -0.02265
  16        2PX         0.00050  -0.00401  -0.09148  -0.08657  -0.01043
  17        2PY         0.00029   0.00070  -0.04408   0.13442   0.29291
  18        2PZ         0.00010   0.00010   0.01569  -0.03754  -0.12352
  19        3S          0.01842  -0.05787   0.33917   0.43745  -0.03900
  20        3PX        -0.00517   0.01013  -0.05674  -0.07592  -0.01288
  21        3PY        -0.00880   0.00131  -0.00012   0.04746   0.11934
  22        3PZ         0.00223  -0.00024   0.00314  -0.01021  -0.06491
  23 5   H  1S         -0.00070  -0.00373   0.09550   0.20758   0.18049
  24        2S          0.00045   0.01744   0.01072   0.10153   0.18093
  25 6   H  1S          0.00201  -0.00116   0.06625  -0.05629  -0.07162
  26        2S          0.00929   0.00380   0.01326  -0.03248  -0.06880
                           6         7         8         9        10
                           O         O         O         V         V
     Eigenvalues --    -0.35986  -0.27714  -0.13280  -0.13245   0.02795
   1 1   C  1S          0.01083   0.01612   0.02898   0.00741   0.11020
   2        2S         -0.01520  -0.01947  -0.03087  -0.00310  -0.07986
   3        2PX        -0.12090   0.28495  -0.08795  -0.03579  -0.23026
   4        2PY         0.02976  -0.22514  -0.05566  -0.00853   0.13314
   5        2PZ         0.34281   0.08347   0.02038  -0.05101  -0.19541
   6        3S         -0.03350  -0.05460  -0.13892  -0.06249  -0.95425
   7        3PX        -0.08454   0.25885  -0.00032  -0.05471  -0.39261
   8        3PY         0.02565  -0.18872  -0.02661   0.02521   0.34163
   9        3PZ         0.27763   0.08676  -0.02449  -0.00145  -0.42872
  10 2   H  1S         -0.18294   0.09830  -0.03951   0.10626   0.07404
  11        2S         -0.17935   0.13288  -0.06785   0.22779   0.49464
  12 3   H  1S          0.14935  -0.14218   0.12786  -0.02942  -0.04876
  13        2S          0.14761  -0.17854   0.29217  -0.06977   0.06548
  14 4   C  1S          0.01669  -0.00615  -0.10511  -0.01558  -0.01776
  15        2S         -0.01887   0.00665   0.09423   0.01192  -0.00676
  16        2PX        -0.00337   0.13581   0.41886   0.00354   0.03807
  17        2PY         0.14343   0.12502  -0.05373   0.12036   0.01993
  18        2PZ         0.06315   0.00409  -0.00793   0.48567  -0.02078
  19        3S         -0.05421   0.00648   0.52167   0.10299   0.20171
  20        3PX        -0.00076   0.12102   0.44827  -0.00122   0.04243
  21        3PY         0.07456   0.08168   0.00785   0.15094   0.05946
  22        3PZ         0.05920   0.01698  -0.02756   0.58789  -0.00315
  23 5   H  1S          0.05914   0.06756  -0.10487  -0.02717  -0.06547
  24        2S          0.06780   0.08664  -0.19586  -0.05321  -0.21567
  25 6   H  1S          0.14439   0.18212  -0.09080  -0.09092   0.18865
  26        2S          0.16191   0.27163  -0.15659  -0.17984   1.08122
                          11        12        13        14        15
                           V         V         V         V         V
     Eigenvalues --     0.08261   0.12247   0.13767   0.24209   0.64371
   1 1   C  1S         -0.15144   0.02726   0.00422  -0.06021   0.00077
   2        2S          0.09125  -0.00365  -0.00176   0.03870  -0.06071
   3        2PX        -0.17948   0.20713  -0.03315   0.24508   0.48223
   4        2PY         0.01863  -0.03865  -0.30314   0.24137  -0.55880
   5        2PZ        -0.15328  -0.32051  -0.15754  -0.08618   0.07560
   6        3S          1.55104  -0.39277   0.08585   0.63032   0.21493
   7        3PX        -0.38899   0.45751  -0.13938   0.92007  -0.32263
   8        3PY         0.03337  -0.10998  -0.93984   1.05998   0.75388
   9        3PZ        -0.35876  -0.83389  -0.38304  -0.29170  -0.05986
  10 2   H  1S         -0.06809  -0.09181  -0.06541  -0.00828   0.26111
  11        2S         -0.83303  -0.73114  -1.06634   0.23160  -0.04082
  12 3   H  1S         -0.09569   0.09985   0.01244  -0.00640  -0.30114
  13        2S         -0.90667   1.12055  -0.08443   0.88683   0.25604
  14 4   C  1S          0.07343   0.06307  -0.11009   0.04300  -0.01756
  15        2S         -0.05503  -0.04165   0.07085  -0.00479  -0.06992
  16        2PX         0.20967   0.02403  -0.20505  -0.00021   0.28514
  17        2PY         0.14114  -0.08850   0.09401   0.42191  -0.25520
  18        2PZ         0.00091   0.12053   0.01128  -0.10200  -0.32131
  19        3S         -0.68994  -0.75922   1.41888  -0.35400  -0.05307
  20        3PX         0.43894   0.12683  -0.56493   0.09651  -0.20685
  21        3PY         0.25355  -0.24552   0.21236   1.46730   0.63147
  22        3PZ         0.03990   0.31963   0.05467  -0.39953   0.13010
  23 5   H  1S          0.03143   0.07320  -0.06776   0.04794  -0.42224
  24        2S          0.35886   0.87947  -1.27462  -1.34857  -0.02239
  25 6   H  1S          0.05418   0.00133   0.02062   0.01019   0.07837
  26        2S          0.17595   0.38253   0.29453  -0.18043  -0.03627
                          16        17        18        19        20
                           V         V         V         V         V
     Eigenvalues --     0.68493   0.69621   0.74379   0.80930   0.87178
   1 1   C  1S         -0.00237   0.00859   0.01354   0.00575  -0.04070
   2        2S         -0.06154  -0.07792  -0.06613  -0.03161   0.06510
   3        2PX         0.17047  -0.13490  -0.05055  -0.55959  -0.52262
   4        2PY        -0.25934  -0.41544   0.17067  -0.72362  -0.01125
   5        2PZ         0.29044   0.17370  -0.71414  -0.25628  -0.15735
   6        3S         -0.09875   0.67110   0.57065  -0.30719   0.09126
   7        3PX        -0.17013   0.48374   0.22289   1.02646   1.12277
   8        3PY         0.25478   1.18662   0.05788   1.37601   0.18437
   9        3PZ        -0.23756  -0.36281   1.17131   0.44860   0.05625
  10 2   H  1S         -0.29034   0.05502   0.34419  -0.00451  -0.70181
  11        2S          0.24019   0.21301   0.02755   0.72251   0.64411
  12 3   H  1S         -0.06670   0.20670  -0.05653   0.06071  -0.23434
  13        2S          0.02478   0.15632  -0.05449   0.58473   0.59149
  14 4   C  1S         -0.00974   0.02811  -0.01891   0.00189  -0.00783
  15        2S         -0.06353  -0.04432   0.11810   0.10729  -0.20639
  16        2PX         0.22805  -0.84192   0.05103   0.19037   0.17122
  17        2PY         0.32812  -0.29256  -0.34018   0.31331  -0.29196
  18        2PZ         0.83158   0.17520   0.43684  -0.13646  -0.07008
  19        3S          0.03231  -0.79734   0.13319  -0.88040   0.24126
  20        3PX        -0.23546   1.01362  -0.12019  -0.03203  -0.52101
  21        3PY        -0.22065   1.01978   0.67334  -0.37439   1.28017
  22        3PZ        -0.79502  -0.36484  -0.74582   0.05667  -0.21177
  23 5   H  1S         -0.21258  -0.20370  -0.11749   0.29934  -0.57364
  24        2S          0.06606  -0.03072  -0.37432   0.12433  -0.43960
  25 6   H  1S          0.07044   0.02931   0.45260   0.30635  -0.35459
  26        2S          0.16554   0.07246  -0.86460  -0.69766   0.06919
                          21        22        23        24        25
                           V         V         V         V         V
     Eigenvalues --     0.88424   0.93131   0.94648   0.95487   1.34306
   1 1   C  1S         -0.01274   0.03126   0.01711   0.02987   0.02965
   2        2S          0.08397  -0.26253   0.05355  -0.11158  -0.64539
   3        2PX         0.51402   0.09618   0.09846  -0.20302  -0.02912
   4        2PY        -0.15039   0.15042  -0.18661   0.16560   0.02148
   5        2PZ        -0.65968   0.20847  -0.09847  -0.01639  -0.04035
   6        3S         -0.43001   0.52775   0.18640  -0.10987   0.54033
   7        3PX        -1.22348   0.09145   0.32956   0.40689  -0.10562
   8        3PY        -0.10849  -0.32126   0.80746  -0.19440  -0.56312
   9        3PZ         1.24863  -0.60909   0.01552   0.07341   0.25618
  10 2   H  1S         -0.56827  -0.44230   0.13546   0.62421   0.07480
  11        2S          1.07825   0.07992   0.34626  -0.60086  -0.38162
  12 3   H  1S          0.24280   0.68562   0.92389   0.38125  -0.00951
  13        2S         -1.18453  -0.48798  -0.72385  -0.06946  -0.25415
  14 4   C  1S          0.00674  -0.01951   0.01175  -0.02057   0.05296
  15        2S         -0.15071   0.07516   0.07250  -0.14143  -1.58293
  16        2PX        -0.27701   0.12796   0.36243  -0.01817   0.10649
  17        2PY         0.37638  -0.09824  -0.36620   0.58618  -0.06103
  18        2PZ        -0.13431  -0.22048   0.16239  -0.10763   0.01845
  19        3S          0.30207   0.01095  -0.21272  -0.01950   2.32618
  20        3PX         0.39858  -0.22416  -0.37075  -0.20445  -0.44181
  21        3PY        -1.14476   0.34930   1.06060  -0.56670   0.06833
  22        3PZ         0.13303   0.42174  -0.47029   0.04888  -0.03571
  23 5   H  1S         -0.17988  -0.23625   0.29026  -0.89627   0.27956
  24        2S          0.77919   0.01850  -0.92191   0.94897  -1.05105
  25 6   H  1S         -0.15781   0.85940  -0.62004  -0.18583   0.06957
  26        2S         -0.07145  -0.61262   0.82151   0.04976  -0.39315
                          26
                           V
     Eigenvalues --     1.62615
   1 1   C  1S         -0.01607
   2        2S         -1.80466
   3        2PX         0.01660
   4        2PY         0.01962
   5        2PZ        -0.09978
   6        3S          3.37282
   7        3PX         0.05139
   8        3PY         0.35721
   9        3PZ         0.15354
  10 2   H  1S         -0.15001
  11        2S         -0.40732
  12 3   H  1S         -0.20216
  13        2S         -0.55688
  14 4   C  1S          0.01664
  15        2S          0.72609
  16        2PX        -0.03733
  17        2PY         0.04065
  18        2PZ        -0.02929
  19        3S         -1.80117
  20        3PX         0.48852
  21        3PY         0.52547
  22        3PZ        -0.15609
  23 5   H  1S          0.03988
  24        2S          0.24713
  25 6   H  1S         -0.36932
  26        2S         -0.23668
     Density Matrix:
                           1         2         3         4         5
   1 1   C  1S          2.03199
   2        2S          0.12664   0.11386
   3        2PX         0.00384  -0.00478   0.29261
   4        2PY        -0.00336   0.00349  -0.00492   0.28797
   5        2PZ         0.00839  -0.01033  -0.02030   0.00133   0.25770
   6        3S         -0.40503   0.24705  -0.00248   0.01106  -0.01705
   7        3PX         0.00889  -0.01232   0.23282  -0.03102  -0.00006
   8        3PY        -0.00375   0.00032  -0.01859   0.21708   0.00468
   9        3PZ        -0.01082   0.00174   0.00482   0.00241   0.21051
  10 2   H  1S         -0.05526   0.05571   0.04165  -0.14688  -0.12111
  11        2S          0.00111   0.02626   0.07635  -0.14194  -0.11377
  12 3   H  1S         -0.04383   0.04318  -0.19198  -0.01981   0.07692
  13        2S          0.02710  -0.00044  -0.23250  -0.00642   0.07507
  14 4   C  1S          0.00973  -0.01460  -0.01604  -0.04712   0.01573
  15        2S         -0.01700   0.01293   0.02203   0.05271  -0.01745
  16        2PX         0.04123  -0.04382  -0.00306  -0.13329   0.04523
  17        2PY         0.05622  -0.05574  -0.05849  -0.16710   0.07773
  18        2PZ        -0.01515   0.01421   0.03441   0.06029   0.05915
  19        3S          0.03881  -0.00429  -0.00378   0.10090  -0.04208
  20        3PX         0.02320  -0.03634  -0.01414  -0.12245   0.04480
  21        3PY         0.00066  -0.02027  -0.01564  -0.08447   0.04917
  22        3PZ        -0.00011   0.00411   0.02517   0.03111   0.04997
  23 5   H  1S          0.01276  -0.01336  -0.00509  -0.04884   0.01390
  24        2S          0.01854  -0.01465   0.00597  -0.08228   0.02697
  25 6   H  1S         -0.02967   0.03149   0.10973  -0.03344   0.13574
  26        2S          0.00857   0.00918   0.16774  -0.06578   0.15923
                           6         7         8         9        10
   6        3S          0.80039
   7        3PX        -0.03104   0.19764
   8        3PY         0.01018  -0.03323   0.17017
   9        3PZ         0.02049   0.01180   0.00145   0.17742
  10 2   H  1S          0.16087   0.03092  -0.11627  -0.08846   0.16816
  11        2S          0.06892   0.05734  -0.11446  -0.08190   0.14912
  12 3   H  1S          0.11591  -0.13967  -0.00327   0.04915  -0.02450
  13        2S         -0.03847  -0.15088   0.01263   0.02931  -0.07232
  14 4   C  1S          0.03576  -0.01908   0.00220   0.00728   0.01383
  15        2S         -0.00003   0.02564   0.02335  -0.01456  -0.01553
  16        2PX        -0.14819   0.06736  -0.08044   0.00320  -0.00415
  17        2PY        -0.18534  -0.03999  -0.14575   0.06618   0.02250
  18        2PZ         0.05458   0.02672   0.05017   0.05105  -0.04586
  19        3S         -0.16458   0.05584   0.03660  -0.05952  -0.07164
  20        3PX        -0.12941   0.06094  -0.07332   0.00156  -0.00764
  21        3PY        -0.06457  -0.00354  -0.07232   0.04084   0.01156
  22        3PZ         0.01934   0.01797   0.02437   0.04433  -0.03181
  23 5   H  1S         -0.07356  -0.01535  -0.06819   0.02476   0.02114
  24        2S         -0.04759  -0.01470  -0.08307   0.03928   0.03839
  25 6   H  1S          0.10859   0.08820  -0.03199   0.12862  -0.00672
  26        2S          0.04669   0.13220  -0.06037   0.15366  -0.00364
                          11        12        13        14        15
  11        2S          0.14773
  12 3   H  1S         -0.06522   0.17756
  13        2S         -0.10951   0.20270   0.30216
  14 4   C  1S          0.02722  -0.00736  -0.03961   2.04735
  15        2S         -0.02234   0.00127   0.03129   0.09371   0.13960
  16        2PX        -0.01544   0.06954   0.19923  -0.04683   0.02473
  17        2PY         0.04272   0.02154   0.01067  -0.00042   0.00225
  18        2PZ        -0.04557  -0.00073  -0.00797   0.00595  -0.00534
  19        3S         -0.09809   0.06557   0.24622  -0.45359   0.33378
  20        3PX        -0.02477   0.08467   0.22163  -0.03733   0.04722
  21        3PY         0.01721   0.01685   0.01633  -0.00611   0.00985
  22        3PZ        -0.02750  -0.00568  -0.01640   0.00654  -0.00663
  23 5   H  1S          0.03397  -0.01881  -0.04949  -0.06550   0.06554
  24        2S          0.05788  -0.03523  -0.09882   0.05039  -0.00723
  25 6   H  1S          0.00109  -0.02490  -0.08294   0.01439  -0.01469
  26        2S          0.02323  -0.07485  -0.15073   0.04469  -0.03451
                          16        17        18        19        20
  16        2PX         0.41977
  17        2PY        -0.03334   0.28980
  18        2PZ         0.00024  -0.06385   0.04196
  19        3S          0.30263  -0.00520  -0.02764   1.17344
  20        3PX         0.43211  -0.04107   0.00089   0.36407   0.44974
  21        3PY         0.01756   0.12365  -0.02309   0.03282   0.01655
  22        3PZ        -0.01632  -0.01686   0.02495  -0.03658  -0.01785
  23 5   H  1S         -0.12705   0.19824  -0.04749   0.11777  -0.12483
  24        2S         -0.16445   0.19452  -0.03960  -0.13059  -0.17568
  25 6   H  1S         -0.02844   0.03378   0.04516  -0.10654  -0.03472
  26        2S         -0.05388   0.08100   0.04501  -0.19156  -0.06971
                          21        22        23        24        25
  21        3PY         0.05773
  22        3PZ        -0.00533   0.01777
  23 5   H  1S          0.08097  -0.01200   0.20772
  24        2S          0.07404  -0.00374   0.17018   0.18785
  25 6   H  1S          0.02736   0.03916   0.02417   0.05074   0.14990
  26        2S          0.04640   0.04674   0.05287   0.09930   0.18942
                          26
  26        2S          0.26116
    Full Mulliken population analysis:
                           1         2         3         4         5
   1 1   C  1S          2.03199
   2        2S          0.02424   0.11386
   3        2PX         0.00000   0.00000   0.29261
   4        2PY         0.00000   0.00000   0.00000   0.28797
   5        2PZ         0.00000   0.00000   0.00000   0.00000   0.25770
   6        3S         -0.07303   0.18809   0.00000   0.00000   0.00000
   7        3PX         0.00000   0.00000   0.12315   0.00000   0.00000
   8        3PY         0.00000   0.00000   0.00000   0.11483   0.00000
   9        3PZ         0.00000   0.00000   0.00000   0.00000   0.11135
  10 2   H  1S         -0.00058   0.00790   0.00006   0.02603   0.01731
  11        2S          0.00008   0.00937   0.00010   0.02509   0.01622
  12 3   H  1S         -0.00050   0.00640   0.03849   0.00124   0.00828
  13        2S          0.00193  -0.00016   0.04509   0.00039   0.00782
  14 4   C  1S          0.00000  -0.00002  -0.00003  -0.00017  -0.00001
  15        2S         -0.00002   0.00059   0.00080   0.00403   0.00036
  16        2PX        -0.00007   0.00159   0.00002   0.00845   0.00077
  17        2PY        -0.00020   0.00426   0.00371   0.01814   0.00277
  18        2PZ        -0.00001   0.00029   0.00058   0.00215   0.00090
  19        3S          0.00129  -0.00084  -0.00027   0.01522   0.00170
  20        3PX        -0.00083   0.00614  -0.00094   0.01636   0.00160
  21        3PY        -0.00005   0.00720   0.00209   0.01273   0.00370
  22        3PZ        -0.00000   0.00039   0.00090   0.00234   0.00550
  23 5   H  1S          0.00000  -0.00000  -0.00000  -0.00004  -0.00000
  24        2S          0.00008  -0.00056   0.00002  -0.00363  -0.00034
  25 6   H  1S         -0.00010   0.00240   0.00656   0.00027   0.01639
  26        2S          0.00045   0.00260   0.01525   0.00081   0.02924
                           6         7         8         9        10
   6        3S          0.80039
   7        3PX         0.00000   0.19764
   8        3PY         0.00000   0.00000   0.17017
   9        3PZ         0.00000   0.00000   0.00000   0.17742
  10 2   H  1S          0.04784   0.00009   0.04366   0.02680   0.16816
  11        2S          0.04267   0.00020   0.05305   0.03062   0.09632
  12 3   H  1S          0.03510   0.05762   0.00042   0.01089  -0.00023
  13        2S         -0.02408   0.07626  -0.00200   0.00796  -0.00908
  14 4   C  1S          0.00119  -0.00068   0.00016  -0.00015   0.00000
  15        2S         -0.00001   0.00433   0.00830   0.00138  -0.00000
  16        2PX         0.01063   0.00449   0.01075   0.00011   0.00000
  17        2PY         0.02795   0.00534   0.02197   0.00497  -0.00002
  18        2PZ         0.00220   0.00096   0.00377   0.00562   0.00001
  19        3S         -0.06890   0.01288   0.01775   0.00772  -0.00165
  20        3PX         0.02984   0.01777   0.01959   0.00011   0.00016
  21        3PY         0.03131   0.00095   0.01035   0.00614  -0.00084
  22        3PZ         0.00251   0.00128   0.00366   0.01677   0.00038
  23 5   H  1S         -0.00188  -0.00011  -0.00543  -0.00057   0.00000
  24        2S         -0.00686  -0.00036  -0.02219  -0.00302   0.00009
  25 6   H  1S          0.02504   0.01675   0.00082   0.04934  -0.00000
  26        2S          0.02486   0.03439   0.00213   0.08073  -0.00016
                          11        12        13        14        15
  11        2S          0.14773
  12 3   H  1S         -0.00819   0.17756
  13        2S         -0.04057   0.13092   0.30216
  14 4   C  1S          0.00011  -0.00000  -0.00011   2.04735
  15        2S         -0.00077   0.00000   0.00082   0.01794   0.13960
  16        2PX         0.00018  -0.00002  -0.00431   0.00000   0.00000
  17        2PY        -0.00172  -0.00001  -0.00024   0.00000   0.00000
  18        2PZ         0.00030  -0.00000  -0.00009   0.00000   0.00000
  19        3S         -0.01330   0.00111   0.02775  -0.08179   0.25412
  20        3PX         0.00177  -0.00322  -0.03347   0.00000   0.00000
  21        3PY        -0.00436  -0.00066  -0.00253   0.00000   0.00000
  22        3PZ         0.00113  -0.00012  -0.00136   0.00000   0.00000
  23 5   H  1S          0.00008  -0.00000  -0.00017  -0.00155   0.01435
  24        2S          0.00193  -0.00012  -0.00417   0.00430  -0.00303
  25 6   H  1S          0.00005  -0.00022  -0.01010   0.00000  -0.00002
  26        2S          0.00461  -0.00911  -0.05481   0.00039  -0.00226
                          16        17        18        19        20
  16        2PX         0.41977
  17        2PY         0.00000   0.28980
  18        2PZ         0.00000   0.00000   0.04196
  19        3S          0.00000   0.00000   0.00000   1.17344
  20        3PX         0.22857   0.00000   0.00000   0.00000   0.44974
  21        3PY         0.00000   0.06541   0.00000   0.00000   0.00000
  22        3PZ         0.00000   0.00000   0.01320   0.00000   0.00000
  23 5   H  1S          0.01740   0.05497   0.00421   0.04188   0.02706
  24        2S          0.01658   0.03970   0.00258  -0.08988   0.04369
  25 6   H  1S          0.00000  -0.00008   0.00012  -0.00492   0.00012
  26        2S          0.00010  -0.00397   0.00239  -0.03925   0.00063
                          21        22        23        24        25
  21        3PY         0.05773
  22        3PZ         0.00000   0.01777
  23 5   H  1S          0.03553   0.00168   0.20772
  24        2S          0.03728   0.00060   0.10992   0.18785
  25 6   H  1S         -0.00252   0.00391   0.00000   0.00022   0.14990
  26        2S         -0.01127   0.01232   0.00023   0.00471   0.12235
                          26
  26        2S          0.26116
     Gross orbital populations:
                           1
   1 1   C  1S          1.98469
   2        2S          0.37375
   3        2PX         0.52819
   4        2PY         0.53222
   5        2PZ         0.48125
   6        3S          1.09487
   7        3PX         0.55295
   8        3PY         0.45177
   9        3PZ         0.53421
  10 2   H  1S          0.42225
  11        2S          0.36270
  12 3   H  1S          0.44566
  13        2S          0.41385
  14 4   C  1S          1.98694
  15        2S          0.44049
  16        2PX         0.71501
  17        2PY         0.53276
  18        2PZ         0.08114
  19        3S          1.25406
  20        3PX         0.80469
  21        3PY         0.24821
  22        3PZ         0.08288
  23 5   H  1S          0.50526
  24        2S          0.31540
  25 6   H  1S          0.37629
  26        2S          0.47852
          Condensed to atoms (all electrons):
               1          2          3          4          5          6
     1  C    5.307015   0.346522   0.271163   0.346168  -0.044904   0.307934
     2  H    0.346522   0.508525  -0.058062  -0.018642   0.002105   0.004496
     3  H    0.271163  -0.058062   0.741567  -0.016457  -0.004472  -0.074231
     4  C    0.346168  -0.018642  -0.016457   5.632060   0.247362  -0.044308
     5  H   -0.044904   0.002105  -0.004472   0.247362   0.615410   0.005155
     6  H    0.307934   0.004496  -0.074231  -0.044308   0.005155   0.655763
 Mulliken charges:
               1
     1  C   -0.533898
     2  H    0.215056
     3  H    0.140491
     4  C   -0.146183
     5  H    0.179344
     6  H    0.145191
 Sum of Mulliken charges =   0.00000
 Mulliken charges with hydrogens summed into heavy atoms:
               1
     1  C   -0.033160
     4  C    0.033160
 Electronic spatial extent (au):  <R**2>=             99.0819
 Charge=              0.0000 electrons
 Dipole moment (field-independent basis, Debye):
    X=             -1.6627    Y=             -0.3132    Z=              0.1322  Tot=              1.6971
 Quadrupole moment (field-independent basis, Debye-Ang):
   XX=            -17.9317   YY=            -12.0110   ZZ=            -12.5118
   XY=             -0.5763   XZ=              0.7122   YZ=              0.3119
 Traceless Quadrupole moment (field-independent basis, Debye-Ang):
   XX=             -3.7802   YY=              2.1405   ZZ=              1.6397
   XY=             -0.5763   XZ=              0.7122   YZ=              0.3119
 Octapole moment (field-independent basis, Debye-Ang**2):
  XXX=             -2.2594  YYY=              2.0745  ZZZ=             -0.9843  XYY=             -1.8609
  XXY=             -1.6130  XXZ=              0.2923  XZZ=              0.3348  YZZ=              0.3808
  YYZ=             -2.0666  XYZ=              0.3013
 Hexadecapole moment (field-independent basis, Debye-Ang**3):
 XXXX=            -39.2639 YYYY=            -67.4690 ZZZZ=            -27.1565 XXXY=            -13.5485
 XXXZ=              3.7204 YYYX=            -10.1769 YYYZ=              9.9800 ZZZX=              3.4656
 ZZZY=              7.3420 XXYY=            -20.1527 XXZZ=            -10.9232 YYZZ=            -15.5653
 XXYZ=              3.3192 YYXZ=              1.5376 ZZXY=             -3.5156
 N-N= 2.948946587111D+01 E-N=-2.386504661353D+02  KE= 7.684430616886D+01
 Orbital energies and kinetic energies (alpha):
                                 1                 2
   1         O                -9.912470         15.797012
   2         O                -9.905094         15.793895
   3         O                -0.650857          1.354367
   4         O                -0.532786          1.280428
   5         O                -0.389809          1.076283
   6         O                -0.359862          0.912581
   7         O                -0.277138          0.956770
   8         O                -0.132800          1.250817
   9         V                -0.132448          1.182930
  10         V                 0.027951          1.158765
  11         V                 0.082609          1.476531
  12         V                 0.122475          1.142974
  13         V                 0.137669          1.285568
  14         V                 0.242093          1.592612
  15         V                 0.643714          2.212034
  16         V                 0.684934          2.470921
  17         V                 0.696212          2.517788
  18         V                 0.743792          2.360469
  19         V                 0.809298          2.434800
  20         V                 0.871777          2.234323
  21         V                 0.884245          2.714685
  22         V                 0.931312          2.218150
  23         V                 0.946476          2.330282
  24         V                 0.954875          2.642088
  25         V                 1.343057          3.155046
  26         V                 1.626150          3.092045
 Total kinetic energy from orbitals= 7.684430616886D+01
 Calling FoFJK, ICntrl=      2527 FMM=F ISym2X=0 I1Cent= 0 IOpClX= 0 NMat=1 NMatS=1 NMatT=0.
 -------------------------------------------------------------------
 Center     Atomic                   Forces (Hartrees/Bohr)
 Number     Number              X              Y              Z
 -------------------------------------------------------------------
      1        6          -0.010668487   -0.001505843    0.070051635
      2        1           0.032382626    0.034820737    0.023617195
      3        1          -0.001996710    0.032317117   -0.026206965
      4        6           0.035056423   -0.086103818   -0.006821055
      5        1          -0.047476801    0.031971048    0.002636719
      6        1          -0.007297052   -0.011499240   -0.063277528
 -------------------------------------------------------------------
 Cartesian Forces:  Max     0.086103818 RMS     0.037814910

 GradGradGradGradGradGradGradGradGradGradGradGradGradGradGradGradGradGrad
 Berny optimization.
 Search for a local minimum.
 Step number   1 out of a maximum of    2
 All quantities printed in internal units (Hartrees-Bohrs-Radians)
 Second derivative matrix not updated -- first step.
 The second derivative matrix:
                          X1        Y1        Z1        X2        Y2
           X1           0.40563
           Y1           0.12361   0.55794
           Z1          -0.07163   0.01799   0.44348
           X2          -0.05697  -0.00790   0.00375   0.04300
           Y2          -0.00409  -0.19568  -0.09092   0.00609   0.17694
           Z2           0.00695  -0.07256  -0.14140  -0.00956   0.09578
           X3          -0.19945  -0.04543   0.08104   0.00340  -0.00036
           Y3          -0.05504  -0.09227   0.01831   0.02082   0.00930
           Z3           0.08930   0.01600  -0.10308   0.01848   0.00475
           X4          -0.11650  -0.05977   0.02476   0.00588   0.00234
           Y4          -0.07946  -0.20837   0.03490  -0.00549  -0.00440
           Z4           0.02737   0.03019  -0.06523  -0.01007  -0.01228
           X5           0.02216  -0.00950   0.00388  -0.00004   0.00001
           Y5           0.01039  -0.00431   0.00236   0.00019  -0.00007
           Z5          -0.00172   0.00119   0.00140   0.00066  -0.00024
           X6          -0.05487  -0.00102  -0.04181   0.00473  -0.00399
           Y6           0.00459  -0.05732   0.01735  -0.01372   0.01391
           Z6          -0.05027   0.00719  -0.13517  -0.00326   0.00291
                          Z2        X3        Y3        Z3        X4
           Z2           0.13532
           X3           0.00048   0.20190
           Y3          -0.01133   0.05242   0.07080
           Z3          -0.00572  -0.08625  -0.01552   0.09501
           X4          -0.00284   0.00589  -0.01914  -0.00020   0.22719
           Y4           0.00540  -0.00292   0.01150   0.00128  -0.05235
           Z4           0.01513  -0.00043   0.00897   0.00443   0.02220
           X5          -0.00002   0.00002   0.00000   0.00004  -0.12759
           Y5           0.00009  -0.00013  -0.00000  -0.00023   0.12050
           Z5           0.00030  -0.00043  -0.00001  -0.00080  -0.04195
           X6           0.00499  -0.01177   0.00094  -0.02137   0.00513
           Y6          -0.01737  -0.00358   0.00068  -0.00628   0.00842
           Z6          -0.00363   0.00559  -0.00042   0.01016  -0.00198
                          Y4        Z4        X5        Y5        Z5
           Y4           0.50038
           Z4          -0.13563   0.08330
           X5           0.14034  -0.04776   0.10543
           Y5          -0.29936   0.09290  -0.13084   0.30366
           Z5           0.09397  -0.03438   0.04387  -0.09519   0.03326
           X6          -0.00012   0.00869   0.00002  -0.00013  -0.00044
           Y6           0.00023   0.01584  -0.00001   0.00008   0.00027
           Z6           0.00007  -0.00324  -0.00001   0.00007   0.00023
                          X6        Y6        Z6
           X6           0.05675
           Y6           0.00431   0.04242
           Z6           0.04994  -0.00981   0.13165
 ITU=  0
     Eigenvalues ---    0.00619   0.04101   0.06606   0.06675   0.09510
     Eigenvalues ---    0.09949   0.15011   0.23766   0.36405   0.59388
     Eigenvalues ---    0.65037   0.95103
 Quadratic step=3.270D+00 exceeds max=3.000D-01 adjusted using Lamda=-2.706D-01.
 Angle between NR and scaled steps=  56.29 degrees.
 Angle between quadratic step and forces=  30.74 degrees.
 Linear search not attempted -- first point.
 B after Tr=     0.006614   -0.019926    0.005002
         Rot=    0.999986    0.003480   -0.001729    0.003626 Ang=   0.61 deg.
 Variable       Old X    -DE/DX   Delta X   Delta X   Delta X     New X
                                 (Linear)    (Quad)   (Total)
    X1       -0.51779  -0.01067   0.00000  -0.00692  -0.00746  -0.52526
    Y1       -1.18271  -0.00151   0.00000   0.02127   0.00768  -1.17503
    Z1        0.28037   0.07005   0.00000   0.07498   0.08987   0.37023
    X2       -0.50433   0.03238   0.00000   0.10647   0.08882  -0.41551
    Y2       -2.93289   0.03482   0.00000   0.09790   0.07352  -2.85937
    Z2       -1.13141   0.02362   0.00000   0.05430   0.08047  -1.05094
    X3       -2.40575  -0.00200   0.00000  -0.04052  -0.04177  -2.44752
    Y3       -1.77439   0.03232   0.00000   0.09007   0.09649  -1.67790
    Z3        1.29435  -0.02621   0.00000  -0.07284  -0.04774   1.24662
    X4        0.72707   0.03506   0.00000   0.02541   0.04018   0.76725
    Y4        1.43493  -0.08610   0.00000  -0.08492  -0.11355   1.32137
    Z4       -0.42002  -0.00682   0.00000  -0.03675  -0.04373  -0.46375
    X5       -0.11763  -0.04748   0.00000  -0.10848  -0.08220  -0.19982
    Y5        3.14514   0.03197   0.00000   0.00570  -0.01902   3.12611
    Z5       -0.96685   0.00264   0.00000   0.06259   0.04643  -0.92042
    X6        0.62438  -0.00730   0.00000  -0.00274   0.00243   0.62681
    Y6       -1.33732  -0.01150   0.00000  -0.03776  -0.04511  -1.38243
    Z6        2.58729  -0.06328   0.00000  -0.13768  -0.12529   2.46200
         Item               Value     Threshold  Converged?
 Maximum Force            0.086104     0.000450     NO 
 RMS     Force            0.037815     0.000300     NO 
 Maximum Displacement     0.125294     0.001800     NO 
 RMS     Displacement     0.068608     0.001200     NO 
 Predicted change in Energy=-3.293653D-02
 GradGradGradGradGradGradGradGradGradGradGradGradGradGradGradGradGradGrad

 Unable to Open any file for archive entry.
 1\1\GINC-BHX0029\Force\RBLYP\3-21G\C2H4\BWEIGHT\01-Jan-2023\0\\# BLYP/
 3-21G SCF=XQC FORCE nosym pop=full\\MD Step 158\\0,1\C,-0.27400519,-0.
 62586169,0.14836281\H,-0.26687808,-1.55201715,-0.59871626\H,-1.2730688
 6,-0.93896664,0.68494287\C,0.38475004,0.75933116,-0.22226671\H,-0.0622
 4675,1.6643348,-0.51163353\H,0.33040796,-0.70767944,1.36913686\\Versio
 n=ES64L-G16RevC.01\HF=-77.8981265\RMSD=2.803e-09\RMSF=3.781e-02\Dipole
 =-0.6541371,-0.1232343,0.0520187\Quadrupole=-2.8104629,1.5913845,1.219
 0785,-0.4284737,0.5295311,0.2318723\PG=C01 [X(C2H4)]\\@
 The archive entry for this job was punched.


 "WHERE SHALL I START, PLEASE YOUR MAJESTY?" HE ASKED.
 "BEGIN AT THE BEGINNING," THE KING SAID GRAVELY,
 "AND GO ON TILL YOU COME TO THE END: THEN STOP." 

                                      -- LEWIS CARROLL
 Job cpu time:       0 days  0 hours  0 minutes 15.6 seconds.
 Elapsed time:       0 days  0 hours  0 minutes 18.1 seconds.
 File lengths (MBytes):  RWF=    272 Int=      0 D2E=      0 Chk=     32 Scr=     32
 Normal termination of Gaussian 16 at Sun Jan  1 19:27:49 2023.
