 Entering Gaussian System, Link 0=g16
 Initial command:
 /software/gaussian/g16-c01/sse4/g16/l1.exe "/gpfs/fs2/scratch/bweight/software/many_molecule_many_mode_NAMD/src/NAMD/TEST_ETHYLENE/G16/GS_NEW/Gau-2560.inp" -scrdir="/gpfs/fs2/scratch/bweight/software/many_molecule_many_mode_NAMD/src/NAMD/TEST_ETHYLENE/G16/GS_NEW/"
 Entering Link 1 = /software/gaussian/g16-c01/sse4/g16/l1.exe PID=      2561.
  
 Copyright (c) 1988-2019, Gaussian, Inc.  All Rights Reserved.
  
 This is part of the Gaussian(R) 16 program.  It is based on
 the Gaussian(R) 09 system (copyright 2009, Gaussian, Inc.),
 the Gaussian(R) 03 system (copyright 2003, Gaussian, Inc.),
 the Gaussian(R) 98 system (copyright 1998, Gaussian, Inc.),
 the Gaussian(R) 94 system (copyright 1995, Gaussian, Inc.),
 the Gaussian 92(TM) system (copyright 1992, Gaussian, Inc.),
 the Gaussian 90(TM) system (copyright 1990, Gaussian, Inc.),
 the Gaussian 88(TM) system (copyright 1988, Gaussian, Inc.),
 the Gaussian 86(TM) system (copyright 1986, Carnegie Mellon
 University), and the Gaussian 82(TM) system (copyright 1983,
 Carnegie Mellon University). Gaussian is a federally registered
 trademark of Gaussian, Inc.
  
 This software contains proprietary and confidential information,
 including trade secrets, belonging to Gaussian, Inc.
  
 This software is provided under written license and may be
 used, copied, transmitted, or stored only in accord with that
 written license.
  
 The following legend is applicable only to US Government
 contracts under FAR:
  
                    RESTRICTED RIGHTS LEGEND
  
 Use, reproduction and disclosure by the US Government is
 subject to restrictions as set forth in subparagraphs (a)
 and (c) of the Commercial Computer Software - Restricted
 Rights clause in FAR 52.227-19.
  
 Gaussian, Inc.
 340 Quinnipiac St., Bldg. 40, Wallingford CT 06492
  
  
 ---------------------------------------------------------------
 Warning -- This program may not be used in any manner that
 competes with the business of Gaussian, Inc. or will provide
 assistance to any competitor of Gaussian, Inc.  The licensee
 of this program is prohibited from giving any competitor of
 Gaussian, Inc. access to this program.  By using this program,
 the user acknowledges that Gaussian, Inc. is engaged in the
 business of creating and licensing software in the field of
 computational chemistry and represents and warrants to the
 licensee that it is not a competitor of Gaussian, Inc. and that
 it will not use this program in any manner prohibited above.
 ---------------------------------------------------------------
  

 Cite this work as:
 Gaussian 16, Revision C.01,
 M. J. Frisch, G. W. Trucks, H. B. Schlegel, G. E. Scuseria, 
 M. A. Robb, J. R. Cheeseman, G. Scalmani, V. Barone, 
 G. A. Petersson, H. Nakatsuji, X. Li, M. Caricato, A. V. Marenich, 
 J. Bloino, B. G. Janesko, R. Gomperts, B. Mennucci, H. P. Hratchian, 
 J. V. Ortiz, A. F. Izmaylov, J. L. Sonnenberg, D. Williams-Young, 
 F. Ding, F. Lipparini, F. Egidi, J. Goings, B. Peng, A. Petrone, 
 T. Henderson, D. Ranasinghe, V. G. Zakrzewski, J. Gao, N. Rega, 
 G. Zheng, W. Liang, M. Hada, M. Ehara, K. Toyota, R. Fukuda, 
 J. Hasegawa, M. Ishida, T. Nakajima, Y. Honda, O. Kitao, H. Nakai, 
 T. Vreven, K. Throssell, J. A. Montgomery, Jr., J. E. Peralta, 
 F. Ogliaro, M. J. Bearpark, J. J. Heyd, E. N. Brothers, K. N. Kudin, 
 V. N. Staroverov, T. A. Keith, R. Kobayashi, J. Normand, 
 K. Raghavachari, A. P. Rendell, J. C. Burant, S. S. Iyengar, 
 J. Tomasi, M. Cossi, J. M. Millam, M. Klene, C. Adamo, R. Cammi, 
 J. W. Ochterski, R. L. Martin, K. Morokuma, O. Farkas, 
 J. B. Foresman, and D. J. Fox, Gaussian, Inc., Wallingford CT, 2019.
 
 ******************************************
 Gaussian 16:  ES64L-G16RevC.01  3-Jul-2019
                 3-Jan-2023 
 ******************************************
 %oldchk=../GS_OLD/geometry.chk
 %chk=geometry.chk
 %nprocshared=1
 Will use up to    1 processors via shared memory.
 %mem=5GB
 Copying data from "../GS_OLD/geometry.chk" to current chk file "geometry.chk"
 IOpt=  2 FromEx=T IUOpen= 4 IOptOp= 5 NList=   0 IFRang= 0 IUIn= 4 IUOut= 2.
 ----------------------------------------------
 # WB97XD/6-311+G* SCF=XQC FORCE nosym pop=full
 ----------------------------------------------
 1/10=7,30=1,38=1/1,3;
 2/12=2,15=1,17=6,18=5,40=1/2;
 3/5=4,6=6,7=11,11=2,25=1,30=1,71=1,74=-58/1,2,3;
 4//1;
 5/5=2,8=3,13=1,38=5/2,8;
 6/7=3,28=1/1;
 7/29=1,30=1/1,2,3,16;
 1/10=7,30=1/3;
 99//99;
 -----------
 MD Step 571
 -----------
 Symbolic Z-matrix:
 Charge =  0 Multiplicity = 1
 C                    -0.14366  -0.65356   0.10339 
 H                     0.47764  -1.6033   -0.51562 
 H                    -1.07007  -1.30485   0.29286 
 C                     0.08729   0.8641   -0.12461 
 H                     0.9716    0.7368   -0.60248 
 H                     0.36486  -0.28562   1.14012 
 

 GradGradGradGradGradGradGradGradGradGradGradGradGradGradGradGradGradGrad
 Berny optimization.
 Initialization pass.
 Trust Radius=3.00D-01 FncErr=1.00D-07 GrdErr=1.00D-07 EigMax=2.50D+02 EigMin=1.00D-04
 Number of steps in this run=      2 maximum allowed number of steps=      2.
 GradGradGradGradGradGradGradGradGradGradGradGradGradGradGradGradGradGrad

                          Input orientation:                          
 ---------------------------------------------------------------------
 Center     Atomic      Atomic             Coordinates (Angstroms)
 Number     Number       Type             X           Y           Z
 ---------------------------------------------------------------------
      1          6           0       -0.143660   -0.653563    0.103388
      2          1           0        0.477638   -1.603300   -0.515618
      3          1           0       -1.070068   -1.304848    0.292859
      4          6           0        0.087285    0.864101   -0.124611
      5          1           0        0.971600    0.736802   -0.602480
      6          1           0        0.364861   -0.285616    1.140120
 ---------------------------------------------------------------------
                    Distance matrix (angstroms):
                    1          2          3          4          5
     1  C    0.000000
     2  H    1.292742   0.000000
     3  H    1.148174   1.771469   0.000000
     4  C    1.551974   2.528504   2.493609   0.000000
     5  H    1.917073   2.393245   3.022974   1.013201   0.000000
     6  H    1.211938   2.119076   1.953384   1.731601   2.109532
                    6
     6  H    0.000000
 Symmetry turned off by external request.
 Stoichiometry    C2H4
 Framework group  C1[X(C2H4)]
 Deg. of freedom    12
 Full point group                 C1      NOp   1
 Rotational constants (GHZ):         122.2124480          23.4576036          22.2929520
 Standard basis: 6-311+G(d) (5D, 7F)
    56 basis functions,    92 primitive gaussians,    58 cartesian basis functions
     8 alpha electrons        8 beta electrons
       nuclear repulsion energy        30.7349945017 Hartrees.
 NAtoms=    6 NActive=    6 NUniq=    6 SFac= 1.00D+00 NAtFMM=   60 NAOKFM=F Big=F
 Integral buffers will be    131072 words long.
 Raffenetti 2 integral format.
 Two-electron integral symmetry is turned off.
 Nuclear repulsion after empirical dispersion term =       30.7339673154 Hartrees.
 One-electron integrals computed using PRISM.
 NBasis=    56 RedAO= T EigKep=  3.99D-04  NBF=    56
 NBsUse=    56 1.00D-06 EigRej= -1.00D+00 NBFU=    56
 ExpMin= 4.38D-02 ExpMax= 4.56D+03 ExpMxC= 6.82D+02 IAcc=3 IRadAn=         5 AccDes= 0.00D+00
 Harris functional with IExCor= 4639 and IRadAn=       5 diagonalized for initial guess.
 HarFok:  IExCor= 4639 AccDes= 0.00D+00 IRadAn=         5 IDoV= 1 UseB2=F ITyADJ=14
 ICtDFT=  3500011 ScaDFX=  1.000000  1.000000  1.000000  1.000000
 FoFCou: FMM=F IPFlag=           0 FMFlag=      100000 FMFlg1=           0
         NFxFlg=           0 DoJE=T BraDBF=F KetDBF=T FulRan=T
         wScrn=  0.000000 ICntrl=       500 IOpCl=  0 I1Cent=   200000004 NGrid=           0
         NMat0=    1 NMatS0=      1 NMatT0=    0 NMatD0=    1 NMtDS0=    0 NMtDT0=    0
 Symmetry not used in FoFCou.
 Keep R1 ints in memory in canonical form, NReq=3523003.
 Requested convergence on RMS density matrix=1.00D-08 within  32 cycles.
 Requested convergence on MAX density matrix=1.00D-06.
 Requested convergence on             energy=1.00D-06.
 No special actions if energy rises.
 SCF Done:  E(RwB97XD) =  -78.4032582214     A.U. after   14 cycles
            NFock= 14  Conv=0.15D-08     -V/T= 2.0081
 QCSCF skips out because SCF is already converged.

 **********************************************************************

            Population analysis using the SCF Density.

 **********************************************************************

 Alpha  occ. eigenvalues --  -10.34719 -10.33972  -0.87558  -0.69025  -0.54218
 Alpha  occ. eigenvalues --   -0.47394  -0.43750  -0.32655
 Alpha virt. eigenvalues --   -0.00997   0.06224   0.08478   0.10471   0.11026
 Alpha virt. eigenvalues --    0.13274   0.14749   0.15473   0.17067   0.19483
 Alpha virt. eigenvalues --    0.21334   0.23195   0.27561   0.31279   0.47633
 Alpha virt. eigenvalues --    0.48194   0.52707   0.55748   0.62131   0.63472
 Alpha virt. eigenvalues --    0.63875   0.65950   0.68574   0.75198   0.84224
 Alpha virt. eigenvalues --    0.89196   1.23639   1.27364   1.34631   1.51415
 Alpha virt. eigenvalues --    1.62110   1.67737   1.71627   1.85957   1.86786
 Alpha virt. eigenvalues --    2.08050   2.43868   2.51532   2.57818   2.60964
 Alpha virt. eigenvalues --    2.79049   2.89540   2.99023   3.06829   3.19938
 Alpha virt. eigenvalues --    3.62704  23.45024  23.63969
     Molecular Orbital Coefficients:
                           1         2         3         4         5
                           O         O         O         O         O
     Eigenvalues --   -10.34719 -10.33972  -0.87558  -0.69025  -0.54218
   1 1   C  1S          0.56370  -0.00782  -0.08420   0.06433   0.00328
   2        2S          0.46352  -0.00636  -0.13287   0.10282   0.00546
   3        2PX         0.00025   0.00005   0.01424   0.03556   0.03827
   4        2PY        -0.00031   0.00045   0.03967   0.07646   0.12006
   5        2PZ         0.00045  -0.00009   0.00739  -0.02542   0.10470
   6        3S          0.01393  -0.00013   0.35114  -0.27784  -0.00949
   7        3PX         0.00000  -0.00011   0.02336   0.05469   0.06010
   8        3PY         0.00112  -0.00101   0.05420   0.12974   0.19177
   9        3PZ        -0.00016   0.00022   0.01987  -0.04422   0.17674
  10        4S         -0.01059   0.00165   0.25002  -0.29429  -0.04676
  11        4PX        -0.00015   0.00004   0.02012   0.02871   0.03347
  12        4PY        -0.00071   0.00141   0.01523   0.06879   0.13376
  13        4PZ        -0.00035  -0.00084   0.00863  -0.02064   0.11346
  14        5S          0.00545  -0.01260   0.03500   0.05927  -0.00379
  15        5PX         0.00074  -0.00031   0.00142   0.00835   0.00317
  16        5PY         0.00280  -0.00335  -0.00256   0.02851   0.00401
  17        5PZ        -0.00053   0.00027   0.00353  -0.00181   0.00432
  18        6D 0       -0.00035   0.00032  -0.00320  -0.00050   0.01660
  19        6D+1       -0.00004  -0.00003   0.00379   0.00182   0.02168
  20        6D-1       -0.00015   0.00016   0.00743  -0.00941   0.01062
  21        6D+2       -0.00045   0.00065  -0.00860  -0.00701  -0.00166
  22        6D-2        0.00031  -0.00020   0.01183  -0.00399   0.00166
  23 2   H  1S          0.00019  -0.00001   0.03639  -0.06162  -0.08906
  24        2S         -0.00007  -0.00032   0.03768  -0.07196  -0.11976
  25        3S          0.00172   0.00066  -0.01384  -0.00407  -0.04310
  26 3   H  1S          0.00004  -0.00000   0.04407  -0.10517  -0.06900
  27        2S         -0.00037  -0.00032   0.04529  -0.11043  -0.08608
  28        3S          0.00290   0.00103  -0.00959  -0.00111  -0.02238
  29 4   C  1S          0.00777   0.56365  -0.07376  -0.06862   0.00771
  30        2S          0.00651   0.46379  -0.11639  -0.10928   0.01277
  31        2PX        -0.00011   0.00125   0.02310   0.06515  -0.06824
  32        2PY        -0.00050  -0.00162  -0.05648  -0.00033  -0.04358
  33        2PZ         0.00006  -0.00055  -0.00384  -0.03757   0.08542
  34        3S          0.00014   0.01313   0.31173   0.30306  -0.04064
  35        3PX         0.00037  -0.00016   0.04261   0.10969  -0.10072
  36        3PY         0.00123  -0.00045  -0.09388   0.00076  -0.06840
  37        3PZ        -0.00018   0.00020  -0.00746  -0.06151   0.14080
  38        4S          0.00069  -0.01005   0.19981   0.24167  -0.01718
  39        4PX        -0.00078  -0.00060   0.02522   0.04116  -0.03054
  40        4PY        -0.00099   0.00176  -0.03296  -0.01354  -0.03066
  41        4PZ         0.00006   0.00005   0.00085  -0.01879   0.06498
  42        5S         -0.00718   0.01169  -0.01103  -0.07415   0.00848
  43        5PX        -0.00025  -0.00134   0.00486  -0.00065   0.00188
  44        5PY         0.00205  -0.00331   0.00718   0.02447   0.00116
  45        5PZ        -0.00033   0.00079  -0.00182  -0.00545  -0.00588
  46        6D 0        0.00044  -0.00031  -0.00797  -0.00164   0.00220
  47        6D+1        0.00000  -0.00029  -0.00741  -0.01552   0.01644
  48        6D-1        0.00030  -0.00005  -0.00441   0.00380  -0.02196
  49        6D+2        0.00086  -0.00016  -0.00567   0.01839  -0.02033
  50        6D-2       -0.00022   0.00005  -0.00549  -0.01019   0.00210
  51 5   H  1S         -0.00015  -0.00021   0.07852   0.12083  -0.09216
  52        2S         -0.00001   0.00012   0.05565   0.12069  -0.13330
  53        3S          0.00143   0.00288  -0.01671   0.02727  -0.07265
  54 6   H  1S          0.00001   0.00014   0.07557  -0.04025   0.12622
  55        2S          0.00023   0.00006   0.07768  -0.04751   0.18818
  56        3S          0.00232   0.00165  -0.02548  -0.00352   0.05791
                           6         7         8         9        10
                           O         O         O         V         V
     Eigenvalues --    -0.47394  -0.43750  -0.32655  -0.00997   0.06224
   1 1   C  1S         -0.00093   0.01965   0.01664  -0.00523   0.04026
   2        2S         -0.00136   0.03124   0.02685  -0.00854   0.06732
   3        2PX         0.17559  -0.04347   0.04046   0.03488  -0.02985
   4        2PY        -0.04532  -0.09762  -0.06546  -0.01788   0.05423
   5        2PZ         0.00647   0.14635  -0.00835   0.07087  -0.01148
   6        3S         -0.00535  -0.09243  -0.07832   0.01149  -0.19835
   7        3PX         0.28036  -0.06710   0.06528   0.05806  -0.04262
   8        3PY        -0.07610  -0.14474  -0.10602  -0.01831   0.10138
   9        3PZ         0.01069   0.22959  -0.01959   0.11452  -0.03264
  10        4S          0.04552  -0.12388  -0.14185   0.20027  -0.52888
  11        4PX         0.24108  -0.06420   0.00555   0.05514  -0.10239
  12        4PY        -0.04234  -0.13445  -0.13188  -0.06446   0.16134
  13        4PZ         0.00342   0.19631  -0.00566   0.16172  -0.01170
  14        5S          0.01873   0.00325  -0.12483   0.71888  -0.63468
  15        5PX         0.02312  -0.00374  -0.00704   0.09896  -0.20643
  16        5PY         0.00397  -0.00383  -0.04956   0.18086  -1.32394
  17        5PZ        -0.00358   0.00845  -0.00109   0.14213   0.11020
  18        6D 0        0.01034   0.00863  -0.00248   0.02292   0.00508
  19        6D+1        0.00813   0.00517   0.00102   0.00817   0.00329
  20        6D-1        0.01608  -0.00114   0.01441  -0.02321  -0.00774
  21        6D+2        0.00183   0.01473  -0.00946   0.00566  -0.00272
  22        6D-2       -0.01273   0.01917  -0.02645  -0.01564  -0.00735
  23 2   H  1S          0.10382  -0.05303   0.08480  -0.02031  -0.00004
  24        2S          0.15469  -0.08159   0.16421  -0.05905   0.15074
  25        3S          0.06355  -0.06171   0.13894  -0.11390  -0.31327
  26 3   H  1S         -0.10649   0.08317  -0.03919  -0.03058  -0.01270
  27        2S         -0.14845   0.12001  -0.08522  -0.09083   0.13925
  28        3S         -0.04849   0.04449  -0.09245  -0.18121  -0.49428
  29 4   C  1S          0.03608  -0.00114  -0.05320   0.00463   0.00942
  30        2S          0.05841  -0.00177  -0.08627   0.00716   0.01553
  31        2PX         0.07812   0.11196  -0.11540  -0.10507  -0.01370
  32        2PY        -0.00811   0.11207   0.15982   0.02797  -0.03970
  33        2PZ        -0.00168  -0.00336   0.07822  -0.20874  -0.00267
  34        3S         -0.17195  -0.00197   0.23931  -0.01113  -0.04084
  35        3PX         0.12105   0.17143  -0.16699  -0.17302  -0.04346
  36        3PY        -0.00830   0.17852   0.24011   0.04700  -0.04628
  37        3PZ         0.00210   0.00207   0.11663  -0.33409   0.00406
  38        4S         -0.19466   0.06176   0.48040  -0.10140  -0.19952
  39        4PX         0.06279   0.11466  -0.12649  -0.22856   0.02945
  40        4PY        -0.00824   0.07824   0.16738   0.08540  -0.10359
  41        4PZ         0.00762   0.00683   0.10280  -0.45103  -0.01859
  42        5S         -0.01344   0.01908   0.21806  -0.55124   2.63164
  43        5PX        -0.00225   0.00443  -0.01853  -0.09407   0.15075
  44        5PY        -0.00689  -0.00366  -0.00627   0.16855  -0.73628
  45        5PZ         0.00154   0.00367   0.01840  -0.29747   0.12926
  46        6D 0       -0.00342   0.00814   0.01557   0.01945   0.00582
  47        6D+1        0.00037  -0.00975   0.01358  -0.01427   0.00436
  48        6D-1       -0.00112  -0.01185  -0.01249   0.01260   0.00348
  49        6D+2        0.00207   0.03517   0.00529  -0.00696   0.00200
  50        6D-2       -0.02189  -0.00488   0.01868   0.00844  -0.00032
  51 5   H  1S          0.02451   0.08577  -0.07792  -0.00006   0.00028
  52        2S          0.04377   0.12093  -0.14530   0.02563   0.07122
  53        3S          0.01380   0.06872  -0.10072  -0.00559  -0.33076
  54 6   H  1S          0.07118   0.07869  -0.00065   0.06034   0.01042
  55        2S          0.10598   0.14315   0.02281   0.10106   0.11325
  56        3S          0.03400   0.06810   0.04215   0.11193  -0.17385
                          11        12        13        14        15
                           V         V         V         V         V
     Eigenvalues --     0.08478   0.10471   0.11026   0.13274   0.14749
   1 1   C  1S         -0.00945  -0.00100  -0.00018  -0.01800   0.00535
   2        2S         -0.01658  -0.00087  -0.00015  -0.02882   0.00781
   3        2PX        -0.04544  -0.00797   0.06796   0.04640  -0.04249
   4        2PY         0.00062  -0.01552  -0.01548   0.02344   0.03091
   5        2PZ        -0.04823  -0.05473  -0.07106   0.02960   0.04694
   6        3S          0.07143  -0.00622   0.00402   0.07038   0.00029
   7        3PX        -0.08665  -0.01970   0.10321   0.08550  -0.06592
   8        3PY        -0.01135  -0.03743  -0.01019   0.03392   0.03997
   9        3PZ        -0.09153  -0.08402  -0.10667   0.05876   0.06869
  10        4S         -0.10396   0.08813  -0.11440   0.40685  -0.29242
  11        4PX        -0.12219  -0.00615   0.20221   0.19185  -0.19635
  12        4PY        -0.04226  -0.07827  -0.18661  -0.01319   0.11962
  13        4PZ        -0.14550  -0.15954  -0.30873   0.16981   0.27777
  14        5S          5.30013   0.75564   3.47717   1.20901   9.46014
  15        5PX         0.51882   0.59305  -1.21052  -0.22627   1.89229
  16        5PY         2.35893   0.47080   1.02318  -0.42793   2.45213
  17        5PZ        -0.32654   1.20158   0.13153   0.75471  -0.86658
  18        6D 0        0.00707  -0.01529   0.01026  -0.01110  -0.00244
  19        6D+1       -0.00173  -0.01784   0.00233  -0.00274  -0.00497
  20        6D-1        0.00416  -0.01778   0.00799  -0.00644  -0.00338
  21        6D+2        0.02277  -0.00293   0.00576  -0.01214   0.00560
  22        6D-2       -0.00234  -0.00968  -0.01061   0.00482   0.00336
  23 2   H  1S         -0.01547   0.00221  -0.00499  -0.01090   0.01151
  24        2S         -0.02825  -0.04844  -0.10782  -0.04078   0.14683
  25        3S         -0.21154   0.00345   0.00588  -0.07586  -0.08998
  26 3   H  1S         -0.00235   0.00621  -0.02419   0.00648   0.00655
  27        2S         -0.06231  -0.02513   0.10457   0.04736  -0.02561
  28        3S          0.04228   0.07811  -0.58665  -0.04499   0.08865
  29 4   C  1S          0.03166  -0.00730   0.01482  -0.00274   0.01027
  30        2S          0.05273  -0.01214   0.02379  -0.00331   0.01630
  31        2PX        -0.00940  -0.02101   0.03232  -0.01418   0.04496
  32        2PY         0.02008  -0.01262   0.00035  -0.04460  -0.04426
  33        2PZ         0.00664  -0.03596  -0.01494   0.03950  -0.00263
  34        3S         -0.17249   0.03838  -0.07183  -0.00814  -0.04395
  35        3PX        -0.04930  -0.02432   0.04753  -0.00704   0.06451
  36        3PY         0.05064  -0.02471   0.01395  -0.02940  -0.04568
  37        3PZ         0.02617  -0.03275  -0.02123   0.04360  -0.01387
  38        4S         -0.30610   0.14280  -0.10693   0.22077  -0.19830
  39        4PX         0.04059  -0.04300   0.10641  -0.10838   0.12715
  40        4PY        -0.03832  -0.03892  -0.10231  -0.25451  -0.22023
  41        4PZ         0.00657  -0.15065  -0.04313   0.18158   0.03344
  42        5S         -4.24439  -0.50499  -2.97715  -0.41130  -9.27734
  43        5PX         0.79848  -0.07355   0.34474   0.64307  -1.39558
  44        5PY         1.48882  -0.11809   1.28991   1.25720   3.63574
  45        5PZ        -0.34699   0.12063  -0.06402  -0.83776   0.24449
  46        6D 0        0.00002  -0.00330  -0.00426  -0.01289  -0.01239
  47        6D+1        0.01212  -0.00553  -0.00162   0.00452  -0.01695
  48        6D-1        0.00115   0.01249   0.00696  -0.01043   0.00083
  49        6D+2       -0.01154   0.00264  -0.00229  -0.02169   0.00485
  50        6D-2        0.01277  -0.00031  -0.00917   0.00183  -0.01074
  51 5   H  1S         -0.01920   0.00363  -0.00008  -0.02465   0.04282
  52        2S          0.10394  -0.02104  -0.08989   0.01779  -0.07192
  53        3S         -0.62405  -0.05161   0.21722  -0.16214   0.98168
  54 6   H  1S          0.02113  -0.04435   0.02359  -0.05781  -0.01930
  55        2S          0.14252   0.07394   0.08167  -0.17725  -0.04988
  56        3S         -0.15622  -0.81908   0.35180  -0.66366  -0.43848
                          16        17        18        19        20
                           V         V         V         V         V
     Eigenvalues --     0.15473   0.17067   0.19483   0.21334   0.23195
   1 1   C  1S          0.01359  -0.01269   0.01015   0.02176  -0.05847
   2        2S          0.02206  -0.02034   0.01555   0.03505  -0.09490
   3        2PX         0.00333   0.00953  -0.14875   0.04426  -0.04524
   4        2PY         0.00666  -0.04190   0.04534   0.02073  -0.01509
   5        2PZ         0.02789  -0.12508  -0.04137  -0.02421   0.02450
   6        3S         -0.06057   0.05297  -0.01578  -0.06045   0.21825
   7        3PX        -0.00456   0.01346  -0.19061   0.05604  -0.04956
   8        3PY         0.00346  -0.06569   0.05808   0.02932  -0.00663
   9        3PZ         0.02745  -0.15867  -0.04166  -0.03643   0.02767
  10        4S         -0.25030   0.20138  -0.44609  -0.74309   2.19842
  11        4PX         0.11680   0.00121  -1.02647   0.34559  -0.34620
  12        4PY         0.24938  -0.38544   0.00602   0.13113  -0.04331
  13        4PZ         0.22031  -0.75101  -0.31918  -0.16144   0.26460
  14        5S          1.63413  -3.49087  -0.11629  23.91599  11.19708
  15        5PX         0.13041   1.12228  -0.95201   1.32688  -0.18596
  16        5PY         1.61348  -1.81343   0.00723   7.09843   1.92055
  17        5PZ         1.50162   0.27041   0.76730  -1.24422  -0.30555
  18        6D 0       -0.00895  -0.00420   0.01830   0.00366   0.01610
  19        6D+1       -0.01679   0.01528  -0.00599   0.00676   0.00117
  20        6D-1        0.00556  -0.00704   0.01922  -0.00604   0.00141
  21        6D+2       -0.00118   0.00840  -0.00806   0.01359   0.01139
  22        6D-2       -0.01179   0.01857  -0.01128   0.00095  -0.01195
  23 2   H  1S          0.04523  -0.08096   0.08231  -0.01642  -0.04087
  24        2S          0.05044  -0.15601   0.12160   0.03229   0.01517
  25        3S          0.81840  -1.51118   1.65475  -0.79012  -1.30588
  26 3   H  1S          0.00322   0.01950  -0.04970   0.03032  -0.09242
  27        2S          0.05624  -0.01853  -0.17811   0.17936  -0.14019
  28        3S          0.16215   0.26500  -1.11640   0.38873  -2.88034
  29 4   C  1S          0.00080  -0.00082   0.00406  -0.02669   0.00858
  30        2S          0.00082  -0.00115   0.00731  -0.04236   0.01377
  31        2PX         0.01373   0.05823   0.04498  -0.00722   0.04155
  32        2PY        -0.01165   0.03228   0.00584   0.03164   0.09445
  33        2PZ         0.09631   0.04616  -0.01782  -0.00208   0.02783
  34        3S          0.01564  -0.01515  -0.04297   0.08082  -0.02190
  35        3PX        -0.01490   0.06902   0.08105   0.03559   0.06414
  36        3PY        -0.02465   0.03856  -0.00645  -0.01761   0.12722
  37        3PZ         0.11004   0.04964  -0.03088  -0.01875   0.03709
  38        4S         -0.33997   0.36418   0.28891   0.90548  -0.36851
  39        4PX         0.07947   0.36993   0.14890  -0.10918   0.12432
  40        4PY         0.07422   0.01282  -0.04070   0.29174   0.59129
  41        4PZ         0.44422   0.18591  -0.02977   0.02223   0.11948
  42        5S         -1.51105   3.93378  -1.34877 -23.89296  -8.82466
  43        5PX        -0.23700  -1.25230   0.41623   1.17118   0.58282
  44        5PY        -0.37368  -0.98773   0.80487   7.20808   2.30843
  45        5PZ        -1.59829  -0.57482  -0.90587  -1.07341  -0.10612
  46        6D 0       -0.00013  -0.00278   0.00644  -0.00525  -0.01015
  47        6D+1        0.00307   0.01460  -0.01055   0.00126  -0.00781
  48        6D-1       -0.01147   0.00105  -0.01078  -0.00262  -0.00172
  49        6D+2        0.00871  -0.00093   0.00190  -0.00655   0.00722
  50        6D-2       -0.00542  -0.01136   0.02117  -0.00228   0.02073
  51 5   H  1S          0.01276  -0.02941   0.01781  -0.02359   0.01096
  52        2S          0.10976  -0.12755  -0.01160  -0.13046   0.03101
  53        3S          0.07663  -0.62797   0.23196   0.12637   0.47932
  54 6   H  1S         -0.04777   0.02650   0.06943   0.00648  -0.04354
  55        2S         -0.08027   0.11191   0.21218   0.06784  -0.07114
  56        3S         -1.02655   0.89055   1.69597  -0.13910  -1.51792
                          21        22        23        24        25
                           V         V         V         V         V
     Eigenvalues --     0.27561   0.31279   0.47633   0.48194   0.52707
   1 1   C  1S          0.00512   0.02525   0.01482  -0.00586   0.01338
   2        2S          0.00722   0.04177   0.02382  -0.01146   0.02685
   3        2PX        -0.00627  -0.02884   0.01216   0.00317  -0.03011
   4        2PY        -0.04607  -0.16762  -0.03478   0.00436  -0.10423
   5        2PZ         0.07481   0.01251   0.02364  -0.00023  -0.01150
   6        3S          0.01633  -0.11074   0.00510   0.09042  -0.16395
   7        3PX        -0.00209  -0.04702   0.06338  -0.01316  -0.12448
   8        3PY        -0.03742  -0.20317  -0.03087   0.03518  -0.44847
   9        3PZ         0.10364   0.01393   0.13687  -0.00793  -0.01503
  10        4S         -0.45849  -0.97182  -1.15458  -0.30191   0.42859
  11        4PX        -0.30345  -0.40240  -0.78104   0.31945   1.03961
  12        4PY        -0.87118  -1.97596  -1.75881   0.10890   2.11251
  13        4PZ         0.53336   0.02662  -0.58953   0.07496  -0.33287
  14        5S         -1.76176   9.29995   5.60020  -0.83424  -1.40396
  15        5PX        -0.50360  -0.08101   0.56230  -1.55192  -0.61953
  16        5PY         0.08441   1.92710   1.85802   0.09803  -1.00031
  17        5PZ         0.34496  -0.92404   0.90079   0.52220   0.61644
  18        6D 0       -0.00991  -0.02004   0.01431  -0.01377  -0.00853
  19        6D+1       -0.00424  -0.00583   0.03826   0.00682  -0.00899
  20        6D-1       -0.00926  -0.01587   0.02789  -0.02971   0.01933
  21        6D+2       -0.02057  -0.03528  -0.00711   0.00909   0.02489
  22        6D-2        0.00274  -0.00530   0.02116   0.02755   0.01707
  23 2   H  1S          0.03061  -0.00820  -0.02203  -0.08080   0.00680
  24        2S          0.06197  -0.06936  -0.50394  -0.93073   0.31689
  25        3S          0.20847  -1.16354   0.32390   2.41532   0.25431
  26 3   H  1S          0.00127  -0.00561   0.01129   0.08312   0.03688
  27        2S         -0.04370  -0.09145  -0.25205   1.06784   1.14506
  28        3S         -0.93798  -1.68699  -0.58801  -2.12377  -0.44643
  29 4   C  1S         -0.03717  -0.02353  -0.00618  -0.00820  -0.00800
  30        2S         -0.06011  -0.03792  -0.00804  -0.01467  -0.01245
  31        2PX         0.09757  -0.10362  -0.01459  -0.04443  -0.01158
  32        2PY        -0.08543  -0.13457   0.01727  -0.00707   0.01102
  33        2PZ        -0.04000   0.06305   0.01063   0.01689  -0.04967
  34        3S          0.11001   0.08890  -0.08852   0.04423   0.05532
  35        3PX         0.11188  -0.14047   0.00028  -0.10903   0.02941
  36        3PY        -0.14483  -0.20951   0.01918  -0.05275   0.21815
  37        3PZ        -0.03556   0.09088   0.06321   0.03802  -0.19154
  38        4S          2.32255   1.12410   2.16208   0.18748  -1.40464
  39        4PX         0.95647  -0.81773   0.22916   0.43763  -0.63038
  40        4PY        -0.83494  -1.27007  -1.27507   0.10548   0.26259
  41        4PZ        -0.43505   0.51058   0.26269  -0.32944   0.46968
  42        5S          4.26741  -9.22897  -4.61001   0.31090   2.46577
  43        5PX         0.94039   0.29046   0.00541   0.32682   0.62076
  44        5PY        -1.44223   3.18844   1.26355  -0.28489  -0.38584
  45        5PZ        -0.26388  -0.12548  -0.22868  -0.11860  -0.42176
  46        6D 0       -0.00104   0.00851   0.02425  -0.00176   0.02855
  47        6D+1       -0.00317  -0.00288   0.00912   0.01850   0.00459
  48        6D-1        0.00196   0.01171  -0.03021   0.01553   0.01144
  49        6D+2        0.00468   0.01659  -0.00585  -0.02638   0.02872
  50        6D-2       -0.01159  -0.01053  -0.00897  -0.02642  -0.05288
  51 5   H  1S         -0.03302   0.05448  -0.00249  -0.05944   0.03411
  52        2S         -0.09393   0.16133  -0.47536  -0.65069   0.74964
  53        3S         -3.95419   1.84975   0.46250   0.38913  -1.03617
  54 6   H  1S         -0.04588  -0.02688   0.08029  -0.03244   0.07035
  55        2S         -0.07556  -0.11470   1.60476  -0.32728   0.30642
  56        3S         -0.99895   0.96620  -2.90746   0.69642  -0.71832
                          26        27        28        29        30
                           V         V         V         V         V
     Eigenvalues --     0.55748   0.62131   0.63472   0.63875   0.65950
   1 1   C  1S          0.01844   0.00140  -0.00251   0.00770  -0.02268
   2        2S          0.02901   0.00179  -0.00072   0.01161  -0.04291
   3        2PX        -0.02376   0.04859  -0.20680  -0.08530   0.06156
   4        2PY         0.02445  -0.09243   0.03346   0.09509   0.03101
   5        2PZ         0.06322  -0.20090  -0.02672  -0.07432   0.08917
   6        3S          0.02797   0.02030  -0.09471   0.01702   0.22745
   7        3PX        -0.05883   0.21192  -0.84552  -0.31375   0.19381
   8        3PY         0.08986  -0.33648   0.01903   0.50534   0.02980
   9        3PZ         0.18681  -0.82380  -0.09482  -0.29378   0.31982
  10        4S         -0.32539  -0.32531  -0.56267   0.76650  -0.72366
  11        4PX        -0.13316  -0.86488   1.47453   0.78577  -0.64191
  12        4PY         0.16790   0.30421  -0.49381  -1.20854  -0.44145
  13        4PZ        -0.10115   1.85978   0.53463  -0.03410  -0.60957
  14        5S          5.15476   2.32835  -0.53800   3.46907  -0.20341
  15        5PX         0.78570   0.33513   0.21140  -0.13284   0.31924
  16        5PY         0.31158   0.68040   0.08186   1.11884   0.05980
  17        5PZ        -0.63171  -0.26165  -0.24148   0.04573   0.46195
  18        6D 0       -0.02423   0.00913   0.02109  -0.02351   0.01916
  19        6D+1       -0.01448  -0.00670   0.01725   0.01517  -0.00385
  20        6D-1        0.03234  -0.02296  -0.00926  -0.01272  -0.01901
  21        6D+2       -0.02811  -0.01782   0.02482  -0.04039   0.02531
  22        6D-2       -0.00695  -0.00183  -0.04789   0.02711  -0.03525
  23 2   H  1S          0.10870  -0.03774   0.01486   0.03837  -0.01737
  24        2S          1.44663   0.13898  -0.00669  -0.11059  -0.16247
  25        3S         -2.57775   0.68171  -0.64300  -0.90247   0.24102
  26 3   H  1S          0.05362   0.00379  -0.06736   0.03152  -0.01530
  27        2S          0.69117  -0.14500  -0.51868   0.23359  -0.26231
  28        3S         -0.81744  -0.40672   1.62860  -0.78579   0.15169
  29 4   C  1S         -0.01319  -0.01604  -0.01332   0.00260   0.00098
  30        2S         -0.02393  -0.02803  -0.02085  -0.00237   0.00432
  31        2PX        -0.05735  -0.00969   0.01147  -0.01160  -0.11578
  32        2PY        -0.06228  -0.02588   0.10492  -0.06668   0.07284
  33        2PZ        -0.01510  -0.05816  -0.00733  -0.10319  -0.17345
  34        3S          0.08238   0.06553  -0.01761   0.21207  -0.09108
  35        3PX        -0.19037  -0.02766  -0.01474  -0.07191  -0.46700
  36        3PY        -0.14934  -0.00840   0.43455  -0.40412   0.22494
  37        3PZ        -0.00245  -0.27370  -0.05850  -0.36758  -0.68711
  38        4S          0.29630   0.72241   1.12842  -0.48118   0.69532
  39        4PX         0.90401   0.79435   0.32995  -0.64950   0.99601
  40        4PY        -0.00533  -0.57847  -1.35123   1.05246  -0.74269
  41        4PZ        -0.37306  -0.01828  -0.12682   1.04596   1.33495
  42        5S         -4.00062  -1.89554   0.81839  -2.37789   0.04522
  43        5PX        -0.72719  -0.25177  -0.19348   0.33182  -0.49575
  44        5PY         1.18341   0.50990   0.06206   0.05401   0.18426
  45        5PZ         0.37437   0.11842   0.25223  -0.35819  -0.84476
  46        6D 0        0.02626   0.00971  -0.00460  -0.03156  -0.01813
  47        6D+1        0.00852   0.00533   0.01885  -0.01340  -0.01165
  48        6D-1       -0.04292   0.02848   0.01528   0.00121   0.02597
  49        6D+2        0.00812   0.00908   0.02085  -0.04233  -0.01008
  50        6D-2        0.01217   0.01126   0.04280   0.00547   0.03394
  51 5   H  1S         -0.03254  -0.03790  -0.01238   0.01452   0.00856
  52        2S         -0.93953  -0.79760  -0.65366   0.71469  -0.06430
  53        3S          1.07720   0.52960  -0.30777   0.06866  -0.22968
  54 6   H  1S          0.01007   0.05698   0.02370   0.06234  -0.02916
  55        2S          0.23241   0.25700  -0.15239   0.68749  -0.43611
  56        3S         -0.29585  -1.64081  -0.95457  -1.40696   0.57349
                          31        32        33        34        35
                           V         V         V         V         V
     Eigenvalues --     0.68574   0.75198   0.84224   0.89196   1.23639
   1 1   C  1S          0.00437  -0.01739   0.08799  -0.07691  -0.00721
   2        2S          0.00896  -0.03598   0.18971  -0.16277  -0.01711
   3        2PX        -0.09154  -0.02700   0.01779  -0.00874  -0.02003
   4        2PY        -0.20131  -0.06599   0.06307   0.05541   0.01472
   5        2PZ         0.07791  -0.04226  -0.02308  -0.02030   0.03235
   6        3S         -0.10702   0.26163  -1.61946   1.49069   0.22222
   7        3PX        -0.33982  -0.13549   0.03492  -0.08202  -0.01790
   8        3PY        -0.61431  -0.18973   0.10281  -0.10139   0.00833
   9        3PZ         0.25462  -0.13538  -0.06200  -0.05396   0.02576
  10        4S          0.94452   0.38155   3.05260  -4.97561  -0.63815
  11        4PX         0.65174   0.29003  -0.09707  -0.02599  -0.07669
  12        4PY         1.62858   1.12195  -0.42349  -1.37162  -0.01794
  13        4PZ        -0.55698   0.18991   0.55629   0.36984   0.01021
  14        5S         -0.81797  -5.27618   1.38437   9.64126   0.78374
  15        5PX         0.38415   0.00340  -0.24770   0.44337   0.19128
  16        5PY         0.17168  -0.77830  -0.03008   2.94560   0.18191
  17        5PZ         0.26106   0.39539   0.11809  -0.46364  -0.06991
  18        6D 0       -0.00977  -0.00543   0.03324   0.01987   0.48328
  19        6D+1        0.01239   0.01942  -0.00633  -0.00307  -0.39929
  20        6D-1       -0.04195   0.01878  -0.02870   0.06609  -0.30827
  21        6D+2       -0.05015  -0.03788   0.10017   0.06156  -0.10382
  22        6D-2        0.00016  -0.02843  -0.03917  -0.01886   0.11948
  23 2   H  1S         -0.02225  -0.02326   0.03023  -0.01361   0.01490
  24        2S         -0.28316  -0.11880  -0.09706   0.32556   0.32257
  25        3S          0.48821   0.84075  -0.65619  -0.03360  -0.26152
  26 3   H  1S         -0.07332  -0.02560   0.04886  -0.01608  -0.00272
  27        2S         -0.66656  -0.20087   0.03435   0.24929   0.04958
  28        3S          1.90475   1.11675  -1.55512   0.28926   0.16585
  29 4   C  1S          0.00310   0.00857   0.07623   0.09385  -0.00088
  30        2S          0.00801   0.01800   0.16456   0.19748  -0.00115
  31        2PX         0.02152  -0.21504  -0.05573   0.01376  -0.00742
  32        2PY        -0.21441  -0.02337  -0.02359   0.05171   0.02241
  33        2PZ        -0.04029   0.11497   0.01548  -0.01283   0.06829
  34        3S         -0.09945  -0.07555  -1.36636  -1.72161  -0.00620
  35        3PX         0.09625  -0.89075  -0.16468   0.09560  -0.03271
  36        3PY        -0.60168  -0.09770   0.02269  -0.10496  -0.02035
  37        3PZ        -0.19904   0.47828  -0.02345  -0.00804   0.07235
  38        4S         -0.85373  -0.35727   2.44693   5.07601   0.15199
  39        4PX         0.27424   1.50594   0.82626  -0.24094  -0.04930
  40        4PY         1.62366   0.82621  -0.15370  -1.69047  -0.07069
  41        4PZ         0.14949  -0.88394  -0.09715   0.06161   0.02497
  42        5S         -0.42852   6.18639  -0.23376  -9.62789  -0.62207
  43        5PX        -0.27361   0.03729   0.46151   0.59527  -0.01534
  44        5PY        -0.25596  -2.02383   0.00800   2.82637   0.17785
  45        5PZ        -0.20882   0.02555  -0.12723  -0.45272  -0.02813
  46        6D 0        0.03160  -0.01256   0.01717   0.00095   0.13461
  47        6D+1        0.02831  -0.03250   0.02041   0.01065  -0.09744
  48        6D-1        0.04019  -0.02099   0.07777  -0.06341   0.48089
  49        6D+2        0.04837   0.00680   0.08375  -0.05352  -0.27095
  50        6D-2       -0.01573   0.02954  -0.01007   0.00101  -0.11022
  51 5   H  1S         -0.03344   0.11088   0.02241   0.02957  -0.03374
  52        2S         -0.57161   1.23743  -0.07052  -0.23617   0.17631
  53        3S          0.37986  -3.58591  -1.74018  -0.44483  -0.05971
  54 6   H  1S         -0.01893   0.02805   0.04244  -0.01380   0.02097
  55        2S         -0.07935   0.25678  -0.32616   0.15994   0.24569
  56        3S         -0.02408  -0.64780  -1.34236  -0.08575  -0.15361
                          36        37        38        39        40
                           V         V         V         V         V
     Eigenvalues --     1.27364   1.34631   1.51415   1.62110   1.67737
   1 1   C  1S          0.01220   0.00444   0.00437   0.01786   0.02163
   2        2S          0.02892   0.01058   0.00998   0.03846   0.04794
   3        2PX        -0.04645   0.05373   0.04225  -0.01141   0.01518
   4        2PY        -0.00960  -0.00481  -0.00720   0.00135   0.01770
   5        2PZ        -0.02574  -0.01879  -0.02005   0.01212   0.01406
   6        3S         -0.39040  -0.10664  -0.10233  -0.26076  -0.47713
   7        3PX        -0.06305   0.03133   0.01005  -0.10599  -0.01191
   8        3PY        -0.01692   0.01136  -0.00897  -0.32267  -0.22657
   9        3PZ        -0.01550  -0.00625   0.01155  -0.00369   0.04735
  10        4S          1.23720   0.10848   0.03880  -0.30378   1.28020
  11        4PX        -0.09188   0.60993   0.45603  -0.30984   0.57620
  12        4PY        -0.15961   0.15536   0.02943  -0.32982   1.51945
  13        4PZ         0.13871  -0.23159  -0.22810  -0.28518   0.11678
  14        5S         -0.86918   0.02356  -0.06723   0.38509  -2.59489
  15        5PX         0.02567  -0.21845  -0.23744   0.25218  -0.24296
  16        5PY        -0.19313   0.01984   0.01982   0.22067  -0.88100
  17        5PZ        -0.02069   0.11854   0.11574   0.22572   0.01225
  18        6D 0        0.07172   0.05045   0.43059  -0.67461   0.17401
  19        6D+1       -0.25450  -0.02466  -0.46529  -0.48571   0.46530
  20        6D-1        0.46114   0.15358   0.23129  -0.22574  -0.11660
  21        6D+2       -0.08028  -0.21784  -0.40562  -0.19272  -0.59401
  22        6D-2        0.36805  -0.39870  -0.12638   0.02122   0.26766
  23 2   H  1S         -0.00033   0.01241   0.02179   0.04020  -0.03952
  24        2S         -0.33725  -0.47394  -0.52414  -0.27417   0.35305
  25        3S         -0.03843   0.25427   0.34070   0.09919   0.00780
  26 3   H  1S         -0.01178  -0.02602  -0.03770   0.11476  -0.00404
  27        2S         -0.58205   0.70392   0.55060  -0.69755   0.32777
  28        3S          0.08812  -0.25013  -0.26987   0.41779   0.26233
  29 4   C  1S          0.00163   0.00373   0.00384   0.02085   0.01940
  30        2S          0.00461   0.00652   0.00772   0.04710   0.04481
  31        2PX        -0.04751   0.06771   0.01828   0.00737   0.00209
  32        2PY         0.00897  -0.02647  -0.01439   0.02307   0.02749
  33        2PZ        -0.05486   0.00097  -0.02990  -0.00159  -0.00331
  34        3S         -0.05392  -0.03478  -0.06160  -0.41211  -0.31285
  35        3PX        -0.06235   0.08198   0.06559   0.04497  -0.08701
  36        3PY         0.04167   0.01268   0.03283   0.24706   0.31300
  37        3PZ        -0.07198  -0.04023  -0.02924  -0.01822   0.00815
  38        4S          0.00380  -0.06532   0.11248   1.03634  -1.56072
  39        4PX         0.22797  -0.12347  -0.09894   0.17331  -0.42914
  40        4PY         0.04687   0.10380   0.00447  -0.61289   0.45632
  41        4PZ        -0.00191   0.05526   0.02102   0.00656   0.15275
  42        5S          0.86081   0.00728   0.01337  -0.22186   2.66768
  43        5PX        -0.01398   0.07333   0.09212   0.00017   0.19903
  44        5PY        -0.25451  -0.02651  -0.01637   0.12671  -0.62838
  45        5PZ         0.04690  -0.03978  -0.04048  -0.06387  -0.06098
  46        6D 0        0.29977   0.49410  -0.45530  -0.36717   0.07935
  47        6D+1       -0.19186  -0.47751   0.13801  -0.29135   0.43104
  48        6D-1       -0.33258  -0.02202  -0.24896  -0.04564  -0.17144
  49        6D+2       -0.18976  -0.07959   0.37792  -0.32298  -0.45694
  50        6D-2       -0.38514   0.49051   0.21836   0.07155   0.24233
  51 5   H  1S         -0.04229   0.06428   0.04133  -0.09288  -0.20811
  52        2S         -0.02310  -0.22969  -0.26955  -0.09194   1.43371
  53        3S         -0.27324   0.03002   0.03367  -0.32871  -0.87133
  54 6   H  1S         -0.03682  -0.01062   0.02289  -0.13413   0.03925
  55        2S         -0.43417  -0.01060  -0.04352   1.04068  -0.77854
  56        3S          0.00549  -0.06763   0.04643  -0.81484   0.47525
                          41        42        43        44        45
                           V         V         V         V         V
     Eigenvalues --     1.71627   1.85957   1.86786   2.08050   2.43868
   1 1   C  1S         -0.00434   0.00271  -0.00145   0.01954   0.00489
   2        2S         -0.00802   0.00912   0.00240   0.03156   0.00640
   3        2PX         0.00536  -0.09570  -0.03270  -0.10757   0.16534
   4        2PY         0.00256   0.02154   0.02923  -0.36409   0.22115
   5        2PZ        -0.00077   0.04845  -0.06962  -0.00412   0.47878
   6        3S          0.05974  -0.11608   0.00095   0.07580   0.04796
   7        3PX         0.00484   0.20038   0.03775   0.10325  -0.24722
   8        3PY         0.10596  -0.03223   0.02100   0.00929  -0.54928
   9        3PZ        -0.07797  -0.07825  -0.00076   0.09645  -0.68681
  10        4S          0.64340   0.08197  -0.29748  -2.26041  -0.76883
  11        4PX         0.06803  -0.09653  -0.19129  -0.24292   0.07548
  12        4PY        -0.31025   0.25945   0.04277  -1.50654  -0.35037
  13        4PZ        -0.51632   0.12055  -0.38488   0.13688   0.43845
  14        5S         -0.84224  -0.45949   1.40835   2.31348   0.42608
  15        5PX        -0.13144  -0.51619   0.10253  -0.09948  -0.00481
  16        5PY        -0.01129  -0.12060   0.17868   0.61098   0.59551
  17        5PZ         0.33509   0.23128   0.17290  -0.16024   0.27348
  18        6D 0       -0.21387  -0.07797   0.20654   0.44835   0.24021
  19        6D+1       -0.53302   0.12572   0.02141   0.04521   0.11264
  20        6D-1       -0.03175   0.41133  -0.76107   0.15953   0.14224
  21        6D+2        0.21452  -0.36495  -0.07389   0.73730   0.22389
  22        6D-2       -0.25981  -0.75220  -0.39830  -0.26215  -0.05878
  23 2   H  1S          0.03383   0.26066  -0.06805  -0.03284   0.86618
  24        2S         -0.54789  -0.81500   0.34405   0.12954  -1.38301
  25        3S          0.26828   1.00313  -0.28141  -0.19333   1.16628
  26 3   H  1S          0.00630  -0.39509  -0.16411  -0.17723   0.42349
  27        2S         -0.16342   1.25388   0.60405   0.50332  -0.62805
  28        3S         -0.02686  -1.16070  -0.49230  -0.66174   0.46056
  29 4   C  1S         -0.01164   0.00337   0.00486  -0.01967  -0.00325
  30        2S         -0.02523   0.00733   0.00691  -0.02628  -0.00971
  31        2PX        -0.00697   0.07379   0.03261   0.04583  -0.15847
  32        2PY        -0.01865   0.01453   0.02760  -0.32354  -0.08107
  33        2PZ        -0.00426  -0.03700   0.05294   0.02977  -0.01156
  34        3S          0.32302  -0.05913  -0.02888  -0.19125   0.00392
  35        3PX        -0.16781  -0.04084   0.00569  -0.10518   0.12879
  36        3PY        -0.11267   0.02738   0.00267  -0.07404  -0.09030
  37        3PZ         0.11120   0.02487  -0.06378   0.04624   0.01587
  38        4S         -1.33797   0.03264   0.16361   2.41396   0.91997
  39        4PX        -0.63549   0.28436   0.20846  -0.25652  -0.05371
  40        4PY         0.69787  -0.03160  -0.03765  -1.44408  -0.48480
  41        4PZ         0.40248  -0.20221   0.30978   0.26446   0.00669
  42        5S          1.20117   0.55577  -1.01803  -1.97336  -0.47019
  43        5PX         0.28273   0.15688  -0.07538   0.27801   0.14176
  44        5PY        -0.47485  -0.17220   0.27675   0.75659   0.06378
  45        5PZ        -0.18104  -0.04849  -0.12421  -0.18353  -0.03734
  46        6D 0        0.44224  -0.13473   0.12158  -0.45127  -0.18996
  47        6D+1        0.76621   0.16027  -0.15472  -0.12802  -0.04336
  48        6D-1       -0.12701   0.32866  -0.67391  -0.30919  -0.04523
  49        6D+2       -0.15922  -0.26844   0.06061  -0.70708  -0.23319
  50        6D-2        0.15674  -0.57102  -0.42973   0.21760   0.10771
  51 5   H  1S         -0.22254   0.07354   0.08491  -0.35651   0.17534
  52        2S          1.81093  -0.11078  -0.30113   0.60549  -0.28258
  53        3S         -0.73093  -0.17182   0.25480  -0.46556  -0.07004
  54 6   H  1S         -0.21665   0.03463  -0.27472   0.25693  -0.92600
  55        2S          0.93987  -0.07955   0.68628  -0.42181   1.40211
  56        3S         -0.53952   0.06461  -0.51062   0.40627  -1.36710
                          46        47        48        49        50
                           V         V         V         V         V
     Eigenvalues --     2.51532   2.57818   2.60964   2.79049   2.89540
   1 1   C  1S         -0.00161   0.00802  -0.00148  -0.00210  -0.01037
   2        2S          0.02037   0.01426  -0.00522  -0.00476  -0.01633
   3        2PX        -0.00403   0.66569   0.26747  -0.20296  -0.35743
   4        2PY        -0.17676  -0.10917   0.07256   0.08387   0.87093
   5        2PZ         0.32230  -0.18783   0.03839  -0.62574  -0.00547
   6        3S         -0.25154  -0.02144   0.06943   0.06967   0.05495
   7        3PX        -0.01570  -0.91841  -0.37388   0.24280   0.43539
   8        3PY         0.35638   0.05977  -0.03330  -0.13761  -0.88712
   9        3PZ        -0.46095   0.28241  -0.09060   0.73429  -0.00530
  10        4S         -0.05253  -0.60333   0.36506  -0.31943  -0.18159
  11        4PX         0.07832   0.29506   0.18142  -0.09116  -0.25972
  12        4PY        -0.14642  -0.37621   0.33627   0.12610   0.72407
  13        4PZ         0.32980   0.03765   0.06087  -0.41558   0.05539
  14        5S          3.04034   1.53385  -2.00908  -0.81143  -0.67592
  15        5PX         0.04978   0.53631   0.15283  -0.06828   0.13761
  16        5PY         0.27203   0.27791  -0.33296  -0.23567  -0.38118
  17        5PZ        -0.14080  -0.31889   0.11873   0.01487   0.06988
  18        6D 0       -0.03456   0.10314   0.04315   0.07029  -0.04655
  19        6D+1        0.03083   0.04055   0.07979   0.03550   0.00915
  20        6D-1        0.06381   0.14415   0.03036  -0.05982   0.03335
  21        6D+2        0.02027   0.03579  -0.07905   0.02410  -0.09697
  22        6D-2        0.18868  -0.25375  -0.09904  -0.04399   0.01809
  23 2   H  1S         -0.81275  -0.79812  -0.21857   0.13801  -0.39922
  24        2S          1.46631   1.26536   0.34540  -0.13039   0.46259
  25        3S         -1.23158  -1.28708  -0.16607   0.18443  -0.00790
  26 3   H  1S         -0.90059   0.71159   0.41494   0.06428   0.00025
  27        2S          1.53085  -1.07759  -0.61419  -0.00631  -0.01576
  28        3S         -1.28275   1.01800   0.73485   0.15483   0.21564
  29 4   C  1S          0.00921   0.00555  -0.01151  -0.00290  -0.00782
  30        2S          0.01515   0.00504  -0.00989  -0.00561  -0.01160
  31        2PX        -0.13746  -0.06549   0.68256  -0.48752  -0.00101
  32        2PY         0.03308  -0.17049  -0.01045  -0.16886  -0.87043
  33        2PZ        -0.16824   0.03988  -0.40976  -1.00837   0.26435
  34        3S         -0.08498  -0.01645  -0.06342   0.04554   0.03642
  35        3PX         0.16260   0.08872  -0.87040   0.57137  -0.01907
  36        3PY         0.04240   0.12229  -0.01309   0.15583   0.96600
  37        3PZ         0.15701  -0.05524   0.51318   1.19805  -0.30918
  38        4S          0.26348   0.67131  -0.19373  -0.12042  -0.17949
  39        4PX        -0.20948   0.08102   0.63863  -0.38749   0.12157
  40        4PY        -0.09254  -0.54657   0.36032  -0.10220  -0.52173
  41        4PZ        -0.18196  -0.00076  -0.39223  -0.63517   0.09510
  42        5S         -1.74661  -1.52017   2.70762   0.46470   0.76818
  43        5PX         0.15396  -0.29621   0.05886   0.07048  -0.09324
  44        5PY         0.46947   0.53202  -0.85589  -0.03744   0.02081
  45        5PZ         0.16594   0.15684   0.02068   0.22175  -0.04057
  46        6D 0       -0.06416  -0.10386  -0.02176  -0.03852  -0.02907
  47        6D+1       -0.05272   0.15622  -0.18749   0.00339  -0.02858
  48        6D-1        0.17966   0.03542   0.11837   0.04102   0.03395
  49        6D+2        0.07084  -0.36523   0.24549  -0.06573   0.01651
  50        6D-2        0.13117  -0.15357  -0.19246   0.04199   0.01186
  51 5   H  1S         -0.00992   0.65428  -1.04441   0.05690  -0.08250
  52        2S         -0.01521  -0.92791   1.66348  -0.02473   0.03026
  53        3S          0.11516   0.64927  -1.99048   0.14202  -0.09476
  54 6   H  1S         -0.90712  -0.14523  -0.28577  -0.15693  -0.05763
  55        2S          1.55309   0.15972   0.54501   0.05660   0.06675
  56        3S         -1.35047  -0.27103  -0.59936   0.46502  -0.06959
                          51        52        53        54        55
                           V         V         V         V         V
     Eigenvalues --     2.99023   3.06829   3.19938   3.62704  23.45024
   1 1   C  1S         -0.01005   0.01214  -0.00106  -0.04018  -1.48323
   2        2S         -0.00990   0.02208  -0.00388  -0.05561   1.59164
   3        2PX         0.68943  -0.64576   0.38814  -0.22518  -0.00326
   4        2PY         0.02023  -0.06934   0.22402  -0.97701  -0.01338
   5        2PZ        -0.67472  -0.72876  -0.24181   0.01063   0.00452
   6        3S         -0.05714  -0.09222   0.11007   0.12473  -0.37644
   7        3PX        -0.79607   0.75317  -0.54288   0.40097   0.00278
   8        3PY         0.01995  -0.09453  -0.28598   1.97803   0.01150
   9        3PZ         0.77431   0.90781   0.33359  -0.13721  -0.01113
  10        4S          0.22550  -0.31069  -0.41983   1.46900   0.39164
  11        4PX         0.62491  -0.54489   0.41713  -0.09849   0.00653
  12        4PY         0.17457  -0.26422   0.04466  -0.23346  -0.02140
  13        4PZ        -0.50880  -0.48254  -0.29509  -0.07608   0.05833
  14        5S         -0.75114   1.02508   1.09994  -1.64110   0.24172
  15        5PX        -0.28235   0.29618  -0.03734  -0.08328  -0.01845
  16        5PY        -0.19630   0.26361   0.29480  -0.53486   0.00064
  17        5PZ         0.33022   0.19732   0.01000   0.09476   0.01055
  18        6D 0       -0.10780   0.17601   0.04281  -0.29848  -0.00540
  19        6D+1       -0.01635   0.11908   0.06883   0.05342   0.00388
  20        6D-1       -0.03836   0.25516   0.10626  -0.13846  -0.00119
  21        6D+2        0.01286   0.13850  -0.01201  -0.69087  -0.02052
  22        6D-2        0.32628  -0.05247  -0.21060   0.10254   0.00677
  23 2   H  1S          0.55963  -0.11578  -0.07198   0.17357  -0.00944
  24        2S         -0.62626   0.19645   0.08664  -0.14049   0.02667
  25        3S          0.33230  -0.19936  -0.14901  -0.18194  -0.11022
  26 3   H  1S         -0.78582   0.36167  -0.04216   0.36204   0.00123
  27        2S          0.79600  -0.30796   0.12696  -0.21826   0.03048
  28        3S         -0.26985   0.02832   0.16852  -0.24459  -0.16921
  29 4   C  1S          0.00480  -0.00395  -0.02447   0.03854  -1.38098
  30        2S          0.00758  -0.00795  -0.03340   0.05385   1.48090
  31        2PX         0.35225   0.27622  -0.90368  -0.27091   0.01305
  32        2PY        -0.35375   0.40592   0.28958  -0.80064   0.00995
  33        2PZ         0.20500   0.45046   0.45141   0.24723  -0.00393
  34        3S         -0.02968   0.01897   0.06475  -0.12531  -0.34011
  35        3PX        -0.46500  -0.37921   1.26533   0.50112  -0.03368
  36        3PY         0.46977  -0.61667  -0.51576   1.72190   0.00051
  37        3PZ        -0.26172  -0.59652  -0.62048  -0.46608   0.00589
  38        4S         -0.18655   0.39814   0.08574  -1.31797   0.35810
  39        4PX         0.14760   0.21608  -0.76115  -0.17127   0.07526
  40        4PY        -0.08728   0.06237   0.20850   0.03966  -0.04332
  41        4PZ         0.17486   0.38099   0.35937   0.16656  -0.01241
  42        5S          0.93850  -0.93556  -1.14971   1.83025  -0.11202
  43        5PX         0.05095  -0.13506   0.25922  -0.06811   0.05889
  44        5PY        -0.22897   0.20299   0.29875  -0.46601   0.03506
  45        5PZ        -0.13539  -0.19392  -0.16507   0.08125  -0.01212
  46        6D 0        0.01509  -0.16722  -0.12373   0.34957  -0.01362
  47        6D+1        0.02307  -0.00018  -0.27093  -0.03460   0.00487
  48        6D-1        0.07021   0.13964   0.06949   0.25679  -0.00999
  49        6D+2        0.02766  -0.15136   0.15483   0.71973  -0.03402
  50        6D-2        0.09798   0.10746  -0.13348  -0.26843   0.00921
  51 5   H  1S          0.11351   0.04002  -1.03461  -0.34225   0.03854
  52        2S         -0.00850  -0.05059   0.68534   0.25848  -0.01890
  53        3S         -0.25767   0.12176  -0.02746   0.16769  -0.18462
  54 6   H  1S         -0.25231  -0.77378  -0.04386  -0.28817  -0.00665
  55        2S          0.28180   0.82062   0.13994   0.28244  -0.00926
  56        3S         -0.22262  -0.37783   0.04138  -0.22582  -0.17735
                          56
                           V
     Eigenvalues --    23.63969
   1 1   C  1S          1.38241
   2        2S         -1.49473
   3        2PX        -0.00739
   4        2PY        -0.05252
   5        2PZ         0.00635
   6        3S          0.34933
   7        3PX         0.02046
   8        3PY         0.14609
   9        3PZ        -0.02085
  10        4S         -0.42441
  11        4PX        -0.01356
  12        4PY        -0.08938
  13        4PZ         0.02223
  14        5S          0.68091
  15        5PX         0.03952
  16        5PY         0.22858
  17        5PZ        -0.02803
  18        6D 0       -0.03980
  19        6D+1       -0.00034
  20        6D-1       -0.02441
  21        6D+2       -0.07134
  22        6D-2        0.02457
  23 2   H  1S          0.01197
  24        2S          0.00551
  25        3S          0.03606
  26 3   H  1S          0.00140
  27        2S         -0.00012
  28        3S          0.05704
  29 4   C  1S         -1.48442
  30        2S          1.60405
  31        2PX        -0.00435
  32        2PY        -0.05324
  33        2PZ         0.00570
  34        3S         -0.37034
  35        3PX         0.01314
  36        3PY         0.15632
  37        3PZ        -0.01667
  38        4S          0.42047
  39        4PX         0.01162
  40        4PY        -0.13282
  41        4PZ        -0.00395
  42        5S         -0.69845
  43        5PX         0.04155
  44        5PY         0.20646
  45        5PZ        -0.04236
  46        6D 0        0.03863
  47        6D+1        0.00296
  48        6D-1        0.02254
  49        6D+2        0.06797
  50        6D-2       -0.02111
  51 5   H  1S          0.01603
  52        2S         -0.01604
  53        3S         -0.07249
  54 6   H  1S         -0.01189
  55        2S          0.00905
  56        3S          0.01166
     Density Matrix:
                           1         2         3         4         5
   1 1   C  1S          0.65944
   2        2S          0.56043   0.48968
   3        2PX         0.00202   0.00316   0.07458
   4        2PY        -0.00234  -0.00329   0.00303   0.07540
   5        2PZ         0.00214   0.00305  -0.00471  -0.00623   0.06638
   6        3S         -0.08547  -0.14760  -0.01066   0.01186  -0.00847
   7        3PX         0.00251   0.00425   0.11873   0.00379  -0.00696
   8        3PY         0.00103   0.00089   0.00273   0.11922  -0.00721
   9        3PZ         0.00029   0.00067  -0.00684  -0.00598   0.10722
  10        4S         -0.10192  -0.15279  -0.00211   0.00224  -0.02444
  11        4PX        -0.00243  -0.00359   0.09587   0.00398  -0.00992
  12        4PY        -0.00326  -0.00449   0.00171   0.09120  -0.01296
  13        4PZ         0.00378   0.00634  -0.00886  -0.01313   0.08253
  14        5S          0.00398   0.00151   0.00112   0.02493  -0.00000
  15        5PX         0.00127   0.00139   0.00875   0.00171  -0.00041
  16        5PY         0.00553   0.00632  -0.00002   0.01199  -0.00088
  17        5PZ        -0.00110  -0.00128  -0.00178  -0.00014   0.00349
  18        6D 0        0.00042   0.00098   0.00382   0.00136   0.00616
  19        6D+1       -0.00008  -0.00008   0.00438   0.00390   0.00610
  20        6D-1       -0.00216  -0.00328   0.00727  -0.00142   0.00244
  21        6D+2        0.00028   0.00081  -0.00228  -0.00396   0.00437
  22        6D-2       -0.00225  -0.00385  -0.00810   0.00160   0.00661
  23 2   H  1S         -0.01388  -0.02218   0.03777  -0.03808  -0.03057
  24        2S         -0.01449  -0.02288   0.06149  -0.05636  -0.04549
  25        3S          0.00553   0.00739   0.03494  -0.02397  -0.02858
  26 3   H  1S         -0.01920  -0.03067  -0.05930  -0.03061   0.01517
  27        2S         -0.02066  -0.03270  -0.08261  -0.03278   0.02289
  28        3S          0.00334   0.00270  -0.03044   0.00151   0.00917
  29 4   C  1S          0.00171   0.00259   0.00214  -0.01008   0.00494
  30        2S          0.00266   0.00384   0.00363  -0.01612   0.00811
  31        2PX         0.00431   0.00698   0.00843  -0.01842   0.01845
  32        2PY         0.01839   0.02963  -0.00463  -0.05707   0.02008
  33        2PZ        -0.00108  -0.00171   0.00979   0.00503   0.01743
  34        3S         -0.00561  -0.00781  -0.01353   0.04597  -0.02611
  35        3PX         0.00766   0.01189   0.01540  -0.02661   0.02850
  36        3PY         0.03187   0.04957  -0.00686  -0.08930   0.03238
  37        3PZ        -0.00198  -0.00291   0.01618   0.00795   0.03119
  38        4S          0.01704   0.02736  -0.01330  -0.00864  -0.00539
  39        4PX         0.00016   0.00091   0.00316  -0.01055   0.02837
  40        4PY         0.01112   0.01860  -0.00040  -0.04849   0.01378
  41        4PZ         0.00161   0.00260   0.01406  -0.00269   0.01496
  42        5S         -0.00788  -0.00609   0.00632  -0.04122   0.00714
  43        5PX        -0.00159  -0.00233  -0.00244   0.00250   0.00207
  44        5PY         0.00397   0.00453  -0.00058   0.00674  -0.00195
  45        5PZ        -0.00006   0.00020   0.00082  -0.00565  -0.00020
  46        6D 0        0.00249   0.00357  -0.00083  -0.00367   0.00250
  47        6D+1       -0.00057  -0.00092   0.00202   0.00108   0.00105
  48        6D-1        0.00055   0.00059  -0.00191  -0.00099  -0.00813
  49        6D+2        0.00572   0.00835  -0.00231  -0.01027   0.00496
  50        6D-2       -0.00015  -0.00006  -0.00647  -0.00100  -0.00115
  51 5   H  1S          0.00228   0.00394  -0.00138  -0.00619   0.00244
  52        2S          0.00510   0.00819  -0.00693  -0.01769   0.00516
  53        3S          0.00674   0.00939  -0.01337  -0.01608   0.00513
  54 6   H  1S         -0.01413  -0.02228   0.02706   0.00842   0.05356
  55        2S         -0.01152  -0.01827   0.03986   0.00354   0.08586
  56        3S          0.01083   0.01524   0.01289  -0.01055   0.03160
                           6         7         8         9        10
   6        3S          0.43096
   7        3PX        -0.01595   0.18903
   8        3PY         0.00654   0.00269   0.18906
   9        3PZ        -0.00432  -0.01004  -0.00547   0.17360
  10        4S          0.38434  -0.00251  -0.00821  -0.03091   0.37792
  11        4PX         0.00596   0.15262   0.00318  -0.01445   0.02632
  12        4PY         0.01588   0.00140   0.14413  -0.01567   0.02151
  13        4PZ        -0.02007  -0.01338  -0.01705   0.13271  -0.04086
  14        5S          0.01062   0.00143   0.04043   0.00159   0.01913
  15        5PX        -0.00214   0.01391   0.00260  -0.00051   0.00051
  16        5PY        -0.00921  -0.00025   0.01968  -0.00094  -0.00314
  17        5PZ         0.00204  -0.00280  -0.00010   0.00568   0.00033
  18        6D 0       -0.00361   0.00611   0.00234   0.01007  -0.00334
  19        6D+1        0.00004   0.00698   0.00625   0.01016  -0.00203
  20        6D-1        0.00802   0.01165  -0.00274   0.00413   0.00592
  21        6D+2       -0.00339  -0.00356  -0.00593   0.00686  -0.00081
  22        6D-2        0.01124  -0.01285   0.00288   0.01098   0.00970
  23 2   H  1S          0.05690   0.06066  -0.06463  -0.05004   0.06132
  24        2S          0.05643   0.09862  -0.09526  -0.07507   0.06010
  25        3S         -0.01763   0.05578  -0.04036  -0.04785  -0.01887
  26 3   H  1S          0.08260  -0.09373  -0.04854   0.02411   0.07121
  27        2S          0.08755  -0.13078  -0.05084   0.03641   0.07663
  28        3S          0.00116  -0.04849   0.00420   0.01482   0.00868
  29 4   C  1S         -0.00559   0.00329  -0.01784   0.00843   0.02315
  30        2S         -0.00798   0.00577  -0.02708   0.01357   0.03655
  31        2PX        -0.02214   0.01372  -0.02659   0.02864  -0.00829
  32        2PY        -0.08433  -0.00664  -0.08802   0.02740  -0.09782
  33        2PZ         0.00494   0.01570   0.00724   0.02872  -0.00931
  34        3S          0.01601  -0.02208   0.07281  -0.04273  -0.10172
  35        3PX        -0.03593   0.02495  -0.03819   0.04424  -0.01792
  36        3PY        -0.13554  -0.00979  -0.13754   0.04441  -0.15413
  37        3PZ         0.00759   0.02597   0.01158   0.05134  -0.01410
  38        4S         -0.07820  -0.02101  -0.01232  -0.01413  -0.21009
  39        4PX        -0.00665   0.00531  -0.01423   0.04552   0.00445
  40        4PY        -0.05566   0.00003  -0.07574   0.01824  -0.07324
  41        4PZ        -0.00764   0.02257  -0.00479   0.02394  -0.02476
  42        5S         -0.00444   0.01076  -0.06694   0.00905  -0.03029
  43        5PX         0.00584  -0.00389   0.00407   0.00362   0.00659
  44        5PY        -0.00678  -0.00104   0.01102  -0.00305  -0.00891
  45        5PZ        -0.00173   0.00138  -0.00906  -0.00067  -0.00314
  46        6D 0       -0.00862  -0.00127  -0.00558   0.00366  -0.00998
  47        6D+1        0.00278   0.00322   0.00136   0.00189   0.00249
  48        6D-1       -0.00062  -0.00310  -0.00166  -0.01325   0.00398
  49        6D+2       -0.02115  -0.00357  -0.01526   0.00695  -0.02181
  50        6D-2       -0.00003  -0.01030  -0.00165  -0.00202  -0.00303
  51 5   H  1S         -0.01417  -0.00213  -0.00752   0.00282  -0.02015
  52        2S         -0.02551  -0.01088  -0.02464   0.00657  -0.01549
  53        3S         -0.02254  -0.02116  -0.02324   0.00704  -0.00483
  54 6   H  1S          0.05783   0.04357   0.01268   0.08886   0.03684
  55        2S          0.04621   0.06424   0.00586   0.14091   0.01691
  56        3S         -0.03653   0.02081  -0.01529   0.05011  -0.04186
                          11        12        13        14        15
  11        4PX         0.12924
  12        4PY         0.00890   0.12024
  13        4PZ        -0.01686  -0.02381   0.10391
  14        5S          0.01178   0.03863   0.00013   0.04177
  15        5PX         0.01230   0.00294  -0.00083   0.00368   0.00136
  16        5PY         0.00366   0.01867  -0.00122   0.01578   0.00141
  17        5PZ        -0.00250  -0.00066   0.00442   0.00018  -0.00021
  18        6D 0        0.00480   0.00173   0.00722   0.00064   0.00054
  19        6D+1        0.00498   0.00382   0.00698   0.00040   0.00050
  20        6D-1        0.00853  -0.00308   0.00242  -0.00368   0.00048
  21        6D+2       -0.00198  -0.00329   0.00566   0.00108  -0.00005
  22        6D-2       -0.00853   0.00315   0.00848   0.00660  -0.00038
  23 2   H  1S          0.04977  -0.04809  -0.03810  -0.02171   0.00251
  24        2S          0.07625  -0.07526  -0.05639  -0.04071   0.00359
  25        3S          0.03643  -0.03795  -0.03522  -0.03383   0.00106
  26 3   H  1S         -0.07134  -0.03460   0.02182  -0.00252  -0.00706
  27        2S         -0.09821  -0.03406   0.03288   0.00723  -0.00882
  28        3S         -0.03207   0.01010   0.01298   0.02093  -0.00146
  29 4   C  1S          0.01061   0.00324   0.00276  -0.01285   0.00078
  30        2S          0.01737   0.00442   0.00530  -0.00910   0.00158
  31        2PX         0.02212  -0.01486   0.02802   0.04229   0.00512
  32        2PY        -0.02174  -0.08503   0.03129  -0.04310  -0.00391
  33        2PZ         0.00390  -0.00202   0.01865  -0.02497  -0.00125
  34        3S         -0.05277  -0.00767  -0.02103  -0.00848  -0.00563
  35        3PX         0.03577  -0.02285   0.04338   0.06410   0.00798
  36        3PY        -0.03258  -0.13169   0.05014  -0.06503  -0.00579
  37        3PZ         0.00763  -0.00252   0.03387  -0.03791  -0.00172
  38        4S         -0.07569  -0.09213   0.00707  -0.08380  -0.01173
  39        4PX         0.01548  -0.00452   0.03869   0.04156   0.00439
  40        4PY        -0.01632  -0.07555   0.02180  -0.04532  -0.00384
  41        4PZ         0.00724  -0.01477   0.01711  -0.02799  -0.00105
  42        5S         -0.01064  -0.06973   0.00971  -0.06482  -0.00507
  43        5PX        -0.00157   0.00444   0.00247   0.00485   0.00014
  44        5PY        -0.00115   0.00710  -0.00203   0.00478   0.00024
  45        5PZ        -0.00031  -0.00834   0.00010  -0.00527  -0.00035
  46        6D 0       -0.00279  -0.00589   0.00342  -0.00472  -0.00047
  47        6D+1        0.00149   0.00104   0.00027  -0.00592  -0.00028
  48        6D-1       -0.00059   0.00109  -0.00974   0.00331   0.00012
  49        6D+2       -0.00399  -0.01411   0.00829   0.00094  -0.00008
  50        6D-2       -0.01039  -0.00277  -0.00147  -0.00713  -0.00141
  51 5   H  1S          0.00387  -0.01022   0.01018   0.04145   0.00325
  52        2S          0.00421  -0.01526   0.01515   0.05791   0.00449
  53        3S         -0.00725  -0.00927   0.01031   0.02867   0.00149
  54 6   H  1S          0.03339   0.00352   0.06300   0.00290   0.00306
  55        2S          0.04596  -0.00731   0.10268  -0.00241   0.00413
  56        3S          0.01076  -0.01808   0.03933  -0.01146   0.00071
                          16        17        18        19        20
  16        5PY         0.00668
  17        5PZ        -0.00008   0.00024
  18        6D 0        0.00038   0.00020   0.00095
  19        6D+1        0.00018   0.00023   0.00095   0.00116
  20        6D-1       -0.00178   0.00001   0.00056   0.00076   0.00145
  21        6D+2        0.00046   0.00021   0.00035  -0.00000  -0.00028
  22        6D-2        0.00210   0.00059   0.00018   0.00008  -0.00093
  23 2   H  1S         -0.01159  -0.00212  -0.00232  -0.00250   0.00571
  24        2S         -0.01968  -0.00336  -0.00317  -0.00316   0.00927
  25        3S         -0.01330  -0.00226  -0.00178  -0.00131   0.00515
  26 3   H  1S         -0.00437   0.00235  -0.00304  -0.00399  -0.00358
  27        2S         -0.00087   0.00325  -0.00361  -0.00514  -0.00658
  28        3S          0.00825   0.00104  -0.00046  -0.00156  -0.00492
  29 4   C  1S         -0.00164  -0.00007   0.00214  -0.00004   0.00017
  30        2S          0.00042  -0.00033   0.00317   0.00001   0.00014
  31        2PX         0.01424   0.00092   0.00164  -0.00035  -0.00340
  32        2PY        -0.01683   0.00083  -0.00011  -0.00097   0.00233
  33        2PZ        -0.00917   0.00063   0.00242   0.00364   0.00467
  34        3S         -0.00980   0.00143  -0.00842  -0.00063  -0.00056
  35        3PX         0.02143   0.00143   0.00256  -0.00024  -0.00488
  36        3PY        -0.02525   0.00129   0.00005  -0.00147   0.00338
  37        3PZ        -0.01390   0.00115   0.00429   0.00612   0.00746
  38        4S         -0.03695   0.00177  -0.00744   0.00010   0.00550
  39        4PX         0.01413   0.00153   0.00269   0.00097  -0.00294
  40        4PY        -0.01812   0.00057  -0.00044  -0.00061   0.00350
  41        4PZ        -0.01073   0.00047   0.00194   0.00316   0.00494
  42        5S         -0.02609   0.00022  -0.00059   0.00044   0.00723
  43        5PX         0.00175   0.00018   0.00015   0.00009  -0.00049
  44        5PY         0.00200  -0.00003  -0.00021   0.00003  -0.00072
  45        5PZ        -0.00220  -0.00003  -0.00017  -0.00019   0.00052
  46        6D 0       -0.00166   0.00010   0.00012   0.00009   0.00028
  47        6D+1       -0.00198  -0.00005   0.00038   0.00053   0.00096
  48        6D-1        0.00138  -0.00040  -0.00087  -0.00114  -0.00097
  49        6D+2        0.00014   0.00028  -0.00003  -0.00045  -0.00072
  50        6D-2       -0.00253   0.00005  -0.00051  -0.00036   0.00000
  51 5   H  1S          0.01301   0.00076  -0.00131  -0.00183  -0.00472
  52        2S          0.01935   0.00085  -0.00119  -0.00325  -0.00733
  53        3S          0.01061   0.00044  -0.00036  -0.00245  -0.00492
  54 6   H  1S         -0.00164   0.00259   0.00658   0.00787   0.00665
  55        2S         -0.00411   0.00396   0.01035   0.01183   0.00978
  56        3S         -0.00403   0.00115   0.00376   0.00365   0.00307
                          21        22        23        24        25
  21        6D+2        0.00087
  22        6D-2        0.00086   0.00278
  23 2   H  1S         -0.00225  -0.00810   0.06767
  24        2S         -0.00419  -0.01468   0.10157   0.15698
  25        3S         -0.00378  -0.01177   0.05048   0.08523   0.05844
  26 3   H  1S          0.00375   0.00963  -0.00912  -0.02440  -0.02911
  27        2S          0.00566   0.01456  -0.02577  -0.05357  -0.05030
  28        3S          0.00314   0.00754  -0.02704  -0.04783  -0.03513
  29 4   C  1S          0.00404   0.00046   0.00030  -0.00402  -0.00735
  30        2S          0.00589   0.00099   0.00040  -0.00638  -0.01269
  31        2PX         0.00468   0.00821  -0.00942  -0.02329  -0.03124
  32        2PY         0.00137  -0.00543   0.01723   0.03792   0.03487
  33        2PZ        -0.00128  -0.00373   0.00241   0.01038   0.01499
  34        3S         -0.01467  -0.00355  -0.00233   0.01532   0.03731
  35        3PX         0.00671   0.01212  -0.01385  -0.03382  -0.04557
  36        3PY         0.00252  -0.00810   0.02532   0.05636   0.05213
  37        3PZ        -0.00161  -0.00536   0.00196   0.01318   0.02099
  38        4S         -0.01476  -0.01535   0.02232   0.07187   0.09510
  39        4PX         0.00509   0.00966  -0.01837  -0.03754  -0.03973
  40        4PY        -0.00003  -0.00642   0.02311   0.04646   0.03947
  41        4PZ        -0.00168  -0.00498   0.00910   0.02221   0.02322
  42        5S         -0.00239  -0.01011   0.03899   0.07215   0.05670
  43        5PX         0.00039   0.00133  -0.00398  -0.00749  -0.00627
  44        5PY        -0.00049   0.00035  -0.00480  -0.00685  -0.00266
  45        5PZ        -0.00011  -0.00089   0.00464   0.00797   0.00546
  46        6D 0        0.00008  -0.00059   0.00030   0.00184   0.00293
  47        6D+1       -0.00025  -0.00110   0.00186   0.00390   0.00394
  48        6D-1       -0.00002   0.00003   0.00203   0.00187  -0.00017
  49        6D+2        0.00085   0.00067  -0.00146  -0.00157  -0.00085
  50        6D-2       -0.00035  -0.00066  -0.00038   0.00071   0.00306
  51 5   H  1S          0.00135   0.00737  -0.00999  -0.02140  -0.02434
  52        2S          0.00426   0.01112  -0.01546  -0.03516  -0.04077
  53        3S          0.00413   0.00676  -0.01314  -0.02780  -0.02820
  54 6   H  1S          0.00143   0.00377  -0.00570  -0.00978  -0.01349
  55        2S          0.00288   0.00443  -0.01132  -0.01546  -0.01584
  56        3S          0.00163  -0.00087  -0.00475  -0.00204   0.00338
                          26        27        28        29        30
  26 3   H  1S          0.07511
  27        2S          0.09736   0.13072
  28        3S          0.02745   0.04406   0.02696
  29 4   C  1S          0.00316   0.00487   0.00866   0.66421
  30        2S          0.00499   0.00803   0.01303   0.56869   0.50330
  31        2PX         0.00878   0.02280   0.02619   0.00566   0.00844
  32        2PY         0.00895   0.00453  -0.01576  -0.01197  -0.01832
  33        2PZ        -0.01056  -0.02040  -0.01827  -0.00202  -0.00291
  34        3S         -0.01313  -0.02191  -0.03256  -0.11127  -0.18903
  35        3PX         0.01041   0.03064   0.03784   0.00304   0.00574
  36        3PY         0.01365   0.00749  -0.02284  -0.01436  -0.02349
  37        3PZ        -0.01640  -0.03134  -0.02761  -0.00033  -0.00093
  38        4S         -0.01678  -0.04157  -0.06807  -0.13954  -0.21494
  39        4PX         0.01340   0.02889   0.02829   0.00720   0.01254
  40        4PY         0.00582  -0.00202  -0.02116  -0.01037  -0.01865
  41        4PZ        -0.01348  -0.02510  -0.02202  -0.00690  -0.01126
  42        5S          0.00240  -0.01468  -0.03734   0.00079  -0.00952
  43        5PX         0.00297   0.00515   0.00386  -0.00031   0.00073
  44        5PY        -0.00332  -0.00271   0.00126  -0.00792  -0.00974
  45        5PZ         0.00064  -0.00066  -0.00292  -0.00004  -0.00081
  46        6D 0        0.00020  -0.00042  -0.00176  -0.00083  -0.00113
  47        6D+1       -0.00242  -0.00484  -0.00397   0.00176   0.00300
  48        6D-1        0.00109   0.00216   0.00242   0.00101   0.00166
  49        6D+2        0.00343   0.00585   0.00293  -0.00266  -0.00415
  50        6D-2        0.00376   0.00354  -0.00173  -0.00126  -0.00216
  51 5   H  1S          0.00938   0.02288   0.02201  -0.01996  -0.03123
  52        2S          0.02010   0.04213   0.03801  -0.00835  -0.01287
  53        3S          0.01920   0.03453   0.02692   0.01243   0.01751
  54 6   H  1S         -0.00431  -0.00813  -0.00679   0.00150   0.00271
  55        2S         -0.00968  -0.01586  -0.01157   0.00292   0.00510
  56        3S         -0.00871  -0.01244  -0.00711   0.00484   0.00620
                          31        32        33        34        35
  31        2PX         0.08278
  32        2PY        -0.00977   0.08652
  33        2PZ        -0.03580   0.01729   0.02971
  34        3S         -0.02307   0.04693   0.00591   0.55536
  35        3PX         0.12585  -0.01303  -0.05346  -0.02099   0.19184
  36        3PY        -0.01165   0.13346   0.02537   0.06456  -0.01505
  37        3PZ        -0.05370   0.02632   0.04696   0.00173  -0.08023
  38        4S         -0.08442   0.14936   0.05278   0.56882  -0.11288
  39        4PX         0.07537  -0.01597  -0.02927  -0.03945   0.11409
  40        4PY        -0.02150   0.07757   0.02172   0.05642  -0.03067
  41        4PZ        -0.03228   0.02852   0.02852   0.03042  -0.04729
  42        5S         -0.05946   0.07472   0.04112   0.05671  -0.08847
  43        5PX         0.00480  -0.00560  -0.00259  -0.00567   0.00706
  44        5PY         0.00291  -0.00363  -0.00263   0.01851   0.00492
  45        5PZ        -0.00318   0.00740   0.00227   0.00433  -0.00468
  46        6D 0       -0.00319   0.00757   0.00295   0.00245  -0.00472
  47        6D+1       -0.00987   0.00157   0.00622  -0.00895  -0.01514
  48        6D-1        0.00334  -0.00422  -0.00587  -0.00421   0.00472
  49        6D+2        0.01189   0.01194  -0.00423   0.01094   0.01844
  50        6D-2       -0.01069   0.00568   0.00419   0.00672  -0.01634
  51 5   H  1S          0.07297  -0.00700  -0.03828   0.08362   0.11313
  52        2S          0.10394  -0.01480  -0.05596   0.03361   0.15866
  53        3S          0.05349  -0.00882  -0.03060  -0.04113   0.07974
  54 6   H  1S          0.00991  -0.00324   0.02314  -0.01264   0.01661
  55        2S          0.01506   0.01251   0.03737  -0.02175   0.02541
  56        3S          0.00130   0.02601   0.01637  -0.01447   0.00289
                          36        37        38        39        40
  36        3PY         0.20617
  37        3PZ         0.03876   0.07455
  38        4S          0.22120   0.07395   0.74244
  39        4PX        -0.02135  -0.04281  -0.10078   0.07271
  40        4PY         0.11881   0.03286   0.15499  -0.02634   0.07284
  41        4PZ         0.04260   0.04464   0.08567  -0.02896   0.03182
  42        5S          0.11252   0.06257   0.17632  -0.05966   0.07847
  43        5PX        -0.00845  -0.00378  -0.01479   0.00550  -0.00590
  44        5PY        -0.00566  -0.00430   0.01093   0.00219  -0.00378
  45        5PZ         0.01126   0.00336   0.01436  -0.00380   0.00734
  46        6D 0        0.01164   0.00459   0.01325  -0.00318   0.00698
  47        6D+1        0.00216   0.00978   0.00069  -0.00828   0.00292
  48        6D-1       -0.00637  -0.00955  -0.01220   0.00173  -0.00448
  49        6D+2        0.01894  -0.00652   0.01595   0.00945   0.00836
  50        6D-2        0.00832   0.00617   0.01867  -0.00984   0.00636
  51 5   H  1S         -0.00915  -0.05970   0.01914   0.06199  -0.01586
  52        2S         -0.01936  -0.08642  -0.05656   0.09087  -0.02920
[...]
  45        5PZ         0.00000   0.00000   0.00013   0.00000   0.00000
  46        6D 0        0.00000   0.00000   0.00000   0.00000   0.00000
  47        6D+1        0.00000   0.00000   0.00000   0.00000   0.00000
  48        6D-1        0.00000   0.00000   0.00000   0.00000   0.00000
  49        6D+2        0.00000   0.00000   0.00000   0.00000   0.00000
  50        6D-2        0.00000   0.00000   0.00000   0.00000   0.00000
  51 5   H  1S          0.00933   0.00013   0.00265   0.01913   0.04335
  52        2S          0.01730   0.00035   0.00503   0.01599   0.07064
  53        3S          0.00306   0.00007   0.00095  -0.01999   0.01578
  54 6   H  1S          0.00000   0.00001   0.00004  -0.00025   0.00017
  55        2S          0.00012  -0.00041   0.00134  -0.00263   0.00090
  56        3S          0.00001  -0.00098   0.00068  -0.00387   0.00010
                          36        37        38        39        40
  36        3PY         0.20617
  37        3PZ         0.00000   0.07455
  38        4S          0.00000   0.00000   0.74244
  39        4PX         0.00000   0.00000   0.00000   0.07271
  40        4PY         0.07764   0.00000   0.00000   0.00000   0.07284
  41        4PZ         0.00000   0.02917   0.00000   0.00000   0.00000
  42        5S          0.00000   0.00000   0.13654   0.00000   0.00000
  43        5PX         0.00000   0.00000   0.00000   0.00359   0.00000
  44        5PY        -0.00128   0.00000   0.00000   0.00000  -0.00247
  45        5PZ         0.00000   0.00076   0.00000   0.00000   0.00000
  46        6D 0        0.00000   0.00000   0.00000   0.00000   0.00000
  47        6D+1        0.00000   0.00000   0.00000   0.00000   0.00000
  48        6D-1        0.00000   0.00000   0.00000   0.00000   0.00000
  49        6D+2        0.00000   0.00000   0.00000   0.00000   0.00000
  50        6D-2        0.00000   0.00000   0.00000   0.00000   0.00000
  51 5   H  1S          0.00050   0.01236   0.00550   0.02031   0.00075
  52        2S          0.00124   0.02079  -0.03474   0.04920   0.00228
  53        3S          0.00031   0.00500  -0.06640   0.02019   0.00109
  54 6   H  1S          0.00021   0.00188  -0.00140   0.00082   0.00012
  55        2S         -0.00293   0.01036  -0.00001   0.00242  -0.00448
  56        3S         -0.00579   0.00427   0.01117   0.00035  -0.00789
                          41        42        43        44        45
  41        4PZ         0.03050
  42        5S          0.00000   0.10795
  43        5PX         0.00000   0.00000   0.00079
  44        5PY         0.00000   0.00000   0.00000   0.00153
  45        5PZ         0.00215   0.00000   0.00000   0.00000   0.00085
  46        6D 0        0.00000   0.00000   0.00000   0.00000   0.00000
  47        6D+1        0.00000   0.00000   0.00000   0.00000   0.00000
  48        6D-1        0.00000   0.00000   0.00000   0.00000   0.00000
  49        6D+2        0.00000   0.00000   0.00000   0.00000   0.00000
  50        6D-2        0.00000   0.00000   0.00000   0.00000   0.00000
  51 5   H  1S          0.00546  -0.00950   0.00046  -0.00012   0.00018
  52        2S          0.01443  -0.03668   0.00171  -0.00027   0.00064
  53        3S          0.00672  -0.03643   0.00146  -0.00008   0.00053
  54 6   H  1S          0.00376   0.00097   0.00005   0.00025  -0.00007
  55        2S          0.01320   0.00725   0.00010   0.00098   0.00007
  56        3S          0.00686   0.01396  -0.00011   0.00076   0.00071
                          46        47        48        49        50
  46        6D 0        0.00078
  47        6D+1        0.00000   0.00169
  48        6D-1        0.00000   0.00000   0.00163
  49        6D+2        0.00000   0.00000   0.00000   0.00411
  50        6D-2        0.00000   0.00000   0.00000   0.00000   0.00198
  51 5   H  1S          0.00025   0.00378   0.00019   0.00369   0.00073
  52        2S          0.00021   0.00284   0.00019   0.00277   0.00060
  53        3S          0.00002   0.00022   0.00002   0.00023   0.00005
  54 6   H  1S          0.00001   0.00004   0.00050   0.00004   0.00004
  55        2S          0.00010   0.00015   0.00192  -0.00003   0.00013
  56        3S          0.00006   0.00003   0.00030  -0.00008  -0.00000
                          51        52        53        54        55
  51 5   H  1S          0.08657
  52        2S          0.07629   0.14617
  53        3S          0.01701   0.05617   0.04274
  54 6   H  1S         -0.00000  -0.00011  -0.00084   0.06904
  55        2S         -0.00009  -0.00118  -0.00331   0.07110   0.15190
  56        3S         -0.00072  -0.00272  -0.00262   0.00992   0.03692
                          56
  56        3S          0.02319
     Gross orbital populations:
                           1
   1 1   C  1S          1.10484
   2        2S          0.88556
   3        2PX         0.19703
   4        2PY         0.20265
   5        2PZ         0.17672
   6        3S          0.75977
   7        3PX         0.50745
   8        3PY         0.52337
   9        3PZ         0.46980
  10        4S          0.66183
  11        4PX         0.41559
  12        4PY         0.27832
  13        4PZ         0.36518
  14        5S         -0.02750
  15        5PX         0.02338
  16        5PY         0.00310
  17        5PZ         0.00830
  18        6D 0        0.00606
  19        6D+1        0.00669
  20        6D-1        0.01017
  21        6D+2        0.00803
  22        6D-2        0.01962
  23 2   H  1S          0.22958
  24        2S          0.46217
  25        3S          0.12749
  26 3   H  1S          0.25593
  27        2S          0.42263
  28        3S          0.03879
  29 4   C  1S          1.10601
  30        2S          0.88398
  31        2PX         0.21196
  32        2PY         0.22091
  33        2PZ         0.07831
  34        3S          0.89643
  35        3PX         0.49713
  36        3PY         0.53602
  37        3PZ         0.20371
  38        4S          0.91352
  39        4PX         0.26212
  40        4PY         0.24791
  41        4PZ         0.12459
  42        5S          0.11496
  43        5PX         0.00380
  44        5PY         0.01191
  45        5PZ         0.00312
  46        6D 0        0.00420
  47        6D+1        0.00873
  48        6D-1        0.00920
  49        6D+2        0.02189
  50        6D-2        0.00709
  51 5   H  1S          0.29959
  52        2S          0.41172
  53        3S          0.03863
  54 6   H  1S          0.23399
  55        2S          0.44974
  56        3S          0.05631
          Condensed to atoms (all electrons):
               1          2          3          4          5          6
     1  C    5.668581   0.282446   0.382359   0.023991   0.014682   0.233895
     2  H    0.282446   0.598790  -0.069871   0.037499  -0.024214  -0.005411
     3  H    0.382359  -0.069871   0.460378  -0.052194   0.010421  -0.013754
     4  C    0.023991   0.037499  -0.052194   6.115081   0.186229   0.056889
     5  H    0.014682  -0.024214   0.010421   0.186229   0.574422  -0.011602
     6  H    0.233895  -0.005411  -0.013754   0.056889  -0.011602   0.480018
 Mulliken charges:
               1
     1  C   -0.605954
     2  H    0.180761
     3  H    0.282662
     4  C   -0.367494
     5  H    0.250062
     6  H    0.259964
 Sum of Mulliken charges =  -0.00000
 Mulliken charges with hydrogens summed into heavy atoms:
               1
     1  C    0.117433
     4  C   -0.117433
 Electronic spatial extent (au):  <R**2>=             93.2099
 Charge=             -0.0000 electrons
 Dipole moment (field-independent basis, Debye):
    X=              0.9401    Y=             -2.1768    Z=             -0.1613  Tot=              2.3766
 Quadrupole moment (field-independent basis, Debye-Ang):
   XX=            -14.3181   YY=            -17.2404   ZZ=            -13.4440
   XY=              1.9461   XZ=              0.1103   YZ=             -0.8312
 Traceless Quadrupole moment (field-independent basis, Debye-Ang):
   XX=              0.6828   YY=             -2.2396   ZZ=              1.5568
   XY=              1.9461   XZ=              0.1103   YZ=             -0.8312
 Octapole moment (field-independent basis, Debye-Ang**2):
  XXX=             -0.2268  YYY=             -7.6789  ZZZ=             -0.5500  XYY=             -0.1416
  XXY=             -0.7046  XXZ=             -0.4166  XZZ=              0.7033  YZZ=              0.7215
  YYZ=             -2.0265  XYZ=              0.3743
 Hexadecapole moment (field-independent basis, Debye-Ang**3):
 XXXX=            -28.3353 YYYY=            -95.5139 ZZZZ=            -24.7148 XXXY=             -1.7871
 XXXZ=              1.5980 YYYX=             -0.8059 YYYZ=              2.3554 ZZZX=              2.7470
 ZZZY=              1.8459 XXYY=            -18.6981 XXZZ=             -8.9640 YYZZ=            -19.2612
 XXYZ=              0.5170 YYXZ=              0.0511 ZZXY=             -1.3154
 N-N= 3.073396731543D+01 E-N=-2.424512001587D+02  KE= 7.777332934020D+01
 Orbital energies and kinetic energies (alpha):
                                 1                 2
   1         O               -10.347189         15.990081
   2         O               -10.339716         15.992716
   3         O                -0.875581          1.321671
   4         O                -0.690253          1.287107
   5         O                -0.542175          0.954884
   6         O                -0.473941          0.976298
   7         O                -0.437502          1.139574
   8         O                -0.326547          1.224334
   9         V                -0.009973          1.085949
  10         V                 0.062245          0.365402
  11         V                 0.084780          0.319047
  12         V                 0.104705          0.199653
  13         V                 0.110256          0.304644
  14         V                 0.132737          0.324677
  15         V                 0.147492          0.287645
  16         V                 0.154728          0.351220
  17         V                 0.170673          0.603893
  18         V                 0.194829          0.741675
  19         V                 0.213343          0.417032
  20         V                 0.231949          0.906351
  21         V                 0.275606          0.815508
  22         V                 0.312788          1.260044
  23         V                 0.476326          0.824629
  24         V                 0.481938          0.897108
  25         V                 0.527069          1.029982
  26         V                 0.557476          1.118729
  27         V                 0.621309          1.567208
  28         V                 0.634717          1.573044
  29         V                 0.638753          1.348410
  30         V                 0.659497          1.609951
  31         V                 0.685739          2.012622
  32         V                 0.751984          1.854790
  33         V                 0.842242          2.485536
  34         V                 0.891958          2.531825
  35         V                 1.236387          2.102834
  36         V                 1.273639          2.152835
  37         V                 1.346313          2.206963
  38         V                 1.514154          2.373875
  39         V                 1.621101          2.571804
  40         V                 1.677369          2.610583
  41         V                 1.716270          2.564797
  42         V                 1.859574          2.831597
  43         V                 1.867855          2.808036
  44         V                 2.080498          3.718285
  45         V                 2.438682          4.342448
  46         V                 2.515321          4.254572
  47         V                 2.578177          4.713905
  48         V                 2.609638          5.085993
  49         V                 2.790491          6.320862
  50         V                 2.895400          6.558246
  51         V                 2.990232          5.975320
  52         V                 3.068287          6.194782
  53         V                 3.199383          6.187270
  54         V                 3.627044          6.809284
  55         V                23.450245         60.136131
  56         V                23.639694         60.135584
 Total kinetic energy from orbitals= 7.777332934020D+01
 Calling FoFJK, ICntrl=      2127 FMM=F ISym2X=0 I1Cent= 0 IOpClX= 0 NMat=1 NMatS=1 NMatT=0.
 -------------------------------------------------------------------
 Center     Atomic                   Forces (Hartrees/Bohr)
 Number     Number              X              Y              Z
 -------------------------------------------------------------------
      1        6           0.018544105   -0.028463275   -0.020749376
      2        1          -0.013947346    0.061414716    0.032351165
      3        1           0.011914856    0.042771970    0.009125407
      4        6          -0.079200658   -0.062348573    0.034870118
      5        1           0.070431511    0.005002461   -0.033323814
      6        1          -0.007742468   -0.018377299   -0.022273500
 -------------------------------------------------------------------
 Cartesian Forces:  Max     0.079200658 RMS     0.038742772

 GradGradGradGradGradGradGradGradGradGradGradGradGradGradGradGradGradGrad
 Berny optimization.
 Search for a local minimum.
 Step number   1 out of a maximum of    2
 All quantities printed in internal units (Hartrees-Bohrs-Radians)
 Second derivative matrix not updated -- first step.
 The second derivative matrix:
                          X1        Y1        Z1        X2        Y2
           X1           0.47157
           Y1           0.10194   0.62607
           Z1          -0.02722   0.04379   0.39223
           X2          -0.09676   0.04334   0.03358   0.08223
           Y2           0.04353  -0.13604  -0.05072  -0.04534   0.12479
           Z2           0.02648  -0.03881  -0.07816  -0.03829   0.05407
           X3          -0.21018  -0.09154   0.03383  -0.00964  -0.00836
           Y3          -0.09851  -0.15252   0.01360   0.01764   0.01414
           Z3           0.04536   0.02055  -0.07656   0.01351   0.00773
           X4          -0.07466  -0.03025   0.02264   0.00954   0.01032
           Y4          -0.00250  -0.27263   0.01807  -0.00233  -0.00323
           Z4           0.01903   0.02291  -0.04235  -0.00586  -0.01103
           X5          -0.00196   0.00044   0.00095  -0.00020   0.00000
           Y5          -0.02437   0.00566   0.01301  -0.00002   0.00000
           Z5           0.00287  -0.00069  -0.00171  -0.00037   0.00000
           X6          -0.08801  -0.02393  -0.06377   0.01483  -0.00015
           Y6          -0.02009  -0.07054  -0.03775  -0.01328   0.00034
           Z6          -0.06651  -0.04774  -0.19346  -0.00256  -0.00005
                          Z2        X3        Y3        Z3        X4
           Z2           0.06830
           X3           0.00315   0.20731
           Y3          -0.00399   0.10451   0.13626
           Z3           0.00169  -0.03876  -0.01303   0.05443
           X4          -0.00626   0.01510  -0.02083   0.00222   0.39416
           Y4           0.00261  -0.00236   0.00339   0.00014  -0.03850
           Z4           0.01104  -0.00039   0.00148   0.00315  -0.19876
           X5          -0.00021   0.00004   0.00005   0.00037  -0.34500
           Y5          -0.00002   0.00000   0.00001   0.00004   0.07058
           Z5          -0.00037   0.00007   0.00009   0.00067   0.18366
           X6           0.01512  -0.00264  -0.00285  -0.02270   0.00086
           Y6          -0.01385  -0.00226  -0.00128  -0.01543   0.00869
           Z6          -0.00250   0.00210   0.00185   0.01661  -0.00350
                          Y4        Z4        X5        Y5        Z5
           Y4           0.32635
           Z4           0.00130   0.13711
           X5           0.04577   0.18564   0.34689
           Y5          -0.05565  -0.03524  -0.04621   0.04999
           Z5          -0.02152  -0.10148  -0.18666   0.02221   0.10307
           X6          -0.00008   0.00035   0.00024   0.00003   0.00043
           Y6           0.00177   0.02058  -0.00005  -0.00001  -0.00009
           Z6          -0.00059  -0.00748  -0.00010  -0.00001  -0.00018
                          X6        Y6        Z6
           X6           0.07473
           Y6           0.02699   0.06971
           Z6           0.07058   0.04654   0.18700
 ITU=  0
     Eigenvalues ---    0.00357   0.03882   0.06160   0.06600   0.10878
     Eigenvalues ---    0.11731   0.13268   0.24019   0.48869   0.54468
     Eigenvalues ---    0.81857   0.89462
 Quadratic step=1.966D+00 exceeds max=3.000D-01 adjusted using Lamda=-1.999D-01.
 Angle between NR and scaled steps=  65.92 degrees.
 Angle between quadratic step and forces=  29.92 degrees.
 Linear search not attempted -- first point.
 B after Tr=    -0.014428   -0.032574   -0.002638
         Rot=    0.999991    0.000203    0.000071   -0.004274 Ang=   0.49 deg.
 Variable       Old X    -DE/DX   Delta X   Delta X   Delta X     New X
                                 (Linear)    (Quad)   (Total)
    X1       -0.27148   0.01854   0.00000   0.02087   0.01709  -0.25439
    Y1       -1.23505  -0.02846   0.00000  -0.01236  -0.04696  -1.28202
    Z1        0.19538  -0.02075   0.00000  -0.02421  -0.02638   0.16900
    X2        0.90261  -0.01395   0.00000  -0.01750  -0.00736   0.89524
    Y2       -3.02980   0.06141   0.00000   0.16703   0.14177  -2.88803
    Z2       -0.97438   0.03235   0.00000   0.07403   0.07268  -0.90170
    X3       -2.02214   0.01191   0.00000   0.00788   0.01333  -2.00881
    Y3       -2.46581   0.04277   0.00000   0.13940   0.08993  -2.37588
    Z3        0.55342   0.00913   0.00000   0.03268   0.03071   0.58413
    X4        0.16494  -0.07920   0.00000  -0.05673  -0.08411   0.08084
    Y4        1.63291  -0.06235   0.00000  -0.11424  -0.14603   1.48688
    Z4       -0.23548   0.03487   0.00000   0.01456   0.01132  -0.22416
    X5        1.83606   0.07043   0.00000   0.10063   0.07401   1.91006
    Y5        1.39235   0.00500   0.00000   0.04527   0.02873   1.42109
    Z5       -1.13852  -0.03332   0.00000  -0.01981  -0.02276  -1.16128
    X6        0.68949  -0.00774   0.00000  -0.00316  -0.01295   0.67654
    Y6       -0.53974  -0.01838   0.00000  -0.04159  -0.06743  -0.60716
    Z6        2.15452  -0.02227   0.00000  -0.06326  -0.06557   2.08895
         Item               Value     Threshold  Converged?
 Maximum Force            0.079201     0.000450     NO 
 RMS     Force            0.038743     0.000300     NO 
 Maximum Displacement     0.146034     0.001800     NO 
 RMS     Displacement     0.067576     0.001200     NO 
 Predicted change in Energy=-3.040237D-02
 GradGradGradGradGradGradGradGradGradGradGradGradGradGradGradGradGradGrad

 Unable to Open any file for archive entry.
 1\1\GINC-BHX0029\Force\RwB97XD\6-311+G(d)\C2H4\BWEIGHT\03-Jan-2023\0\\
 # WB97XD/6-311+G* SCF=XQC FORCE nosym pop=full\\MD Step 571\\0,1\C,-0.
 14366031,-0.65356283,0.10338814\H,0.47763801,-1.60330036,-0.51561816\H
 ,-1.07006809,-1.30484788,0.29285911\C,0.08728505,0.86410079,-0.1246111
 4\H,0.97159988,0.73680191,-0.60247964\H,0.3648614,-0.28561552,1.140120
 49\\Version=ES64L-G16RevC.01\HF=-78.4032582\RMSD=1.512e-09\RMSF=3.874e
 -02\Dipole=0.3698683,-0.8564244,-0.0634622\Quadrupole=0.5076122,-1.665
 0532,1.157441,1.4468649,0.0819942,-0.6179477\PG=C01 [X(C2H4)]\\@
 The archive entry for this job was punched.


 THE REAL VOYAGE OF DISCOVERY CONSISTS NOT IN SEEKING NEW LANDSCAPES 
 BUT IN HAVING NEW EYES.
                                                    -- MARCEL PROUST
 Job cpu time:       0 days  0 hours  0 minutes 20.4 seconds.
 Elapsed time:       0 days  0 hours  0 minutes 22.6 seconds.
 File lengths (MBytes):  RWF=    272 Int=      0 D2E=      0 Chk=     32 Scr=     32
 Normal termination of Gaussian 16 at Tue Jan  3 13:54:08 2023.
