 Entering Gaussian System, Link 0=g16
 Initial command:
 /software/gaussian/g16-c01/avx2/g16/l1.exe "/gpfs/fs2/scratch/bweight/software/many_molecule_many_mode_NAMD/src/NAMD/TEST_NVT/TRAJ/traj-57/G16/GS_NEW/Gau-2404.inp" -scrdir="/gpfs/fs2/scratch/bweight/software/many_molecule_many_mode_NAMD/src/NAMD/TEST_NVT/TRAJ/traj-57/G16/GS_NEW/"
 Entering Link 1 = /software/gaussian/g16-c01/avx2/g16/l1.exe PID=      2405.
  
 Copyright (c) 1988-2019, Gaussian, Inc.  All Rights Reserved.
  
 This is part of the Gaussian(R) 16 program.  It is based on
 the Gaussian(R) 09 system (copyright 2009, Gaussian, Inc.),
 the Gaussian(R) 03 system (copyright 2003, Gaussian, Inc.),
 the Gaussian(R) 98 system (copyright 1998, Gaussian, Inc.),
 the Gaussian(R) 94 system (copyright 1995, Gaussian, Inc.),
 the Gaussian 92(TM) system (copyright 1992, Gaussian, Inc.),
 the Gaussian 90(TM) system (copyright 1990, Gaussian, Inc.),
 the Gaussian 88(TM) system (copyright 1988, Gaussian, Inc.),
 the Gaussian 86(TM) system (copyright 1986, Carnegie Mellon
 University), and the Gaussian 82(TM) system (copyright 1983,
 Carnegie Mellon University). Gaussian is a federally registered
 trademark of Gaussian, Inc.
  
 This software contains proprietary and confidential information,
 including trade secrets, belonging to Gaussian, Inc.
  
 This software is provided under written license and may be
 used, copied, transmitted, or stored only in accord with that
 written license.
  
 The following legend is applicable only to US Government
 contracts under FAR:
  
                    RESTRICTED RIGHTS LEGEND
  
 Use, reproduction and disclosure by the US Government is
 subject to restrictions as set forth in subparagraphs (a)
 and (c) of the Commercial Computer Software - Restricted
 Rights clause in FAR 52.227-19.
  
 Gaussian, Inc.
 340 Quinnipiac St., Bldg. 40, Wallingford CT 06492
  
  
 ---------------------------------------------------------------
 Warning -- This program may not be used in any manner that
 competes with the business of Gaussian, Inc. or will provide
 assistance to any competitor of Gaussian, Inc.  The licensee
 of this program is prohibited from giving any competitor of
 Gaussian, Inc. access to this program.  By using this program,
 the user acknowledges that Gaussian, Inc. is engaged in the
 business of creating and licensing software in the field of
 computational chemistry and represents and warrants to the
 licensee that it is not a competitor of Gaussian, Inc. and that
 it will not use this program in any manner prohibited above.
 ---------------------------------------------------------------
  

 Cite this work as:
 Gaussian 16, Revision C.01,
 M. J. Frisch, G. W. Trucks, H. B. Schlegel, G. E. Scuseria, 
 M. A. Robb, J. R. Cheeseman, G. Scalmani, V. Barone, 
 G. A. Petersson, H. Nakatsuji, X. Li, M. Caricato, A. V. Marenich, 
 J. Bloino, B. G. Janesko, R. Gomperts, B. Mennucci, H. P. Hratchian, 
 J. V. Ortiz, A. F. Izmaylov, J. L. Sonnenberg, D. Williams-Young, 
 F. Ding, F. Lipparini, F. Egidi, J. Goings, B. Peng, A. Petrone, 
 T. Henderson, D. Ranasinghe, V. G. Zakrzewski, J. Gao, N. Rega, 
 G. Zheng, W. Liang, M. Hada, M. Ehara, K. Toyota, R. Fukuda, 
 J. Hasegawa, M. Ishida, T. Nakajima, Y. Honda, O. Kitao, H. Nakai, 
 T. Vreven, K. Throssell, J. A. Montgomery, Jr., J. E. Peralta, 
 F. Ogliaro, M. J. Bearpark, J. J. Heyd, E. N. Brothers, K. N. Kudin, 
 V. N. Staroverov, T. A. Keith, R. Kobayashi, J. Normand, 
 K. Raghavachari, A. P. Rendell, J. C. Burant, S. S. Iyengar, 
 J. Tomasi, M. Cossi, J. M. Millam, M. Klene, C. Adamo, R. Cammi, 
 J. W. Ochterski, R. L. Martin, K. Morokuma, O. Farkas, 
 J. B. Foresman, and D. J. Fox, Gaussian, Inc., Wallingford CT, 2019.
 
 ******************************************
 Gaussian 16:  ES64L-G16RevC.01  3-Jul-2019
                11-Jan-2023 
 ******************************************
 %oldchk=../GS_OLD/geometry.chk
 %chk=geometry.chk
 %nprocshared=4
 Will use up to    4 processors via shared memory.
 %mem=5GB
 Copying data from "../GS_OLD/geometry.chk" to current chk file "geometry.chk"
 IOpt=  2 FromEx=T IUOpen= 4 IOptOp= 5 NList=   0 IFRang= 0 IUIn= 4 IUOut= 2.
 -------------------------------------------------------
 # WB97XD/6-311G SCF=XQC FORCE nosym pop=full guess=read
 -------------------------------------------------------
 1/10=7,30=1,38=1/1,3;
 2/12=2,15=1,17=6,18=5,40=1/2;
 3/5=4,6=6,11=2,25=1,30=1,71=1,74=-58,116=-2/1,2,3;
 4/5=1/1;
 5/5=2,8=3,13=1,38=6/2,8;
 6/7=3,28=1/1;
 7/29=1,30=1/1,2,3,16;
 1/10=7,30=1/3;
 99//99;
 -----------
 MD Step 999
 -----------
 Symbolic Z-matrix:
 Charge =  0 Multiplicity = 1
 C                    -0.33615  -0.58201   0.00614 
 H                     0.21982  -1.52652  -0.01931 
 H                    -1.42184  -0.58136  -0.01997 
 C                     0.33271   0.57609   0.00436 
 H                    -0.15737   1.56676  -0.02277 
 H                     1.44118   0.65258  -0.02215 
 

 GradGradGradGradGradGradGradGradGradGradGradGradGradGradGradGradGradGrad
 Berny optimization.
 Initialization pass.
 Trust Radius=3.00D-01 FncErr=1.00D-07 GrdErr=1.00D-07 EigMax=2.50D+02 EigMin=1.00D-04
 Number of steps in this run=      2 maximum allowed number of steps=      2.
 GradGradGradGradGradGradGradGradGradGradGradGradGradGradGradGradGradGrad

                          Input orientation:                          
 ---------------------------------------------------------------------
 Center     Atomic      Atomic             Coordinates (Angstroms)
 Number     Number       Type             X           Y           Z
 ---------------------------------------------------------------------
      1          6           0       -0.336149   -0.582013    0.006137
      2          1           0        0.219818   -1.526516   -0.019308
      3          1           0       -1.421836   -0.581355   -0.019967
      4          6           0        0.332714    0.576088    0.004360
      5          1           0       -0.157365    1.566759   -0.022774
      6          1           0        1.441184    0.652585   -0.022152
 ---------------------------------------------------------------------
                    Distance matrix (angstroms):
                    1          2          3          4          5
     1  C    0.000000
     2  H    1.096281   0.000000
     3  H    1.086001   1.894295   0.000000
     4  C    1.337377   2.105766   2.102073   0.000000
     5  H    2.156391   3.116189   2.492647   1.105596   0.000000
     6  H    2.164242   2.498044   3.117610   1.111422   1.841487
                    6
     6  H    0.000000
 Symmetry turned off by external request.
 Stoichiometry    C2H4
 Framework group  C1[X(C2H4)]
 Deg. of freedom    12
 Full point group                 C1      NOp   1
 Rotational constants (GHZ):         143.5961703          29.7044842          24.6187095
 Standard basis: 6-311G (5D, 7F)
    38 basis functions,    72 primitive gaussians,    38 cartesian basis functions
     8 alpha electrons        8 beta electrons
       nuclear repulsion energy        33.0810823636 Hartrees.
 NAtoms=    6 NActive=    6 NUniq=    6 SFac= 1.00D+00 NAtFMM=   60 NAOKFM=F Big=F
 Integral buffers will be    131072 words long.
 Raffenetti 2 integral format.
 Two-electron integral symmetry is turned off.
 Nuclear repulsion after empirical dispersion term =       33.0802415699 Hartrees.
 One-electron integrals computed using PRISM.
 NBasis=    38 RedAO= T EigKep=  6.41D-03  NBF=    38
 NBsUse=    38 1.00D-06 EigRej= -1.00D+00 NBFU=    38
 Initial guess from the checkpoint file:  "geometry.chk"
 B after Tr=    -0.000188   -0.000390   -0.000624
         Rot=    1.000000    0.000003   -0.000001    0.000003 Ang=   0.00 deg.
 Keep R1 ints in memory in canonical form, NReq=4036876.
 Requested convergence on RMS density matrix=1.00D-08 within  32 cycles.
 Requested convergence on MAX density matrix=1.00D-06.
 Requested convergence on             energy=1.00D-06.
 No special actions if energy rises.
 SCF Done:  E(RwB97XD) =  -78.5556394713     A.U. after    8 cycles
            NFock=  8  Conv=0.80D-08     -V/T= 2.0051
 QCSCF skips out because SCF is already converged.

 **********************************************************************

            Population analysis using the SCF Density.

 **********************************************************************

 Alpha  occ. eigenvalues --  -10.29013 -10.28793  -0.86400  -0.67231  -0.55948
 Alpha  occ. eigenvalues --   -0.50956  -0.43623  -0.35700
 Alpha virt. eigenvalues --    0.08002   0.14102   0.16470   0.17012   0.24083
 Alpha virt. eigenvalues --    0.37285   0.39326   0.40025   0.46381   0.48873
 Alpha virt. eigenvalues --    0.49370   0.59113   0.66560   0.69142   0.77278
 Alpha virt. eigenvalues --    0.77577   0.84297   0.95264   2.23125   2.29031
 Alpha virt. eigenvalues --    2.33307   2.40720   2.67131   2.81784   2.87792
 Alpha virt. eigenvalues --    2.95158   3.14170   3.31979  23.35224  23.70658
     Molecular Orbital Coefficients:
                           1         2         3         4         5
                           O         O         O         O         O
     Eigenvalues --   -10.29013 -10.28793  -0.86400  -0.67231  -0.55948
   1 1   C  1S          0.11547   0.55143  -0.08845   0.06672  -0.00040
   2        2S          0.09523   0.45381  -0.13981   0.10685  -0.00066
   3        2PX         0.00016  -0.00001   0.02609   0.03592   0.13807
   4        2PY         0.00028  -0.00002   0.04643   0.05920  -0.07548
   5        2PZ        -0.00000  -0.00001  -0.00109   0.00157   0.00014
   6        3S          0.00214   0.01449   0.37502  -0.29153   0.00183
   7        3PX        -0.00059   0.00045   0.03455   0.05771   0.21648
   8        3PY        -0.00102   0.00080   0.06121   0.09609  -0.11902
   9        3PZ        -0.00001  -0.00003  -0.00182   0.00280   0.00021
  10        4S          0.00290  -0.01478   0.19183  -0.22541   0.00162
  11        4PX         0.00145  -0.00159   0.00486   0.02316   0.11187
  12        4PY         0.00250  -0.00275   0.00860   0.03972  -0.06220
  13        4PZ         0.00000   0.00007  -0.00063   0.00141   0.00010
  14 2   H  1S         -0.00005  -0.00006   0.05269  -0.08719   0.10382
  15        2S         -0.00029   0.00011   0.05394  -0.10514   0.13136
  16        3S          0.00087   0.00166  -0.00181  -0.01506   0.04241
  17 3   H  1S         -0.00005  -0.00007   0.05392  -0.09024  -0.10595
  18        2S         -0.00030   0.00010   0.05474  -0.10808  -0.13320
  19        3S          0.00089   0.00169  -0.00180  -0.01585  -0.04300
  20 4   C  1S          0.55142  -0.11566  -0.08683  -0.06839  -0.00011
  21        2S          0.45387  -0.09499  -0.13710  -0.10968  -0.00016
  22        2PX        -0.00002  -0.00017  -0.02756   0.03833   0.11751
  23        2PY        -0.00003  -0.00029  -0.04681   0.06750  -0.07224
  24        2PZ        -0.00000   0.00000  -0.00085  -0.00172   0.00014
  25        3S          0.01396  -0.00383   0.36723   0.29972   0.00047
  26        3PX        -0.00019   0.00074  -0.03444   0.06203   0.18381
  27        3PY        -0.00030   0.00127  -0.05835   0.10891  -0.11225
  28        3PZ        -0.00003  -0.00000  -0.00147  -0.00309   0.00021
  29        4S         -0.01204   0.00871   0.18856   0.23792  -0.00051
  30        4PX         0.00083  -0.00194  -0.00546   0.02710   0.10133
  31        4PY         0.00139  -0.00337  -0.00906   0.04649  -0.06121
  32        4PZ         0.00006  -0.00001  -0.00061  -0.00159   0.00011
  33 5   H  1S         -0.00006  -0.00004   0.04958   0.09371  -0.08835
  34        2S         -0.00003  -0.00032   0.05072   0.11177  -0.11138
  35        3S          0.00180   0.00010  -0.00106   0.01680  -0.03577
  36 6   H  1S         -0.00005  -0.00004   0.04874   0.09269   0.08483
  37        2S         -0.00003  -0.00032   0.05028   0.11084   0.10720
  38        3S          0.00177   0.00010  -0.00109   0.01642   0.03466
                           6         7         8         9        10
                           O         O         O         V         V
     Eigenvalues --    -0.50956  -0.43623  -0.35700   0.08002   0.14102
   1 1   C  1S         -0.00313   0.00010  -0.00083   0.00225  -0.03321
   2        2S         -0.00462   0.00019  -0.00135   0.00373  -0.05326
   3        2PX         0.09543  -0.10969  -0.00276   0.00117  -0.03256
   4        2PY         0.16811   0.06536  -0.00469   0.00196  -0.06390
   5        2PZ         0.00414  -0.00000   0.17946  -0.18902  -0.00204
   6        3S          0.01836  -0.00033   0.00395  -0.01129   0.11571
   7        3PX         0.13858  -0.17510  -0.00390   0.00177  -0.03876
   8        3PY         0.24533   0.10475  -0.00661   0.00293  -0.07883
   9        3PZ         0.00657   0.00002   0.28864  -0.27803  -0.00326
  10        4S         -0.05572  -0.00270   0.00573  -0.01280   1.22272
  11        4PX         0.06977  -0.10935  -0.00319   0.01021  -0.19692
  12        4PY         0.12439   0.06570  -0.00544   0.01732  -0.37688
  13        4PZ         0.00373   0.00004   0.26691  -0.69581  -0.01179
  14 2   H  1S         -0.08062  -0.11409   0.00011   0.00350  -0.01666
  15        2S         -0.11169  -0.17607   0.00163   0.00554  -0.04620
  16        3S         -0.04168  -0.08147   0.00098   0.01468  -0.82160
  17 3   H  1S         -0.07996   0.11191   0.00008   0.00351  -0.01387
  18        2S         -0.11021   0.17196   0.00160   0.00559  -0.03996
  19        3S         -0.04085   0.07928   0.00097   0.01444  -0.77678
  20 4   C  1S         -0.00891  -0.00039  -0.00065  -0.00216  -0.03640
  21        2S         -0.01397  -0.00063  -0.00107  -0.00357  -0.05846
  22        2PX        -0.09756   0.12576   0.00278   0.00142   0.03953
  23        2PY        -0.16213  -0.07428   0.00502   0.00256   0.06221
  24        2PZ         0.00445   0.00014   0.17916   0.18945  -0.00246
  25        3S          0.04476   0.00183   0.00316   0.01070   0.12911
  26        3PX        -0.14431   0.20123   0.00388   0.00218   0.04811
  27        3PY        -0.23855  -0.11822   0.00705   0.00395   0.07396
  28        3PZ         0.00704   0.00020   0.28675   0.27786  -0.00373
  29        4S         -0.02654   0.00211   0.00533   0.01205   1.24593
  30        4PX        -0.07536   0.12912   0.00298   0.01085   0.26106
  31        4PY        -0.12360  -0.07547   0.00551   0.01916   0.42189
  32        4PZ         0.00407   0.00012   0.26727   0.69704  -0.01472
  33 5   H  1S         -0.07435  -0.12573   0.00019  -0.00327  -0.01238
  34        2S         -0.10135  -0.19609   0.00175  -0.00545  -0.03869
  35        3S         -0.03783  -0.09232   0.00097  -0.01426  -0.83546
  36 6   H  1S         -0.07947   0.12490   0.00015  -0.00328  -0.01490
  37        2S         -0.10863   0.19554   0.00171  -0.00552  -0.04532
  38        3S         -0.04065   0.09208   0.00094  -0.01448  -0.88100
                          11        12        13        14        15
                           V         V         V         V         V
     Eigenvalues --     0.16470   0.17012   0.24083   0.37285   0.39326
   1 1   C  1S          0.00020  -0.04566   0.00009   0.00900   0.00035
   2        2S          0.00031  -0.07443   0.00013   0.01207   0.00043
   3        2PX         0.09627  -0.02114   0.09983  -0.03555  -0.02233
   4        2PY        -0.05473  -0.03637  -0.05719  -0.06414   0.01138
   5        2PZ         0.00000  -0.00546   0.00002  -0.00380  -0.00014
   6        3S         -0.00056   0.16853   0.00018   0.03517   0.00258
   7        3PX         0.13813  -0.01318   0.10530  -0.04315  -0.10167
   8        3PY        -0.07886  -0.02292  -0.06108  -0.08241   0.05660
   9        3PZ         0.00000  -0.00759  -0.00001  -0.00785  -0.00028
  10        4S         -0.01906   1.43995  -0.02083  -2.51201  -0.10005
  11        4PX         0.58081  -0.12365   1.16924  -1.54386  -0.52821
  12        4PY        -0.32271  -0.20401  -0.67177  -2.68888   0.16129
  13        4PZ         0.00013  -0.03575   0.00056  -0.03419  -0.00192
  14 2   H  1S         -0.02960  -0.02516   0.01419  -0.05966   0.07430
  15        2S         -0.08208  -0.01761  -0.02326  -0.67945   0.74778
  16        3S         -1.05387  -0.99629  -1.54488  -0.29448  -0.30458
  17 3   H  1S          0.02824  -0.02556  -0.01596  -0.05341  -0.07687
  18        2S          0.08042  -0.02125   0.01800  -0.62822  -0.77843
  19        3S          1.07612  -1.02638   1.57200  -0.35863   0.25689
  20 4   C  1S          0.00144   0.04219  -0.00010  -0.02002  -0.00024
  21        2S          0.00232   0.06868  -0.00017  -0.03300  -0.00038
  22        2PX         0.10155  -0.02451  -0.10042  -0.04008  -0.03152
  23        2PY        -0.06126  -0.03706   0.05760  -0.07176   0.01404
  24        2PZ         0.00019   0.00532  -0.00002   0.00269   0.00017
  25        3S         -0.00481  -0.15230   0.00026   0.04617   0.00035
  26        3PX         0.14603  -0.02006  -0.11435  -0.09254  -0.11138
  27        3PY        -0.08693  -0.02680   0.06467  -0.16814   0.05472
  28        3PZ         0.00026   0.00733   0.00001   0.00316   0.00029
  29        4S         -0.05908  -1.33466   0.01187   3.26026   0.12344
  30        4PX         0.53651  -0.12648  -1.12436  -1.12758  -0.51772
  31        4PY        -0.32748  -0.19479   0.64817  -1.98092   0.17733
  32        4PZ         0.00116   0.03463  -0.00051   0.02854   0.00135
  33 5   H  1S          0.03182   0.02433   0.00541   0.00752  -0.08292
  34        2S          0.06806   0.02085  -0.03527   0.03108  -0.82641
  35        3S          1.07977   0.92143  -1.52466   0.44452   0.48167
  36 6   H  1S         -0.03125   0.02559  -0.00457   0.00237   0.08670
  37        2S         -0.06785   0.02158   0.03577  -0.01257   0.86885
  38        3S         -0.99921   0.95817   1.51092   0.46259  -0.46625
                          16        17        18        19        20
                           V         V         V         V         V
     Eigenvalues --     0.40025   0.46381   0.48873   0.49370   0.59113
   1 1   C  1S         -0.01900   0.01266   0.04622  -0.00061  -0.00045
   2        2S         -0.03321   0.02924   0.07721  -0.00079  -0.00080
   3        2PX         0.02939  -0.06139  -0.01129   0.00104   0.00165
   4        2PY         0.05193  -0.10632  -0.01477   0.00149   0.00250
   5        2PZ         0.00038  -0.00039  -0.00525  -0.15173  -0.19256
   6        3S          0.07416  -0.33703  -0.08846  -0.00698  -0.00058
   7        3PX         0.10924  -0.24020   0.03700  -0.00003   0.00551
   8        3PY         0.19638  -0.41417   0.07369  -0.00097   0.00842
   9        3PZ        -0.00288  -0.00362  -0.02340  -0.62794  -0.68510
  10        4S          2.83243   0.13090  -3.10415   0.09492   0.05735
  11        4PX         0.33168   0.23456  -0.81760   0.02949   0.01806
  12        4PY         0.57470   0.43508  -1.42572   0.05277   0.03119
  13        4PZ        -0.00042   0.00152   0.07767   0.68529   1.24113
  14 2   H  1S         -0.02699  -0.03312   0.07590  -0.00270  -0.00138
  15        2S         -0.54080  -0.31725   0.90408  -0.02684  -0.01039
  16        3S          0.33779   0.06505  -0.64233   0.02939   0.01914
  17 3   H  1S         -0.02928  -0.03523   0.07412  -0.00264  -0.00132
  18        2S         -0.55573  -0.34252   0.88502  -0.02655  -0.00922
  19        3S          0.33500   0.06636  -0.61313   0.02852   0.01870
  20 4   C  1S          0.00028  -0.00311  -0.05099   0.00287   0.00057
  21        2S         -0.00315   0.00237  -0.08885   0.00517   0.00107
  22        2PX         0.01061   0.05420  -0.02771   0.00021   0.00171
  23        2PY         0.01886   0.09432  -0.05010   0.00033   0.00323
  24        2PZ        -0.00318  -0.00157  -0.00533  -0.15266   0.19230
  25        3S          0.07875  -0.28381   0.23588  -0.01925  -0.00210
  26        3PX        -0.03787   0.23304  -0.05809   0.00032   0.00603
  27        3PY        -0.06284   0.40754  -0.10355   0.00024   0.01125
  28        3PZ        -0.00883  -0.00633  -0.02015  -0.63133   0.68250
  29        4S         -1.04190   0.77516   3.10522  -0.11337  -0.05029
  30        4PX         1.33332  -0.33428  -0.60432   0.01631   0.01738
  31        4PY         2.35959  -0.55682  -1.02805   0.02734   0.03014
  32        4PZ        -0.02852  -0.01373  -0.02397   0.69381  -1.23793
  33 5   H  1S         -0.04386  -0.06516  -0.06355   0.00242   0.00128
  34        2S         -0.81499  -0.67098  -0.80742   0.03535   0.00477
  35        3S         -0.23564   0.27488   0.54213  -0.01198  -0.01868
  36 6   H  1S         -0.04129  -0.06378  -0.06396   0.00246   0.00131
  37        2S         -0.78214  -0.65178  -0.80522   0.03515   0.00533
  38        3S         -0.23799   0.28389   0.55805  -0.01282  -0.01879
                          21        22        23        24        25
                           V         V         V         V         V
     Eigenvalues --     0.66560   0.69142   0.77278   0.77577   0.84297
   1 1   C  1S          0.00057  -0.00059   0.05356   0.07125   0.00097
   2        2S          0.00117  -0.00129   0.11309   0.15191   0.00217
   3        2PX        -0.13187   0.19889  -0.02122   0.11368  -0.00947
   4        2PY         0.07701  -0.11843  -0.03784   0.18713   0.01136
   5        2PZ        -0.00006   0.00012   0.00069   0.00388   0.00010
   6        3S         -0.00966   0.01517  -0.77185  -1.32117  -0.02063
   7        3PX        -0.61269   0.69893  -0.15726   0.44572  -0.22834
   8        3PY         0.35490  -0.41561  -0.27737   0.72683   0.15477
   9        3PZ        -0.00030   0.00049   0.00264   0.01351   0.00041
  10        4S          0.02013  -0.06511   0.79275   2.44001  -0.03839
  11        4PX         1.07783  -0.79426   0.11097  -0.72543   4.52511
  12        4PY        -0.62430   0.47395   0.17833  -1.02249  -2.60495
  13        4PZ         0.00028   0.00060   0.00586  -0.04473   0.00235
  14 2   H  1S          0.02344  -0.05893   0.01139   0.03234  -0.02764
  15        2S          0.13594  -0.63705   0.08557   0.08404  -1.58424
  16        3S         -1.03778   1.10574  -0.13031  -1.10964  -1.23351
  17 3   H  1S         -0.02298   0.05841   0.01139   0.03302   0.03032
  18        2S         -0.14769   0.66435   0.09568   0.06194   1.61771
  19        3S          1.03056  -1.07800  -0.13410  -1.22548   1.23529
  20 4   C  1S          0.00079  -0.00059   0.08536   0.02812   0.00079
  21        2S          0.00159  -0.00116   0.18166   0.05910   0.00165
  22        2PX        -0.15182  -0.18422  -0.09597   0.05625   0.00888
  23        2PY         0.08723   0.10354  -0.16996   0.10215  -0.00062
  24        2PZ        -0.00004  -0.00014   0.00415  -0.00104  -0.00010
  25        3S         -0.01093   0.00365  -1.51002  -0.32197  -0.01079
  26        3PX        -0.68540  -0.62290  -0.34812   0.29382   0.22995
  27        3PY         0.39551   0.34777  -0.61879   0.53081  -0.10867
  28        3PZ        -0.00023  -0.00047   0.01467  -0.00400  -0.00030
  29        4S          0.00573   0.03150   2.70016   0.01363   0.02323
  30        4PX         1.29192   0.74790   0.53446  -0.28900  -4.16194
  31        4PY        -0.73965  -0.42201   0.97524  -0.69365   2.36034
  32        4PZ         0.00047  -0.00031  -0.04194   0.02250  -0.00170
  33 5   H  1S         -0.02536  -0.05508   0.03453   0.00177  -0.02300
  34        2S         -0.14167  -0.55239   0.07945   0.06799  -1.40310
  35        3S          1.12049   0.98636  -1.13566   0.33187  -1.09359
  36 6   H  1S          0.02583   0.05470   0.03437   0.00240   0.02338
  37        2S          0.13945   0.52944   0.07642   0.02533   1.39670
  38        3S         -1.12281  -0.99271  -1.10094   0.27249   1.10032
                          26        27        28        29        30
                           V         V         V         V         V
     Eigenvalues --     0.95264   2.23125   2.29031   2.33307   2.40720
   1 1   C  1S          0.09592  -0.01008  -0.01461   0.00029  -0.00039
   2        2S          0.19935   0.00165  -0.01457   0.00069  -0.00041
   3        2PX        -0.09153  -0.07635  -0.13324   0.34791  -0.40686
   4        2PY        -0.15861  -0.14127  -0.23135  -0.19874   0.23247
   5        2PZ         0.00020  -0.01084  -0.01492   0.00001  -0.00047
   6        3S         -1.54417  -0.18674  -0.03770  -0.00150  -0.00403
   7        3PX        -0.23435   0.07152   0.21069  -0.41681   0.56760
   8        3PY        -0.40025   0.14445   0.37711   0.24011  -0.32654
   9        3PZ        -0.00192   0.01083   0.01857   0.00007   0.00054
  10        4S          5.71411  -0.10402  -0.88556   0.00022  -0.02290
  11        4PX         1.19264   0.05477  -0.19329  -0.05959   0.98371
  12        4PY         1.99990   0.07177  -0.35569   0.02686  -0.55275
  13        4PZ        -0.01586   0.00234   0.00683  -0.00020   0.00098
  14 2   H  1S          0.01533  -0.70279  -0.79905  -0.70782   0.65181
  15        2S         -0.28423   0.99723   1.19682   1.09664  -1.46302
  16        3S         -0.09151  -0.29789  -0.47527  -0.46647   0.36186
  17 3   H  1S          0.01547  -0.69519  -0.79922   0.69881  -0.66996
  18        2S         -0.26253   0.98835   1.19958  -1.08674   1.50076
  19        3S         -0.07982  -0.27811  -0.46357   0.45606  -0.35578
  20 4   C  1S         -0.09384  -0.01050   0.01219   0.00031   0.00018
  21        2S         -0.19464  -0.00014   0.01232   0.00040   0.00032
  22        2PX        -0.09274   0.13714  -0.12209   0.30186   0.41794
  23        2PY        -0.16003   0.23950  -0.20602  -0.17444  -0.23881
  24        2PZ         0.00031  -0.01215   0.01439   0.00021   0.00018
  25        3S          1.50332  -0.16693   0.01664   0.00037  -0.00038
  26        3PX        -0.22925  -0.17483   0.20937  -0.37678  -0.58573
  27        3PY        -0.39942  -0.30302   0.34917   0.21612   0.33462
  28        3PZ         0.00309   0.01309  -0.01839  -0.00023  -0.00026
  29        4S         -5.68886  -0.17691   0.89000   0.01182   0.00685
  30        4PX         1.11546  -0.01647  -0.19257   0.11648  -0.85722
  31        4PY         1.97895  -0.03126  -0.31773  -0.06722   0.49498
  32        4PZ         0.00964   0.00397  -0.00517  -0.00004  -0.00073
  33 5   H  1S         -0.01798  -0.79351   0.66983   0.70394   0.68791
  34        2S          0.29437   1.15408  -1.02372  -1.01806  -1.45798
  35        3S          0.06007  -0.35939   0.39946   0.51198   0.43087
  36 6   H  1S         -0.01795  -0.78740   0.68856  -0.69194  -0.68731
  37        2S          0.31033   1.14412  -1.04875   0.99825   1.45273
  38        3S          0.06455  -0.35760   0.41987  -0.50776  -0.43485
                          31        32        33        34        35
                           V         V         V         V         V
     Eigenvalues --     2.67131   2.81784   2.87792   2.95158   3.14170
   1 1   C  1S          0.00041   0.00209  -0.01336   0.00001  -0.00973
   2        2S          0.00032   0.00603  -0.04407  -0.00021  -0.02993
   3        2PX         0.00393   0.06048  -0.47818  -0.72547   0.44252
   4        2PY         0.00615   0.10606  -0.85796   0.40449   0.77803
   5        2PZ        -0.92440  -0.93322  -0.11467  -0.00096   0.00493
   6        3S         -0.00125  -0.04987   0.38675   0.00349   0.25195
   7        3PX        -0.00276  -0.10461   0.84314   0.87335  -0.42163
   8        3PY        -0.00430  -0.18213   1.48943  -0.47487  -0.74216
   9        3PZ         0.93936   1.14110   0.14383   0.00130  -0.00641
  10        4S          0.01058   0.11644  -0.87806  -0.01205  -0.49423
  11        4PX        -0.00180   0.08399  -0.71813  -0.66718   0.20711
  12        4PY        -0.00248   0.14664  -1.27084   0.35458   0.36678
  13        4PZ        -0.33800  -0.61837  -0.09098  -0.00104   0.00372
  14 2   H  1S          0.00991  -0.01612   0.26093  -0.37181  -0.21386
  15        2S         -0.01126   0.00980  -0.21581   0.38487   0.16260
  16        3S         -0.00248   0.03400  -0.30061   0.27497   0.05643
  17 3   H  1S          0.01001  -0.01558   0.25096   0.37456  -0.21048
  18        2S         -0.01154   0.00860  -0.19859  -0.38338   0.15816
  19        3S         -0.00286   0.03443  -0.30206  -0.29102   0.06039
  20 4   C  1S          0.00042  -0.00203   0.01359   0.00044  -0.00717
  21        2S          0.00041  -0.00636   0.04817   0.00110  -0.02245
  22        2PX        -0.00628   0.05322  -0.40297  -0.80951  -0.50810
  23        2PY        -0.01132   0.09483  -0.72068   0.45162  -0.89796
  24        2PZ        -0.92513   0.93189   0.11796   0.00044   0.01136
  25        3S         -0.00233   0.05484  -0.43486  -0.00889   0.19350
  26        3PX         0.00655  -0.09734   0.76573   0.96586   0.54888
  27        3PY         0.01167  -0.17203   1.35601  -0.53023   0.97654
  28        3PZ         0.94053  -1.13966  -0.14873  -0.00057  -0.01433
  29        4S          0.01283  -0.11874   0.90765   0.02508  -0.36763
  30        4PX        -0.00075   0.08318  -0.70897  -0.70076  -0.33741
  31        4PY        -0.00180   0.14587  -1.24253   0.37747  -0.60570
  32        4PZ        -0.33861   0.61741   0.09500   0.00038   0.01128
  33 5   H  1S          0.00936   0.02296  -0.29579   0.42130  -0.26666
  34        2S         -0.01160  -0.01887   0.27093  -0.43151   0.21051
  35        3S         -0.00104  -0.03143   0.28158  -0.24324   0.12886
  36 6   H  1S          0.00947   0.02320  -0.29330  -0.42996  -0.25748
  37        2S         -0.01200  -0.01958   0.27314   0.43941   0.20234
  38        3S         -0.00083  -0.03009   0.26863   0.24665   0.12412
                          36        37        38
                           V         V         V
     Eigenvalues --     3.31979  23.35224  23.70658
   1 1   C  1S         -0.00040  -1.41365  -1.45264
   2        2S         -0.00064   1.50764   1.57090
   3        2PX         0.78938  -0.00648   0.01207
   4        2PY        -0.44284  -0.01064   0.02121
   5        2PZ         0.00062  -0.00045  -0.00021
   6        3S          0.00138  -0.29604  -0.39987
   7        3PX        -1.12731   0.02392  -0.05571
   8        3PY         0.63074   0.03984  -0.09706
   9        3PZ        -0.00096   0.00126   0.00063
  10        4S         -0.01671   0.27473   0.76967
  11        4PX         1.97880  -0.02572   0.13307
  12        4PY        -1.11197  -0.04358   0.23029
  13        4PZ         0.00160  -0.00212  -0.00257
  14 2   H  1S          0.56617   0.01325   0.00729
  15        2S         -0.88229   0.00757  -0.01469
  16        3S         -0.46861  -0.08440  -0.03939
  17 3   H  1S         -0.57638   0.01474   0.00838
  18        2S          0.89662   0.00726  -0.01503
  19        3S          0.48904  -0.08619  -0.03985
  20 4   C  1S          0.00007  -1.44782   1.41841
  21        2S         -0.00013   1.54416  -1.53396
  22        2PX        -0.70605   0.00610   0.01263
  23        2PY         0.40132   0.01083   0.02153
  24        2PZ        -0.00043  -0.00045   0.00010
  25        3S          0.00306  -0.30294   0.39050
  26        3PX         1.00660  -0.02249  -0.05666
  27        3PY        -0.57885  -0.03968  -0.09737
  28        3PZ         0.00066   0.00131  -0.00025
  29        4S         -0.00878   0.27905  -0.76078
  30        4PX        -1.77727   0.02373   0.13149
  31        4PY         1.02785   0.04301   0.22681
  32        4PZ        -0.00114  -0.00211   0.00174
  33 5   H  1S          0.47975   0.01311  -0.00447
  34        2S         -0.74947   0.00821   0.01370
  35        3S         -0.42615  -0.08270   0.03728
  36 6   H  1S         -0.47766   0.01222  -0.00366
  37        2S          0.74751   0.00914   0.01322
  38        3S          0.42118  -0.08157   0.03659
     Density Matrix:
                           1         2         3         4         5
   1 1   C  1S          0.65940
   2        2S          0.56150   0.49199
   3        2PX        -0.00053  -0.00070   0.08436
   4        2PY        -0.00124  -0.00171   0.00361   0.08782
   5        2PZ         0.00007   0.00011  -0.00011  -0.00023   0.06445
   6        3S         -0.08890  -0.15379   0.00268   0.00612  -0.00016
   7        3PX         0.00087   0.00134   0.13061   0.00110  -0.00009
   8        3PY         0.00123   0.00190   0.00111   0.13126  -0.00021
   9        3PZ         0.00014   0.00024  -0.00018  -0.00036   0.10367
  10        4S         -0.07931  -0.11418  -0.01581  -0.02826   0.00047
  11        4PX         0.00027   0.00160   0.07013  -0.00450  -0.00047
  12        4PY         0.00062   0.00304  -0.00452   0.06535  -0.00083
  13        4PZ        -0.00009  -0.00022  -0.00068  -0.00115   0.09584
  14 2   H  1S         -0.02064  -0.03286   0.03479  -0.06312  -0.00099
  15        2S         -0.02296  -0.03672   0.04883  -0.08785  -0.00075
  16        3S          0.00055  -0.00074   0.02045  -0.03303  -0.00003
  17 3   H  1S         -0.02106  -0.03352  -0.07274  -0.00194  -0.00107
  18        2S         -0.02324  -0.03712  -0.10046  -0.00220  -0.00084
  19        3S          0.00058  -0.00072  -0.03830   0.00107  -0.00005
  20 4   C  1S          0.00608   0.00980  -0.01090  -0.01887  -0.00033
  21        2S          0.00976   0.01526  -0.01745  -0.03020  -0.00054
  22        2PX         0.01034   0.01653  -0.01246  -0.03215   0.00040
  23        2PY         0.01802   0.02880  -0.03222  -0.04972   0.00075
  24        2PZ        -0.00040  -0.00066  -0.00030  -0.00047   0.06434
  25        3S         -0.02626  -0.03988   0.04895   0.08478   0.00165
  26        3PX         0.01593   0.02467  -0.01829  -0.04585   0.00052
  27        3PY         0.02773   0.04297  -0.04585  -0.07131   0.00099
  28        3PZ        -0.00068  -0.00110  -0.00053  -0.00083   0.10297
  29        4S          0.00538   0.00397   0.02123   0.03705   0.00203
  30        4PX         0.00305   0.00632  -0.01308  -0.02108   0.00057
  31        4PY         0.00521   0.01086  -0.02110  -0.03757   0.00110
  32        4PZ        -0.00058  -0.00093  -0.00084  -0.00138   0.09596
  33 5   H  1S          0.00418   0.00687  -0.00169  -0.01240  -0.00039
  34        2S          0.00627   0.01042   0.00358  -0.02497  -0.00000
  35        3S          0.00320   0.00468   0.00430  -0.01750   0.00008
  36 6   H  1S          0.00414   0.00680  -0.00994  -0.00770  -0.00039
  37        2S          0.00616   0.01026  -0.02345  -0.00937  -0.00002
  38        3S          0.00315   0.00460  -0.01727  -0.00503   0.00006
                           6         7         8         9        10
   6        3S          0.45240
   7        3PX        -0.00176   0.20254
   8        3PY        -0.00165  -0.00484   0.19669
   9        3PZ        -0.00048  -0.00015  -0.00032   0.16674
  10        4S          0.27290  -0.02662  -0.04823   0.00062   0.18196
  11        4PX        -0.00688   0.10910  -0.01022  -0.00077  -0.01538
  12        4PY        -0.01253  -0.01025   0.09835  -0.00134  -0.02899
  13        4PZ         0.00096  -0.00090  -0.00152   0.15414   0.00177
  14 2   H  1S          0.08785   0.05614  -0.09847  -0.00164   0.06946
  15        2S          0.09827   0.07916  -0.13658  -0.00127   0.08192
  16        3S          0.00616   0.03347  -0.05074  -0.00005   0.01128
  17 3   H  1S          0.08966  -0.11392  -0.00131  -0.00175   0.06934
  18        2S          0.09944  -0.15714  -0.00043  -0.00138   0.08066
  19        3S          0.00624  -0.05967   0.00352  -0.00008   0.01041
  20 4   C  1S         -0.02658  -0.01703  -0.02949  -0.00057   0.00511
  21        2S         -0.04022  -0.02647  -0.04587  -0.00092   0.00383
  22        2PX        -0.04624  -0.01770  -0.04553   0.00069  -0.01724
  23        2PY        -0.08061  -0.04568  -0.07074   0.00128  -0.03009
  24        2PZ         0.00195  -0.00041  -0.00062   0.10348   0.00201
  25        3S          0.10230   0.07190   0.12471   0.00276   0.00100
  26        3PX        -0.06671  -0.02614  -0.06474   0.00090  -0.02557
  27        3PY        -0.11627  -0.06483  -0.10140   0.00171  -0.04459
  28        3PZ         0.00323  -0.00072  -0.00112   0.16562   0.00333
  29        4S          0.00197   0.03216   0.05632   0.00338  -0.03224
  30        4PX        -0.02241  -0.01951  -0.02955   0.00095  -0.00619
  31        4PY        -0.03866  -0.02964  -0.05414   0.00182  -0.01028
  32        4PZ         0.00273  -0.00118  -0.00191   0.15434   0.00309
  33 5   H  1S         -0.02042  -0.00058  -0.01772  -0.00056  -0.01454
  34        2S         -0.03112   0.00875  -0.03663   0.00007  -0.01891
  35        3S         -0.01203   0.00822  -0.02631   0.00014  -0.00336
  36 6   H  1S         -0.02018  -0.01497  -0.00924  -0.00057  -0.01463
  37        2S         -0.03064  -0.03592  -0.01042   0.00005  -0.01925
  38        3S         -0.01180  -0.02670  -0.00590   0.00012  -0.00366
                          11        12        13        14        15
  11        4PX         0.05983
  12        4PY        -0.00895   0.05071
  13        4PZ        -0.00111  -0.00188   0.14251
  14 2   H  1S          0.03340  -0.05398  -0.00084   0.08134
  15        2S          0.04795  -0.07471  -0.00032   0.10947   0.14939
  16        3S          0.02077  -0.02759   0.00017   0.03655   0.05212
  17 3   H  1S         -0.06300   0.00175  -0.00089  -0.01322  -0.02459
  18        2S         -0.08727   0.00409  -0.00035  -0.02451  -0.04229
  19        3S         -0.03342   0.00430   0.00017  -0.01786  -0.02695
  20 4   C  1S         -0.00323  -0.00578  -0.00051   0.00424   0.00676
  21        2S         -0.00664  -0.01181  -0.00082   0.00701   0.01128
  22        2PX        -0.01333  -0.01982   0.00093   0.00185  -0.00264
  23        2PY        -0.01990  -0.03660   0.00170   0.01139   0.02416
  24        2PZ        -0.00061  -0.00099   0.09567  -0.00047  -0.00015
  25        3S          0.02343   0.04150   0.00240  -0.02110  -0.03392
  26        3PX        -0.02051  -0.02804   0.00127   0.00107  -0.00708
  27        3PY        -0.02812  -0.05335   0.00233   0.01699   0.03625
  28        3PZ        -0.00100  -0.00164   0.15312  -0.00069  -0.00016
  29        4S          0.00848   0.01571   0.00308  -0.01793  -0.02461
  30        4PX        -0.01489  -0.01235   0.00114  -0.00157  -0.00829
  31        4PY        -0.01239  -0.02955   0.00214   0.01538   0.02736
  32        4PZ        -0.00122  -0.00203   0.14270  -0.00039   0.00021
  33 5   H  1S          0.00218  -0.01573  -0.00028   0.01122   0.02332
  34        2S          0.00948  -0.02739   0.00039   0.02381   0.04440
  35        3S          0.00768  -0.01578   0.00027   0.01670   0.02792
  36 6   H  1S         -0.01466  -0.00571  -0.00029  -0.00910  -0.01817
  37        2S         -0.02833  -0.00501   0.00039  -0.01887  -0.03430
  38        3S         -0.01731  -0.00104   0.00026  -0.01024  -0.01781
                          16        17        18        19        20
  16        3S          0.02082
  17 3   H  1S         -0.01803   0.08239
  18        2S         -0.02707   0.10975   0.14827
  19        3S         -0.01267   0.03606   0.05096   0.02012
  20 4   C  1S          0.00375   0.00430   0.00678   0.00375   0.65948
  21        2S          0.00553   0.00710   0.01131   0.00551   0.56158
  22        2PX        -0.00344   0.00896   0.02215   0.01669   0.00117
  23        2PY         0.01764   0.00738   0.00973   0.00572   0.00188
  24        2PZ         0.00002  -0.00047  -0.00012   0.00005   0.00007
  25        3S         -0.01433  -0.02134  -0.03395  -0.01422  -0.08929
  26        3PX        -0.00690   0.01426   0.03488   0.02606  -0.00051
  27        3PY         0.02658   0.00953   0.01192   0.00718  -0.00104
  28        3PZ         0.00006  -0.00068  -0.00011   0.00010   0.00015
  29        4S         -0.00601  -0.01778  -0.02405  -0.00566  -0.08012
  30        4PX        -0.00696   0.01400   0.02757   0.01708  -0.00018
  31        4PY         0.01604   0.00648   0.00657   0.00196  -0.00020
  32        4PZ         0.00022  -0.00039   0.00025   0.00025  -0.00003
  33 5   H  1S          0.01619  -0.00909  -0.01814  -0.00941  -0.02005
  34        2S          0.02741  -0.01878  -0.03403  -0.01695  -0.02207
  35        3S          0.01467  -0.01018  -0.01763  -0.00899   0.00060
  36 6   H  1S         -0.00950   0.01122   0.02317   0.01589  -0.01989
  37        2S         -0.01723   0.02384   0.04419   0.02697  -0.02210
  38        3S         -0.00916   0.01668   0.02773   0.01443   0.00052
                          21        22        23        24        25
  21        2S          0.49209
  22        2PX         0.00168   0.08275
  23        2PY         0.00269   0.00376   0.08759
  24        2PZ         0.00010   0.00011   0.00016   0.06424
  25        3S         -0.15430  -0.00541  -0.00874  -0.00012   0.45383
  26        3PX        -0.00077   0.12864   0.00198   0.00006  -0.00010
  27        3PY        -0.00157   0.00203   0.13137   0.00006   0.00056
  28        3PZ         0.00025   0.00016   0.00025   0.10282  -0.00049
  29        4S         -0.11575   0.01346   0.02288   0.00054   0.27837
  30        4PX        -0.00142   0.07339  -0.00518   0.00038   0.00611
  31        4PY        -0.00225  -0.00516   0.06731   0.00069   0.00991
  32        4PZ        -0.00012   0.00066   0.00117   0.09581   0.00066
  33 5   H  1S         -0.03194  -0.03343   0.06356  -0.00106   0.08539
  34        2S         -0.03528  -0.04994   0.08845  -0.00083   0.09437
  35        3S         -0.00060  -0.02289   0.03353  -0.00008   0.00560
  36 6   H  1S         -0.03170   0.07128   0.00291  -0.00100   0.08478
  37        2S         -0.03532   0.10130   0.00096  -0.00074   0.09447
  38        3S         -0.00071   0.04056  -0.00318  -0.00005   0.00583
                          26        27        28        29        30
  26        3PX         0.20031
  27        3PY        -0.00241   0.19760
  28        3PZ         0.00007   0.00009   0.16457
  29        4S          0.02491   0.04220   0.00066   0.18623
  30        4PX         0.11472  -0.01075   0.00059   0.01525   0.06679
  31        4PY        -0.01077   0.10181   0.00110   0.02497  -0.01060
  32        4PZ         0.00083   0.00149   0.15335   0.00165   0.00095
  33 5   H  1S         -0.05341   0.09966  -0.00175   0.06680  -0.03463
  34        2S         -0.08023   0.13818  -0.00139   0.07699  -0.05242
  35        3S         -0.03722   0.05170  -0.00013   0.00922  -0.02446
  36 6   H  1S          0.11254   0.00384  -0.00166   0.06714   0.06592
  37        2S          0.15976  -0.00018  -0.00125   0.07819   0.09406
  38        3S          0.06365  -0.00644  -0.00008   0.00988   0.03784
                          31        32        33        34        35
  31        4PY         0.05401
  32        4PZ         0.00177   0.14291
  33 5   H  1S          0.05599  -0.00091   0.08076
  34        2S          0.07778  -0.00038   0.11004   0.15240
  35        3S          0.02926   0.00013   0.03821   0.05550   0.02304
  36 6   H  1S         -0.00186  -0.00087  -0.01238  -0.02611  -0.02011
  37        2S         -0.00637  -0.00031  -0.02620  -0.04867  -0.03193
  38        3S         -0.00653   0.00015  -0.02027  -0.03203  -0.01584
                          36        37        38
  36 6   H  1S          0.08016
  37        2S          0.10975   0.15268
  38        3S          0.03828   0.05581   0.02322
    Full Mulliken population analysis:
                           1         2         3         4         5
   1 1   C  1S          0.65940
   2        2S          0.49325   0.49199
   3        2PX         0.00000   0.00000   0.08436
   4        2PY         0.00000   0.00000   0.00000   0.08782
   5        2PZ         0.00000   0.00000   0.00000   0.00000   0.06445
   6        3S         -0.02926  -0.06441   0.00000   0.00000   0.00000
   7        3PX         0.00000   0.00000   0.08217   0.00000   0.00000
   8        3PY         0.00000   0.00000   0.00000   0.08258   0.00000
   9        3PZ         0.00000   0.00000   0.00000   0.00000   0.06522
  10        4S         -0.01219  -0.02137   0.00000   0.00000   0.00000
  11        4PX         0.00000   0.00000   0.01545   0.00000   0.00000
  12        4PY         0.00000   0.00000   0.00000   0.01439   0.00000
  13        4PZ         0.00000   0.00000   0.00000   0.00000   0.02111
  14 2   H  1S         -0.00023  -0.00033   0.00183   0.00563   0.00000
  15        2S         -0.00168  -0.00321   0.00432   0.01319   0.00000
  16        3S          0.00004  -0.00007   0.00069   0.00190   0.00000
  17 3   H  1S         -0.00025  -0.00037   0.00788  -0.00000   0.00000
  18        2S         -0.00174  -0.00333   0.01772  -0.00000   0.00000
  19        3S          0.00005  -0.00007   0.00255   0.00000   0.00000
  20 4   C  1S          0.00000   0.00000  -0.00002  -0.00006   0.00000
  21        2S          0.00000  -0.00000  -0.00002  -0.00006   0.00000
  22        2PX        -0.00002  -0.00002   0.00011   0.00086   0.00000
  23        2PY        -0.00006  -0.00005   0.00086   0.00197   0.00000
  24        2PZ        -0.00000  -0.00000  -0.00000  -0.00000   0.00042
  25        3S         -0.00059  -0.00100   0.00256   0.00768  -0.00000
  26        3PX        -0.00054  -0.00099   0.00019   0.00555   0.00000
  27        3PY        -0.00163  -0.00299   0.00555   0.01071   0.00000
  28        3PZ        -0.00000  -0.00000  -0.00000  -0.00000   0.00613
  29        4S          0.00034   0.00030   0.00096   0.00291  -0.00000
  30        4PX        -0.00018  -0.00045  -0.00071   0.00146   0.00000
  31        4PY        -0.00053  -0.00134   0.00146   0.00097   0.00000
  32        4PZ        -0.00000  -0.00000  -0.00000  -0.00000   0.00904
  33 5   H  1S          0.00000   0.00000  -0.00000  -0.00000   0.00000
  34        2S          0.00001   0.00002   0.00000  -0.00031   0.00000
  35        3S          0.00007   0.00013   0.00001  -0.00070  -0.00000
  36 6   H  1S          0.00000   0.00000  -0.00000  -0.00000   0.00000
  37        2S          0.00001   0.00002  -0.00023  -0.00007   0.00000
  38        3S          0.00007   0.00012  -0.00056  -0.00011  -0.00000
                           6         7         8         9        10
   6        3S          0.45240
   7        3PX         0.00000   0.20254
   8        3PY         0.00000   0.00000   0.19669
   9        3PZ         0.00000   0.00000   0.00000   0.16674
  10        4S          0.21141   0.00000   0.00000   0.00000   0.18196
  11        4PX         0.00000   0.07129   0.00000   0.00000   0.00000
  12        4PY         0.00000   0.00000   0.06427   0.00000   0.00000
  13        4PZ         0.00000   0.00000   0.00000   0.10072   0.00000
  14 2   H  1S          0.01616   0.01086   0.03237   0.00001   0.01838
  15        2S          0.04140   0.01962   0.05750   0.00001   0.04725
  16        3S          0.00284   0.00395   0.01017   0.00000   0.00852
  17 3   H  1S          0.01696   0.04427  -0.00000   0.00002   0.01854
  18        2S          0.04255   0.07724  -0.00000   0.00002   0.04690
  19        3S          0.00290   0.01385   0.00000   0.00000   0.00790
  20 4   C  1S         -0.00060  -0.00058  -0.00173   0.00000   0.00032
  21        2S         -0.00101  -0.00106  -0.00319   0.00000   0.00029
  22        2PX         0.00242   0.00019   0.00551   0.00000   0.00078
  23        2PY         0.00730   0.00553   0.01063   0.00000   0.00237
  24        2PZ         0.00000  -0.00000  -0.00000   0.00616   0.00000
  25        3S          0.02184   0.01349   0.04052  -0.00000   0.00038
  26        3PX         0.01252  -0.00127   0.01849   0.00000   0.00394
  27        3PY         0.03778   0.01851   0.02848   0.00000   0.01191
  28        3PZ         0.00000  -0.00000  -0.00000   0.03536   0.00000
  29        4S          0.00075   0.00496   0.01504  -0.00000  -0.02025
  30        4PX         0.00630  -0.00401   0.00585   0.00000   0.00187
  31        4PY         0.01881   0.00587   0.00124   0.00000   0.00539
  32        4PZ         0.00000  -0.00000  -0.00000   0.04935   0.00000
  33 5   H  1S         -0.00005  -0.00000  -0.00019   0.00000  -0.00077
  34        2S         -0.00119   0.00006  -0.00319  -0.00000  -0.00316
  35        3S         -0.00195   0.00011  -0.00423  -0.00000  -0.00121
  36 6   H  1S         -0.00005  -0.00012  -0.00005   0.00000  -0.00077
  37        2S         -0.00115  -0.00253  -0.00051  -0.00000  -0.00318
  38        3S         -0.00190  -0.00351  -0.00054  -0.00000  -0.00131
                          11        12        13        14        15
  11        4PX         0.05983
  12        4PY         0.00000   0.05071
  13        4PZ         0.00000   0.00000   0.14251
  14 2   H  1S          0.00634   0.01741   0.00001   0.08134
  15        2S          0.01533   0.04056   0.00000   0.07733   0.14939
  16        3S          0.00520   0.01174  -0.00000   0.01366   0.04112
  17 3   H  1S          0.02360   0.00000   0.00001  -0.00001  -0.00064
  18        2S          0.05491   0.00000   0.00001  -0.00064  -0.00524
  19        3S          0.01642   0.00000  -0.00000  -0.00198  -0.00781
  20 4   C  1S         -0.00019  -0.00058   0.00000   0.00000   0.00002
  21        2S         -0.00047  -0.00145   0.00000   0.00000   0.00003
  22        2PX        -0.00072   0.00137   0.00000  -0.00000   0.00000
  23        2PY         0.00138   0.00094   0.00000  -0.00000  -0.00036
  24        2PZ        -0.00000  -0.00000   0.00901   0.00000   0.00000
  25        3S          0.00658   0.02019  -0.00000  -0.00007  -0.00151
  26        3PX        -0.00421   0.00555   0.00000  -0.00000   0.00004
  27        3PY         0.00557   0.00123   0.00000  -0.00023  -0.00359
  28        3PZ        -0.00000  -0.00000   0.04896   0.00000   0.00000
  29        4S          0.00257   0.00824  -0.00000  -0.00106  -0.00444
  30        4PX        -0.00718   0.00312   0.00000   0.00001   0.00017
  31        4PY         0.00314  -0.00562   0.00000  -0.00245  -0.01035
  32        4PZ        -0.00000  -0.00000   0.08964   0.00000  -0.00000
  33 5   H  1S          0.00003  -0.00232   0.00000   0.00000   0.00000
  34        2S          0.00028  -0.00980  -0.00000   0.00000   0.00016
  35        3S          0.00029  -0.00727  -0.00000   0.00023   0.00147
  36 6   H  1S         -0.00176  -0.00048   0.00000  -0.00000  -0.00004
  37        2S         -0.00828  -0.00102  -0.00000  -0.00004  -0.00091
  38        3S         -0.00655  -0.00027  -0.00000  -0.00046  -0.00246
                          16        17        18        19        20
  16        3S          0.02082
  17 3   H  1S         -0.00200   0.08239
  18        2S         -0.00785   0.07752   0.14827
  19        3S         -0.00656   0.01347   0.04020   0.02012
  20 4   C  1S          0.00009   0.00000   0.00002   0.00009   0.65948
  21        2S          0.00016   0.00000   0.00003   0.00016   0.49332
  22        2PX         0.00001  -0.00000  -0.00028  -0.00059   0.00000
  23        2PY        -0.00074  -0.00000  -0.00008  -0.00013   0.00000
  24        2PZ        -0.00000   0.00000   0.00000  -0.00000   0.00000
  25        3S         -0.00248  -0.00007  -0.00153  -0.00248  -0.02939
  26        3PX         0.00006  -0.00016  -0.00292  -0.00367   0.00000
  27        3PY        -0.00446  -0.00007  -0.00066  -0.00067   0.00000
  28        3PZ        -0.00000   0.00000   0.00000  -0.00000   0.00000
  29        4S         -0.00226  -0.00105  -0.00437  -0.00214  -0.01232
  30        4PX         0.00018  -0.00188  -0.00875  -0.00676   0.00000
  31        4PY        -0.00758  -0.00057  -0.00138  -0.00051   0.00000
  32        4PZ        -0.00000   0.00000  -0.00000  -0.00000   0.00000
  33 5   H  1S          0.00023  -0.00000  -0.00004  -0.00043  -0.00021
  34        2S          0.00144  -0.00004  -0.00092  -0.00236  -0.00158
  35        3S          0.00247  -0.00046  -0.00246  -0.00288   0.00005
  36 6   H  1S         -0.00043   0.00000   0.00000   0.00022  -0.00020
  37        2S         -0.00239   0.00000   0.00015   0.00141  -0.00156
  38        3S         -0.00292   0.00023   0.00145   0.00243   0.00004
                          21        22        23        24        25
  21        2S          0.49209
  22        2PX         0.00000   0.08275
  23        2PY         0.00000   0.00000   0.08759
  24        2PZ         0.00000   0.00000   0.00000   0.06424
  25        3S         -0.06462   0.00000   0.00000   0.00000   0.45383
  26        3PX         0.00000   0.08093   0.00000   0.00000   0.00000
  27        3PY         0.00000   0.00000   0.08265   0.00000   0.00000
  28        3PZ         0.00000   0.00000   0.00000   0.06469   0.00000
  29        4S         -0.02166   0.00000   0.00000   0.00000   0.21565
  30        4PX         0.00000   0.01616   0.00000   0.00000   0.00000
  31        4PY         0.00000   0.00000   0.01482   0.00000   0.00000
  32        4PZ         0.00000   0.00000   0.00000   0.02110   0.00000
  33 5   H  1S         -0.00030   0.00147   0.00566   0.00000   0.01532
  34        2S         -0.00302   0.00382   0.01366   0.00000   0.03920
  35        3S         -0.00006   0.00068   0.00201   0.00000   0.00256
  36 6   H  1S         -0.00029   0.00689   0.00002   0.00000   0.01496
  37        2S         -0.00298   0.01729   0.00001   0.00000   0.03889
  38        3S         -0.00007   0.00271  -0.00001   0.00000   0.00266
                          26        27        28        29        30
  26        3PX         0.20031
  27        3PY         0.00000   0.19760
  28        3PZ         0.00000   0.00000   0.16457
  29        4S          0.00000   0.00000   0.00000   0.18623
  30        4PX         0.07497   0.00000   0.00000   0.00000   0.06679
  31        4PY         0.00000   0.06653   0.00000   0.00000   0.00000
  32        4PZ         0.00000   0.00000   0.10021   0.00000   0.00000
  33 5   H  1S          0.00888   0.03349   0.00002   0.01751   0.00574
  34        2S          0.01728   0.06015   0.00002   0.04408   0.01466
  35        3S          0.00385   0.01081   0.00000   0.00693   0.00537
  36 6   H  1S          0.04164   0.00010   0.00001   0.01750   0.02457
  37        2S          0.07712  -0.00001   0.00001   0.04456   0.05922
  38        3S          0.01483  -0.00010   0.00000   0.00741   0.01876
                          31        32        33        34        35
  31        4PY         0.05401
  32        4PZ         0.00000   0.14291
  33 5   H  1S          0.01876   0.00001   0.08076
  34        2S          0.04397   0.00001   0.07773   0.15240
  35        3S          0.01300  -0.00000   0.01428   0.04378   0.02304
  36 6   H  1S         -0.00005   0.00001  -0.00001  -0.00081  -0.00238
  37        2S         -0.00028   0.00000  -0.00081  -0.00677  -0.00978
  38        3S         -0.00022  -0.00000  -0.00240  -0.00981  -0.00851
                          36        37        38
  36 6   H  1S          0.08016
  37        2S          0.07752   0.15268
  38        3S          0.01430   0.04403   0.02322
     Gross orbital populations:
                           1
   1 1   C  1S          1.10435
   2        2S          0.88586
   3        2PX         0.22713
   4        2PY         0.23633
   5        2PZ         0.16637
   6        3S          0.79277
   7        3PX         0.56143
   8        3PY         0.55572
   9        3PZ         0.42362
  10        4S          0.50391
  11        4PX         0.25884
  12        4PY         0.21091
  13        4PZ         0.41197
  14 2   H  1S          0.27410
  15        2S          0.46664
  16        3S          0.08555
  17 3   H  1S          0.27732
  18        2S          0.46483
  19        3S          0.08275
  20 4   C  1S          1.10441
  21        2S          0.88584
  22        2PX         0.22232
  23        2PY         0.23596
  24        2PZ         0.16563
  25        3S          0.79257
  26        3PX         0.55238
  27        3PY         0.55667
  28        3PZ         0.41998
  29        4S          0.50638
  30        4PX         0.27529
  31        4PY         0.21710
  32        4PZ         0.41226
  33 5   H  1S          0.27234
  34        2S          0.46976
  35        3S          0.08926
  36 6   H  1S          0.27046
  37        2S          0.47046
  38        3S          0.09052
          Condensed to atoms (all electrons):
               1          2          3          4          5          6
     1  C    5.030666   0.387731   0.388531   0.602341  -0.035328  -0.034728
     2  H    0.387731   0.515759  -0.032720  -0.040832   0.005997  -0.009650
     3  H    0.388531  -0.032720   0.513186  -0.040409  -0.009594   0.005906
     4  C    0.602341  -0.040832  -0.040409   5.058476   0.383788   0.383431
     5  H   -0.035328   0.005997  -0.009594   0.383788   0.527781  -0.041285
     6  H   -0.034728  -0.009650   0.005906   0.383431  -0.041285   0.527778
 Mulliken charges:
               1
     1  C   -0.339213
     2  H    0.173715
     3  H    0.175100
     4  C   -0.346794
     5  H    0.168642
     6  H    0.168549
 Sum of Mulliken charges =   0.00000
 Mulliken charges with hydrogens summed into heavy atoms:
               1
     1  C    0.009603
     4  C   -0.009603
 Electronic spatial extent (au):  <R**2>=             83.6870
 Charge=             -0.0000 electrons
 Dipole moment (field-independent basis, Debye):
    X=              0.0054    Y=              0.0237    Z=             -0.0872  Tot=              0.0905
 Quadrupole moment (field-independent basis, Debye-Ang):
   XX=            -12.2054   YY=            -12.2153   ZZ=            -15.6678
   XY=              0.0174   XZ=             -0.0010   YZ=             -0.0037
 Traceless Quadrupole moment (field-independent basis, Debye-Ang):
   XX=              1.1574   YY=              1.1475   ZZ=             -2.3050
   XY=              0.0174   XZ=             -0.0010   YZ=             -0.0037
 Octapole moment (field-independent basis, Debye-Ang**2):
  XXX=             -0.3587  YYY=             -0.0490  ZZZ=             -0.0598  XYY=              0.2315
  XXY=             -0.0224  XXZ=             -0.1186  XZZ=             -0.0869  YZZ=             -0.0893
  YYZ=             -0.1558  XYZ=             -0.0324
 Hexadecapole moment (field-independent basis, Debye-Ang**3):
 XXXX=            -34.2699 YYYY=            -55.1891 ZZZZ=            -17.8007 XXXY=             -7.2406
 XXXZ=              0.0175 YYYX=            -10.6853 YYYZ=              0.0239 ZZZX=              0.0230
 ZZZY=              0.0415 XXYY=            -16.1824 XXZZ=             -9.9190 YYZZ=            -13.6411
 XXYZ=              0.0085 YYXZ=              0.0007 ZZXY=             -3.2011
 N-N= 3.308024156990D+01 E-N=-2.478731748448D+02  KE= 7.815536010480D+01
 Orbital energies and kinetic energies (alpha):
                                 1                 2
   1         O               -10.290133         15.978256
   2         O               -10.287934         15.979982
   3         O                -0.864002          1.539369
   4         O                -0.672314          1.270935
   5         O                -0.559483          0.942272
   6         O                -0.509559          1.284771
   7         O                -0.436231          1.043384
   8         O                -0.356998          1.038711
   9         V                 0.080016          1.181760
  10         V                 0.141025          0.588727
  11         V                 0.164701          0.595014
  12         V                 0.170119          0.679460
  13         V                 0.240825          0.583183
  14         V                 0.372851          0.848228
  15         V                 0.393258          0.933981
  16         V                 0.400250          0.785585
  17         V                 0.463812          1.193558
  18         V                 0.488734          1.418615
  19         V                 0.493702          1.301297
  20         V                 0.591134          1.652972
  21         V                 0.665596          1.571190
  22         V                 0.691416          2.148208
  23         V                 0.772782          2.442544
  24         V                 0.775772          2.298953
  25         V                 0.842968          1.085464
  26         V                 0.952641          3.429229
  27         V                 2.231250          3.927443
  28         V                 2.290314          4.028736
  29         V                 2.333070          4.304467
  30         V                 2.407198          4.518478
  31         V                 2.671308          6.301256
  32         V                 2.817841          6.306375
  33         V                 2.877916          6.137464
  34         V                 2.951584          6.226617
  35         V                 3.141699          6.820870
  36         V                 3.319794          6.401787
  37         V                23.352244         60.074288
  38         V                23.706580         60.204295
 Total kinetic energy from orbitals= 7.815536010480D+01
 Calling FoFJK, ICntrl=      2127 FMM=F ISym2X=0 I1Cent= 0 IOpClX= 0 NMat=1 NMatS=1 NMatT=0.
 -------------------------------------------------------------------
 Center     Atomic                   Forces (Hartrees/Bohr)
 Number     Number              X              Y              Z
 -------------------------------------------------------------------
      1        6           0.012897343    0.009313761   -0.003492823
      2        1          -0.009593651    0.005042901    0.001748890
      3        1           0.002714264   -0.005327220    0.001616898
      4        6           0.009064476    0.011712734   -0.003844357
      5        1           0.001439574   -0.014200178    0.001951654
      6        1          -0.016522007   -0.006541997    0.002019739
 -------------------------------------------------------------------
 Cartesian Forces:  Max     0.016522007 RMS     0.008116129

 GradGradGradGradGradGradGradGradGradGradGradGradGradGradGradGradGradGrad
 Berny optimization.
 Search for a local minimum.
 Step number   1 out of a maximum of    2
 All quantities printed in internal units (Hartrees-Bohrs-Radians)
 Second derivative matrix not updated -- first step.
 The second derivative matrix:
                          X1        Y1        Z1        X2        Y2
           X1           0.76085
           Y1           0.09626   0.86001
           Z1           0.00496   0.00772   0.17103
           X2          -0.16583   0.09721   0.00186   0.14304
           Y2           0.10301  -0.28353  -0.00661  -0.11643   0.27225
           Z2           0.00294  -0.00830  -0.05498  -0.00269   0.00683
           X3          -0.35257   0.00019  -0.00714  -0.00001  -0.00000
           Y3          -0.00549  -0.11036  -0.00173   0.03239   0.01903
           Z3          -0.00915  -0.00166  -0.05594   0.00135   0.00051
           X4          -0.26778  -0.17902  -0.00060   0.02281   0.01341
           Y4          -0.17937  -0.47445  -0.00099  -0.01317  -0.00775
           Z4           0.00123   0.00220  -0.09476  -0.00053  -0.00074
           X5           0.02352  -0.01359   0.00056  -0.00001   0.00000
           Y5           0.01162  -0.00671   0.00076   0.00000  -0.00000
           Z5          -0.00046   0.00029   0.01752   0.00023  -0.00012
           X6           0.00181  -0.00104   0.00035  -0.00001   0.00000
           Y6          -0.02604   0.01504   0.00084   0.00000  -0.00000
           Z6           0.00048  -0.00025   0.01715  -0.00023   0.00012
                          Z2        X3        Y3        Z3        X4
           Z2           0.02859
           X3          -0.00025   0.35260
           Y3           0.00145  -0.00019   0.07591
           Z3           0.01057   0.00778   0.00114   0.02932
           X4           0.00046  -0.00001  -0.02671  -0.00044   0.71273
           Y4          -0.00024   0.00000   0.01543   0.00028   0.12439
           Z4           0.01581  -0.00039  -0.00086   0.01607  -0.00478
           X5          -0.00022  -0.00001   0.00000   0.00023  -0.14510
           Y5           0.00014   0.00000  -0.00000  -0.00015   0.09175
           Z5           0.00930   0.00023  -0.00015  -0.00943  -0.00276
           X6          -0.00023  -0.00001   0.00000   0.00023  -0.32266
           Y6           0.00012   0.00000  -0.00000  -0.00012  -0.02382
           Z6          -0.00928  -0.00023   0.00015   0.00941   0.00811
                          Y4        Z4        X5        Y5        Z5
           Y4           0.86086
           Z4          -0.00895   0.17735
           X5           0.08327  -0.00181   0.12386
           Y5          -0.28929   0.00659  -0.10226   0.27993
           Z5           0.00817  -0.05739   0.00244  -0.00704   0.02977
           X6          -0.01512   0.00628  -0.00228  -0.00112   0.00032
           Y6          -0.10480   0.00175   0.03257   0.01608  -0.00116
           Z6           0.00173  -0.05709  -0.00119  -0.00031   0.01023
                          X6        Y6        Z6
           X6           0.32314
           Y6           0.01727   0.07368
           Z6          -0.00696  -0.00143   0.02958
 ITU=  0
     Eigenvalues ---    0.03745   0.04384   0.09290   0.10028   0.13534
     Eigenvalues ---    0.17450   0.26520   0.29042   0.52926   0.70034
     Eigenvalues ---    0.97581   1.56656
 Angle between quadratic step and forces=  34.18 degrees.
 Linear search not attempted -- first point.
 B after Tr=     0.006629    0.008631   -0.008936
         Rot=    1.000000   -0.000040    0.000022   -0.000110 Ang=  -0.01 deg.
 Variable       Old X    -DE/DX   Delta X   Delta X   Delta X     New X
                                 (Linear)    (Quad)   (Total)
    X1       -0.63523   0.01290   0.00000   0.02032   0.02719  -0.60804
    Y1       -1.09984   0.00931   0.00000   0.02487   0.03337  -1.06648
    Z1        0.01160  -0.00349   0.00000  -0.01901  -0.02806  -0.01646
    X2        0.41540  -0.00959   0.00000  -0.03801  -0.03075   0.38464
    Y2       -2.88470   0.00504   0.00000   0.02088   0.02960  -2.85510
    Z2       -0.03649   0.00175   0.00000   0.02327   0.01413  -0.02236
    X3       -2.68688   0.00271   0.00000   0.02710   0.03398  -2.65290
    Y3       -1.09860  -0.00533   0.00000  -0.02262  -0.01458  -1.11318
    Z3       -0.03773   0.00162   0.00000   0.02285   0.01371  -0.02402
    X4        0.62874   0.00906   0.00000   0.00710   0.01349   0.64222
    Y4        1.08865   0.01171   0.00000   0.01088   0.01965   1.10830
    Z4        0.00824  -0.00384   0.00000  -0.01796  -0.02679  -0.01855
    X5       -0.29738   0.00144   0.00000  -0.01546  -0.00947  -0.30685
    Y5        2.96075  -0.01420   0.00000  -0.04443  -0.03587   2.92488
    Z5       -0.04304   0.00195   0.00000   0.02244   0.01372  -0.02931
    X6        2.72344  -0.01652   0.00000  -0.04080  -0.03443   2.68901
    Y6        1.23321  -0.00654   0.00000  -0.04140  -0.03217   1.20103
    Z6       -0.04186   0.00202   0.00000   0.02201   0.01329  -0.02858
         Item               Value     Threshold  Converged?
 Maximum Force            0.016522     0.000450     NO 
 RMS     Force            0.008116     0.000300     NO 
 Maximum Displacement     0.035868     0.001800     NO 
 RMS     Displacement     0.025235     0.001200     NO 
 Predicted change in Energy=-1.602192D-03
 GradGradGradGradGradGradGradGradGradGradGradGradGradGradGradGradGradGrad

 Unable to Open any file for archive entry.
 1\1\GINC-BHD0011\Force\RwB97XD\6-311G\C2H4\BWEIGHT\11-Jan-2023\0\\# WB
 97XD/6-311G SCF=XQC FORCE nosym pop=full guess=read\\MD Step 999\\0,1\
 C,-0.33614873,-0.58201278,0.00613689\H,0.21981763,-1.52651634,-0.01930
 813\H,-1.42183566,-0.58135546,-0.01996716\C,0.33271394,0.57608825,0.00
 43596\H,-0.15736501,1.56675916,-0.0227741\H,1.44118363,0.65258472,-0.0
 2215168\\Version=ES64L-G16RevC.01\HF=-78.5556395\RMSD=8.048e-09\RMSF=8
 .116e-03\Dipole=0.0021073,0.0093357,-0.0343117\Quadrupole=0.860517,0.8
 531679,-1.7136849,0.012929,-0.000714,-0.0027184\PG=C01 [X(C2H4)]\\@
 The archive entry for this job was punched.


 MOST BUREAUCRACIES FUNCTION LIKE A SEPTIC TANK.
 THE LARGE CHUNKS RISE TO THE TOP.
 Job cpu time:       0 days  0 hours  0 minutes 14.8 seconds.
 Elapsed time:       0 days  0 hours  0 minutes  4.5 seconds.
 File lengths (MBytes):  RWF=    272 Int=      0 D2E=      0 Chk=     32 Scr=     32
 Normal termination of Gaussian 16 at Wed Jan 11 18:50:21 2023.
