 Entering Gaussian System, Link 0=g16
 Initial command:
 /software/gaussian/g16-c01/avx2/g16/l1.exe "/gpfs/fs2/scratch/bweight/software/many_molecule_many_mode_NAMD/src/ELECTRONIC_STRUCTURE_INPUT/EXAMPLE/G16/TD_NEW_S1/Gau-49579.inp" -scrdir="/gpfs/fs2/scratch/bweight/software/many_molecule_many_mode_NAMD/src/ELECTRONIC_STRUCTURE_INPUT/EXAMPLE/G16/TD_NEW_S1/"
 Entering Link 1 = /software/gaussian/g16-c01/avx2/g16/l1.exe PID=     49612.
  
 Copyright (c) 1988-2019, Gaussian, Inc.  All Rights Reserved.
  
 This is part of the Gaussian(R) 16 program.  It is based on
 the Gaussian(R) 09 system (copyright 2009, Gaussian, Inc.),
 the Gaussian(R) 03 system (copyright 2003, Gaussian, Inc.),
 the Gaussian(R) 98 system (copyright 1998, Gaussian, Inc.),
 the Gaussian(R) 94 system (copyright 1995, Gaussian, Inc.),
 the Gaussian 92(TM) system (copyright 1992, Gaussian, Inc.),
 the Gaussian 90(TM) system (copyright 1990, Gaussian, Inc.),
 the Gaussian 88(TM) system (copyright 1988, Gaussian, Inc.),
 the Gaussian 86(TM) system (copyright 1986, Carnegie Mellon
 University), and the Gaussian 82(TM) system (copyright 1983,
 Carnegie Mellon University). Gaussian is a federally registered
 trademark of Gaussian, Inc.
  
 This software contains proprietary and confidential information,
 including trade secrets, belonging to Gaussian, Inc.
  
 This software is provided under written license and may be
 used, copied, transmitted, or stored only in accord with that
 written license.
  
 The following legend is applicable only to US Government
 contracts under FAR:
  
                    RESTRICTED RIGHTS LEGEND
  
 Use, reproduction and disclosure by the US Government is
 subject to restrictions as set forth in subparagraphs (a)
 and (c) of the Commercial Computer Software - Restricted
 Rights clause in FAR 52.227-19.
  
 Gaussian, Inc.
 340 Quinnipiac St., Bldg. 40, Wallingford CT 06492
  
  
 ---------------------------------------------------------------
 Warning -- This program may not be used in any manner that
 competes with the business of Gaussian, Inc. or will provide
 assistance to any competitor of Gaussian, Inc.  The licensee
 of this program is prohibited from giving any competitor of
 Gaussian, Inc. access to this program.  By using this program,
 the user acknowledges that Gaussian, Inc. is engaged in the
 business of creating and licensing software in the field of
 computational chemistry and represents and warrants to the
 licensee that it is not a competitor of Gaussian, Inc. and that
 it will not use this program in any manner prohibited above.
 ---------------------------------------------------------------
  

 Cite this work as:
 Gaussian 16, Revision C.01,
 M. J. Frisch, G. W. Trucks, H. B. Schlegel, G. E. Scuseria, 
 M. A. Robb, J. R. Cheeseman, G. Scalmani, V. Barone, 
 G. A. Petersson, H. Nakatsuji, X. Li, M. Caricato, A. V. Marenich, 
 J. Bloino, B. G. Janesko, R. Gomperts, B. Mennucci, H. P. Hratchian, 
 J. V. Ortiz, A. F. Izmaylov, J. L. Sonnenberg, D. Williams-Young, 
 F. Ding, F. Lipparini, F. Egidi, J. Goings, B. Peng, A. Petrone, 
 T. Henderson, D. Ranasinghe, V. G. Zakrzewski, J. Gao, N. Rega, 
 G. Zheng, W. Liang, M. Hada, M. Ehara, K. Toyota, R. Fukuda, 
 J. Hasegawa, M. Ishida, T. Nakajima, Y. Honda, O. Kitao, H. Nakai, 
 T. Vreven, K. Throssell, J. A. Montgomery, Jr., J. E. Peralta, 
 F. Ogliaro, M. J. Bearpark, J. J. Heyd, E. N. Brothers, K. N. Kudin, 
 V. N. Staroverov, T. A. Keith, R. Kobayashi, J. Normand, 
 K. Raghavachari, A. P. Rendell, J. C. Burant, S. S. Iyengar, 
 J. Tomasi, M. Cossi, J. M. Millam, M. Klene, C. Adamo, R. Cammi, 
 J. W. Ochterski, R. L. Martin, K. Morokuma, O. Farkas, 
 J. B. Foresman, and D. J. Fox, Gaussian, Inc., Wallingford CT, 2019.
 
 ******************************************
 Gaussian 16:  ES64L-G16RevC.01  3-Jul-2019
                27-Dec-2022 
 ******************************************
 %oldchk=../GS_NEW/geometry.chk
 %chk=geometry.chk
 %nprocshared=1
 Will use up to    1 processors via shared memory.
 %mem=5GB
 Copying data from "../GS_NEW/geometry.chk" to current chk file "geometry.chk"
 IOpt=  2 FromEx=T IUOpen= 4 IOptOp= 5 NList=   0 IFRang= 0 IUIn= 4 IUOut= 2.
 ----------------------------------------------------------------------
 # BPL/sto-3g TD=(singlets,nstates=4,root=1) FORCE nosym pop=full guess
 =read
 ----------------------------------------------------------------------
 1/10=7,30=1,38=1/1,3;
 2/12=2,15=1,17=6,18=5,40=1/2;
 3/6=3,11=9,25=1,30=1,71=1,74=403,116=-2/1,2,3,8;
 4/5=1/1;
 5/5=2,38=6/2;
 8/6=1,10=1,107=1,108=4/1;
 9/8=1,15=2,41=4,42=1,48=1,70=2/14;
 10/5=4,28=1,31=1/2;
 6/7=3,18=1/1;
 7/12=6,13=5,14=1,29=1,30=1/1,2,3,16;
 1/10=7,30=1/3;
 99//99;
 ---------
 MD Step 1
 ---------
 Symbolic Z-matrix:
 Charge =  0 Multiplicity = 1
 C                    -1.59611  -0.22883   0. 
 C                    -0.20095  -0.22883   0. 
 C                     0.49659   0.97892   0. 
 C                    -0.20107   2.18743  -0.0012 
 C                    -1.59589   2.18735  -0.00168 
 C                    -2.29349   0.97914  -0.00068 
 H                    -2.14587  -1.18115   0.00045 
 H                     0.34856  -1.18135   0.00132 
 H                     1.59627   0.979     0.00063 
 H                     0.34913   3.13957  -0.00126 
 H                    -2.14601   3.13963  -0.00263 
 H                    -3.3931    0.97933  -0.00086 
 

 GradGradGradGradGradGradGradGradGradGradGradGradGradGradGradGradGradGrad
 Berny optimization.
 Initialization pass.
 Trust Radius=3.00D-01 FncErr=1.00D-07 GrdErr=1.00D-07 EigMax=2.50D+02 EigMin=1.00D-04
 Number of steps in this run=      2 maximum allowed number of steps=      2.
 GradGradGradGradGradGradGradGradGradGradGradGradGradGradGradGradGradGrad

                          Input orientation:                          
 ---------------------------------------------------------------------
 Center     Atomic      Atomic             Coordinates (Angstroms)
 Number     Number       Type             X           Y           Z
 ---------------------------------------------------------------------
      1          6           0       -1.596110   -0.228833    0.000000
      2          6           0       -0.200950   -0.228833    0.000000
      3          6           0        0.496588    0.978918    0.000000
      4          6           0       -0.201066    2.187427   -0.001199
      5          6           0       -1.595891    2.187349   -0.001678
      6          6           0       -2.293492    0.979143   -0.000682
      7          1           0       -2.145869   -1.181150    0.000450
      8          1           0        0.348558   -1.181346    0.001315
      9          1           0        1.596268    0.978998    0.000634
     10          1           0        0.349134    3.139570   -0.001258
     11          1           0       -2.146013    3.139630   -0.002631
     12          1           0       -3.393096    0.979326   -0.000862
 ---------------------------------------------------------------------
                    Distance matrix (angstroms):
                    1          2          3          4          5
     1  C    0.000000
     2  C    1.395160   0.000000
     3  C    2.416205   1.394712   0.000000
     4  C    2.790065   2.416260   1.395427   0.000000
     5  C    2.416183   2.789946   2.416356   1.394825   0.000000
     6  C    1.394829   2.416183   2.790080   2.416236   1.395138
     7  H    1.099610   2.165553   3.412986   3.889675   3.413102
     8  H    2.165414   1.099655   2.165330   3.413316   3.889601
     9  H    3.413229   2.165375   1.099680   2.165806   3.413209
    10  H    3.889745   3.413024   2.165678   1.099680   2.165606
    11  H    3.413055   3.889707   3.413506   2.165528   1.099761
    12  H    2.165365   3.413128   3.889684   3.412999   2.165471
                    6          7          8          9         10
     6  C    0.000000
     7  H    2.165331   0.000000
     8  H    3.412938   2.494427   0.000000
     9  H    3.889760   4.320860   2.494768   0.000000
    10  H    3.413344   4.989355   4.320917   2.494678   0.000000
    11  H    2.165516   4.320781   4.989362   4.321228   2.495147
    12  H    1.099604   2.494641   4.320704   4.989364   4.320988
                   11         12
    11  H    0.000000
    12  H    2.494420   0.000000
 Symmetry turned off by external request.
 Stoichiometry    C6H6
 Framework group  C1[X(C6H6)]
 Deg. of freedom    30
 Full point group                 C1      NOp   1
 Rotational constants (GHZ):           5.6865650           5.6862640           2.8432074
 Standard basis: STO-3G (5D, 7F)
    36 basis functions,   108 primitive gaussians,    36 cartesian basis functions
    21 alpha electrons       21 beta electrons
       nuclear repulsion energy       203.0307491037 Hartrees.
 NAtoms=   12 NActive=   12 NUniq=   12 SFac= 1.00D+00 NAtFMM=   60 NAOKFM=F Big=F
 Integral buffers will be    131072 words long.
 Regular integral format.
 Two-electron integral symmetry is turned off.
 One-electron integrals computed using PRISM.
 NBasis=    36 RedAO= T EigKep=  1.72D-01  NBF=    36
 NBsUse=    36 1.00D-06 EigRej= -1.00D+00 NBFU=    36
 Initial guess from the checkpoint file:  "geometry.chk"
 B after Tr=     0.000000    0.000000    0.000000
         Rot=    1.000000    0.000000    0.000000    0.000000 Ang=   0.00 deg.
 Keep J ints in memory in canonical form, NReq=1087304.
 Requested convergence on RMS density matrix=1.00D-08 within 128 cycles.
 Requested convergence on MAX density matrix=1.00D-06.
 Requested convergence on             energy=1.00D-06.
 No special actions if energy rises.
 SCF Done:  E(RB-P81) =  -230.559572489     A.U. after    1 cycles
            NFock=  1  Conv=0.44D-08     -V/T= 2.0221
 DoSCS=F DFT=T ScalE2(SS,OS)=  1.000000  1.000000
 ExpMin= 1.69D-01 ExpMax= 7.16D+01 ExpMxC= 7.16D+01 IAcc=3 IRadAn=         5 AccDes= 0.00D+00
 HarFok:  IExCor=  205 AccDes= 0.00D+00 IRadAn=         5 IDoV=-2 UseB2=F ITyADJ=14
 ICtDFT= 12500011 ScaDFX=  1.000000  1.000000  1.000000  1.000000
 Range of M.O.s used for correlation:     7    36
 NBasis=    36 NAE=    21 NBE=    21 NFC=     6 NFV=     0
 NROrb=     30 NOA=    15 NOB=    15 NVA=    15 NVB=    15
 Keep J ints in memory in canonical form, NReq=1304675.
    16 initial guesses have been made.
 Convergence on wavefunction:    0.000001000000000
 Iteration     1 Dimension    16 NMult     0 NNew     16
 CISAX will form    16 AO SS matrices at one time.
 New state      1 was old state      2
 New state      2 was old state      5
 New state      3 was old state      7
 New state      4 was old state      8
 Iteration     2 Dimension    32 NMult    16 NNew     16
 New state      2 was old state      6
 New state      3 was old state      2
 New state      4 was old state      3
 Iteration     3 Dimension    36 NMult    32 NNew      4
 Iteration     4 Dimension    40 NMult    36 NNew      4
 Iteration     5 Dimension    44 NMult    40 NNew      4
 Iteration     6 Dimension    48 NMult    44 NNew      4
 Iteration     7 Dimension    52 NMult    48 NNew      4
 Iteration     8 Dimension    54 NMult    52 NNew      2
 Iteration     9 Dimension    56 NMult    54 NNew      2
 Iteration    10 Dimension    57 NMult    56 NNew      1
 Iteration    11 Dimension    58 NMult    57 NNew      1
 Iteration    12 Dimension    59 NMult    58 NNew      1
 ***********************************************************************
 Excited states from <AA,BB:AA,BB> singles matrix:
 ***********************************************************************
 
 Ground to excited state transition densities written to RWF  633
 Ground to excited state transition electric dipole moments (Au):
       state          X           Y           Z        Dip. S.      Osc.
         1         0.0001      0.0001      0.0000      0.0000      0.0000
         2        -0.0003      0.0018     -0.0002      0.0000      0.0000
         3        -0.0022     -0.0047      0.0000      0.0000      0.0000
         4        -0.0003      0.0102     -0.0000      0.0001      0.0000
 Ground to excited state transition velocity dipole moments (Au):
       state          X           Y           Z        Dip. S.      Osc.
         1        -0.0000     -0.0000     -0.0000      0.0000      0.0000
         2         0.0001     -0.0003      0.0000      0.0000      0.0000
         3         0.0004      0.0009     -0.0000      0.0000      0.0000
         4         0.0000     -0.0021      0.0000      0.0000      0.0000
 Ground to excited state transition magnetic dipole moments (Au):
       state          X           Y           Z
         1        -0.0001      0.0001      0.0001
         2        -0.0000     -0.0001      0.0024
         3        -0.0002     -0.0002     -0.0030
         4         0.0003      0.0007      0.0032
 Ground to excited state transition velocity quadrupole moments (Au):
       state          XX          YY          ZZ          XY          XZ          YZ
         1         0.0001     -0.0001     -0.0000     -0.0000      0.0000      0.0000
         2        -0.0001     -0.0012      0.0000      0.0006      0.0001     -0.0000
         3        -0.0016      0.0036     -0.0000     -0.0006      0.0000     -0.0000
         4        -0.0002     -0.0078     -0.0000      0.0037      0.0001      0.0000
 <0|del|b> * <b|rxdel|0> + <0|del|b> * <b|delr+rdel|0>
 Rotatory Strengths (R) in cgs (10**-40 erg-esu-cm/Gauss)
       state          XX          YY          ZZ    R(velocity)    E-M Angle
         1        -0.0000      0.0000      0.0000      0.0000       90.00
         2         0.0002      0.0001     -0.0000      0.0001       90.00
         3        -0.0001     -0.0001     -0.0003     -0.0002       90.00
         4        -0.0012      0.0000     -0.0019     -0.0010       90.00
 1/2[<0|r|b>*<b|rxdel|0> + (<0|rxdel|b>*<b|r|0>)*]
 Rotatory Strengths (R) in cgs (10**-40 erg-esu-cm/Gauss)
       state          XX          YY          ZZ     R(length)
         1         0.0000     -0.0000     -0.0000      0.0000
         2        -0.0000      0.0001      0.0003      0.0001
         3        -0.0004     -0.0006      0.0001     -0.0003
         4         0.0001     -0.0050      0.0001     -0.0016
  1/2[<0|del|b>*<b|r|0> + (<0|r|b>*<b|del|0>)*] (Au)
       state          X           Y           Z        Dip. S.   Osc.(frdel)
         1        -0.0000     -0.0000     -0.0000      0.0000      0.0000
         2        -0.0000     -0.0000     -0.0000      0.0000      0.0000
         3        -0.0000     -0.0000     -0.0000      0.0000      0.0000
         4        -0.0000     -0.0000     -0.0000      0.0000      0.0000

 Excitation energies and oscillator strengths:
 
 Excited state symmetry could not be determined.
 Excited State   1:      Singlet-?Sym    6.1220 eV  202.52 nm  f=0.0000  <S**2>=0.000
      20 -> 22         0.49959
      21 -> 23         0.49948
 This state for optimization and/or second-order correction.
 Total Energy, E(TD-HF/TD-DFT) =  -230.334593218    
 Copying the excited state density for this state as the 1-particle RhoCI density.
 
 Excited state symmetry could not be determined.
 Excited State   2:      Singlet-?Sym    7.4076 eV  167.37 nm  f=0.0000  <S**2>=0.000
      17 -> 24        -0.12085
      20 -> 23        -0.49205
      21 -> 22         0.49306
 
 Excited state symmetry could not be determined.
 Excited State   3:      Singlet-?Sym    8.5052 eV  145.77 nm  f=0.0000  <S**2>=0.000
      18 -> 23        -0.48785
      19 -> 22         0.50542
 
 Excited state symmetry could not be determined.
 Excited State   4:      Singlet-?Sym    8.6086 eV  144.02 nm  f=0.0000  <S**2>=0.000
      18 -> 22         0.45994
      18 -> 23        -0.19963
      19 -> 22        -0.19258
      19 -> 23        -0.45959
 SavETr:  write IOETrn=   770 NScale= 10 NData=  16 NLR=1 NState=    4 LETran=      82.
          IDoAtm=111111111111
          Differentiating once with respect to electric field.
                with respect to dipole field.
          Differentiating once with respect to nuclear coordinates.
 Keep J ints in memory in canonical form, NReq=1095562.
          There are     1 degrees of freedom in the 1st order CPHF.  IDoFFX=0 NUNeed=     1.
 LinEq1:  Iter=  0 NonCon=     1 RMS=1.24D-03 Max=7.30D-03 NDo=     1
 AX will form     1 AO Fock derivatives at one time.
 LinEq1:  Iter=  1 NonCon=     1 RMS=2.28D-04 Max=1.79D-03 NDo=     1
 LinEq1:  Iter=  2 NonCon=     1 RMS=4.25D-05 Max=3.06D-04 NDo=     1
 LinEq1:  Iter=  3 NonCon=     1 RMS=3.08D-05 Max=2.68D-04 NDo=     1
 LinEq1:  Iter=  4 NonCon=     1 RMS=7.82D-06 Max=6.84D-05 NDo=     1
 LinEq1:  Iter=  5 NonCon=     1 RMS=3.49D-07 Max=2.52D-06 NDo=     1
 LinEq1:  Iter=  6 NonCon=     1 RMS=4.54D-08 Max=2.76D-07 NDo=     1
 LinEq1:  Iter=  7 NonCon=     1 RMS=2.40D-08 Max=2.67D-07 NDo=     1
 LinEq1:  Iter=  8 NonCon=     1 RMS=4.62D-09 Max=2.74D-08 NDo=     1
 LinEq1:  Iter=  9 NonCon=     1 RMS=1.80D-09 Max=1.57D-08 NDo=     1
 LinEq1:  Iter= 10 NonCon=     1 RMS=9.35D-10 Max=5.50D-09 NDo=     1
 LinEq1:  Iter= 11 NonCon=     1 RMS=7.97D-10 Max=5.98D-09 NDo=     1
 LinEq1:  Iter= 12 NonCon=     1 RMS=1.49D-10 Max=6.71D-10 NDo=     1
 LinEq1:  Iter= 13 NonCon=     0 RMS=1.11D-11 Max=6.63D-11 NDo=     1
 Linear equations converged to 1.000D-10 1.000D-09 after    13 iterations.
 End of Minotr F.D. properties file   721 does not exist.
 End of Minotr F.D. properties file   722 does not exist.
 End of Minotr F.D. properties file   788 does not exist.

 **********************************************************************

            Population analysis using the SCF Density.

 **********************************************************************

 Alpha  occ. eigenvalues --   -9.79375  -9.79333  -9.79333  -9.79256  -9.79255
 Alpha  occ. eigenvalues --   -9.79202  -0.74446  -0.64579  -0.64575  -0.51500
 Alpha  occ. eigenvalues --   -0.51496  -0.44466  -0.38824  -0.36283  -0.34754
 Alpha  occ. eigenvalues --   -0.34753  -0.28697  -0.27306  -0.27299  -0.18122
 Alpha  occ. eigenvalues --   -0.18117
 Alpha virt. eigenvalues --    0.04096   0.04102   0.18971   0.26856   0.32241
 Alpha virt. eigenvalues --    0.32252   0.37927   0.39383   0.39389   0.50921
 Alpha virt. eigenvalues --    0.50929   0.52599   0.52614   0.67742   0.72749
     Molecular Orbital Coefficients:
                           1         2         3         4         5
                           O         O         O         O         O
     Eigenvalues --    -9.79375  -9.79333  -9.79333  -9.79256  -9.79255
   1 1   C  1S         -0.39929  -0.31355  -0.47984   0.28740  -0.49367
   2        2S         -0.02657  -0.01728  -0.02644   0.01023  -0.01752
   3        2PX        -0.00183  -0.00486   0.00151  -0.00439  -0.00202
   4        2PY        -0.00317   0.00105  -0.00355   0.00202   0.00207
   5        2PZ         0.00000  -0.00000   0.00000  -0.00000  -0.00000
   6 2   C  1S          0.40154   0.57167  -0.02660   0.57189   0.00413
   7        2S          0.02669   0.03147  -0.00148   0.02030   0.00014
   8        2PX        -0.00180  -0.00163  -0.00484   0.00049  -0.00479
   9        2PY         0.00319   0.00224  -0.00294  -0.00077  -0.00278
  10        2PZ         0.00000   0.00000  -0.00000   0.00000   0.00000
  11 3   C  1S         -0.40506  -0.26163   0.50778   0.28129   0.49819
  12        2S         -0.02689  -0.01440   0.02788   0.00995   0.01764
  13        2PX         0.00369   0.00126  -0.00242   0.00046   0.00081
  14        2PY        -0.00003   0.00505   0.00258   0.00481  -0.00275
  15        2PZ         0.00000  -0.00000  -0.00000  -0.00000   0.00000
  16 4   C  1S          0.40754  -0.30910  -0.47780  -0.28892   0.49564
  17        2S          0.02703  -0.01699  -0.02621  -0.01022   0.01753
  18        2PX        -0.00186   0.00488  -0.00155  -0.00436  -0.00200
  19        2PY        -0.00320  -0.00110   0.00352   0.00197   0.00209
  20        2PZ         0.00000   0.00000  -0.00000  -0.00000  -0.00000
  21 5   C  1S         -0.40748   0.57066  -0.03496  -0.57148   0.00073
  22        2S         -0.02700   0.03131  -0.00191  -0.02019   0.00002
  23        2PX        -0.00188   0.00163   0.00483   0.00047  -0.00479
  24        2PY         0.00318  -0.00219   0.00298  -0.00081  -0.00276
  25        2PZ        -0.00000   0.00000  -0.00000   0.00000   0.00000
  26 6   C  1S          0.40153  -0.25460   0.51114  -0.28902  -0.49478
  27        2S          0.02671  -0.01402   0.02815  -0.01029  -0.01755
  28        2PX         0.00367  -0.00123   0.00247   0.00045   0.00079
  29        2PY         0.00004  -0.00507  -0.00255   0.00480  -0.00276
  30        2PZ        -0.00000   0.00000   0.00000  -0.00000   0.00000
  31 7   H  1S          0.00394   0.00298   0.00456  -0.00258   0.00443
  32 8   H  1S         -0.00396  -0.00543   0.00025  -0.00514  -0.00004
  33 9   H  1S          0.00399   0.00248  -0.00482  -0.00253  -0.00448
  34 10  H  1S         -0.00401   0.00293   0.00453   0.00260  -0.00445
  35 11  H  1S          0.00401  -0.00541   0.00033   0.00513  -0.00001
  36 12  H  1S         -0.00396   0.00242  -0.00485   0.00260   0.00444
                           6         7         8         9        10
                           O         O         O         O         O
     Eigenvalues --    -9.79202  -0.74446  -0.64579  -0.64575  -0.51500
   1 1   C  1S          0.40831  -0.10568  -0.03762   0.14342  -0.11071
   2        2S          0.01080   0.26426   0.10080  -0.38423   0.32534
   3        2PX        -0.00106   0.03202   0.11160   0.01806   0.02132
   4        2PY        -0.00184   0.05552  -0.05800  -0.03495  -0.10711
   5        2PZ         0.00000  -0.00003   0.00004   0.00003   0.00005
   6 2   C  1S          0.40644  -0.10568  -0.14306   0.03899   0.02394
   7        2S          0.01072   0.26426   0.38326  -0.10448  -0.07031
   8        2PX         0.00108  -0.03201   0.01915   0.11144  -0.20496
   9        2PY        -0.00183   0.05552   0.03555   0.05768  -0.09785
  10        2PZ         0.00000   0.00001   0.00007  -0.00002  -0.00003
  11 3   C  1S          0.40415  -0.10563  -0.10540  -0.10430   0.08670
  12        2S          0.01065   0.26415   0.28237   0.27947  -0.25478
  13        2PX         0.00212  -0.06408  -0.01566  -0.01546  -0.06426
  14        2PY         0.00002  -0.00010  -0.09153   0.09218   0.15442
  15        2PZ         0.00000  -0.00005   0.00002  -0.00008  -0.00010
  16 4   C  1S          0.40245  -0.10561   0.03774  -0.14341  -0.11071
  17        2S          0.01061   0.26411  -0.10109   0.38425   0.32534
  18        2PX         0.00104  -0.03210   0.11163   0.01782  -0.02123
  19        2PY         0.00184  -0.05545  -0.05796  -0.03485   0.10700
  20        2PZ        -0.00000   0.00004   0.00007   0.00006  -0.00005
  21 5   C  1S          0.40190  -0.10566   0.14302  -0.03917   0.02400
  22        2S          0.01055   0.26420  -0.38316   0.10493  -0.07055
  23        2PX        -0.00104   0.03205   0.01897   0.11150   0.20502
  24        2PY         0.00185  -0.05550   0.03547   0.05764   0.09777
  25        2PZ        -0.00000   0.00007  -0.00004  -0.00001  -0.00003
  26 6   C  1S          0.40665  -0.10568   0.10534   0.10435   0.08675
  27        2S          0.01075   0.26425  -0.28222  -0.27956  -0.25495
  28        2PX        -0.00212   0.06409  -0.01562  -0.01545   0.06436
  29        2PY         0.00004  -0.00004  -0.09136   0.09241  -0.15448
  30        2PZ        -0.00000  -0.00002   0.00008  -0.00004   0.00013
  31 7   H  1S         -0.00377   0.04692   0.02724  -0.10383   0.16359
  32 8   H  1S         -0.00376   0.04692   0.10354  -0.02824  -0.03531
  33 9   H  1S         -0.00374   0.04689   0.07628   0.07551  -0.12808
  34 10  H  1S         -0.00372   0.04688  -0.02729   0.10382   0.16354
  35 11  H  1S         -0.00371   0.04690  -0.10349   0.02833  -0.03551
  36 12  H  1S         -0.00376   0.04692  -0.07626  -0.07555  -0.12822
                          11        12        13        14        15
                           O         O         O         O         O
     Eigenvalues --    -0.51496  -0.44466  -0.38824  -0.36283  -0.34754
   1 1   C  1S          0.03619   0.01052  -0.06764  -0.00005  -0.00211
   2        2S         -0.10635  -0.04444   0.23065   0.00019   0.00663
   3        2PX         0.20386   0.11956  -0.08031   0.28781   0.09401
   4        2PY        -0.08670   0.20726  -0.13889  -0.16565  -0.02370
   5        2PZ         0.00006  -0.00012   0.00003   0.00004  -0.00007
   6 2   C  1S         -0.11397   0.01054   0.06766   0.00003  -0.02594
   7        2S          0.33494  -0.04452  -0.23069  -0.00008   0.08088
   8        2PX         0.00093  -0.11959  -0.07994  -0.28784  -0.13233
   9        2PY        -0.09710   0.20726   0.13877  -0.16593   0.31074
  10        2PZ         0.00012  -0.00020  -0.00017  -0.00003  -0.00034
  11 3   C  1S          0.07780   0.01052  -0.06764  -0.00000  -0.02391
  12        2S         -0.22869  -0.04444   0.23066   0.00010   0.07456
  13        2PX        -0.05775  -0.23917   0.16042   0.00047  -0.30837
  14        2PY        -0.17226   0.00001  -0.00002   0.33204  -0.05233
  15        2PZ         0.00007  -0.00015   0.00008  -0.00014  -0.00030
  16 4   C  1S          0.03628   0.01055   0.06764   0.00006   0.00210
  17        2S         -0.10665  -0.04453  -0.23064  -0.00014  -0.00651
  18        2PX        -0.20391  -0.11958  -0.08039   0.28777   0.09425
  19        2PY         0.08658  -0.20712  -0.13879  -0.16572  -0.02325
  20        2PZ        -0.00016   0.00005  -0.00001   0.00029  -0.00008
  21 5   C  1S         -0.11398   0.01055  -0.06766   0.00000   0.02593
  22        2S          0.33495  -0.04454   0.23071   0.00002  -0.08088
  23        2PX        -0.00109   0.11963  -0.08002  -0.28774  -0.13253
  24        2PY         0.09693  -0.20714   0.13874  -0.16613   0.31037
  25        2PZ        -0.00008   0.00018  -0.00020   0.00010  -0.00039
  26 6   C  1S          0.07771   0.01052   0.06764  -0.00001   0.02393
  27        2S         -0.22836  -0.04444  -0.23065   0.00004  -0.07466
  28        2PX         0.05767   0.23926   0.16039   0.00051  -0.30810
  29        2PY         0.17228  -0.00010  -0.00009   0.33206  -0.05203
  30        2PZ        -0.00011   0.00002  -0.00003  -0.00026  -0.00005
  31 7   H  1S         -0.05348  -0.16801   0.22954  -0.00026  -0.01987
  32 8   H  1S          0.16844  -0.16805  -0.22931  -0.00012  -0.25301
  33 9   H  1S         -0.11502  -0.16794   0.22952   0.00047  -0.23262
  34 10  H  1S         -0.05370  -0.16798  -0.22949   0.00034   0.02035
  35 11  H  1S          0.16838  -0.16799   0.22932   0.00008   0.25282
  36 12  H  1S         -0.11485  -0.16801  -0.22949  -0.00036   0.23235
                          16        17        18        19        20
                           O         O         O         O         O
     Eigenvalues --    -0.34753  -0.28697  -0.27306  -0.27299  -0.18122
   1 1   C  1S         -0.02881  -0.00001   0.00675  -0.00352   0.00000
   2        2S          0.08986   0.00004  -0.01204   0.00616  -0.00001
   3        2PX         0.17935   0.00009  -0.25623  -0.19212   0.00005
   4        2PY         0.32532   0.00012  -0.13171   0.25815   0.00001
   5        2PZ        -0.00018   0.33435   0.00012   0.00003   0.17274
   6 2   C  1S         -0.01258   0.00004  -0.00026   0.00762   0.00006
   7        2S          0.03928  -0.00017   0.00035  -0.01356  -0.00028
   8        2PX        -0.15344  -0.00023   0.28414   0.14772  -0.00021
   9        2PY         0.09881   0.00034   0.17563  -0.23053   0.00039
  10        2PZ        -0.00008   0.33435  -0.00000   0.00034   0.52190
  11 3   C  1S          0.01619  -0.00004  -0.00642  -0.00409  -0.00002
  12        2S         -0.05053   0.00013   0.01134   0.00742   0.00007
  13        2PX         0.20880  -0.00029  -0.23153  -0.14595  -0.00027
  14        2PY        -0.07763   0.00012  -0.17784   0.28293   0.00006
  15        2PZ         0.00022   0.33423  -0.00012  -0.00018   0.34911
  16 4   C  1S          0.02880   0.00002   0.00672  -0.00358  -0.00001
  17        2S         -0.08986  -0.00010  -0.01192   0.00649   0.00006
  18        2PX         0.17968  -0.00022   0.25600   0.19193   0.00009
  19        2PY         0.32516   0.00017   0.13152  -0.25869  -0.00004
  20        2PZ        -0.00006   0.33419   0.00012   0.00022  -0.17314
  21 5   C  1S          0.01257   0.00001  -0.00033   0.00761  -0.00001
  22        2S         -0.03916  -0.00003   0.00070  -0.01352   0.00002
  23        2PX        -0.15385  -0.00007  -0.28382  -0.14768   0.00009
  24        2PY         0.09920   0.00039  -0.17619   0.23053  -0.00054
  25        2PZ        -0.00012   0.33429   0.00019  -0.00032  -0.52183
  26 6   C  1S         -0.01617   0.00001  -0.00646  -0.00403   0.00002
  27        2S          0.05042  -0.00003   0.01153   0.00709  -0.00007
  28        2PX         0.20914  -0.00016   0.23186   0.14545  -0.00002
  29        2PY        -0.07784   0.00025   0.17795  -0.28280  -0.00015
  30        2PZ         0.00004   0.33434  -0.00007   0.00024  -0.34883
  31 7   H  1S         -0.28018   0.00003   0.27053  -0.14258   0.00006
  32 8   H  1S         -0.12242  -0.00015  -0.01138   0.30562   0.00001
  33 9   H  1S          0.15753  -0.00003  -0.25875  -0.16299  -0.00004
  34 10  H  1S          0.28021  -0.00005   0.27034  -0.14296   0.00010
  35 11  H  1S          0.12293   0.00008  -0.01177   0.30562  -0.00009
  36 12  H  1S         -0.15785   0.00010  -0.25898  -0.16265   0.00007
                          21        22        23        24        25
                           O         V         V         V         V
     Eigenvalues --    -0.18117   0.04096   0.04102   0.18971   0.26856
   1 1   C  1S         -0.00001  -0.00002  -0.00004  -0.00000   0.05341
   2        2S          0.00006   0.00010   0.00020   0.00003  -0.32715
   3        2PX         0.00011   0.00004   0.00011  -0.00030   0.15370
   4        2PY         0.00022   0.00031  -0.00005   0.00027   0.26646
   5        2PZ         0.50281   0.61327  -0.23863   0.52228   0.00015
   6 2   C  1S          0.00002  -0.00002   0.00010  -0.00012   0.05334
   7        2S         -0.00007   0.00012  -0.00051   0.00069  -0.32668
   8        2PX        -0.00010   0.00009  -0.00027   0.00026  -0.15390
   9        2PY         0.00007  -0.00003   0.00048  -0.00054   0.26666
  10        2PZ         0.10136  -0.09945   0.65055  -0.52227  -0.00066
  11 3   C  1S          0.00003   0.00003  -0.00001   0.00000   0.05344
  12        2S         -0.00010  -0.00014   0.00002   0.00001  -0.32732
  13        2PX         0.00033   0.00037   0.00023  -0.00022  -0.30788
  14        2PY        -0.00021  -0.00016  -0.00030   0.00037  -0.00012
  15        2PZ        -0.40108  -0.51338  -0.41189   0.52210   0.00009
  16 4   C  1S         -0.00002   0.00002  -0.00003  -0.00007   0.05341
  17        2S          0.00008  -0.00014   0.00015   0.00038  -0.32712
  18        2PX         0.00027  -0.00033   0.00010   0.00024  -0.15398
  19        2PY        -0.00025   0.00030  -0.00013  -0.00011  -0.26679
  20        2PZ        -0.50279   0.61325  -0.23913  -0.52203  -0.00025
  21 5   C  1S         -0.00000  -0.00003   0.00001  -0.00000   0.05340
  22        2S          0.00002   0.00013  -0.00008   0.00000  -0.32704
  23        2PX         0.00002   0.00006  -0.00018  -0.00033   0.15419
  24        2PY        -0.00013  -0.00015   0.00062   0.00052  -0.26695
  25        2PZ        -0.10189  -0.10008   0.65050   0.52218   0.00055
  26 6   C  1S         -0.00002   0.00004   0.00002  -0.00001   0.05339
  27        2S          0.00010  -0.00020  -0.00010   0.00002  -0.32705
  28        2PX         0.00000  -0.00000   0.00001  -0.00005   0.30776
  29        2PY         0.00037  -0.00043  -0.00021  -0.00031  -0.00023
  30        2PZ         0.40123  -0.51354  -0.41153  -0.52226  -0.00019
  31 7   H  1S         -0.00000  -0.00007  -0.00005  -0.00017   0.50717
  32 8   H  1S         -0.00005  -0.00010   0.00026  -0.00052   0.50717
  33 9   H  1S          0.00008   0.00004  -0.00001  -0.00008   0.50751
  34 10  H  1S         -0.00000   0.00005  -0.00015  -0.00037   0.50757
  35 11  H  1S         -0.00005  -0.00003  -0.00003  -0.00022   0.50773
  36 12  H  1S         -0.00001   0.00011   0.00002  -0.00019   0.50727
                          26        27        28        29        30
                           V         V         V         V         V
     Eigenvalues --     0.32241   0.32252   0.37927   0.39383   0.39389
   1 1   C  1S         -0.01581   0.02932   0.11902  -0.16282   0.00542
   2        2S          0.10004  -0.18573  -0.72689   1.02856  -0.03427
   3        2PX         0.09625   0.36272   0.03856  -0.01981  -0.35802
   4        2PY        -0.35214   0.35227   0.06744  -0.00800   0.20858
   5        2PZ         0.00008  -0.00016  -0.00014  -0.00000  -0.00035
   6 2   C  1S         -0.03325   0.00153  -0.11941   0.07731  -0.14307
   7        2S          0.21051  -0.00954   0.72931  -0.48839   0.90388
   8        2PX         0.28476   0.24410   0.03997   0.31222   0.17652
   9        2PY        -0.47024   0.16371  -0.06636   0.19082   0.08486
  10        2PZ         0.00061  -0.00007   0.00052  -0.00031   0.00055
  11 3   C  1S         -0.01744  -0.02839   0.12024   0.08520   0.13782
  12        2S          0.11060   0.17966  -0.73451  -0.53834  -0.87071
  13        2PX         0.29293   0.46552  -0.07762  -0.00906  -0.01354
  14        2PY        -0.24935   0.15547  -0.00217  -0.35291   0.21822
  15        2PZ         0.00028   0.00025  -0.00017   0.00030  -0.00011
  16 4   C  1S          0.01525  -0.02950  -0.12070  -0.16168   0.00512
  17        2S         -0.09676   0.18676   0.73740   1.02149  -0.03233
  18        2PX         0.09628   0.36123   0.03928   0.02037   0.35958
  19        2PY        -0.35317   0.35235   0.06734   0.00697  -0.20743
  20        2PZ         0.00013   0.00003   0.00021   0.00021   0.00025
  21 5   C  1S          0.03331  -0.00094   0.12019   0.07579  -0.14323
  22        2S         -0.21086   0.00604  -0.73419  -0.47885   0.90489
  23        2PX         0.28359   0.24379   0.03727  -0.31344  -0.17716
  24        2PY        -0.47082   0.16460  -0.06793  -0.18854  -0.08454
  25        2PZ         0.00059  -0.00013  -0.00005  -0.00008   0.00007
  26 6   C  1S          0.01783   0.02808  -0.11940   0.08621   0.13790
  27        2S         -0.11283  -0.17786   0.72927  -0.54451  -0.87128
  28        2PX         0.29152   0.46630  -0.07772   0.00844   0.01479
  29        2PY        -0.24839   0.15664   0.00200   0.35202  -0.21934
  30        2PZ         0.00017  -0.00007  -0.00006  -0.00008   0.00038
  31 7   H  1S         -0.30787   0.58098   0.45006  -0.50354   0.01771
  32 8   H  1S         -0.65693   0.02472  -0.45099   0.24022  -0.44224
  33 9   H  1S         -0.34920  -0.55700   0.45367   0.26354   0.42543
  34 10  H  1S          0.30687  -0.58087  -0.45534  -0.49931   0.01511
  35 11  H  1S          0.65695  -0.02365   0.45330   0.23297  -0.44321
  36 12  H  1S          0.34912   0.55683  -0.45126   0.26618   0.42688
                          31        32        33        34        35
                           V         V         V         V         V
     Eigenvalues --     0.50921   0.50929   0.52599   0.52614   0.67742
   1 1   C  1S          0.03853  -0.01578   0.03269  -0.08999   0.00025
   2        2S         -0.26906   0.11012  -0.23013   0.63359  -0.00173
   3        2PX        -0.30469   0.35297   0.69813   0.21712  -0.65687
   4        2PY        -0.69506   0.12910  -0.39139  -0.18700   0.37563
   5        2PZ         0.00035  -0.00012   0.00034   0.00008  -0.00011
   6 2   C  1S         -0.00754   0.04122   0.09399  -0.01787  -0.00024
   7        2S          0.05260  -0.28787  -0.66171   0.12587   0.00164
   8        2PX        -0.28047   0.37100   0.10186   0.72487  -0.65685
   9        2PY        -0.01742  -0.70685   0.12362   0.41563  -0.37599
  10        2PZ        -0.00004   0.00054  -0.00045   0.00004  -0.00005
  11 3   C  1S         -0.03301  -0.02553   0.06151   0.07326   0.00010
  12        2S          0.23040   0.17836  -0.43294  -0.51582  -0.00047
  13        2PX        -0.62685  -0.50924  -0.04115  -0.03612   0.00237
  14        2PY         0.16712  -0.19323  -0.64418   0.55242  -0.75594
  15        2PZ        -0.00054  -0.00030   0.00051  -0.00012   0.00033
  16 4   C  1S          0.03936  -0.01411  -0.03142   0.09024  -0.00016
  17        2S         -0.27480   0.09858   0.22112  -0.63538   0.00096
  18        2PX         0.29117  -0.34799   0.70506   0.22429   0.65316
  19        2PY         0.70209  -0.13441  -0.37675  -0.18599  -0.37993
  20        2PZ        -0.00025  -0.00002   0.00052   0.00007   0.00062
  21 5   C  1S         -0.00557   0.04138  -0.09420   0.01679   0.00028
  22        2S          0.03892  -0.28896   0.66323  -0.11819  -0.00199
  23        2PX         0.28022  -0.35746   0.11025   0.73115   0.65368
  24        2PY         0.01422   0.71427   0.12344   0.40202   0.38073
  25        2PZ         0.00003  -0.00077   0.00007  -0.00013  -0.00022
  26 6   C  1S         -0.03179  -0.02710  -0.06255  -0.07244  -0.00024
  27        2S          0.22202   0.18918   0.44040   0.51004   0.00168
  28        2PX         0.62799   0.50768  -0.02930  -0.04686   0.00320
  29        2PY        -0.15367   0.20184  -0.64786   0.54851   0.75663
  30        2PZ         0.00011  -0.00010   0.00030  -0.00050  -0.00057
  31 7   H  1S         -0.47524   0.17901   0.08813  -0.26156  -0.00141
  32 8   H  1S          0.07592  -0.50128   0.27350  -0.04578   0.00113
  33 9   H  1S          0.39245   0.32195   0.18221   0.20747  -0.00131
  34 10  H  1S         -0.47257   0.18479  -0.09711   0.25878   0.00111
  35 11  H  1S          0.08292  -0.50051  -0.27069   0.05444  -0.00111
  36 12  H  1S          0.39642   0.31689  -0.17602  -0.21349   0.00142
                          36
                           V
     Eigenvalues --     0.72749
   1 1   C  1S          0.06549
   2        2S         -0.48680
   3        2PX        -0.33270
   4        2PY        -0.58243
   5        2PZ         0.00032
   6 2   C  1S         -0.06553
   7        2S          0.48715
   8        2PX        -0.33240
   9        2PY         0.58245
  10        2PZ        -0.00033
  11 3   C  1S          0.06547
  12        2S         -0.48660
  13        2PX         0.67040
  14        2PY         0.00359
  15        2PZ         0.00045
  16 4   C  1S         -0.06545
  17        2S          0.48642
  18        2PX        -0.33821
  19        2PY        -0.57870
  20        2PZ         0.00023
  21 5   C  1S          0.06552
  22        2S         -0.48706
  23        2PX        -0.33793
  24        2PY         0.57903
  25        2PZ        -0.00059
  26 6   C  1S         -0.06550
  27        2S          0.48686
  28        2PX         0.67068
  29        2PY        -0.00310
  30        2PZ        -0.00001
  31 7   H  1S         -0.25942
  32 8   H  1S          0.25922
  33 9   H  1S         -0.25924
  34 10  H  1S          0.25920
  35 11  H  1S         -0.25907
  36 12  H  1S          0.25936
     Density Matrix:
                           1         2         3         4         5
   1 1   C  1S          2.06663
   2        2S         -0.20150   0.82097
   3        2PX         0.00223  -0.01409   0.60605
   4        2PY         0.00386  -0.02454   0.00646   0.61353
   5        2PZ        -0.00001   0.00006   0.00006   0.00007   0.78890
   6 2   C  1S          0.02552  -0.06642  -0.11626  -0.00095   0.00006
   7        2S         -0.06642   0.08393   0.29234   0.00941  -0.00026
   8        2PX         0.11627  -0.29235  -0.46582   0.00605  -0.00018
   9        2PY        -0.00096   0.00945  -0.00599   0.02242   0.00031
  10        2PZ         0.00001  -0.00006  -0.00006   0.00023   0.50582
  11 3   C  1S         -0.00467   0.01425   0.02113   0.01023  -0.00001
  12        2S          0.01425  -0.03303  -0.07431  -0.04681   0.00001
  13        2PX        -0.01943   0.07771   0.07447   0.01181   0.00000
  14        2PY        -0.01317   0.04090   0.05504   0.03585  -0.00008
  15        2PZ        -0.00001   0.00001   0.00005  -0.00002  -0.05923
  16 4   C  1S         -0.00486   0.01720   0.00665   0.01149  -0.00002
  17        2S          0.01720  -0.06006  -0.02493  -0.04305   0.00008
  18        2PX        -0.00663   0.02482  -0.03335   0.04367   0.00019
  19        2PY        -0.01151   0.04313   0.04376   0.01713  -0.00020
  20        2PZ         0.00001  -0.00005  -0.00012  -0.00014  -0.34197
  21 5   C  1S         -0.00467   0.01425  -0.00169   0.02341  -0.00001
  22        2S          0.01425  -0.03303  -0.00342  -0.08775   0.00004
  23        2PX        -0.00170  -0.00339   0.01655   0.02164  -0.00003
  24        2PY        -0.02342   0.08777  -0.02162   0.09377  -0.00009
  25        2PZ         0.00003  -0.00008  -0.00002  -0.00012  -0.05921
  26 6   C  1S          0.02553  -0.06646   0.05733  -0.10120   0.00004
  27        2S         -0.06646   0.08392  -0.13803   0.25788  -0.00005
  28        2PX        -0.05897   0.15429  -0.09955   0.20534  -0.00012
  29        2PY         0.10025  -0.24847   0.21751  -0.34372   0.00058
  30        2PZ        -0.00008   0.00023  -0.00010   0.00050   0.50654
  31 7   H  1S         -0.11387   0.28899  -0.27480  -0.47605   0.00025
  32 8   H  1S          0.02784  -0.10339  -0.11412   0.06074  -0.00001
  33 9   H  1S         -0.01918   0.07349   0.10163   0.00246  -0.00002
  34 10  H  1S         -0.00237   0.00876   0.00336   0.00573  -0.00001
  35 11  H  1S         -0.01917   0.07342  -0.04866   0.08917  -0.00004
  36 12  H  1S          0.02784  -0.10332   0.10967  -0.06842   0.00002
                           6         7         8         9        10
   6 2   C  1S          2.06663
   7        2S         -0.20150   0.82093
   8        2PX        -0.00223   0.01409   0.60606
   9        2PY         0.00386  -0.02455  -0.00648   0.61354
  10        2PZ         0.00005  -0.00025  -0.00008   0.00013   0.78888
  11 3   C  1S          0.02554  -0.06648  -0.05735  -0.10120  -0.00001
  12        2S         -0.06648   0.08394   0.13805   0.25785   0.00003
  13        2PX         0.05899  -0.15434  -0.09957  -0.20538  -0.00030
  14        2PY         0.10026  -0.24849  -0.21753  -0.34361   0.00026
  15        2PZ         0.00005  -0.00023  -0.00020   0.00035   0.50659
  16 4   C  1S         -0.00467   0.01425   0.00170   0.02341  -0.00001
  17        2S          0.01426  -0.03305   0.00340  -0.08776   0.00007
  18        2PX         0.00171   0.00336   0.01654  -0.02165   0.00006
  19        2PY        -0.02342   0.08777   0.02164   0.09377  -0.00004
  20        2PZ         0.00001  -0.00000   0.00004  -0.00011  -0.05918
  21 5   C  1S         -0.00486   0.01719  -0.00665   0.01149  -0.00001
  22        2S          0.01720  -0.06003   0.02493  -0.04303   0.00004
  23        2PX         0.00662  -0.02480  -0.03332  -0.04364   0.00005
  24        2PY        -0.01150   0.04311  -0.04375   0.01714  -0.00034
  25        2PZ        -0.00003   0.00016   0.00018  -0.00024  -0.34180
  26 6   C  1S         -0.00467   0.01425  -0.02114   0.01024  -0.00000
  27        2S          0.01425  -0.03304   0.07432  -0.04682   0.00001
  28        2PX         0.01943  -0.07770   0.07447  -0.01181   0.00001
  29        2PY        -0.01318   0.04092  -0.05507   0.03586  -0.00004
  30        2PZ         0.00000   0.00001   0.00004  -0.00007  -0.05920
  31 7   H  1S          0.02784  -0.10337   0.11410   0.06073   0.00002
  32 8   H  1S         -0.11386   0.28895   0.27475  -0.47612   0.00051
  33 9   H  1S          0.02785  -0.10333  -0.10967  -0.06840  -0.00004
  34 10  H  1S         -0.01916   0.07339   0.04864   0.08911   0.00003
  35 11  H  1S         -0.00237   0.00874  -0.00335   0.00572  -0.00002
  36 12  H  1S         -0.01917   0.07347  -0.10161   0.00248   0.00001
                          11        12        13        14        15
  11 3   C  1S          2.06663
  12        2S         -0.20152   0.82106
  13        2PX        -0.00446   0.02830   0.61722
  14        2PY        -0.00000   0.00014   0.00000   0.60230
  15        2PZ        -0.00003   0.00014  -0.00016   0.00006   0.78890
  16 4   C  1S          0.02550  -0.06639   0.05893  -0.10019   0.00011
  17        2S         -0.06639   0.08392  -0.15429   0.24847  -0.00031
  18        2PX        -0.05729   0.13802  -0.09963   0.21745  -0.00049
  19        2PY         0.10114  -0.25791   0.20535  -0.34384   0.00060
  20        2PZ        -0.00012   0.00034  -0.00055   0.00059   0.50583
  21 5   C  1S         -0.00467   0.01426  -0.01943   0.01319  -0.00002
  22        2S          0.01425  -0.03305   0.07767  -0.04099   0.00006
  23        2PX         0.02113  -0.07431   0.07444  -0.05510   0.00011
  24        2PY        -0.01024   0.04682  -0.01179   0.03585  -0.00008
  25        2PZ         0.00002  -0.00006   0.00007  -0.00004  -0.05916
  26 6   C  1S         -0.00486   0.01720  -0.01328   0.00002   0.00002
  27        2S          0.01720  -0.06005   0.04975  -0.00007  -0.00009
  28        2PX         0.01328  -0.04974   0.04237  -0.00005  -0.00000
  29        2PY         0.00001  -0.00005   0.00003  -0.05858  -0.00023
  30        2PZ         0.00002  -0.00007   0.00024  -0.00009  -0.34191
  31 7   H  1S         -0.01916   0.07341  -0.05289  -0.08669  -0.00000
  32 8   H  1S          0.02785  -0.10330   0.00443   0.12918  -0.00001
  33 9   H  1S         -0.11387   0.28900   0.54966   0.00002   0.00030
  34 10  H  1S          0.02784  -0.10340   0.00449  -0.12921   0.00010
  35 11  H  1S         -0.01918   0.07349  -0.05295   0.08680  -0.00008
  36 12  H  1S         -0.00237   0.00874  -0.00664   0.00003   0.00007
                          16        17        18        19        20
  16 4   C  1S          2.06663
  17        2S         -0.20153   0.82110
  18        2PX        -0.00223   0.01423   0.60601
  19        2PY        -0.00387   0.02445   0.00647   0.61349
  20        2PZ         0.00002  -0.00010  -0.00011   0.00009   0.78892
  21 5   C  1S          0.02554  -0.06647   0.11630   0.00094   0.00006
  22        2S         -0.06647   0.08396  -0.29234  -0.00937  -0.00017
  23        2PX        -0.11631   0.29237  -0.46571   0.00608  -0.00034
  24        2PY         0.00094  -0.00937  -0.00611   0.02255   0.00043
  25        2PZ        -0.00001  -0.00002  -0.00037   0.00029   0.50659
  26 6   C  1S         -0.00467   0.01425  -0.02112  -0.01023   0.00000
  27        2S          0.01425  -0.03304   0.07428   0.04682  -0.00004
  28        2PX         0.01943  -0.07771   0.07446   0.01180   0.00004
  29        2PY         0.01319  -0.04097   0.05505   0.03585  -0.00007
  30        2PZ        -0.00001   0.00002  -0.00002  -0.00008  -0.05921
  31 7   H  1S         -0.00237   0.00874  -0.00329  -0.00577   0.00002
  32 8   H  1S         -0.01918   0.07349   0.04869  -0.08927   0.00009
  33 9   H  1S          0.02784  -0.10337  -0.10964   0.06849  -0.00015
  34 10  H  1S         -0.11387   0.28899   0.27491   0.47598  -0.00010
  35 11  H  1S          0.02785  -0.10331   0.11410  -0.06075   0.00013
  36 12  H  1S         -0.01917   0.07342  -0.10153  -0.00244  -0.00007
                          21        22        23        24        25
  21 5   C  1S          2.06663
  22        2S         -0.20151   0.82100
  23        2PX         0.00223  -0.01422   0.60603
  24        2PY        -0.00386   0.02449  -0.00647   0.61352
  25        2PZ         0.00001  -0.00006  -0.00002   0.00018   0.78888
  26 6   C  1S          0.02552  -0.06642   0.05731   0.10116  -0.00010
  27        2S         -0.06642   0.08392  -0.13800  -0.25789   0.00027
  28        2PX        -0.05896   0.15434  -0.09963  -0.20539   0.00013
  29        2PY        -0.10022   0.24847  -0.21744  -0.34376   0.00060
  30        2PZ         0.00008  -0.00021   0.00008   0.00072   0.50583
  31 7   H  1S         -0.01918   0.07347  -0.04866  -0.08923   0.00008
  32 8   H  1S         -0.00237   0.00873   0.00328  -0.00576  -0.00007
  33 9   H  1S         -0.01916   0.07338   0.10149  -0.00244   0.00003
  34 10  H  1S          0.02784  -0.10330  -0.11408  -0.06076   0.00001
  35 11  H  1S         -0.11385   0.28897  -0.27492   0.47602  -0.00043
  36 12  H  1S          0.02784  -0.10338   0.10965   0.06845  -0.00007
                          26        27        28        29        30
  26 6   C  1S          2.06663
  27        2S         -0.20150   0.82097
  28        2PX         0.00446  -0.02830   0.61726
  29        2PY         0.00000   0.00005  -0.00001   0.60233
  30        2PZ        -0.00002   0.00009  -0.00000   0.00014   0.78889
  31 7   H  1S          0.02785  -0.10333  -0.00442   0.12919  -0.00011
  32 8   H  1S         -0.01917   0.07342   0.05288  -0.08672  -0.00001
  33 9   H  1S         -0.00237   0.00875   0.00664   0.00004   0.00004
  34 10  H  1S         -0.01917   0.07347   0.05295   0.08676  -0.00015
  35 11  H  1S          0.02784  -0.10338  -0.00446  -0.12921   0.00011
  36 12  H  1S         -0.11387   0.28898  -0.54967   0.00007  -0.00008
                          31        32        33        34        35
  31 7   H  1S          0.59353
  32 8   H  1S         -0.07712   0.59356
  33 9   H  1S         -0.04747  -0.07719   0.59354
  34 10  H  1S          0.02091  -0.04748  -0.07704   0.59354
  35 11  H  1S         -0.04748   0.02094  -0.04748  -0.07716   0.59359
  36 12  H  1S         -0.07716  -0.04748   0.02092  -0.04748  -0.07713
                          36
  36 12  H  1S          0.59353
    Full Mulliken population analysis:
                           1         2         3         4         5
   1 1   C  1S          2.06663
   2        2S         -0.05005   0.82097
   3        2PX         0.00000   0.00000   0.60605
   4        2PY         0.00000   0.00000   0.00000   0.61353
   5        2PZ         0.00000   0.00000   0.00000   0.00000   0.78890
   6 2   C  1S          0.00000  -0.00252  -0.00731   0.00000   0.00000
   7        2S         -0.00252   0.03081   0.11391   0.00000   0.00000
   8        2PX        -0.00731   0.11391   0.15283   0.00000   0.00000
   9        2PY         0.00000   0.00000   0.00000   0.00482   0.00000
  10        2PZ         0.00000   0.00000   0.00000   0.00000   0.10870
  11 3   C  1S         -0.00000   0.00003   0.00008   0.00002   0.00000
  12        2S          0.00003  -0.00202  -0.00580  -0.00211   0.00000
  13        2PX         0.00007  -0.00607  -0.00627  -0.00075   0.00000
  14        2PY         0.00003  -0.00184  -0.00349  -0.00039   0.00000
  15        2PZ         0.00000   0.00000   0.00000   0.00000  -0.00152
  16 4   C  1S          0.00000   0.00001   0.00000   0.00001   0.00000
  17        2S          0.00001  -0.00158  -0.00053  -0.00158  -0.00000
  18        2PX         0.00000  -0.00053   0.00027  -0.00139   0.00000
  19        2PY         0.00001  -0.00158  -0.00139  -0.00077  -0.00000
  20        2PZ         0.00000  -0.00000  -0.00000  -0.00000  -0.00348
  21 5   C  1S         -0.00000   0.00003  -0.00000   0.00010   0.00000
  22        2S          0.00003  -0.00202  -0.00000  -0.00791  -0.00000
  23        2PX         0.00000   0.00000   0.00042  -0.00000  -0.00000
  24        2PY         0.00010  -0.00791   0.00000  -0.01132  -0.00000
  25        2PZ         0.00000  -0.00000  -0.00000  -0.00000  -0.00152
  26 6   C  1S          0.00000  -0.00252  -0.00180  -0.00552  -0.00000
  27        2S         -0.00252   0.03082   0.02690   0.08705   0.00000
  28        2PX        -0.00186   0.03007  -0.00789   0.04829   0.00000
  29        2PY        -0.00547   0.08387   0.05115   0.06611   0.00000
  30        2PZ        -0.00000   0.00000   0.00000   0.00000   0.10892
  31 7   H  1S         -0.00693   0.14023   0.06374   0.19128   0.00000
  32 8   H  1S          0.00015  -0.00988  -0.01267  -0.00330  -0.00000
  33 9   H  1S         -0.00000   0.00047   0.00102   0.00001  -0.00000
  34 10  H  1S         -0.00000   0.00002   0.00001   0.00002   0.00000
  35 11  H  1S         -0.00000   0.00047   0.00008   0.00094   0.00000
  36 12  H  1S          0.00015  -0.00988  -0.01125  -0.00472  -0.00000
                           6         7         8         9        10
   6 2   C  1S          2.06663
   7        2S         -0.05004   0.82093
   8        2PX         0.00000   0.00000   0.60606
   9        2PY         0.00000   0.00000   0.00000   0.61354
  10        2PZ         0.00000   0.00000   0.00000   0.00000   0.78888
  11 3   C  1S          0.00000  -0.00253  -0.00181  -0.00552   0.00000
  12        2S         -0.00253   0.03083   0.02691   0.08704   0.00000
  13        2PX        -0.00186   0.03009  -0.00789   0.04832   0.00000
  14        2PY        -0.00547   0.08388   0.05117   0.06605   0.00000
  15        2PZ         0.00000   0.00000   0.00000   0.00000   0.10896
  16 4   C  1S         -0.00000   0.00003  -0.00000   0.00010   0.00000
  17        2S          0.00003  -0.00202  -0.00000  -0.00791  -0.00000
  18        2PX         0.00000   0.00000   0.00042  -0.00000  -0.00000
  19        2PY         0.00010  -0.00791   0.00000  -0.01132  -0.00000
  20        2PZ         0.00000  -0.00000  -0.00000  -0.00000  -0.00152
  21 5   C  1S          0.00000   0.00001   0.00000   0.00001   0.00000
  22        2S          0.00001  -0.00158  -0.00053  -0.00158  -0.00000
  23        2PX         0.00000  -0.00053   0.00027  -0.00139  -0.00000
  24        2PY         0.00001  -0.00158  -0.00139  -0.00077  -0.00000
  25        2PZ        -0.00000   0.00000  -0.00000  -0.00000  -0.00348
  26 6   C  1S         -0.00000   0.00003   0.00008   0.00002   0.00000
  27        2S          0.00003  -0.00202  -0.00580  -0.00211  -0.00000
  28        2PX         0.00007  -0.00607  -0.00627  -0.00075  -0.00000
  29        2PY         0.00003  -0.00184  -0.00349  -0.00039  -0.00000
  30        2PZ         0.00000   0.00000  -0.00000  -0.00000  -0.00152
  31 7   H  1S          0.00015  -0.00988  -0.01266  -0.00330   0.00000
  32 8   H  1S         -0.00693   0.14020   0.06370   0.19133   0.00000
  33 9   H  1S          0.00015  -0.00988  -0.01125  -0.00472  -0.00000
  34 10  H  1S         -0.00000   0.00047   0.00008   0.00094  -0.00000
  35 11  H  1S         -0.00000   0.00002   0.00001   0.00002   0.00000
  36 12  H  1S         -0.00000   0.00047   0.00102   0.00001  -0.00000
                          11        12        13        14        15
  11 3   C  1S          2.06663
  12        2S         -0.05005   0.82106
  13        2PX         0.00000   0.00000   0.61722
  14        2PY         0.00000   0.00000   0.00000   0.60230
  15        2PZ         0.00000   0.00000   0.00000   0.00000   0.78890
  16 4   C  1S          0.00000  -0.00252  -0.00185  -0.00546  -0.00000
  17        2S         -0.00252   0.03079   0.03005   0.08383   0.00000
  18        2PX        -0.00180   0.02688  -0.00788   0.05111   0.00000
  19        2PY        -0.00551   0.08701   0.04827   0.06615   0.00000
  20        2PZ        -0.00000   0.00000   0.00000   0.00000   0.10865
  21 5   C  1S         -0.00000   0.00003   0.00007   0.00003   0.00000
  22        2S          0.00003  -0.00202  -0.00606  -0.00185  -0.00000
  23        2PX         0.00008  -0.00580  -0.00626  -0.00349  -0.00000
  24        2PY         0.00002  -0.00211  -0.00075  -0.00039  -0.00000
  25        2PZ         0.00000  -0.00000  -0.00000  -0.00000  -0.00152
  26 6   C  1S          0.00000   0.00001   0.00001   0.00000  -0.00000
  27        2S          0.00001  -0.00158  -0.00211  -0.00000   0.00000
  28        2PX         0.00001  -0.00211  -0.00268  -0.00000   0.00000
  29        2PY        -0.00000   0.00000   0.00000  -0.00060  -0.00000
  30        2PZ         0.00000  -0.00000  -0.00000  -0.00000  -0.00348
  31 7   H  1S         -0.00000   0.00047   0.00044   0.00059  -0.00000
  32 8   H  1S          0.00015  -0.00988  -0.00004  -0.01593  -0.00000
  33 9   H  1S         -0.00693   0.14022   0.25501   0.00000   0.00000
  34 10  H  1S          0.00015  -0.00988  -0.00004  -0.01593  -0.00000
  35 11  H  1S         -0.00000   0.00047   0.00044   0.00059   0.00000
  36 12  H  1S         -0.00000   0.00002   0.00002   0.00000  -0.00000
                          16        17        18        19        20
  16 4   C  1S          2.06663
  17        2S         -0.05005   0.82110
  18        2PX         0.00000   0.00000   0.60601
  19        2PY         0.00000   0.00000   0.00000   0.61349
  20        2PZ         0.00000   0.00000   0.00000   0.00000   0.78892
  21 5   C  1S          0.00000  -0.00252  -0.00732  -0.00000  -0.00000
  22        2S         -0.00252   0.03083   0.11394   0.00000   0.00000
  23        2PX        -0.00732   0.11395   0.15280  -0.00000   0.00000
  24        2PY         0.00000  -0.00000   0.00000   0.00485  -0.00000
  25        2PZ        -0.00000  -0.00000   0.00000  -0.00000   0.10893
  26 6   C  1S         -0.00000   0.00003   0.00008   0.00002   0.00000
  27        2S          0.00003  -0.00202  -0.00580  -0.00211  -0.00000
  28        2PX         0.00007  -0.00607  -0.00626  -0.00075   0.00000
  29        2PY         0.00003  -0.00185  -0.00349  -0.00039  -0.00000
  30        2PZ         0.00000  -0.00000  -0.00000  -0.00000  -0.00152
  31 7   H  1S         -0.00000   0.00002   0.00001   0.00002   0.00000
  32 8   H  1S         -0.00000   0.00047   0.00008   0.00094   0.00000
  33 9   H  1S          0.00015  -0.00987  -0.01124  -0.00472  -0.00000
  34 10  H  1S         -0.00693   0.14022   0.06381   0.19120   0.00000
  35 11  H  1S          0.00015  -0.00987  -0.01266  -0.00330  -0.00000
  36 12  H  1S         -0.00000   0.00047   0.00102   0.00001  -0.00000
                          21        22        23        24        25
  21 5   C  1S          2.06663
  22        2S         -0.05005   0.82100
  23        2PX         0.00000   0.00000   0.60603
  24        2PY         0.00000   0.00000   0.00000   0.61352
  25        2PZ         0.00000   0.00000   0.00000   0.00000   0.78888
  26 6   C  1S          0.00000  -0.00252  -0.00180  -0.00551  -0.00000
  27        2S         -0.00252   0.03081   0.02689   0.08702   0.00000
  28        2PX        -0.00185   0.03007  -0.00789   0.04829   0.00000
  29        2PY        -0.00546   0.08385   0.05113   0.06611   0.00000
  30        2PZ        -0.00000   0.00000   0.00000   0.00000   0.10871
  31 7   H  1S         -0.00000   0.00047   0.00008   0.00094   0.00000
  32 8   H  1S         -0.00000   0.00002   0.00001   0.00002  -0.00000
  33 9   H  1S         -0.00000   0.00047   0.00101   0.00001   0.00000
  34 10  H  1S          0.00015  -0.00987  -0.01266  -0.00330   0.00000
  35 11  H  1S         -0.00693   0.14020   0.06380   0.19122   0.00000
  36 12  H  1S          0.00015  -0.00988  -0.01125  -0.00472  -0.00000
                          26        27        28        29        30
  26 6   C  1S          2.06663
  27        2S         -0.05005   0.82097
  28        2PX         0.00000   0.00000   0.61726
  29        2PY         0.00000   0.00000   0.00000   0.60233
  30        2PZ         0.00000   0.00000   0.00000   0.00000   0.78889
  31 7   H  1S          0.00015  -0.00988  -0.00004  -0.01593  -0.00000
  32 8   H  1S         -0.00000   0.00047   0.00044   0.00059  -0.00000
  33 9   H  1S         -0.00000   0.00002   0.00002  -0.00000   0.00000
  34 10  H  1S         -0.00000   0.00047   0.00044   0.00059   0.00000
  35 11  H  1S          0.00015  -0.00988  -0.00004  -0.01593  -0.00000
  36 12  H  1S         -0.00693   0.14023   0.25503   0.00000   0.00000
                          31        32        33        34        35
  31 7   H  1S          0.59353
  32 8   H  1S         -0.00386   0.59356
  33 9   H  1S         -0.00004  -0.00386   0.59354
  34 10  H  1S          0.00000  -0.00004  -0.00385   0.59354
  35 11  H  1S         -0.00004   0.00000  -0.00004  -0.00386   0.59359
  36 12  H  1S         -0.00386  -0.00004   0.00000  -0.00004  -0.00386
                          36
  36 12  H  1S          0.59353
     Gross orbital populations:
                           1
   1 1   C  1S          1.99053
   2        2S          1.15330
   3        2PX         0.95806
   4        2PY         0.97242
   5        2PZ         1.00000
   6 2   C  1S          1.99053
   7        2S          1.15327
   8        2PX         0.95807
   9        2PY         0.97244
  10        2PZ         1.00001
  11 3   C  1S          1.99053
  12        2S          1.15336
  13        2PX         0.97951
  14        2PY         0.95089
  15        2PZ         0.99999
  16 4   C  1S          1.99053
  17        2S          1.15339
  18        2PX         0.95806
  19        2PY         0.97231
  20        2PZ         0.99999
  21 5   C  1S          1.99053
  22        2S          1.15331
  23        2PX         0.95808
  24        2PY         0.97236
  25        2PZ         1.00001
  26 6   C  1S          1.99053
  27        2S          1.15329
  28        2PX         0.97956
  29        2PY         0.95093
  30        2PZ         1.00000
  31 7   H  1S          0.92569
  32 8   H  1S          0.92570
  33 9   H  1S          0.92570
  34 10  H  1S          0.92570
  35 11  H  1S          0.92572
  36 12  H  1S          0.92569
          Condensed to atoms (all electrons):
               1          2          3          4          5          6
     1  C    4.795992   0.505312  -0.030010  -0.012513  -0.030015   0.505595
     2  C    0.505312   4.795953   0.505656  -0.030012  -0.012511  -0.030016
     3  C   -0.030010   0.505656   4.796020   0.505207  -0.030005  -0.012511
     4  C   -0.012513  -0.030012   0.505207   4.796042   0.505621  -0.030010
     5  C   -0.030015  -0.012511  -0.030005   0.505621   4.795962   0.505321
     6  C    0.505595  -0.030016  -0.012511  -0.030010   0.505321   4.795989
     7  H    0.388316  -0.025695   0.001496   0.000038   0.001497  -0.025701
     8  H   -0.025706   0.388300  -0.025698   0.001497   0.000038   0.001496
     9  H    0.001497  -0.025698   0.388297  -0.025686   0.001495   0.000038
    10  H    0.000038   0.001495  -0.025697   0.388292  -0.025685   0.001496
    11  H    0.001496   0.000038   0.001496  -0.025691   0.388276  -0.025702
    12  H   -0.025698   0.001497   0.000038   0.001496  -0.025700   0.388317
               7          8          9         10         11         12
     1  C    0.388316  -0.025706   0.001497   0.000038   0.001496  -0.025698
     2  C   -0.025695   0.388300  -0.025698   0.001495   0.000038   0.001497
     3  C    0.001496  -0.025698   0.388297  -0.025697   0.001496   0.000038
     4  C    0.000038   0.001497  -0.025686   0.388292  -0.025691   0.001496
     5  C    0.001497   0.000038   0.001495  -0.025685   0.388276  -0.025700
     6  C   -0.025701   0.001496   0.000038   0.001496  -0.025702   0.388317
     7  H    0.593528  -0.003859  -0.000036   0.000002  -0.000036  -0.003859
     8  H   -0.003859   0.593564  -0.003860  -0.000036   0.000002  -0.000036
     9  H   -0.000036  -0.003860   0.593540  -0.003853  -0.000036   0.000002
    10  H    0.000002  -0.000036  -0.003853   0.593540  -0.003856  -0.000036
    11  H   -0.000036   0.000002  -0.000036  -0.003856   0.593587  -0.003859
    12  H   -0.003859  -0.000036   0.000002  -0.000036  -0.003859   0.593529
 Mulliken charges:
               1
     1  C   -0.074305
     2  C   -0.074319
     3  C   -0.074289
     4  C   -0.074281
     5  C   -0.074293
     6  C   -0.074314
     7  H    0.074310
     8  H    0.074297
     9  H    0.074301
    10  H    0.074299
    11  H    0.074284
    12  H    0.074310
 Sum of Mulliken charges =   0.00000
 Mulliken charges with hydrogens summed into heavy atoms:
               1
     1  C    0.000005
     2  C   -0.000022
     3  C    0.000012
     4  C    0.000018
     5  C   -0.000009
     6  C   -0.000004
 Electronic spatial extent (au):  <R**2>=            720.0600
 Charge=             -0.0000 electrons
 Dipole moment (field-independent basis, Debye):
    X=              0.0000    Y=              0.0000    Z=              0.0004  Tot=              0.0004
 Quadrupole moment (field-independent basis, Debye-Ang):
   XX=            -30.6045   YY=            -30.6055   ZZ=            -35.1527
   XY=              0.0003   XZ=              0.0018   YZ=             -0.0028
 Traceless Quadrupole moment (field-independent basis, Debye-Ang):
   XX=              1.5164   YY=              1.5154   ZZ=             -3.0318
   XY=              0.0003   XZ=              0.0018   YZ=             -0.0028
 Octapole moment (field-independent basis, Debye-Ang**2):
  XXX=             82.4941  YYY=            -89.9087  ZZZ=              0.0597  XYY=             27.4990
  XXY=            -29.9648  XXZ=              0.0161  XZZ=             31.5843  YZZ=            -34.4215
  YYZ=              0.0130  XYZ=              0.0049
 Hexadecapole moment (field-independent basis, Debye-Ang**3):
 XXXX=           -404.3383 YYYY=           -432.1775 ZZZZ=            -28.5578 XXXY=             80.7719
 XXXZ=             -0.0694 YYYX=             80.7862 YYYZ=              0.1019 ZZZX=             -0.0886
 ZZZY=              0.1403 XXYY=           -139.4091 XXZZ=            -82.2926 YYZZ=            -87.6185
 XXYZ=              0.0312 YYXZ=             -0.0130 ZZXY=             30.9281
 N-N= 2.030307491037D+02 E-N=-9.367159750549D+02  KE= 2.255701782164D+02
 Orbital energies and kinetic energies (alpha):
                                 1                 2
   1         O                -9.793753         15.535285
   2         O                -9.793328         15.560159
   3         O                -9.793326         15.560157
   4         O                -9.792556         15.606052
   5         O                -9.792554         15.606064
   6         O                -9.792021         15.633539
   7         O                -0.744462          1.396994
   8         O                -0.645787          1.528804
   9         O                -0.645752          1.528662
  10         O                -0.514996          1.368438
  11         O                -0.514955          1.368312
  12         O                -0.444658          0.862128
  13         O                -0.388236          1.267372
  14         O                -0.362829          1.308240
  15         O                -0.347541          1.146896
  16         O                -0.347526          1.146918
  17         O                -0.286966          1.083872
  18         O                -0.273061          1.315591
  19         O                -0.272989          1.315615
  20         O                -0.181215          1.322971
  21         O                -0.181172          1.323020
  22         V                 0.040959          1.823374
  23         V                 0.041022          1.823497
  24         V                 0.189714          2.165230
  25         V                 0.268557          1.983071
  26         V                 0.322414          2.100611
  27         V                 0.322518          2.100739
  28         V                 0.379267          3.082428
  29         V                 0.393835          3.198871
  30         V                 0.393890          3.198630
  31         V                 0.509214          2.794279
  32         V                 0.509291          2.794962
  33         V                 0.525990          3.188524
  34         V                 0.526143          3.188955
  35         V                 0.677417          3.362574
  36         V                 0.727488          3.621604
 Total kinetic energy from orbitals= 2.255701782164D+02
 Calling FoFJK, ICntrl=  10005527 FMM=F ISym2X=0 I1Cent= 0 IOpClX= 0 NMat=1 NMatS=1 NMatT=0.
 -------------------------------------------------------------------
 Center     Atomic                   Forces (Hartrees/Bohr)
 Number     Number              X              Y              Z
 -------------------------------------------------------------------
      1        6          -0.031766681   -0.055458178    0.000015874
      2        6           0.031696839   -0.055654971    0.000067157
      3        6           0.063895279    0.000561918    0.000011908
      4        6           0.032371275    0.055056244   -0.000009497
      5        6          -0.032235235    0.055378375   -0.000054571
      6        6          -0.063926054    0.000208172   -0.000011178
      7        1          -0.002222318   -0.003857938    0.000003670
      8        1           0.002228213   -0.003821904   -0.000016359
      9        1           0.004398447   -0.000002327    0.000004247
     10        1           0.002171528    0.003825836   -0.000010351
     11        1          -0.002153202    0.003770760   -0.000003668
     12        1          -0.004458092   -0.000005986    0.000002766
 -------------------------------------------------------------------
 Cartesian Forces:  Max     0.063926054 RMS     0.026171549

 GradGradGradGradGradGradGradGradGradGradGradGradGradGradGradGradGradGrad
 Berny optimization.
 Search for a local minimum.
 Step number   1 out of a maximum of    2
 All quantities printed in internal units (Hartrees-Bohrs-Radians)
 Second derivative matrix not updated -- first step.
 ITU=  0
     Eigenvalues ---    0.01582   0.01584   0.03239   0.04033   0.06692
     Eigenvalues ---    0.06692   0.06861   0.06862   0.07017   0.09484
     Eigenvalues ---    0.09485   0.10533   0.10535   0.16002   0.18066
     Eigenvalues ---    0.25695   0.29733   0.29743   0.39442   0.39447
     Eigenvalues ---    0.43603   0.66190   0.66197   0.97893   1.06355
     Eigenvalues ---    1.20522   1.20538   1.47173   1.57418   1.57468
 Quadratic step=5.329D-01 exceeds max=3.000D-01 adjusted using Lamda=-1.392D-01.
 Angle between NR and scaled steps=   8.61 degrees.
 Angle between quadratic step and forces=  34.88 degrees.
 Linear search not attempted -- first point.
 B after Tr=    -0.000002    0.000002    0.000012
         Rot=    1.000000    0.000001    0.000001    0.000001 Ang=   0.00 deg.
 Variable       Old X    -DE/DX   Delta X   Delta X   Delta X     New X
                                 (Linear)    (Quad)   (Total)
    X1       -3.01621  -0.03177   0.00000  -0.04768  -0.04769  -3.06390
    Y1       -0.43243  -0.05546   0.00000  -0.08279  -0.08278  -0.51521
    Z1        0.00000   0.00002   0.00000   0.00002   0.00002   0.00002
    X2       -0.37974   0.03170   0.00000   0.04761   0.04760  -0.33214
    Y2       -0.43243  -0.05565   0.00000  -0.08287  -0.08287  -0.51530
    Z2        0.00000   0.00007   0.00000   0.00017   0.00018   0.00018
    X3        0.93842   0.06390   0.00000   0.09545   0.09546   1.03387
    Y3        1.84989   0.00056   0.00000   0.00031   0.00031   1.85019
    Z3        0.00000   0.00001   0.00000  -0.00003  -0.00002  -0.00002
    X4       -0.37996   0.03237   0.00000   0.04798   0.04799  -0.33197
    Y4        4.13364   0.05506   0.00000   0.08256   0.08256   4.21620
    Z4       -0.00227  -0.00001   0.00000  -0.00000   0.00000  -0.00226
    X5       -3.01580  -0.03224   0.00000  -0.04783  -0.04782  -3.06362
    Y5        4.13349   0.05538   0.00000   0.08272   0.08273   4.21622
    Z5       -0.00317  -0.00005   0.00000  -0.00004  -0.00005  -0.00322
    X6       -4.33407  -0.06393   0.00000  -0.09551  -0.09551  -4.42958
    Y6        1.85031   0.00021   0.00000   0.00012   0.00013   1.85045
    Z6       -0.00129  -0.00001   0.00000  -0.00007  -0.00007  -0.00136
    X7       -4.05510  -0.00222   0.00000  -0.03845  -0.03846  -4.09356
    Y7       -2.23205  -0.00386   0.00000  -0.06669  -0.06668  -2.29873
    Z7        0.00085   0.00000   0.00000   0.00003   0.00003   0.00088
    X8        0.65868   0.00223   0.00000   0.03849   0.03848   0.69716
    Y8       -2.23242  -0.00382   0.00000  -0.06662  -0.06662  -2.29904
    Z8        0.00248  -0.00002   0.00000  -0.00000   0.00001   0.00250
    X9        3.01651   0.00440   0.00000   0.07680   0.07680   3.09331
    Y9        1.85004  -0.00000   0.00000   0.00012   0.00012   1.85015
    Z9        0.00120   0.00000   0.00000  -0.00000   0.00002   0.00122
   X10        0.65977   0.00217   0.00000   0.03839   0.03840   0.69817
   Y10        5.93293   0.00383   0.00000   0.06655   0.06655   5.99947
   Z10       -0.00238  -0.00001   0.00000  -0.00006  -0.00005  -0.00243
   X11       -4.05538  -0.00215   0.00000  -0.03830  -0.03829  -4.09367
   Y11        5.93304   0.00377   0.00000   0.06651   0.06652   5.99956
   Z11       -0.00497  -0.00000   0.00000  -0.00004  -0.00005  -0.00502
   X12       -6.41202  -0.00446   0.00000  -0.07697  -0.07697  -6.48899
   Y12        1.85066  -0.00001   0.00000   0.00001   0.00003   1.85069
   Z12       -0.00163   0.00000   0.00000  -0.00001  -0.00002  -0.00165
         Item               Value     Threshold  Converged?
 Maximum Force            0.063926     0.000450     NO 
 RMS     Force            0.026172     0.000300     NO 
 Maximum Displacement     0.095510     0.001800     NO 
 RMS     Displacement     0.050057     0.001200     NO 
 Predicted change in Energy=-2.562070D-02
 GradGradGradGradGradGradGradGradGradGradGradGradGradGradGradGradGradGrad

 Unable to Open any file for archive entry.
 1\1\GINC-BLUEHIVE\Force\RBP81 TD-FC\STO-3G\C6H6\BWEIGHT\27-Dec-2022\0\
 \# BPL/sto-3g TD=(singlets,nstates=4,root=1) FORCE nosym pop=full gues
 s=read\\MD Step 1\\0,1\C,-1.59610985,-0.22883295,0.\C,-0.20094985,-0.2
 2883295,0.\C,0.49658815,0.97891805,0.\C,-0.20106585,2.18742705,-0.0011
 99\C,-1.59589085,2.18734905,-0.001678\C,-2.29349185,0.97914305,-0.0006
 82\H,-2.14586885,-1.18114995,0.00045\H,0.34855815,-1.18134595,0.001315
 \H,1.59626815,0.97899805,0.000634\H,0.34913415,3.13957005,-0.001258\H,
 -2.14601285,3.13963005,-0.002631\H,-3.39309585,0.97932605,-0.000862\\V
 ersion=ES64L-G16RevC.01\HF=-230.5595725\RMSD=4.434e-09\RMSF=2.617e-02\
 Dipole=0.0000108,0.000004,0.0002168\PG=C01 [X(C6H6)]\\@
 The archive entry for this job was punched.


 "WOULD YOU TELL ME PLEASE, WHICH WAY I OUGHT TO WALK FROM HERE?"
 "THAT DEPENDS A GREAT DEAL ON WHERE YOU WANT TO GO," SAID THE CAT.
 "I DON'T MUCH CARE WHERE -- ", SAID ALICE.
 "THEN IT DOESN'T MATTER WHICH WAY YOU WALK," SAID THE CAT.

                                      -- LEWIS CARROLL
 Job cpu time:       0 days  0 hours  0 minutes 53.9 seconds.
 Elapsed time:       0 days  0 hours  1 minutes 47.4 seconds.
 File lengths (MBytes):  RWF=    272 Int=      0 D2E=      0 Chk=     32 Scr=     32
 Normal termination of Gaussian 16 at Tue Dec 27 19:32:23 2022.
