6
MD Step 0
C  -0.33763715 -0.58748864 0.00000000
H  0.19552659 -1.51519357 0.00000000
H  -1.40763715 -0.58748864 0.00000000
C  0.33763715 0.58748865 0.00000000
H  -0.19552659 1.51519357 0.00000000
H  1.40763715 0.58748865 0.00000000
6
MD Step 1
C  -0.33800633 -0.58783588 -0.00039499
H  0.19789032 -1.51298860 0.00235444
H  -1.40541686 -0.58520895 0.00235087
C  0.33721631 0.58704659 -0.00039447
H  -0.19318593 1.51769221 0.00235272
H  1.41012629 0.58991062 0.00234916
6
MD Step 2
C  -0.33832649 -0.58809368 -0.00079716
H  0.20032008 -1.51104938 0.00475168
H  -1.40347391 -0.58303539 0.00474463
C  0.33674081 0.58650554 -0.00079610
H  -0.19081868 1.52050126 0.00474813
H  1.41286754 0.59250789 0.00474091
6
MD Step 3
C  -0.33858917 -0.58825630 -0.00120160
H  0.20278537 -1.50941584 0.00716231
H  -1.40188319 -0.58100438 0.00715216
C  0.33622070 0.58587449 -0.00119989
H  -0.18844673 1.52356085 0.00715645
H  1.41576726 0.59524110 0.00714524
6
MD Step 4
C  -0.33878539 -0.58831786 -0.00160217
H  0.20524517 -1.50812817 0.00954966
H  -1.40071788 -0.57915869 0.00953724
C  0.33566761 0.58516463 -0.00159955
H  -0.18609709 1.52679821 0.00954043
H  1.41872136 0.59806256 0.00952445
6
MD Step 5
C  -0.33891429 -0.58828084 -0.00199996
H  0.20769822 -1.50717616 0.01192007
H  -1.39999704 -0.57749702 0.01190685
C  0.33508605 0.58438081 -0.00199601
H  -0.18375210 1.53017924 0.01190563
H  1.42166826 0.60096679 0.01188359
6
MD Step 6
C  -0.33897123 -0.58814408 -0.00239134
H  0.21011192 -1.50657085 0.01425161
H  -1.39975612 -0.57604535 0.01423980
C  0.33448537 0.58353338 -0.00238540
H  -0.18142122 1.53363806 0.01422916
H  1.42451901 0.60391929 0.01419916
6
MD Step 7
C  -0.33896049 -0.58791530 -0.00278048
H  0.21249756 -1.50626973 0.01656904
H  -1.39997093 -0.57478184 0.01656163
C  0.33386699 0.58262550 -0.00277168
H  -0.17906655 1.53715325 0.01653472
H  1.42723427 0.60693169 0.01649427
6
MD Step 8
C  -0.33888130 -0.58759712 -0.00316547
H  0.21482769 -1.50626061 0.01886075
H  -1.40064123 -0.57371999 0.01886153
C  0.33323830 0.58166697 -0.00315269
H  -0.17668641 1.54066565 0.01880955
H  1.42974203 0.60997876 0.01875553
6
MD Step 9
C  -0.33873293 -0.58719202 -0.00354336
H  0.21706685 -1.50653191 0.02110906
H  -1.40176044 -0.57287820 0.02112263
C  0.33260755 0.58066900 -0.00352527
H  -0.17428548 1.54410982 0.02103483
H  1.43196932 0.61302884 0.02096351
6
MD Step 10
C  -0.33851733 -0.58670493 -0.00391278
H  0.21918758 -1.50705794 0.02330572
H  -1.40330058 -0.57226432 0.02333736
C  0.33198108 0.57964150 -0.00388785
H  -0.17185984 1.54743067 0.02320117
H  1.43385893 0.61605957 0.02310828
6
MD Step 11
C  -0.33824290 -0.58614695 -0.00427782
H  0.22119409 -1.50777659 0.02547503
H  -1.40519010 -0.57185240 0.02553039
C  0.33135947 0.57858908 -0.00424431
H  -0.16937430 1.55060764 0.02533175
H  1.43539350 0.61908118 0.02521279
6
MD Step 12
C  -0.33791333 -0.58552417 -0.00463692
H  0.22305684 -1.50865655 0.02760782
H  -1.40738198 -0.57164884 0.02769282
C  0.33074856 0.57752198 -0.00459296
H  -0.16682877 1.55358927 0.02741638
H  1.43652954 0.62207041 0.02726656
6
MD Step 13
C  -0.33752933 -0.58483941 -0.00498471
H  0.22472414 -1.50968716 0.02967241
H  -1.40984418 -0.57168119 0.02979332
C  0.33015760 0.57645418 -0.00492842
H  -0.16424743 1.55630520 0.02942267
H  1.43720913 0.62498177 0.02923686
6
MD Step 14
C  -0.33709490 -0.58409850 -0.00531842
H  0.22616064 -1.51084122 0.03165267
H  -1.41252290 -0.57196021 0.03181576
C  0.32959280 0.57539684 -0.00524794
H  -0.16164125 1.55870497 0.03133385
H  1.43739872 0.62778572 0.03110678
6
MD Step 15
C  -0.33661843 -0.58331136 -0.00563909
H  0.22735497 -1.51206869 0.03355519
H  -1.41533709 -0.57247269 0.03376623
C  0.32905605 0.57435700 -0.00555256
H  -0.15900104 1.56076592 0.03315597
H  1.43709669 0.63047598 0.03288264
6
MD Step 16
C  -0.33610803 -0.58248740 -0.00594703
H  0.22829330 -1.51332457 0.03538233
H  -1.41820752 -0.57320837 0.03564637
C  0.32854950 0.57334203 -0.00584269
H  -0.15632448 1.56246669 0.03489106
H  1.43630639 0.63304269 0.03456692
6
MD Step 17
C  -0.33556918 -0.58163314 -0.00623962
H  0.22894680 -1.51458270 0.03711915
H  -1.42107181 -0.57417294 0.03744060
C  0.32807769 0.57236173 -0.00611592
H  -0.15362918 1.56377458 0.03652421
H  1.43502304 0.63545945 0.03614500
6
MD Step 18
C  -0.33501088 -0.58075850 -0.00651766
H  0.22930941 -1.51579904 0.03877105
H  -1.42384853 -0.57535071 0.03915306
C  0.32764125 0.57142195 -0.00637323
H  -0.15091544 1.56468338 0.03806088
H  1.43327125 0.63772095 0.03762320
6
MD Step 19
C  -0.33443375 -0.57986477 -0.00677338
H  0.22932779 -1.51698263 0.04029309
H  -1.42650928 -0.57677484 0.04073867
C  0.32724874 0.57053629 -0.00660741
H  -0.14823628 1.56514323 0.03945694
H  1.43103457 0.63977263 0.03895719
6
MD Step 20
C  -0.33385738 -0.57897224 -0.00701856
H  0.22906587 -1.51803178 0.04175507
H  -1.42891527 -0.57836351 0.04226402
C  0.32688892 0.56969858 -0.00683004
H  -0.14553393 1.56522519 0.04078198
H  1.42841973 0.64167532 0.04021929
6
MD Step 21
C  -0.33328378 -0.57808341 -0.00724725
H  0.22848730 -1.51895257 0.04312277
H  -1.43103752 -0.58013731 0.04369426
C  0.32656752 0.56891925 -0.00703575
H  -0.14285647 1.56490319 0.04200289
H  1.42543786 0.64338708 0.04137672
6
MD Step 22
C  -0.33271502 -0.57720074 -0.00745388
H  0.22756162 -1.51975304 0.04436450
H  -1.43285131 -0.58211348 0.04499714
C  0.32628934 0.56820754 -0.00721966
H  -0.14025208 1.56416022 0.04308932
H  1.42211033 0.64486956 0.04239947
6
MD Step 23
C  -0.33215655 -0.57633002 -0.00763680
H  0.22628439 -1.52042337 0.04547127
H  -1.43431657 -0.58428600 0.04616259
C  0.32605489 0.56756810 -0.00738063
H  -0.13774901 1.56300841 0.04403357
H  1.41848868 0.64610821 0.04328077
6
MD Step 24
C  -0.33162153 -0.57548479 -0.00780291
H  0.22470414 -1.52090909 0.04648395
H  -1.43535162 -0.58659888 0.04722844
C  0.32585580 0.56699646 -0.00752557
H  -0.13532869 1.56151579 0.04487724
H  1.41468080 0.64713932 0.04406506
6
MD Step 25
C  -0.33111066 -0.57466592 -0.00794676
H  0.22280136 -1.52123250 0.04737147
H  -1.43595534 -0.58906693 0.04816343
C  0.32569535 0.56649927 -0.00764984
H  -0.13304568 1.55968475 0.04559120
H  1.41072859 0.64792869 0.04472347
6
MD Step 26
C  -0.33063310 -0.57388286 -0.00807245
H  0.22061488 -1.52136617 0.04815814
H  -1.43608084 -0.59164990 0.04898948
C  0.32556718 0.56607319 -0.00775770
H  -0.13090171 1.55757808 0.04620097
H  1.40673337 0.64849833 0.04528393
6
MD Step 27
C  -0.33019003 -0.57313693 -0.00817643
H  0.21814283 -1.52133200 0.04882399
H  -1.43573500 -0.59435121 0.04968625
C  0.32547206 0.56572141 -0.00784634
H  -0.12894369 1.55521943 0.04668855
H  1.40275540 0.64882730 0.04572904
6
MD Step 28
C  -0.32978433 -0.57243117 -0.00825777
H  0.21540120 -1.52114235 0.04936394
H  -1.43491968 -0.59715951 0.05024785
C  0.32540805 0.56544394 -0.00791533
H  -0.12720491 1.55265142 0.04705068
H  1.39887131 0.64891050 0.04605663
6
MD Step 29
C  -0.32941747 -0.57176720 -0.00831479
H  0.21240490 -1.52081865 0.04976884
H  -1.43365051 -0.60006755 0.05066475
C  0.32537376 0.56524072 -0.00796362
H  -0.12572324 1.54991609 0.04728016
H  1.39515376 0.64873982 0.04626019
6
MD Step 30
C  -0.32909601 -0.57115184 -0.00835207
H  0.20920684 -1.52035174 0.05006513
H  -1.43191739 -0.60303305 0.05096148
C  0.32536181 0.56510519 -0.00799575
H  -0.12450159 1.54709337 0.04740482
H  1.39170897 0.64834352 0.04636971
6
MD Step 31
C  -0.32881776 -0.57058310 -0.00836579
H  0.20581456 -1.51978484 0.05023113
H  -1.42976785 -0.60606173 0.05111701
C  0.32537297 0.56503822 -0.00800866
H  -0.12358986 1.54421675 0.04740503
H  1.38859135 0.64770277 0.04636526
6
MD Step 32
C  -0.32858526 -0.57006387 -0.00835801
H  0.20227091 -1.51913196 0.05027860
H  -1.42722548 -0.60912661 0.05114237
C  0.32540263 0.56503472 -0.00800449
H  -0.12300384 1.54135328 0.04729402
H  1.38588270 0.64683280 0.04626109
6
MD Step 33
C  -0.32839636 -0.56959241 -0.00832667
H  0.19859711 -1.51843412 0.05019578
H  -1.42434624 -0.61222455 0.05102643
C  0.32545045 0.56509318 -0.00798166
H  -0.12278083 1.53854559 0.04706164
H  1.38363355 0.64572605 0.04604665
6
MD Step 34
C  -0.32824696 -0.56916519 -0.00826844
H  0.19480868 -1.51774215 0.04996385
H  -1.42120135 -0.61536002 0.05075178
C  0.32551766 0.56521307 -0.00793743
H  -0.12296272 1.53582717 0.04669054
H  1.38187792 0.64436860 0.04570348
6
MD Step 35
C  -0.32814375 -0.56878971 -0.00819229
H  0.19099081 -1.51704020 0.04963310
H  -1.41780049 -0.61846937 0.05036698
C  0.32559439 0.56538225 -0.00787985
H  -0.12351981 1.53329702 0.04623175
H  1.38070775 0.64281604 0.04528426
6
MD Step 36
C  -0.32808054 -0.56846075 -0.00809424
H  0.18715649 -1.51638657 0.04918090
H  -1.41423301 -0.62156227 0.04985144
C  0.32568363 0.56560079 -0.00780546
H  -0.12449097 1.53097647 0.04566355
H  1.38012913 0.64105168 0.04476539
6
MD Step 37
C  -0.32805874 -0.56818096 -0.00797917
H  0.18336792 -1.51579082 0.04863409
H  -1.41054461 -0.62459989 0.04923196
C  0.32578067 0.56586071 -0.00771846
H  -0.12586147 1.52893017 0.04501325
H  1.38018366 0.63910873 0.04417416
6
MD Step 38
C  -0.32806821 -0.56794169 -0.00784028
H  0.17962136 -1.51532771 0.04795401
H  -1.40685112 -0.62760960 0.04847305
C  0.32589248 0.56616525 -0.00761273
H  -0.12767686 1.52715002 0.04424243
H  1.38083262 0.63695539 0.04346908
6
MD Step 39
C  -0.32811013 -0.56774589 -0.00768337
H  0.17598214 -1.51500020 0.04717243
H  -1.40320054 -0.63054916 0.04760679
C  0.32601480 0.56650621 -0.00749312
H  -0.12990708 1.52569048 0.04338280
H  1.38209354 0.63463093 0.04268150
6
MD Step 40
C  -0.32817567 -0.56758676 -0.00750397
H  0.17245658 -1.51486647 0.04626380
H  -1.39969957 -0.63343453 0.04661046
C  0.32615356 0.56688546 -0.00735544
H  -0.13257363 1.52453988 0.04240828
H  1.38391224 0.63211784 0.04178258
6
MD Step 41
C  -0.32826692 -0.56746863 -0.00730950
H  0.16911505 -1.51491492 0.04526888
H  -1.39638745 -0.63621580 0.04552532
C  0.32630401 0.56729413 -0.00720589
H  -0.13562565 1.52374415 0.04135925
H  1.38628817 0.62946589 0.04081229
6
MD Step 42
C  -0.32838296 -0.56739304 -0.00710439
H  0.16600819 -1.51514703 0.04421148
H  -1.39331819 -0.63886075 0.04437638
C  0.32646469 0.56772674 -0.00704794
H  -0.13902319 1.52332289 0.04025896
H  1.38919137 0.62670857 0.03979280
6
MD Step 43
C  -0.32851534 -0.56735421 -0.00688516
H  0.16313928 -1.51560412 0.04307135
H  -1.39058632 -0.64138235 0.04314598
C  0.32664186 0.56818575 -0.00687811
H  -0.14276467 1.52324193 0.03908591
H  1.39253615 0.62383586 0.03870031
6
MD Step 44
C  -0.32865632 -0.56734719 -0.00664897
H  0.16051171 -1.51631844 0.04183202
H  -1.38827645 -0.64379046 0.04181996
C  0.32684131 0.56867351 -0.00669349
H  -0.14683924 1.52346214 0.03782222
H  1.39623170 0.62084233 0.03751498
6
MD Step 45
C  -0.32880139 -0.56737024 -0.00639608
H  0.15814219 -1.51729891 0.04049437
H  -1.38644720 -0.64607796 0.04040084
C  0.32706593 0.56918980 -0.00649394
H  -0.15121352 1.52395407 0.03646749
H  1.40019831 0.61774090 0.03623512
6
MD Step 46
C  -0.32895190 -0.56742731 -0.00613248
H  0.15607513 -1.51851599 0.03909107
H  -1.38511471 -0.64820585 0.03892208
C  0.32731316 0.56972931 -0.00628437
H  -0.15581740 1.52471365 0.03505386
H  1.40438430 0.61457743 0.03489248
6
MD Step 47
C  -0.32910586 -0.56751887 -0.00586013
H  0.15432802 -1.51995655 0.03763234
H  -1.38430647 -0.65015817 0.03739488
C  0.32758399 0.57029080 -0.00606615
H  -0.16059956 1.52570829 0.03359078
H  1.40871266 0.61137602 0.03349590
6
MD Step 48
C  -0.32924859 -0.56763272 -0.00556703
H  0.15283628 -1.52167938 0.03605145
H  -1.38411569 -0.65199782 0.03575440
C  0.32789210 0.57088640 -0.00582845
H  -0.16558400 1.52682252 0.03200875
H  1.41302729 0.60808374 0.03197432
6
MD Step 49
C  -0.32938077 -0.56777138 -0.00525650
H  0.15161642 -1.52365082 0.03436665
H  -1.38453504 -0.65370133 0.03401907
C  0.32823642 0.57151371 -0.00557403
H  -0.17070620 1.52802427 0.03032559
H  1.41726087 0.60473418 0.03034562
6
MD Step 50
C  -0.32950204 -0.56793593 -0.00492992
H  0.15066993 -1.52584205 0.03258567
H  -1.38555334 -0.65525614 0.03219660
C  0.32861713 0.57217209 -0.00530401
H  -0.17591117 1.52926910 0.02854847
H  1.42133914 0.60135090 0.02861707
6
MD Step 51
C  -0.32961566 -0.56813049 -0.00459164
H  0.15001078 -1.52820229 0.03073265
H  -1.38712851 -0.65663306 0.03031072
C  0.32903112 0.57285790 -0.00502220
H  -0.18112657 1.53052896 0.02670185
H  1.42520975 0.59797452 0.02681357
6
MD Step 52
C  -0.32971257 -0.56834665 -0.00423237
H  0.14957321 -1.53075288 0.02875663
H  -1.38928178 -0.65788019 0.02831027
C  0.32948736 0.57358023 -0.00472041
H  -0.18635737 1.53169983 0.02473265
H  1.42874952 0.59456982 0.02488209
6
MD Step 53
C  -0.32980588 -0.56859714 -0.00386522
H  0.14941316 -1.53338532 0.02673055
H  -1.39189563 -0.65891916 0.02626707
C  0.32997338 0.57432653 -0.00441039
H  -0.19148299 1.53280592 0.02271610
H  1.43196945 0.59122704 0.02289875
6
MD Step 54
C  -0.32988901 -0.56887494 -0.00348219
H  0.14946574 -1.53610729 0.02461080
H  -1.39496099 -0.65979170 0.02413675
C  0.33049580 0.57510400 -0.00408519
H  -0.19650407 1.53375520 0.02060693
H  1.43476886 0.58791818 0.02081873
6
MD Step 55
C  -0.32997438 -0.56919107 -0.00309459
H  0.14977141 -1.53881612 0.02246051
H  -1.39835130 -0.66043089 0.02198131
C  0.33104266 0.57590102 -0.00375505
H  -0.20131446 1.53456807 0.01847056
H  1.43716472 0.58472298 0.01870819
6
MD Step 56
C  -0.33005591 -0.56953804 -0.00269419
H  0.15025926 -1.54151884 0.02023468
H  -1.40204402 -0.66088172 0.01975477
C  0.33161977 0.57672423 -0.00341281
H  -0.20592190 1.53515867 0.01626047
H  1.43907168 0.58161099 0.01652123
6
MD Step 57
C  -0.33013598 -0.56991618 -0.00228135
H  0.15090497 -1.54417425 0.01793593
H  -1.40596337 -0.66114149 0.01745874
C  0.33222436 0.57757157 -0.00305897
H  -0.21028907 1.53549459 0.01397945
H  1.44046226 0.57859928 0.01426126
6
MD Step 58
C  -0.33021945 -0.57032788 -0.00185889
H  0.15169706 -1.54672825 0.01558073
H  -1.41001669 -0.66119462 0.01510876
C  0.33285084 0.57843812 -0.00269632
H  -0.21436860 1.53556290 0.01164454
H  1.44133257 0.57571803 0.01194591
6
MD Step 59
C  -0.33031524 -0.57077912 -0.00143389
H  0.15264734 -1.54910473 0.01320916
H  -1.41408665 -0.66100273 0.01274410
C  0.33348915 0.57931440 -0.00233142
H  -0.21809338 1.53538045 0.00929719
H  1.44171223 0.57302029 0.00961712
6
MD Step 60
C  -0.33042415 -0.57126769 -0.00100527
H  0.15372145 -1.55127701 0.01081570
H  -1.41810416 -0.66057573 0.01035855
C  0.33413657 0.58019831 -0.00196345
H  -0.22144769 1.53492341 0.00693159
H  1.44159316 0.57051172 0.00726952
6
MD Step 61
C  -0.33054716 -0.57179128 -0.00057239
H  0.15488791 -1.55321947 0.00839734
H  -1.42200080 -0.65992260 0.00794861
C  0.33478953 0.58108685 -0.00159197
H  -0.22441816 1.53417656 0.00454448
H  1.44097875 0.56819921 0.00490015
6
MD Step 62
C  -0.33068732 -0.57234945 -0.00013716
H  0.15613027 -1.55489616 0.00596526
H  -1.42569825 -0.65903945 0.00552514
C  0.33544178 0.58197410 -0.00121883
H  -0.22698199 1.53314536 0.00214711
H  1.43989577 0.56610263 0.00252043
6
MD Step 63
C  -0.33084317 -0.57293714 0.00030277
H  0.15740887 -1.55630013 0.00350659
H  -1.42914832 -0.65794860 0.00307503
C  0.33609077 0.58285786 -0.00084189
H  -0.22914619 1.53181712 -0.00027422
H  1.43835510 0.56421608 0.00011680
6
MD Step 64
C  -0.33101547 -0.57355137 0.00074699
H  0.15870115 -1.55741343 0.00102402
H  -1.43229340 -0.65665801 0.00060100
C  0.33673108 0.58373279 -0.00046159
H  -0.23090711 1.53020135 -0.00271731
H  1.43639200 0.56254794 -0.00230862
6
MD Step 65
C  -0.33121151 -0.57419544 0.00118793
H  0.16002693 -1.55818215 -0.00143940
H  -1.43504214 -0.65513594 -0.00185372
C  0.33735027 0.58458627 -0.00008485
H  -0.23222526 1.52835486 -0.00513862
H  1.43409090 0.56114584 -0.00471257
6
MD Step 66
C  -0.33142752 -0.57486177 0.00162883
H  0.16134618 -1.55861997 -0.00390186
H  -1.43737359 -0.65341456 -0.00430711
C  0.33794606 0.58541581 0.00029140
H  -0.23312867 1.52627828 -0.00755773
H  1.43148085 0.55999402 -0.00711488
6
MD Step 67
C  -0.33166548 -0.57554844 0.00206651
H  0.16265781 -1.55870890 -0.00634506
H  -1.43923826 -0.65149018 -0.00674046
C  0.33850998 0.58621239 0.00066433
H  -0.23361329 1.52401509 -0.00995687
H  1.42863444 0.55911201 -0.00949830
6
MD Step 68
C  -0.33192382 -0.57625000 0.00250092
H  0.16394491 -1.55845462 -0.00876866
H  -1.44061379 -0.64937860 -0.00915298
C  0.33903657 0.58696980 0.00103405
H  -0.23369821 1.52159606 -0.01233690
H  1.42561133 0.55849967 -0.01186421
6
MD Step 69
C  -0.33220273 -0.57696282 0.00292970
H  0.16520634 -1.55785475 -0.01115911
H  -1.44147350 -0.64708324 -0.01153054
C  0.33951825 0.58767938 0.00139856
H  -0.23339362 1.51907043 -0.01468523
H  1.42248885 0.55816874 -0.01420074
6
MD Step 70
C  -0.33249858 -0.57767960 0.00335390
H  0.16642380 -1.55693187 -0.01352234
H  -1.44181970 -0.64462826 -0.01387857
C  0.33995092 0.58833568 0.00175908
H  -0.23273379 1.51647220 -0.01700940
H  1.41932737 0.55810983 -0.01651609
6
MD Step 71
C  -0.33281165 -0.57839705 0.00377010
H  0.16760732 -1.55568762 -0.01583873
H  -1.44163795 -0.64201261 -0.01617678
C  0.34032646 0.58892884 0.00211265
H  -0.23173081 1.51386516 -0.01929090
H  1.41621468 0.55833800 -0.01879259
6
MD Step 72
C  -0.33313260 -0.57910253 0.00418418
H  0.16871538 -1.55418267 -0.01814239
H  -1.44097731 -0.63929034 -0.01845899
C  0.34064623 0.58945819 0.00246523
H  -0.23045451 1.51126185 -0.02156614
H  1.41318380 0.55881290 -0.02106713
6
MD Step 73
C  -0.33346639 -0.57979777 0.00458722
H  0.16979543 -1.55239498 -0.02038146
H  -1.43980859 -0.63642879 -0.02067243
C  0.34089757 0.58990853 0.00280850
H  -0.22889037 1.50876404 -0.02378405
H  1.41035334 0.55957963 -0.02328970
6
MD Step 74
C  -0.33380638 -0.58047330 0.00498155
H  0.17083133 -1.55037271 -0.02256970
H  -1.43817773 -0.63346204 -0.02283058
C  0.34107953 0.59027609 0.00314507
H  -0.22709220 1.50640833 -0.02596037
H  1.40777144 0.56061614 -0.02547646
6
MD Step 75
C  -0.33414948 -0.58112350 0.00536562
H  0.17183231 -1.54814426 -0.02469789
H  -1.43611590 -0.63040111 -0.02492383
C  0.34118803 0.59055352 0.00347370
H  -0.22509180 1.50425446 -0.02808748
H  1.40550384 0.56192255 -0.02762030
6
MD Step 76
C  -0.33449754 -0.58174800 0.00573263
H  0.17284070 -1.54570970 -0.02672591
H  -1.43363114 -0.62722579 -0.02691132
C  0.34121459 0.59072870 0.00378787
H  -0.22289006 1.50239211 -0.03012635
H  1.40364002 0.56352916 -0.02968293
6
MD Step 77
C  -0.33483840 -0.58233298 0.00608940
H  0.17381986 -1.54315269 -0.02869416
H  -1.43082058 -0.62399716 -0.02883405
C  0.34116523 0.59080378 0.00409467
H  -0.22056850 1.50082698 -0.03211940
H  1.40217841 0.56538452 -0.03170607
6
MD Step 78
C  -0.33516819 -0.58287332 0.00643428
H  0.17478520 -1.54050769 -0.03059269
H  -1.42773728 -0.62072518 -0.03068217
C  0.34103848 0.59077313 0.00439260
H  -0.21815641 1.49961156 -0.03405788
H  1.40115792 0.56748703 -0.03368074
6
MD Step 79
C  -0.33548205 -0.58336341 0.00676647
H  0.17574834 -1.53781491 -0.03241650
H  -1.42444500 -0.61742440 -0.03245103
C  0.34083462 0.59063277 0.00468093
H  -0.21568573 1.49878805 -0.03593774
H  1.40060104 0.56982944 -0.03560228
6
MD Step 80
C  -0.33577720 -0.58380020 0.00708304
H  0.17673452 -1.53510165 -0.03414773
H  -1.42099930 -0.61409590 -0.03412302
C  0.34055278 0.59037755 0.00495664
H  -0.21317224 1.49840494 -0.03774165
H  1.40053106 0.57241667 -0.03745277
6
MD Step 81
C  -0.33604585 -0.58417622 0.00738593
H  0.17774014 -1.53242390 -0.03579768
H  -1.41748879 -0.61076962 -0.03571069
C  0.34019796 0.59000840 0.00522163
H  -0.21065717 1.49847346 -0.03948132
H  1.40092914 0.57522364 -0.03924234
6
MD Step 82
C  -0.33628215 -0.58448646 0.00767523
H  0.17877268 -1.52982485 -0.03736648
H  -1.41399284 -0.60746355 -0.03721535
C  0.33977415 0.58952551 0.00547580
H  -0.20816598 1.49900724 -0.04115674
H  1.40177542 0.57823567 -0.04096940
6
MD Step 83
C  -0.33647931 -0.58472546 0.00795211
H  0.17983229 -1.52735210 -0.03886101
H  -1.41059788 -0.60420173 -0.03864556
C  0.33928729 0.58893154 0.00572014
H  -0.20572599 1.50000357 -0.04277420
H  1.40303165 0.58143050 -0.04263821
6
MD Step 84
C  -0.33663278 -0.58489046 0.00821590
H  0.18092960 -1.52503846 -0.04027656
H  -1.40737712 -0.60099580 -0.03999818
C  0.33874209 0.58822852 0.00595356
H  -0.20334776 1.50146129 -0.04432784
H  1.40466071 0.58479652 -0.04424114
6
MD Step 85
C  -0.33674234 -0.58498341 0.00846225
H  0.18209697 -1.52288962 -0.04158527
H  -1.40437699 -0.59783327 -0.04124596
C  0.33813995 0.58741595 0.00617071
H  -0.20101341 1.50339230 -0.04578795
H  1.40663947 0.58834441 -0.04574768
6
MD Step 86
C  -0.33679727 -0.58499615 0.00869718
H  0.18329967 -1.52097236 -0.04282440
H  -1.40170443 -0.59476643 -0.04242966
C  0.33749373 0.58650568 0.00637778
H  -0.19876538 1.50573285 -0.04718990
H  1.40887117 0.59201843 -0.04718971
6
MD Step 87
C  -0.33680032 -0.58493416 0.00891472
H  0.18457637 -1.51927258 -0.04395560
H  -1.39938305 -0.59177084 -0.04351120
C  0.33680396 0.58549813 0.00656740
H  -0.19656572 1.50848552 -0.04849258
H  1.41132910 0.59583755 -0.04852603
6
MD Step 88
C  -0.33674758 -0.58479643 0.00911585
H  0.18591931 -1.51781500 -0.04498440
H  -1.39747191 -0.58886546 -0.04449823
C  0.33607883 0.58440242 0.00674000
H  -0.19441632 1.51159987 -0.04969862
H  1.41393780 0.59977563 -0.04975744
6
MD Step 89
C  -0.33663758 -0.58458448 0.00930007
H  0.18732740 -1.51660954 -0.04590703
H  -1.39601056 -0.58605929 -0.04538847
C  0.33532516 0.58322725 0.00689428
H  -0.19230631 1.51502687 -0.05080097
H  1.41662840 0.60381474 -0.05087582
6
MD Step 90
C  -0.33646572 -0.58429661 0.00947063
H  0.18877231 -1.51568502 -0.04674418
H  -1.39505153 -0.58338522 -0.04620524
C  0.33455394 0.58198649 0.00703341
H  -0.19024660 1.51868634 -0.05181690
H  1.41930656 0.60791140 -0.05189629
6
MD Step 91
C  -0.33623272 -0.58393634 0.00962682
H  0.19024839 -1.51503890 -0.04749101
H  -1.39460886 -0.58084996 -0.04694466
C  0.33377189 0.58069058 0.00715592
H  -0.18822068 1.52251859 -0.05273798
H  1.42190459 0.61204684 -0.05280999
6
MD Step 92
C  -0.33593676 -0.58350436 0.00977123
H  0.19172518 -1.51468517 -0.04816481
H  -1.39470526 -0.57848178 -0.04762601
C  0.33298929 0.57935443 0.00726447
H  -0.18623312 1.52643819 -0.05357789
H  1.42433537 0.61617936 -0.05362914
6
MD Step 93
C  -0.33558621 -0.58301132 0.00989816
H  0.19322399 -1.51457798 -0.04872838
H  -1.39529517 -0.57625396 -0.04821064
C  0.33220713 0.57798436 0.00735175
H  -0.18423399 1.53041217 -0.05429620
H  1.42657039 0.62032119 -0.05431523
6
MD Step 94
C  -0.33518351 -0.58246160 0.01000828
H  0.19472210 -1.51470858 -0.04918648
H  -1.39636220 -0.57418114 -0.04870375
C  0.33143322 0.57659408 0.00741820
H  -0.18221559 1.53436510 -0.05489447
H  1.42854426 0.62444224 -0.05486973
6
MD Step 95
C  -0.33473428 -0.58186249 0.01010018
H  0.19620819 -1.51505067 -0.04953057
H  -1.39786472 -0.57226412 -0.04909610
C  0.33067284 0.57519530 0.00746190
H  -0.18015811 1.53823565 -0.05536135
H  1.43021084 0.62852549 -0.05528222
6
MD Step 96
C  -0.33424327 -0.58122001 0.01017412
H  0.19765880 -1.51558506 -0.04976293
H  -1.39976125 -0.57051384 -0.04938934
C  0.32993281 0.57380158 0.00748293
H  -0.17805411 1.54195397 -0.05569657
H  1.43152012 0.63254316 -0.05555314
6
MD Step 97
C  -0.33371051 -0.58053514 0.01023517
H  0.19901643 -1.51632250 -0.04991917
H  -1.40203405 -0.56897343 -0.04961995
C  0.32922511 0.57243181 0.00748771
H  -0.17593106 1.54542078 -0.05593291
H  1.43239682 0.63643469 -0.05571433
6
MD Step 98
C  -0.33314509 -0.57981772 0.01028089
H  0.20027326 -1.51722095 -0.04998439
H  -1.40460690 -0.56763517 -0.04977101
C  0.32855281 0.57109619 0.00747340
H  -0.17376910 1.54859173 -0.05605397
H  1.43282448 0.64019038 -0.05575120
6
MD Step 99
C  -0.33255996 -0.57908128 0.01030592
H  0.20144160 -1.51821642 -0.04992332
H  -1.40737733 -0.56647045 -0.04980397
C  0.32791506 0.56980108 0.00743342
H  -0.17153118 1.55144831 -0.05602411
H  1.43281569 0.64382163 -0.05563114
6
MD Step 100
C  -0.33196129 -0.57833225 0.01031129
H  0.20249119 -1.51928709 -0.04974426
H  -1.41028248 -0.56549258 -0.04972574
C  0.32731782 0.56855942 0.00736937
H  -0.16922593 1.55393540 -0.05585070
H  1.43234893 0.64729758 -0.05536250
6
MD Step 101
C  -0.33135483 -0.57757655 0.01029850
H  0.20338932 -1.52041435 -0.04945906
H  -1.41326112 -0.56471725 -0.04954690
C  0.32676704 0.56738396 0.00728356
H  -0.16686843 1.55600157 -0.05554496
H  1.43140845 0.65058517 -0.05495742
6
MD Step 102
C  -0.33074909 -0.57682276 0.01026675
H  0.20412082 -1.52156388 -0.04906339
H  -1.41623580 -0.56414309 -0.04926096
C  0.32626538 0.56628392 0.00717538
H  -0.16446095 1.55761916 -0.05510292
H  1.43000397 0.65366890 -0.05441365
6
MD Step 103
C  -0.33014882 -0.57607557 0.01021847
H  0.20465008 -1.52272446 -0.04857554
H  -1.41915273 -0.56378953 -0.04888510
C  0.32581859 0.56527119 0.00704849
H  -0.16203080 1.55874660 -0.05454277
H  1.42813264 0.65651266 -0.05375015
6
MD Step 104
C  -0.32956657 -0.57534762 0.01014903
H  0.20499230 -1.52383791 -0.04796463
H  -1.42191236 -0.56362671 -0.04838537
C  0.32542350 0.56434852 0.00689750
H  -0.15956042 1.55939927 -0.05383591
H  1.42584944 0.65913089 -0.05294105
6
MD Step 105
C  -0.32900640 -0.57464281 0.01006112
H  0.20511546 -1.52489768 -0.04725030
H  -1.42446932 -0.56367270 -0.04778041
C  0.32508470 0.56352572 0.00672642
H  -0.15708425 1.55955181 -0.05300262
H  1.42316918 0.66149016 -0.05200744
6
MD Step 106
C  -0.32847746 -0.57397033 0.00995248
H  0.20502424 -1.52586592 -0.04641789
H  -1.42674986 -0.56391077 -0.04705352
C  0.32480027 0.56280572 0.00653296
H  -0.15460613 1.55922145 -0.05203069
H  1.42014926 0.66359316 -0.05093899
6
MD Step 107
C  -0.32798688 -0.57333727 0.00982231
H  0.20471697 -1.52671710 -0.04546238
H  -1.42869615 -0.56433227 -0.04619813
C  0.32456920 0.56219169 0.00631667
H  -0.15214183 1.55842500 -0.05091747
H  1.41684622 0.66543533 -0.04973455
6
MD Step 108
C  -0.32754107 -0.57275003 0.00966987
H  0.20419486 -1.52742934 -0.04437918
H  -1.43025827 -0.56492766 -0.04520833
C  0.32438981 0.56168555 0.00607716
H  -0.14970996 1.55718764 -0.04966108
H  1.41332391 0.66701401 -0.04839355
6
MD Step 109
C  -0.32714313 -0.57221162 0.00949685
H  0.20344608 -1.52800057 -0.04318041
H  -1.43141065 -0.56570229 -0.04409567
C  0.32426255 0.56129049 0.00581719
H  -0.14734732 1.55552692 -0.04827566
H  1.40963693 0.66831248 -0.04693083
6
MD Step 110
C  -0.32680452 -0.57173375 0.00929678
H  0.20251806 -1.52837706 -0.04182155
H  -1.43208073 -0.56660553 -0.04281391
C  0.32417777 0.56099918 0.00552913
H  -0.14503791 1.55352397 -0.04672179
H  1.40590104 0.66937210 -0.04530881
6
MD Step 111
C  -0.32652233 -0.57131335 0.00907557
H  0.20137858 -1.52859178 -0.04034256
H  -1.43228816 -0.56766748 -0.04140334
C  0.32413937 0.56081664 0.00522072
H  -0.14284893 1.55118510 -0.04504060
H  1.40215397 0.67015325 -0.04356846
6
MD Step 112
C  -0.32629294 -0.57094662 0.00883908
H  0.19999918 -1.52868129 -0.03878318
H  -1.43206140 -0.56891689 -0.03990413
C  0.32415074 0.56074651 0.00489961
H  -0.14084843 1.54852418 -0.04327298
H  1.39843716 0.67061882 -0.04175041
6
MD Step 113
C  -0.32611661 -0.57063383 0.00858899
H  0.19838316 -1.52865746 -0.03715426
H  -1.43140914 -0.57035335 -0.03832720
C  0.32420997 0.56078645 0.00456823
H  -0.13907728 1.54559001 -0.04143229
H  1.39482280 0.67076244 -0.03986808
6
MD Step 114
C  -0.32599944 -0.57038134 0.00832092
H  0.19657745 -1.52849549 -0.03542556
H  -1.43030822 -0.57193570 -0.03664204
C  0.32430790 0.56092630 0.00422156
H  -0.13753693 1.54247737 -0.03949282
H  1.39142409 0.67062034 -0.03789611
6
MD Step 115
C  -0.32594324 -0.57019116 0.00803368
H  0.19461074 -1.52819526 -0.03358851
H  -1.42876568 -0.57364286 -0.03484033
C  0.32443878 0.56115833 0.00385847
H  -0.13624948 1.53926437 -0.03744934
H  1.38833163 0.67020930 -0.03582906
6
MD Step 116
C  -0.32594745 -0.57006293 0.00772762
H  0.19250472 -1.52776993 -0.03164453
H  -1.42680733 -0.57546271 -0.03292406
C  0.32459850 0.56147553 0.00347956
H  -0.13524570 1.53602242 -0.03530599
H  1.38562242 0.66953791 -0.03367045
6
MD Step 117
C  -0.32600974 -0.56999465 0.00740391
H  0.19027813 -1.52724135 -0.02960065
H  -1.42447331 -0.57738798 -0.03090108
C  0.32478395 0.56187112 0.00308636
H  -0.13456015 1.53281894 -0.03307203
H  1.38336192 0.66861056 -0.03142866
6
MD Step 118
C  -0.32612675 -0.56998336 0.00706408
H  0.18795000 -1.52663621 -0.02746597
H  -1.42181412 -0.57941291 -0.02878139
C  0.32499261 0.56233812 0.00268072
H  -0.13422694 1.52971917 -0.03075843
H  1.38160548 0.66743084 -0.02911355
6
MD Step 119
C  -0.32629344 -0.57002462 0.00671049
H  0.18553584 -1.52598896 -0.02525508
H  -1.41889334 -0.58153667 -0.02658066
C  0.32522317 0.56287011 0.00226536
H  -0.13428229 1.52678105 -0.02838105
H  1.38039310 0.66599796 -0.02673972
6
MD Step 120
C  -0.32650718 -0.57011660 0.00634264
H  0.18307120 -1.52531744 -0.02296377
H  -1.41576287 -0.58373986 -0.02429567
C  0.32547161 0.56345747 0.00183964
H  -0.13474012 1.52407723 -0.02593743
H  1.37977167 0.66433049 -0.02430348
6
MD Step 121
C  -0.32675895 -0.57025113 0.00596555
H  0.18055748 -1.52467579 -0.02062350
H  -1.41251570 -0.58603766 -0.02195910
C  0.32574035 0.56409649 0.00140910
H  -0.13564428 1.52163974 -0.02345903
H  1.37974008 0.66241252 -0.02183492
6
MD Step 122
C  -0.32704415 -0.57042480 0.00557950
H  0.17802679 -1.52408865 -0.01823525
H  -1.40921916 -0.58841535 -0.01957296
C  0.32602721 0.56477876 0.00097389
H  -0.13700332 1.51952340 -0.02094758
H  1.38031362 0.66025896 -0.01933458
6
MD Step 123
C  -0.32735976 -0.57063593 0.00518293
H  0.17552301 -1.52356884 -0.01578821
H  -1.40593192 -0.59084655 -0.01712736
C  0.32632853 0.56549432 0.00053206
H  -0.13880797 1.51778588 -0.01839301
H  1.38150511 0.65789705 -0.01679140
6
MD Step 124
C  -0.32769820 -0.57087842 0.00477830
H  0.17306411 -1.52315380 -0.01329733
H  -1.40273994 -0.59333023 -0.01463814
C  0.32664548 0.56623810 0.00008612
H  -0.14106739 1.51644920 -0.01580996
H  1.38328749 0.65532903 -0.01421914
6
MD Step 125
C  -0.32805174 -0.57114612 0.00436809
H  0.17066728 -1.52287933 -0.01077746
H  -1.39972892 -0.59586539 -0.01212091
C  0.32697967 0.56700571 -0.00036150
H  -0.14378346 1.51552423 -0.01321277