6
MD Step 0
C  -0.33763715 -0.58748864 0.00000000
H  0.19552659 -1.51519357 0.00000000
H  -1.40763715 -0.58748864 0.00000000
C  0.33763715 0.58748865 0.00000000
H  -0.19552659 1.51519357 0.00000000
H  1.40763715 0.58748865 0.00000000
6
MD Step 1
C  -0.33800504 -0.58783605 -0.00039458
H  0.19788414 -1.51298765 0.00235225
H  -1.40542361 -0.58521102 0.00234859
C  0.33721645 0.58704693 -0.00039419
H  -0.19318726 1.51769353 0.00235096
H  1.41012358 0.58990830 0.00234730
6
MD Step 2
C  -0.33831324 -0.58808332 -0.00078566
H  0.20024409 -1.51111127 0.00468361
H  -1.40355094 -0.58310324 0.00467637
C  0.33675177 0.58651692 -0.00078486
H  -0.19088504 1.52044016 0.00468090
H  1.41279847 0.59243955 0.00467349
6
MD Step 3
C  -0.33855685 -0.58822817 -0.00117173
H  0.20259627 -1.50958354 0.00698502
H  -1.40207194 -0.58118110 0.00697457
C  0.33624963 0.58590412 -0.00117040
H  -0.18862149 1.52339449 0.00698044
H  1.41559008 0.59506365 0.00696894
6
MD Step 4
C  -0.33873085 -0.58826858 -0.00155040
H  0.20492185 -1.50842155 0.00924207
H  -1.40103478 -0.57946475 0.00922921
C  0.33571772 0.58521586 -0.00154830
H  -0.18640151 1.52650696 0.00923461
H  1.41841897 0.59775562 0.00921829
6
MD Step 5
C  -0.33883635 -0.58820884 -0.00192445
H  0.20722967 -1.50760400 0.01147129
H  -1.40044516 -0.57794231 0.01145737
C  0.33515865 0.58445515 -0.00192119
H  -0.18419740 1.52975472 0.01145920
H  1.42123643 0.60052068 0.01143685
6
MD Step 6
C  -0.33886933 -0.58804825 -0.00229059
H  0.20948923 -1.50713881 0.01365286
H  -1.40033316 -0.57663719 0.01363993
C  0.33458117 0.58363182 -0.00228557
H  -0.18201656 1.53307523 0.01363355
H  1.42395831 0.60332705 0.01360342
6
MD Step 7
C  -0.33883411 -0.58779443 -0.00265279
H  0.21171039 -1.50698388 0.01581015
H  -1.40067283 -0.57552846 0.01580093
C  0.33398673 0.58274911 -0.00264520
H  -0.17982256 1.53644690 0.01578008
H  1.42654644 0.60618562 0.01573986
6
MD Step 8
C  -0.33872685 -0.58744679 -0.00300581
H  0.21384612 -1.50714570 0.01791193
H  -1.40148056 -0.57464876 0.01790988
C  0.33338582 0.58181993 -0.00299466
H  -0.17763334 1.53979214 0.01786656
H  1.42891163 0.60905222 0.01781337
6
MD Step 9
C  -0.33855239 -0.58701325 -0.00335199
H  0.21589246 -1.50758019 0.01997198
H  -1.40271521 -0.57398450 0.01998117
C  0.33278116 0.58085003 -0.00333607
H  -0.17542215 1.54307835 0.01990576
H  1.43101498 0.61192747 0.01983623
6
MD Step 10
C  -0.33830835 -0.58649430 -0.00368541
H  0.21779510 -1.50828768 0.02195505
H  -1.40437326 -0.57356989 0.02198025
C  0.33218345 0.57985367 -0.00366340
H  -0.17321192 1.54622473 0.02186153
H  1.43277452 0.61476281 0.02177176
6
MD Step 11
C  -0.33800855 -0.58590637 -0.00401537
H  0.21958942 -1.50917416 0.02391646
H  -1.40634983 -0.57334744 0.02396251
C  0.33158784 0.57883005 -0.00398573
H  -0.17093641 1.54924299 0.02378816
H  1.43420608 0.61760032 0.02367422
6
MD Step 12
C  -0.33764759 -0.58524643 -0.00433104
H  0.22119114 -1.51026249 0.02579197
H  -1.40865141 -0.57337783 0.02586431
C  0.33100927 0.57779847 -0.00429224
H  -0.16865020 1.55202783 0.02562083
H  1.43521293 0.62036258 0.02547819
6
MD Step 13
C  -0.33723864 -0.58452974 -0.00463943
H  0.22262222 -1.51146773 0.02762340
H  -1.41117080 -0.57361461 0.02772714
C  0.33044443 0.57676040 -0.00458982
H  -0.16630402 1.55458357 0.02740053
H  1.43581261 0.62307847 0.02722495
6
MD Step 14
C  -0.33678944 -0.58376591 -0.00494149
H  0.22386960 -1.51274014 0.02941659
H  -1.41383187 -0.57404598 0.02955654
C  0.32989571 0.57572315 -0.00487937
H  -0.16388661 1.55688260 0.02913257
H  1.43599471 0.62574120 0.02891999
6
MD Step 15
C  -0.33630663 -0.58296324 -0.00523659
H  0.22491243 -1.51403951 0.03116822
H  -1.41656483 -0.57466818 0.03134870
C  0.32936667 0.57469538 -0.00516033
H  -0.16139830 1.55889264 0.03081321
H  1.43574755 0.62833513 0.03055983
6
MD Step 16
C  -0.33579659 -0.58212957 -0.00552350
H  0.22572817 -1.51533036 0.03287138
H  -1.41930246 -0.57547982 0.03309620
C  0.32886104 0.57368598 -0.00543155
H  -0.15884547 1.56058287 0.03243536
H  1.43506404 0.63084147 0.03213772
6
MD Step 17
C  -0.33526654 -0.58127345 -0.00580168
H  0.22630063 -1.51657511 0.03452331
H  -1.42197412 -0.57647437 0.03479544
C  0.32838147 0.57270276 -0.00569261
H  -0.15623315 1.56193199 0.03399616
H  1.43394932 0.63324603 0.03365132
6
MD Step 18
C  -0.33472253 -0.58040208 -0.00606932
H  0.22660888 -1.51774616 0.03611392
H  -1.42451882 -0.57765153 0.03643552
C  0.32793142 0.57175429 -0.00594191
H  -0.15357640 1.56291711 0.03548565
H  1.43240932 0.63552794 0.03509120
6
MD Step 19
C  -0.33416560 -0.57951753 -0.00631957
H  0.22660519 -1.51884882 0.03760331
H  -1.42690878 -0.57903957 0.03797635
C  0.32751890 0.57085351 -0.00617304
H  -0.15092262 1.56349178 0.03686457
H  1.43042848 0.63763729 0.03641803
6
MD Step 20
C  -0.33360733 -0.57863231 -0.00655643
H  0.22630878 -1.51982820 0.03901576
H  -1.42905669 -0.58060211 0.03944045
C  0.32714065 0.57000204 -0.00639010
H  -0.14825843 1.56367981 0.03815737
H  1.42806349 0.63958907 0.03765772
6
MD Step 21
C  -0.33305133 -0.57775083 -0.00677607
H  0.22569596 -1.52067972 0.04032922
H  -1.43092720 -0.58234792 0.04080509
C  0.32680074 0.56920851 -0.00658968
H  -0.14561916 1.56346524 0.03934282
H  1.42533267 0.64135292 0.03878949
6
MD Step 22
C  -0.33250225 -0.57687844 -0.00697602
H  0.22475473 -1.52139498 0.04153003
H  -1.43248317 -0.58427669 0.04205577
C  0.32650131 0.56847941 -0.00676977
H  -0.14303445 1.56284692 0.04040820
H  1.42227028 0.64290786 0.03980127
6
MD Step 23
C  -0.33196890 -0.57602458 -0.00715855
H  0.22350378 -1.52194308 0.04263194
H  -1.43366735 -0.58636028 0.04320453
C  0.32623947 0.56781587 -0.00693286
H  -0.14050942 1.56185734 0.04136804
H  1.41894502 0.64426132 0.04070916
6
MD Step 24
C  -0.33145390 -0.57519241 -0.00732008
H  0.22193127 -1.52233210 0.04361464
H  -1.43446450 -0.58860384 0.04423044
C  0.32601757 0.56722389 -0.00707592
H  -0.13808526 1.56050120 0.04220332
H  1.41539795 0.64538779 0.04149472
6
MD Step 25
C  -0.33096080 -0.57438589 -0.00745849
H  0.22003737 -1.52256662 0.04446645
H  -1.43485904 -0.59100349 0.04512114
C  0.32583610 0.56670722 -0.00719738
H  -0.13579674 1.55879777 0.04290380
H  1.41168448 0.64627154 0.04214845
6
MD Step 26
C  -0.33049776 -0.57361361 -0.00757716
H  0.21785705 -1.52262487 0.04520741
H  -1.43481248 -0.59352367 0.04589480
C  0.32568981 0.56626347 -0.00730080
H  -0.13364917 1.55680337 0.04349059
H  1.40789630 0.64692958 0.04269335
6
MD Step 27
C  -0.33007080 -0.57288192 -0.00767790
H  0.21541940 -1.52249941 0.04584844
H  -1.43430457 -0.59613774 0.04656087
C  0.32557470 0.56589101 -0.00738823
H  -0.13165845 1.55457017 0.04397590
H  1.40411927 0.64737090 0.04314325
6
MD Step 28
C  -0.32968038 -0.57219153 -0.00775749
H  0.21272753 -1.52221707 0.04637126
H  -1.43335357 -0.59884802 0.04710092
C  0.32549145 0.56559229 -0.00745709
H  -0.12987046 1.55212548 0.04434320
H  1.40041191 0.64757639 0.04348200
6
MD Step 29
C  -0.32932775 -0.57154396 -0.00781431
H  0.20979661 -1.52180040 0.04676689
H  -1.43197784 -0.60164772 0.04750563
C  0.32543900 0.56536753 -0.00750627
H  -0.12832259 1.54950939 0.04458515
H  1.39684231 0.64753723 0.04370287
6
MD Step 30
C  -0.32901596 -0.57094246 -0.00784938
H  0.20665940 -1.52126167 0.04704141
H  -1.43018982 -0.60451534 0.04778037
C  0.32541372 0.56521378 -0.00753708
H  -0.12703755 1.54677964 0.04470930
H  1.39349237 0.64726054 0.04381439
6
MD Step 31
C  -0.32875088 -0.57039326 -0.00786757
H  0.20337269 -1.52059579 0.04722277
H  -1.42798930 -0.60740807 0.04795139
C  0.32540833 0.56512392 -0.00755421
H  -0.12601611 1.54401738 0.04474474
H  1.39046258 0.64677609 0.04384749
6
MD Step 32
C  -0.32852483 -0.56988888 -0.00786022
H  0.19991853 -1.51987849 0.04726168
H  -1.42546187 -0.61036012 0.04797158
C  0.32542871 0.56510321 -0.00755016
H  -0.12533443 1.54122731 0.04464418
H  1.38777129 0.64603746 0.04375309
6
MD Step 33
C  -0.32834462 -0.56943659 -0.00783483
H  0.19637190 -1.51909741 0.04720073
H  -1.42260978 -0.61331508 0.04788167
C  0.32546551 0.56514128 -0.00753186
H  -0.12497622 1.53850500 0.04445105
H  1.38552169 0.64509052 0.04357656
6
MD Step 34
C  -0.32820385 -0.56903047 -0.00778571
H  0.19273434 -1.51831776 0.04700742
H  -1.41951790 -0.61629172 0.04765091
C  0.32552238 0.56524005 -0.00749437
H  -0.12499730 1.53586929 0.04413426
H  1.38373340 0.64390694 0.04328531
6
MD Step 35
C  -0.32809746 -0.56866608 -0.00770928
H  0.18902024 -1.51759454 0.04666145
H  -1.41626562 -0.61929731 0.04726054
C  0.32560129 0.56539927 -0.00743462
H  -0.12543857 1.53334811 0.04367455
H  1.38242832 0.64247118 0.04285869
6
MD Step 36
C  -0.32803201 -0.56835086 -0.00761498
H  0.18531740 -1.51691050 0.04621593
H  -1.41286446 -0.62226661 0.04676221
C  0.32569236 0.56560639 -0.00736109
H  -0.12626447 1.53103856 0.04312551
H  1.38169078 0.64084172 0.04235166
6
MD Step 37
C  -0.32800617 -0.56808449 -0.00750453
H  0.18166980 -1.51629243 0.04568020
H  -1.40937459 -0.62517867 0.04616596
C  0.32579360 0.56585630 -0.00727527
H  -0.12747868 1.52898839 0.04249698
H  1.38154860 0.63903391 0.04177341
6
MD Step 38
C  -0.32801767 -0.56786597 -0.00737925
H  0.17811826 -1.51576915 0.04506120
H  -1.40586260 -0.62801579 0.04547973
C  0.32590401 0.56614458 -0.00717822
H  -0.12908249 1.52723599 0.04179616
H  1.38201330 0.63706115 0.04113011
6
MD Step 39
C  -0.32806316 -0.56769347 -0.00723988
H  0.17469888 -1.51537158 0.04436243
H  -1.40240116 -0.63076457 0.04470828
C  0.32602381 0.56646771 -0.00707036
H  -0.13107536 1.52580844 0.04102653
H  1.38307868 0.63493389 0.04042398
6
MD Step 40
C  -0.32813411 -0.56756023 -0.00708208
H  0.17141739 -1.51515703 0.04355884
H  -1.39909256 -0.63344106 0.04382904
C  0.32615854 0.56682743 -0.00694757
H  -0.13347969 1.52469559 0.04016265
H  1.38469590 0.63263457 0.03962720
6
MD Step 41
C  -0.32822546 -0.56746318 -0.00690539
H  0.16829907 -1.51515748 0.04264739
H  -1.39601582 -0.63604004 0.04284070
C  0.32631051 0.56722222 -0.00680919
H  -0.13629016 1.52390054 0.03920085
H  1.38682543 0.63016832 0.03873443
6
MD Step 42
C  -0.32833479 -0.56740208 -0.00671231
H  0.16538255 -1.51538429 0.04164126
H  -1.39323033 -0.63854054 0.04175768
C  0.32647967 0.56764826 -0.00665706
H  -0.13947930 1.52343392 0.03815370
H  1.38943268 0.62755742 0.03775713
6
MD Step 43
C  -0.32845595 -0.56737310 -0.00650134
H  0.16268090 -1.51586623 0.04053147
H  -1.39081277 -0.64094452 0.04057284
C  0.32666992 0.56810596 -0.00648950
H  -0.14303624 1.52327523 0.03701121
H  1.39245051 0.62480272 0.03668367
6
MD Step 44
C  -0.32858367 -0.56737335 -0.00627166
H  0.16020748 -1.51662229 0.03931311
H  -1.38882859 -0.64325034 0.03928298
C  0.32688463 0.56859546 -0.00630552
H  -0.14694055 1.52339977 0.03576734
H  1.39580754 0.62191009 0.03550657
6
MD Step 45
C  -0.32872587 -0.56741300 -0.00603609
H  0.15804759 -1.51758904 0.03805696
H  -1.38725805 -0.64538018 0.03795860
C  0.32711444 0.56910443 -0.00611611
H  -0.15109027 1.52385164 0.03449310
H  1.39950255 0.61896247 0.03429729
6
MD Step 46
C  -0.32887395 -0.56748586 -0.00578971
H  0.15618320 -1.51879662 0.03673512
H  -1.38617175 -0.64735660 0.03657364
C  0.32736660 0.56963767 -0.00591661
H  -0.15547850 1.52456801 0.03315911
H  1.40342872 0.61594426 0.03302496
6
MD Step 47
C  -0.32902348 -0.56758972 -0.00553146
H  0.15461362 -1.52024715 0.03534134
H  -1.38560762 -0.64918071 0.03512296
C  0.32764457 0.57019660 -0.00570583
H  -0.16007260 1.52550182 0.03175805
H  1.40749777 0.61286235 0.03168142
6
MD Step 48
C  -0.32917282 -0.56772489 -0.00526264
H  0.15334700 -1.52192327 0.03388260
H  -1.38557821 -0.65084060 0.03361414
C  0.32794933 0.57078057 -0.00548470
H  -0.16482340 1.52661466 0.03029621
H  1.41163369 0.60973764 0.03027259
6
MD Step 49
C  -0.32931854 -0.56788969 -0.00498203
H  0.15237309 -1.52381583 0.03235198
H  -1.38609758 -0.65233886 0.03204077
C  0.32828389 0.57139141 -0.00525198
H  -0.16969354 1.52785049 0.02876573
H  1.41574691 0.60657761 0.02879026
6
MD Step 50
C  -0.32945872 -0.56808351 -0.00468930
H  0.15168239 -1.52590520 0.03074748
H  -1.38716194 -0.65367343 0.03040102
C  0.32865001 0.57203006 -0.00500724
H  -0.17463918 1.52915617 0.02716400
H  1.41975531 0.60339520 0.02723176
6
MD Step 51
C  -0.32958787 -0.56830186 -0.00437965
H  0.15123680 -1.52819163 0.02904276
H  -1.38877947 -0.65486749 0.02866862
C  0.32905309 0.57270157 -0.00474622
H  -0.17964078 1.53045291 0.02546338
H  1.42355594 0.60017910 0.02556939
6
MD Step 52
C  -0.32971175 -0.56855084 -0.00405934
H  0.15105644 -1.53060873 0.02727288
H  -1.39088354 -0.65588199 0.02687797
C  0.32948764 0.57340024 -0.00447453
H  -0.18461645 1.53172487 0.02369960
H  1.42711409 0.59698028 0.02383939
6
MD Step 53
C  -0.32983381 -0.56883380 -0.00373160
H  0.15114126 -1.53310381 0.02545618
H  -1.39341364 -0.65669546 0.02504678
C  0.32995050 0.57412296 -0.00419515
H  -0.18950231 1.53294065 0.02189137
H  1.43038421 0.59383286 0.02206097
6
MD Step 54
C  -0.32995638 -0.56915253 -0.00339801
H  0.15147930 -1.53563116 0.02360195
H  -1.39630949 -0.65729647 0.02318363
C  0.33043953 0.57486787 -0.00390961
H  -0.19424539 1.53406192 0.02004819
H  1.43331825 0.59076159 0.02024409
6
MD Step 55
C  -0.33008188 -0.56950850 -0.00305994
H  0.15205487 -1.53814522 0.02171816
H  -1.39950496 -0.65767586 0.02129569
C  0.33095234 0.57563298 -0.00361928
H  -0.19879640 1.53505209 0.01817833
H  1.43587405 0.58778945 0.01839753
6
MD Step 56
C  -0.33020602 -0.56989612 -0.00271149
H  0.15280967 -1.54064119 0.01977246
H  -1.40296949 -0.65786684 0.01934985
C  0.33149285 0.57642284 -0.00331897
H  -0.20315026 1.53583736 0.01624843
H  1.43797611 0.58489807 0.01648839
6
MD Step 57
C  -0.33033068 -0.57031549 -0.00235303
H  0.15371924 -1.54307922 0.01776741
H  -1.40663281 -0.65786803 0.01734785
C  0.33205860 0.57723553 -0.00300919
H  -0.20726971 1.53638417 0.01426119
H  1.43959326 0.58210373 0.01451989
6
MD Step 58
C  -0.33045675 -0.57076533 -0.00198377
H  0.15475177 -1.54542711 0.01569923
H  -1.41042854 -0.65768572 0.01528512
C  0.33264773 0.57806973 -0.00268941
H  -0.21112793 1.53665780 0.01221275
H  1.44069694 0.57941557 0.01248868
6
MD Step 59
C  -0.33059170 -0.57125044 -0.00160978
H  0.15591361 -1.54761577 0.01360246
H  -1.41425056 -0.65728838 0.01319546
C  0.33325141 0.57891704 -0.00236531
H  -0.21466328 1.53666823 0.01013868
H  1.44130701 0.57688054 0.01043078
6
MD Step 60
C  -0.33074321 -0.57177554 -0.00123751
H  0.15721317 -1.54957695 0.01151357
H  -1.41799212 -0.65664381 0.01111479
C  0.33386012 0.57976821 -0.00204288
H  -0.21781662 1.53643329 0.00807667
H  1.44145429 0.57454657 0.00838424
6
MD Step 61
C  -0.33090276 -0.57232924 -0.00085696
H  0.15856642 -1.55133962 0.00937710
H  -1.42164324 -0.65581545 0.00898710
C  0.33447946 0.58062937 -0.00171316
H  -0.22062755 1.53588316 0.00596940
H  1.44108424 0.57236735 0.00629208
6
MD Step 62
C  -0.33108108 -0.57291878 -0.00047830
H  0.16000414 -1.55282190 0.00725052
H  -1.42508307 -0.65475277 0.00686957
C  0.33509564 0.58148672 -0.00138553
H  -0.22302534 1.53506923 0.00387589
H  1.44026662 0.57040955 0.00421348
6
MD Step 63
C  -0.33127308 -0.57353570 -0.00009578
H  0.16146805 -1.55403731 0.00510193
H  -1.42828706 -0.65349806 0.00473003
C  0.33570964 0.58234140 -0.00105480
H  -0.22503554 1.53395821 0.00176299
H  1.43898839 0.56864815 0.00211547
6
MD Step 64
C  -0.33148618 -0.57418369 0.00028307
H  0.16297677 -1.55492825 0.00297414
H  -1.43116093 -0.65201880 0.00261123
C  0.33630958 0.58318129 -0.00072795
H  -0.22661262 1.53259909 -0.00032571
H  1.43732102 0.56713229 0.00004160
6
MD Step 65
C  -0.33171884 -0.57485753 0.00065942
H  0.16450103 -1.55549221 0.00086079
H  -1.43366757 -0.65033402 0.00050683
C  0.33689165 0.58400230 -0.00040390
H  -0.22776627 1.53099703 -0.00239720
H  1.43529347 0.56585996 -0.00201521
6
MD Step 66
C  -0.33196429 -0.57554679 0.00103937
H  0.16598526 -1.55576041 -0.00127258
H  -1.43580601 -0.64849265 -0.00161755
C  0.33745666 0.58480481 -0.00007692
H  -0.22853982 1.52913477 -0.00448743
H  1.43291327 0.56479940 -0.00409099
6
MD Step 67
C  -0.33222707 -0.57625212 0.00141696
H  0.16744509 -1.55569968 -0.00339187
H  -1.43751344 -0.64647495 -0.00372755
C  0.33799371 0.58557716 0.00024748
H  -0.22891184 1.52707056 -0.00656219
H  1.43026469 0.56398663 -0.00615190
6
MD Step 68
C  -0.33250293 -0.57696551 0.00179478
H  0.16884927 -1.55533155 -0.00551182
H  -1.43878466 -0.64431187 -0.00583765
C  0.33850011 0.58631574 0.00057186
H  -0.22891534 1.52481878 -0.00863740
H  1.42738826 0.56340701 -0.00821416
6
MD Step 69
C  -0.33279369 -0.57768495 0.00216882
H  0.17020705 -1.55464429 -0.00760933
H  -1.43958446 -0.64199677 -0.00792435
C  0.33896679 0.58701029 0.00089258
H  -0.22854944 1.52243737 -0.01069044
H  1.42436800 0.56308264 -0.01025566
6
MD Step 70
C  -0.33309767 -0.57840509 0.00253815
H  0.17151226 -1.55364913 -0.00967908
H  -1.43990413 -0.63954185 -0.00998192
C  0.33938784 0.58765345 0.00120894
H  -0.22783555 1.51997095 -0.01271697
H  1.42127354 0.56301640 -0.01227256
6
MD Step 71
C  -0.33341327 -0.57912076 0.00290139
H  0.17276401 -1.55235935 -0.01171304
H  -1.43974083 -0.63695717 -0.01200187
C  0.33975712 0.58823730 0.00151982
H  -0.22679608 1.51747092 -0.01470995
H  1.41817949 0.56321258 -0.01425840
6
MD Step 72
C  -0.33373359 -0.57982169 0.00326210
H  0.17393501 -1.55082170 -0.01373193
H  -1.43912931 -0.63428239 -0.01400462
C  0.34007363 0.58875890 0.00182888
H  -0.22548585 1.51496284 -0.01669173
H  1.41513205 0.56364528 -0.01623595
6
MD Step 73
C  -0.33406076 -0.58050681 0.00361436
H  0.17505578 -1.54903133 -0.01570136
H  -1.43805678 -0.63150167 -0.01595521
C  0.34032754 0.58920598 0.00213064
H  -0.22390669 1.51253044 -0.01862869
H  1.41223258 0.56434295 -0.01817231
6
MD Step 74
C  -0.33439273 -0.58117109 0.00395617
H  0.17613639 -1.54700998 -0.01760964
H  -1.43654157 -0.62862235 -0.01784148
C  0.34051338 0.58957040 0.00242338
H  -0.22208539 1.51023583 -0.02051032
H  1.40955666 0.56531012 -0.02005753
6
MD Step 75
C  -0.33472272 -0.58180520 0.00428992
H  0.17716338 -1.54480855 -0.01947074
H  -1.43463594 -0.62567780 -0.01967726
C  0.34063067 0.58984869 0.00270969
H  -0.22007592 1.50811538 -0.02235214
H  1.40714913 0.56652451 -0.02190736
6
MD Step 76
C  -0.33504747 -0.58240363 0.00461418
H  0.17814760 -1.54245813 -0.02127637
H  -1.43237701 -0.62267881 -0.02145403
C  0.34067591 0.59003409 0.00298839
H  -0.21791027 1.50622687 -0.02414707
H  1.40507105 0.56798532 -0.02371501
6
MD Step 77
C  -0.33536643 -0.58296393 0.00492468
H  0.17911893 -1.53997444 -0.02300100
H  -1.42979137 -0.61961857 -0.02314587
C  0.34064354 0.59011746 0.00325537
H  -0.21560264 1.50464312 -0.02587051
H  1.40339286 0.56970823 -0.02545625
6
MD Step 78
C  -0.33567397 -0.58347911 0.00522190
H  0.18008023 -1.53740333 -0.02464754
H  -1.42694067 -0.61651866 -0.02475577
C  0.34053369 0.59009523 0.00351126
H  -0.21319456 1.50340446 -0.02752646
H  1.40214641 0.57167957 -0.02713491
6
MD Step 79
C  -0.33595920 -0.58393739 0.00551142
H  0.18100514 -1.53482177 -0.02624909
H  -1.42392242 -0.61343071 -0.02631772
C  0.34035252 0.58996979 0.00376184
H  -0.21075581 1.50251573 -0.02914925
H  1.40132214 0.57385458 -0.02878434
6
MD Step 80
C  -0.33622030 -0.58433652 0.00578982
H  0.18192179 -1.53225244 -0.02778512
H  -1.42078394 -0.61035169 -0.02781124
C  0.34009810 0.58973538 0.00400365
H  -0.20829921 1.50202946 -0.03071875
H  1.40095335 0.57624168 -0.03038415
6
MD Step 81
C  -0.33644958 -0.58466892 0.00605943
H  0.18282399 -1.52975176 -0.02926958
H  -1.41761006 -0.60731264 -0.02925131
C  0.33977518 0.58939317 0.00423912
H  -0.20586859 1.50195606 -0.03224940
H  1.40102671 0.57881395 -0.03194756
6
MD Step 82
C  -0.33664650 -0.58493459 0.00631583
H  0.18374664 -1.52733291 -0.03067518
H  -1.41444536 -0.60430239 -0.03061082
C  0.33938249 0.58893855 0.00446347
H  -0.20346208 1.50233887 -0.03371372
H  1.40155858 0.58158510 -0.03344667
6
MD Step 83
C  -0.33680718 -0.58513075 0.00655797
H  0.18470347 -1.52502726 -0.03199520
H  -1.41135519 -0.60132970 -0.03188382
C  0.33892304 0.58837162 0.00467538
H  -0.20109370 1.50319123 -0.03510456
H  1.40253271 0.58454740 -0.03487336
6
MD Step 84
C  -0.33692472 -0.58525205 0.00678802
H  0.18568746 -1.52288290 -0.03324256
H  -1.40842330 -0.59842241 -0.03308483
C  0.33840392 0.58769716 0.00487692
H  -0.19879215 1.50449674 -0.03643422
H  1.40390171 0.58767252 -0.03623816
6
MD Step 85
C  -0.33699758 -0.58529888 0.00700340
H  0.18671958 -1.52091455 -0.03440080
H  -1.40570057 -0.59557803 -0.03419805
C  0.33782796 0.58691632 0.00506491
H  -0.19655154 1.50625840 -0.03768495
H  1.40563772 0.59096068 -0.03752254
6
MD Step 86
C  -0.33701771 -0.58526550 0.00720821
H  0.18777733 -1.51917436 -0.03549502
H  -1.40327485 -0.59283507 -0.03525091
C  0.33720553 0.58603863 0.00524345
H  -0.19440270 1.50842739 -0.03888048
H  1.40766221 0.59436941 -0.03874790
6
MD Step 87
C  -0.33698580 -0.58515516 0.00739886
H  0.18888402 -1.51766141 -0.03650237
H  -1.40117892 -0.59018317 -0.03622118
C  0.33653941 0.58506686 0.00540812
H  -0.19232375 1.51099348 -0.03999598
H  1.40993791 0.59790334 -0.03988889
6
MD Step 88
C  -0.33690242 -0.58497117 0.00757261
H  0.19005565 -1.51637458 -0.03740492
H  -1.39944242 -0.58761623 -0.03709153
C  0.33583355 0.58400585 0.00555531
H  -0.19029358 1.51393252 -0.04101129
H  1.41241705 0.60156110 -0.04092487
6
MD Step 89
C  -0.33676346 -0.58471227 0.00773182
H  0.19127313 -1.51534009 -0.03821729
H  -1.39811856 -0.58516016 -0.03787847
C  0.33509767 0.58286710 0.00568715
H  -0.18832009 1.51717969 -0.04193863
H  1.41501514 0.60530768 -0.04186649
6
MD Step 90
C  -0.33656486 -0.58437730 0.00787961
H  0.19250976 -1.51458369 -0.03895912
H  -1.39725495 -0.58284521 -0.03860363
C  0.33434245 0.58166401 0.00580672
H  -0.18641328 1.52065844 -0.04279499
H  1.41764076 0.60910216 -0.04272904
6
MD Step 91
C  -0.33630594 -0.58396836 0.00801684
H  0.19375030 -1.51411139 -0.03963592
H  -1.39687329 -0.58068685 -0.03927376
C  0.33357627 0.58040847 0.00591458
H  -0.18456700 1.52430112 -0.04358319
H  1.42021679 0.61291690 -0.04351443
6
MD Step 92
C  -0.33598793 -0.58348931 0.00814350
H  0.19498229 -1.51391834 -0.04024789
H  -1.39697741 -0.57869455 -0.03988991
C  0.33280653 0.57911220 0.00601039
H  -0.18276852 1.52804171 -0.04430066
H  1.42267339 0.61672899 -0.04421962
6
MD Step 93
C  -0.33561910 -0.58295087 0.00825408
H  0.19622665 -1.51395874 -0.04075938
H  -1.39752295 -0.57684145 -0.04041525
C  0.33203448 0.57778150 0.00608728
H  -0.18096898 1.53184779 -0.04490937
H  1.42497974 0.62055083 -0.04480805
6
MD Step 94
C  -0.33519990 -0.58235566 0.00835112
H  0.19744995 -1.51423468 -0.04118724
H  -1.39850659 -0.57515237 -0.04086759
C  0.33127005 0.57643182 0.00614798
H  -0.17917196 1.53563368 -0.04542361
H  1.42705683 0.62434199 -0.04529329
6
MD Step 95
C  -0.33473574 -0.58171104 0.00843340
H  0.19864140 -1.51471982 -0.04152398
H  -1.39988974 -0.57362725 -0.04123891
C  0.33051878 0.57507478 0.00619085
H  -0.17735767 1.53933867 -0.04583371
H  1.42885537 0.62808626 -0.04566634
6
MD Step 96
C  -0.33422852 -0.58102055 0.00850363
H  0.19976272 -1.51541053 -0.04178847
H  -1.40165032 -0.57229148 -0.04154864
C  0.32979039 0.57372642 0.00621913
H  -0.17553386 1.54287788 -0.04615632
H  1.43030631 0.63174120 -0.04594336
6
MD Step 97
C  -0.33369052 -0.58029796 0.00855579
H  0.20083276 -1.51624228 -0.04194132
H  -1.40369953 -0.57111192 -0.04175488
C  0.32908441 0.57239295 0.00622545
H  -0.17365256 1.54622772 -0.04635102
H  1.43140586 0.63532277 -0.04608637
6
MD Step 98
C  -0.33312529 -0.57954797 0.00859228
H  0.20181409 -1.51720447 -0.04199946
H  -1.40599808 -0.57011040 -0.04187440
C  0.32840943 0.57108966 0.00621281
H  -0.17172374 1.54931296 -0.04643318
H  1.43210197 0.63879135 -0.04611078
6
MD Step 99
C  -0.33253820 -0.57877691 0.00861427
H  0.20267751 -1.51827691 -0.04197178
H  -1.40849350 -0.56929980 -0.04191539
C  0.32777226 0.56983003 0.00618282
H  -0.16975188 1.55207187 -0.04641053
H  1.43235897 0.64211611 -0.04602478
6
MD Step 100
C  -0.33193942 -0.57799581 0.00861889
H  0.20342137 -1.51941169 -0.04184000
H  -1.41110280 -0.56866526 -0.04185756
C  0.32717459 0.56862246 0.00613217
H  -0.16771755 1.55447584 -0.04626469
H  1.43217692 0.64529426 -0.04581174
6
MD Step 101
C  -0.33133467 -0.57721100 0.00860750
H  0.20401695 -1.52058893 -0.04161426
H  -1.41376950 -0.56821884 -0.04171011
C  0.32662236 0.56747929 0.00606280
H  -0.16563215 1.55647512 -0.04600536
H  1.43153674 0.64829593 -0.04548200
6
MD Step 102
C  -0.33073052 -0.57642959 0.00858074
H  0.20444200 -1.52178424 -0.04129973
H  -1.41643201 -0.56796656 -0.04147693
C  0.32612004 0.56641120 0.00597580
H  -0.16350510 1.55803251 -0.04563774
H  1.43043362 0.65109768 -0.04504171
6
MD Step 103
C  -0.33013101 -0.57565598 0.00854148
H  0.20466095 -1.52298940 -0.04091700
H  -1.41904513 -0.56792830 -0.04117796
C  0.32567406 0.56543038 0.00587514
H  -0.16136383 1.55910373 -0.04518224
H  1.42885710 0.65366245 -0.04451166
6
MD Step 104
C  -0.32954757 -0.57490203 0.00848578
H  0.20468617 -1.52415202 -0.04044037
H  -1.42152022 -0.56807737 -0.04078526
C  0.32528236 0.56454035 0.00575641
H  -0.15919352 1.55969858 -0.04461486
H  1.42685194 0.65600087 -0.04386982
6
MD Step 105
C  -0.32898931 -0.57417718 0.00841159
H  0.20452034 -1.52523400 -0.03985655
H  -1.42378486 -0.56839805 -0.04028380
C  0.32494425 0.56374548 0.00561745
H  -0.15699440 1.55982331 -0.04392398
H  1.42445998 0.65811320 -0.04310610
6
MD Step 106
C  -0.32846089 -0.57348630 0.00832051
H  0.20414442 -1.52622423 -0.03917702
H  -1.42579632 -0.56889761 -0.03968419
C  0.32466247 0.56305296 0.00546069
H  -0.15479359 1.55946851 -0.04312217
H  1.42170759 0.65997724 -0.04223378
6
MD Step 107
C  -0.32796788 -0.57283513 0.00821292
H  0.20355079 -1.52710618 -0.03840481
H  -1.42750947 -0.56957386 -0.03898845
C  0.32443760 0.56246731 0.00528702
H  -0.15261258 1.55864190 -0.04221404
H  1.41863810 0.66158130 -0.04125843
6
MD Step 108
C  -0.32751568 -0.57222922 0.00808884
H  0.20273729 -1.52786414 -0.03754058
H  -1.42888350 -0.57042109 -0.03819631
C  0.32426911 0.56199129 0.00509697
H  -0.15047295 1.55736233 -0.04120215
H  1.41530534 0.66291828 -0.04018348
6
MD Step 109
C  -0.32711216 -0.57167663 0.00794554
H  0.20172390 -1.52846707 -0.03656580
H  -1.42986608 -0.57141386 -0.03728805
C  0.32415252 0.56162318 0.00488755
H  -0.14838000 1.55567591 -0.04007095
H  1.41178935 0.66400224 -0.03899462
6
MD Step 110
C  -0.32675639 -0.57117637 0.00778771
H  0.20048430 -1.52893699 -0.03551227
H  -1.43046229 -0.57257461 -0.03629545
C  0.32409111 0.56136808 0.00466490
H  -0.14638980 1.55358776 -0.03885318
H  1.40812740 0.66479980 -0.03772471
6
MD Step 111
C  -0.32645187 -0.57073197 0.00761537
H  0.19902671 -1.52926845 -0.03438009
H  -1.43065397 -0.57389387 -0.03521814
C  0.32408221 0.56122454 0.00442944
H  -0.14452933 1.55114192 -0.03755131
H  1.40439351 0.66531119 -0.03637677
6
MD Step 112
C  -0.32620369 -0.57034859 0.00742641
H  0.19737692 -1.52944548 -0.03315484
H  -1.43041679 -0.57534715 -0.03404118
C  0.32412013 0.56118744 0.00417897
H  -0.14281284 1.54840402 -0.03615399
H  1.40068046 0.66555315 -0.03494007
6
MD Step 113
C  -0.32601445 -0.57002881 0.00722033
H  0.19555308 -1.52946667 -0.03183304
H  -1.42974573 -0.57691973 -0.03276096
C  0.32420057 0.56125217 0.00391328
H  -0.14126618 1.54543542 -0.03466038
H  1.39707305 0.66553366 -0.03341403
6
MD Step 114
C  -0.32588578 -0.56977428 0.00699684
H  0.19357544 -1.52933526 -0.03041213
H  -1.42864537 -0.57859712 -0.03137497
C  0.32431901 0.56141316 0.00363223
H  -0.13991651 1.54230210 -0.03307051
H  1.39365614 0.66526169 -0.03179872
6
MD Step 115
C  -0.32581396 -0.56958117 0.00675987
H  0.19143931 -1.52908584 -0.02891779
H  -1.42715672 -0.58039159 -0.02990934
C  0.32447540 0.56166835 0.00334073
H  -0.13881833 1.53904678 -0.03141132
H  1.39048603 0.66472010 -0.03012069
6
MD Step 116
C  -0.32579890 -0.56944943 0.00650931
H  0.18916934 -1.52872966 -0.02734858
H  -1.42530228 -0.58228850 -0.02836300
C  0.32466506 0.56201039 0.00303881
H  -0.13799907 1.53574194 -0.02968366
H  1.38764292 0.66392009 -0.02838041
6
MD Step 117
C  -0.32584113 -0.56937972 0.00624373
H  0.18680080 -1.52827275 -0.02569468
H  -1.42310419 -0.58426455 -0.02672657
C  0.32488187 0.56242982 0.00272497
H  -0.13747661 1.53247002 -0.02788007
H  1.38521049 0.66288256 -0.02656996
6
MD Step 118
C  -0.32593895 -0.56937056 0.00596311
H  0.18436213 -1.52773271 -0.02395528
H  -1.42060123 -0.58630492 -0.02499987
C  0.32512140 0.56291811 0.00239926
H  -0.13727547 1.52930460 -0.02600155
H  1.38325650 0.66162065 -0.02468962
6
MD Step 119
C  -0.32608889 -0.56941876 0.00566847
H  0.18187691 -1.52713601 -0.02213617
H  -1.41784596 -0.58840105 -0.02318944
C  0.32538058 0.56346746 0.00206284
H  -0.13742366 1.52631095 -0.02405521
H  1.38183299 0.66014191 -0.02274566
6
MD Step 120
C  -0.32628133 -0.56951501 0.00536605
H  0.17933659 -1.52654418 -0.02027691
H  -1.41493075 -0.59057728 -0.02133580
C  0.32566240 0.56407550 0.00172269
H  -0.13797847 1.52351755 -0.02208054
H  1.38094783 0.65842124 -0.02077645
6
MD Step 121
C  -0.32651261 -0.56965626 0.00505591
H  0.17677301 -1.52598031 -0.01837712
H  -1.41191346 -0.59281875 -0.01943936
C  0.32596356 0.56473332 0.00137879
H  -0.13895357 1.52098709 -0.02007799
H  1.38063641 0.65647389 -0.01878154
6
MD Step 122
C  -0.32678476 -0.56984543 0.00473214
H  0.17425583 -1.52543059 -0.01639858
H  -1.40881847 -0.59507351 -0.01746258
C  0.32627492 0.56542603 0.00102447
H  -0.14032036 1.51881262 -0.01801105
H  1.38095830 0.65435316 -0.01672367
6
MD Step 123
C  -0.32708414 -0.57006964 0.00440356
H  0.17176215 -1.52497329 -0.01439636
H  -1.40576586 -0.59738137 -0.01546147
C  0.32660352 0.56615457 0.00066921
H  -0.14213573 1.51698640 -0.01593366
H  1.38186648 0.65202032 -0.01465576
6
MD Step 124
C  -0.32740539 -0.57032462 0.00407069
H  0.16932047 -1.52463385 -0.01237314
H  -1.40282480 -0.59973077 -0.01343938
C  0.32694812 0.56691181 0.00031338
H  -0.14439858 1.51554264 -0.01384847
H  1.38335172 0.64948914 -0.01257979
6
MD Step 125
C  -0.32774376 -0.57060681 0.00373333
H  0.16696257 -1.52443145 -0.01032713
H  -1.40005939 -0.60210589 -0.01139511
C  0.32730718 0.56769054 -0.00004342
H  -0.14709650 1.51450922 -0.01175356
H  1.38539566 0.64677842 -0.01049333