6
MD Step 0
C  -0.33763715 -0.58748864 0.00000000
H  0.19552659 -1.51519357 0.00000000
H  -1.40763715 -0.58748864 0.00000000
C  0.33763715 0.58748865 0.00000000
H  -0.19552659 1.51519357 0.00000000
H  1.40763715 0.58748865 0.00000000
6
MD Step 1
C  -0.33800585 -0.58783585 -0.00039468
H  0.19788673 -1.51298647 0.00235049
H  -1.40541786 -0.58520825 0.00235275
C  0.33721711 0.58704636 -0.00039477
H  -0.19319157 1.51769270 0.00235082
H  1.41012135 0.58990955 0.00235307
6
MD Step 2
C  -0.33831611 -0.58808418 -0.00078712
H  0.20025682 -1.51110133 0.00468767
H  -1.40353202 -0.58309014 0.00469225
C  0.33675180 0.58651451 -0.00078729
H  -0.19088603 1.52044604 0.00468819
H  1.41280166 0.59244963 0.00469259
6
MD Step 3
C  -0.33856420 -0.58823255 -0.00117701
H  0.20263370 -1.50955029 0.00700951
H  -1.40202572 -0.58114311 0.00701675
C  0.33624659 0.58589743 -0.00117713
H  -0.18860451 1.52342154 0.00700976
H  1.41561321 0.59509714 0.00701594
6
MD Step 4
C  -0.33874671 -0.58828059 -0.00156363
H  0.20500864 -1.50834054 0.00931168
H  -1.40093774 -0.57937733 0.00932236
C  0.33570749 0.58520081 -0.00156346
H  -0.18634173 1.52657950 0.00931064
H  1.41848623 0.59783707 0.00931782
6
MD Step 5
C  -0.33885941 -0.58822731 -0.00194454
H  0.20735929 -1.50748239 0.01157948
H  -1.40030626 -0.57781230 0.01159493
C  0.33514243 0.58443293 -0.00194367
H  -0.18410115 1.52986540 0.01157536
H  1.42133980 0.60064325 0.01158225
6
MD Step 6
C  -0.33890661 -0.58808037 -0.00232484
H  0.20970512 -1.50693406 0.01384310
H  -1.40011242 -0.57642158 0.01386531
C  0.33455184 0.58359529 -0.00232265
H  -0.18184013 1.53326628 0.01383322
H  1.42413900 0.60353368 0.01383799
6
MD Step 7
C  -0.33888539 -0.58784027 -0.00270145
H  0.21201415 -1.50669604 0.01608399
H  -1.40037419 -0.57522646 0.01611571
C  0.33394431 0.58269826 -0.00269709
H  -0.17956407 1.53671789 0.01606466
H  1.42680215 0.60647702 0.01606486
6
MD Step 8
C  -0.33879931 -0.58751390 -0.00307668
H  0.21428419 -1.50673059 0.01831576
H  -1.40106502 -0.57421500 0.01836041
C  0.33332295 0.58174732 -0.00306909
H  -0.17724603 1.54018673 0.01828220
H  1.42928337 0.60947352 0.01827482
6
MD Step 9
C  -0.33864864 -0.58710472 -0.00344854
H  0.21648556 -1.50702030 0.02052641
H  -1.40217230 -0.57339982 0.02058816
C  0.33269498 0.58075272 -0.00343642
H  -0.17488492 1.54361333 0.02047274
H  1.43151570 0.61249747 0.02045419
6
MD Step 10
C  -0.33843546 -0.58661781 -0.00381583
H  0.21859192 -1.50753859 0.02270869
H  -1.40366749 -0.57278769 0.02279231
C  0.33206662 0.57972417 -0.00379770
H  -0.17247572 1.54694357 0.02262790
H  1.43344264 0.61552760 0.02259411
6
MD Step 11
C  -0.33816978 -0.58606596 -0.00418433
H  0.22061778 -1.50821357 0.02489703
H  -1.40547022 -0.57234261 0.02500754
C  0.33143678 0.57866460 -0.00415848
H  -0.16997298 1.55016671 0.02478094
H  1.43505600 0.61858424 0.02472766
6
MD Step 12
C  -0.33785037 -0.58545044 -0.00454774
H  0.22250551 -1.50904279 0.02705395
H  -1.40756399 -0.57209932 0.02719684
C  0.33081621 0.57758909 -0.00451234
H  -0.16740462 1.55320240 0.02689345
H  1.43628233 0.62161569 0.02681596
6
MD Step 13
C  -0.33747641 -0.58477267 -0.00489935
H  0.22419575 -1.51002414 0.02913986
H  -1.40992716 -0.57209343 0.02932107
C  0.33021560 0.57651301 -0.00485258
H  -0.16480251 1.55597166 0.02892509
H  1.43705396 0.62456833 0.02881823
6
MD Step 14
C  -0.33705295 -0.58403965 -0.00523762
H  0.22566053 -1.51112383 0.03114588
H  -1.41250114 -0.57232866 0.03137128
C  0.32964010 0.57544639 -0.00517761
H  -0.16217022 1.55843051 0.03086626
H  1.43734267 0.62741958 0.03072474
6
MD Step 15
C  -0.33658482 -0.58325784 -0.00556016
H  0.22686851 -1.51231265 0.03305835
H  -1.41522755 -0.57281210 0.03333369
C  0.32909514 0.57439974 -0.00548515
H  -0.15951846 1.56053537 0.03270285
H  1.43712475 0.63014273 0.03252136
6
MD Step 16
C  -0.33608473 -0.58244138 -0.00587216
H  0.22783461 -1.51351752 0.03490833
H  -1.41800060 -0.57350509 0.03523824
C  0.32857818 0.57337574 -0.00578032
H  -0.15681621 1.56229282 0.03446534
H  1.43643045 0.63275630 0.03423933
6
MD Step 17
C  -0.33555755 -0.58159631 -0.00617052
H  0.22852739 -1.51471561 0.03667813
H  -1.42076280 -0.57441625 0.03706669
C  0.32809439 0.57238472 -0.00606023
H  -0.15408365 1.56366666 0.03613600
H  1.43525037 0.63523086 0.03586117
6
MD Step 18
C  -0.33500842 -0.58072874 -0.00645229
H  0.22891881 -1.51588556 0.03835098
H  -1.42345695 -0.57555216 0.03880155
C  0.32764825 0.57143632 -0.00632221
H  -0.15134291 1.56462781 0.03769826
H  1.43358508 0.63753868 0.03737063
6
MD Step 19
C  -0.33444679 -0.57984896 -0.00671889
H  0.22900929 -1.51698329 0.03993585
H  -1.42600272 -0.57689268 0.04045040
C  0.32723944 0.57053529 -0.00656786
H  -0.14859347 1.56517932 0.03916125
H  1.43146987 0.63967857 0.03877782
6
MD Step 20
C  -0.33388156 -0.57896656 -0.00697131
H  0.22879985 -1.51797074 0.04143927
H  -1.42832644 -0.57841911 0.04201825
C  0.32686751 0.56968609 -0.00679840
H  -0.14584008 1.56532837 0.04053190
H  1.42894628 0.64164788 0.04009080
6
MD Step 21
C  -0.33332131 -0.57809074 -0.00721047
H  0.22829425 -1.51881448 0.04286732
H  -1.43036058 -0.58011236 0.04350947
C  0.32653161 0.56889256 -0.00701500
H  -0.14309083 1.56508811 0.04181683
H  1.42606345 0.64344440 0.04131751
6
MD Step 22
C  -0.33276518 -0.57722104 -0.00742794
H  0.22744512 -1.51954002 0.04417133
H  -1.43209886 -0.58200689 0.04487540
C  0.32623957 0.56816691 -0.00720999
H  -0.14041063 1.56442377 0.04296880
H  1.42282373 0.64501239 0.04241049
6
MD Step 23
C  -0.33222378 -0.57636853 -0.00762753
H  0.22627981 -1.52010631 0.04537431
H  -1.43347073 -0.58406534 0.04613685
C  0.32598669 0.56750858 -0.00738739
H  -0.13779608 1.56337838 0.04401157
H  1.41930833 0.64636866 0.04339545
6
MD Step 24
C  -0.33170566 -0.57554213 -0.00781149
H  0.22481974 -1.52048661 0.04648995
H  -1.43442306 -0.58625915 0.04730543
C  0.32576938 0.56691778 -0.00754967
H  -0.13525543 1.56199187 0.04495979
H  1.41559565 0.64752182 0.04428893
6
MD Step 25
C  -0.33120843 -0.57473962 -0.00797129
H  0.22302750 -1.52072163 0.04746928
H  -1.43497384 -0.58862134 0.04833263
C  0.32559413 0.56640428 -0.00768930
H  -0.13286092 1.56024783 0.04576653
H  1.41170746 0.64841922 0.04504364
6
MD Step 26
C  -0.33074019 -0.57396935 -0.00810996
H  0.22093574 -1.52079050 0.04833051
H  -1.43508301 -0.59111812 0.04923464
C  0.32545575 0.56596586 -0.00780956
H  -0.13062035 1.55820216 0.04645124
H  1.40773716 0.64907628 0.04568103
6
MD Step 27
C  -0.33030694 -0.57323751 -0.00822905
H  0.21857164 -1.52068622 0.04908311
H  -1.43472839 -0.59372417 0.05001933
C  0.32535020 0.56560094 -0.00791232
H  -0.12855167 1.55590718 0.04702486
H  1.40377304 0.64950089 0.04621377
6
MD Step 28
C  -0.32991255 -0.57254813 -0.00832870
H  0.21595710 -1.52041534 0.04972817
H  -1.43390577 -0.59642244 0.05068662
C  0.32527459 0.56530856 -0.00799812
H  -0.12668224 1.55341109 0.04749014
H  1.39989692 0.64969363 0.04664598
6
MD Step 29
C  -0.32955669 -0.57190097 -0.00840539
H  0.21309612 -1.52001021 0.05024586
H  -1.43264144 -0.59921672 0.05121665
C  0.32522942 0.56509056 -0.00806418
H  -0.12506076 1.55074479 0.04782922
H  1.39617000 0.64963526 0.04696016
6
MD Step 30
C  -0.32923916 -0.57129593 -0.00845653
H  0.21000059 -1.51950266 0.05062160
H  -1.43096583 -0.60210576 0.05159489
C  0.32521421 0.56494722 -0.00810855
H  -0.12373087 1.54794713 0.04802947
H  1.39265752 0.64931279 0.04714400
6
MD Step 31
C  -0.32896418 -0.57073745 -0.00848502
H  0.20671603 -1.51889754 0.05087231
H  -1.42888710 -0.60505738 0.05183703
C  0.32522323 0.56487303 -0.00813428
H  -0.12270477 1.54509002 0.04810931
H  1.38945303 0.64874552 0.04721738
6
MD Step 32
C  -0.32873449 -0.57022852 -0.00849305
H  0.20328561 -1.51820799 0.05101048
H  -1.42642679 -0.60804413 0.05195473
C  0.32525166 0.56486276 -0.00814364
H  -0.12199798 1.54224151 0.04808273
H  1.38664062 0.64794921 0.04719538
6
MD Step 33
C  -0.32854747 -0.56976684 -0.00847797
H  0.19972676 -1.51747813 0.05102095
H  -1.42364268 -0.61106649 0.05193360
C  0.32529958 0.56491543 -0.00813452
H  -0.12165170 1.53944137 0.04793626
H  1.38426953 0.64691277 0.04706410
6
MD Step 34
C  -0.32840192 -0.56935169 -0.00843945
H  0.19607136 -1.51674171 0.05090185
H  -1.42058738 -0.61411236 0.05177220
C  0.32536522 0.56502764 -0.00810685
H  -0.12169169 1.53674055 0.04766940
H  1.38239317 0.64563901 0.04682280
6
MD Step 35
C  -0.32829837 -0.56898424 -0.00837975
H  0.19236657 -1.51602007 0.05066576
H  -1.41730630 -0.61715583 0.05148319
C  0.32544484 0.56519346 -0.00806280
H  -0.12212631 1.53420120 0.04729579
H  1.38106877 0.64414580 0.04648519
6
MD Step 36
C  -0.32823876 -0.56866733 -0.00830344
H  0.18867259 -1.51532323 0.05033802
H  -1.41383868 -0.62015900 0.05109154
C  0.32553314 0.56540488 -0.00800642
H  -0.12294754 1.53189350 0.04684152
H  1.38035384 0.64246425 0.04607775
6
MD Step 37
C  -0.32821548 -0.56839444 -0.00820564
H  0.18499650 -1.51471497 0.04989070
H  -1.41028271 -0.62313782 0.05057178
C  0.32563436 0.56566296 -0.00793337
H  -0.12419594 1.52982839 0.04627941
H  1.38023878 0.64057279 0.04557100
6
MD Step 38
C  -0.32822702 -0.56816542 -0.00808853
H  0.18138438 -1.51421889 0.04933568
H  -1.40670099 -0.62606929 0.04993675
C  0.32574671 0.56596237 -0.00784549
H  -0.12586753 1.52804959 0.04562164
H  1.38073958 0.63849014 0.04497617
6
MD Step 39
C  -0.32827549 -0.56798400 -0.00795873
H  0.17790553 -1.51383283 0.04870931
H  -1.40313451 -0.62890672 0.04922291
C  0.32586491 0.56629402 -0.00774838
H  -0.12792852 1.52661734 0.04490461
H  1.38188213 0.63626005 0.04432954
6
MD Step 40
C  -0.32835399 -0.56784519 -0.00781373
H  0.17457647 -1.51360382 0.04799676
H  -1.39967722 -0.63165549 0.04841788
C  0.32599289 0.56665789 -0.00763953
H  -0.13039040 1.52553168 0.04411320
H  1.38362604 0.63387559 0.04361364
6
MD Step 41
C  -0.32845861 -0.56774728 -0.00765457
H  0.17143122 -1.51355605 0.04720300
H  -1.39640311 -0.63430196 0.04752842
C  0.32613182 0.56705112 -0.00751949
H  -0.13323887 1.52480317 0.04325187
H  1.38593679 0.63135026 0.04283127
6
MD Step 42
C  -0.32858331 -0.56768661 -0.00748018
H  0.16848935 -1.51372163 0.04632128
H  -1.39339582 -0.63684501 0.04655004
C  0.32628527 0.56747336 -0.00738695
H  -0.13646535 1.52442120 0.04231303
H  1.38875534 0.62868652 0.04197280
6
MD Step 43
C  -0.32871984 -0.56765753 -0.00728722
H  0.16575436 -1.51414084 0.04533211
H  -1.39074760 -0.63929711 0.04546583
C  0.32645924 0.56792691 -0.00723851
H  -0.14006829 1.52435314 0.04127592
H  1.39199887 0.62587483 0.04101515
6
MD Step 44
C  -0.32886390 -0.56765840 -0.00707633
H  0.16324861 -1.51482583 0.04423846
H  -1.38852139 -0.64164854 0.04428064
C  0.32665612 0.56841072 -0.00707438
H  -0.14401795 1.52458055 0.04014240
H  1.39559866 0.62292920 0.03995869
6
MD Step 45
C  -0.32901605 -0.56769240 -0.00685300
H  0.16101742 -1.51575571 0.04307013
H  -1.38674451 -0.64386289 0.04302523
C  0.32687380 0.56891955 -0.00689896
H  -0.14825238 1.52510429 0.03894157
H  1.39950660 0.61989157 0.03883188
6
MD Step 46
C  -0.32917385 -0.56775966 -0.00661915
H  0.15908190 -1.51692347 0.04183699
H  -1.38545454 -0.64592421 0.04171083
C  0.32711344 0.56945189 -0.00671356
H  -0.15272503 1.52589815 0.03768242
H  1.40364949 0.61678480 0.03764276
6
MD Step 47
C  -0.32933054 -0.56785593 -0.00637165
H  0.15743084 -1.51834409 0.04052107
H  -1.38470618 -0.64784524 0.04032113
C  0.32738074 0.57001127 -0.00651506
H  -0.15741366 1.52690170 0.03634553
H  1.40792280 0.61360452 0.03637067
6
MD Step 48
C  -0.32947731 -0.56797471 -0.00610451
H  0.15603304 -1.52004186 0.03908905
H  -1.38455714 -0.64965470 0.03882435
C  0.32768368 0.57060399 -0.00629797
H  -0.16230866 1.52803430 0.03489571
H  1.41220573 0.61033162 0.03497919
6
MD Step 49
C  -0.32961885 -0.56812242 -0.00582519
H  0.15492770 -1.52195955 0.03758190
H  -1.38497586 -0.65130584 0.03726139
C  0.32801730 0.57122370 -0.00606864
H  -0.16732261 1.52928767 0.03337413
H  1.41645486 0.60702276 0.03350985
6
MD Step 50
C  -0.32975002 -0.56829544 -0.00553006
H  0.15408816 -1.52409628 0.03597943
H  -1.38597907 -0.65281439 0.03561258
C  0.32838650 0.57187446 -0.00582375
H  -0.17242891 1.53058950 0.03175943
H  1.42056752 0.60367349 0.03194089
6
MD Step 51
C  -0.32986835 -0.56849234 -0.00521744
H  0.15349500 -1.52643468 0.03427274
H  -1.38755837 -0.65418495 0.03386900
C  0.32879377 0.57255830 -0.00556183
H  -0.17758902 1.53187832 0.03004182
H  1.42445715 0.60029116 0.03026257
6
MD Step 52
C  -0.32998346 -0.56872298 -0.00489760
H  0.15319143 -1.52888614 0.03251862
H  -1.38962537 -0.65535521 0.03208652
C  0.32922995 0.57326571 -0.00529194
H  -0.18269754 1.53316020 0.02827965
H  1.42811031 0.59694985 0.02853407
6
MD Step 53
C  -0.33009029 -0.56898242 -0.00456478
H  0.15312828 -1.53144841 0.03068571
H  -1.39217010 -0.65635355 0.03023339
C  0.32970024 0.57400209 -0.00500909
H  -0.18774016 1.53435289 0.02644040
H  1.43142982 0.59363450 0.02672304
6
MD Step 54
C  -0.33019158 -0.56927281 -0.00422081
H  0.15329582 -1.53407408 0.02878462
H  -1.39512983 -0.65716609 0.02831932
C  0.33020221 0.57476528 -0.00471505
H  -0.19266151 1.53541944 0.02453501
H  1.43436881 0.59037230 0.02484104
6
MD Step 55
C  -0.33029003 -0.56959578 -0.00386702
H  0.15367901 -1.53671711 0.02682312
H  -1.39843627 -0.65778261 0.02635109
C  0.33073339 0.57555322 -0.00441113
H  -0.19741154 1.53632342 0.02257165
H  1.43688561 0.58718725 0.02289689
6
MD Step 56
C  -0.33038260 -0.56994690 -0.00349841
H  0.15422574 -1.53936618 0.02477428
H  -1.40205001 -0.65822940 0.02430084
C  0.33129662 0.57636940 -0.00409314
H  -0.20197880 1.53699717 0.02052265
H  1.43891160 0.58406772 0.02086344
6
MD Step 57
C  -0.33047705 -0.57033185 -0.00312101
H  0.15494392 -1.54194821 0.02267212
H  -1.40586471 -0.65847141 0.02220144
C  0.33188391 0.57720633 -0.00376667
H  -0.20629309 1.53744005 0.01842336
H  1.44044964 0.58106307 0.01877684
6
MD Step 58
C  -0.33057753 -0.57075240 -0.00273700
H  0.15581908 -1.54441294 0.02052950
H  -1.40979311 -0.65849652 0.02006469
C  0.33249040 0.57805970 -0.00343391
H  -0.21030990 1.53763506 0.01628726
H  1.44149007 0.57820039 0.01665122
6
MD Step 59
C  -0.33068912 -0.57121089 -0.00234960
H  0.15684199 -1.54670645 0.01836496
H  -1.41374178 -0.65828815 0.01790820
C  0.33310980 0.57892374 -0.00309798
H  -0.21398320 1.53757658 0.01413373
H  1.44203804 0.57551153 0.01450659
6
MD Step 60
C  -0.33081165 -0.57170423 -0.00195679
H  0.15797377 -1.54880761 0.01616778
H  -1.41764873 -0.65786124 0.01572046
C  0.33374038 0.57979723 -0.00275724
H  -0.21730156 1.53723497 0.01195184
H  1.44207771 0.57299749 0.01233252
6
MD Step 61
C  -0.33094398 -0.57222814 -0.00155582
H  0.15917179 -1.55070293 0.01392319
H  -1.42145902 -0.65723644 0.01348608
C  0.33438067 0.58067918 -0.00240942
H  -0.22026262 1.53658254 0.00972639
H  1.44159810 0.57065396 0.01011420
6
MD Step 62
C  -0.33109058 -0.57278361 -0.00115005
H  0.16042860 -1.55234817 0.01165052
H  -1.42508699 -0.65640100 0.01122387
C  0.33502312 0.58156225 -0.00205770
H  -0.22283420 1.53563271 0.00747729
H  1.44063233 0.56850981 0.00787194
6
MD Step 63
C  -0.33125193 -0.57336752 -0.00073910
H  0.16171657 -1.55372491 0.00934809
H  -1.42847372 -0.65536522 0.00893179
C  0.33566338 0.58244227 -0.00170186
H  -0.22501079 1.53438385 0.00520266
H  1.43920091 0.56657128 0.00560409
6
MD Step 64
C  -0.33142731 -0.57397551 -0.00032184
H  0.16300510 -1.55482385 0.00700989
H  -1.43157090 -0.65414531 0.00660364
C  0.33629754 0.58331537 -0.00134095
H  -0.22679655 1.53283631 0.00289602
H  1.43732856 0.56483877 0.00330429
6
MD Step 65
C  -0.33162026 -0.57460723 0.00009809
H  0.16429236 -1.55561336 0.00465681
H  -1.43430981 -0.65273140 0.00426023
C  0.33691692 0.58417267 -0.00097834
H  -0.22817346 1.53102418 0.00057843
H  1.43507576 0.56333842 0.00099362
6
MD Step 66
C  -0.33183309 -0.57526108 0.00051777
H  0.16557415 -1.55607131 0.00230550
H  -1.43663380 -0.65111933 0.00191829
C  0.33751337 0.58500567 -0.00061669
H  -0.22913300 1.52898335 -0.00173360
H  1.43250620 0.56209055 -0.00131148
6
MD Step 67
C  -0.33206413 -0.57593158 0.00093790
H  0.16682798 -1.55620143 -0.00004761
H  -1.43851512 -0.64932687 -0.00042554
C  0.33808206 0.58580901 -0.00025535
H  -0.22969234 1.52673503 -0.00404445
H  1.42966961 0.56109349 -0.00361567
6
MD Step 68
C  -0.33231295 -0.57661441 0.00135738
H  0.16804357 -1.55600278 -0.00239623
H  -1.43992464 -0.64736282 -0.00276467
C  0.33861647 0.58657541 0.00010478
H  -0.22986344 1.52431600 -0.00634852
H  1.42663157 0.56035402 -0.00591367
6
MD Step 69
C  -0.33257379 -0.57730009 0.00178009
H  0.16918453 -1.55550828 -0.00476236
H  -1.44087065 -0.64526580 -0.00512070
C  0.33911489 0.58730222 0.00046746
H  -0.22969166 1.52173956 -0.00866933
H  1.42343376 0.55984889 -0.00822946
6
MD Step 70
C  -0.33284977 -0.57798799 0.00220036
H  0.17027170 -1.55470070 -0.00711356
H  -1.44131497 -0.64301993 -0.00746070
C  0.33956658 0.58797734 0.00082757
H  -0.22917141 1.51907889 -0.01097491
H  1.42017698 0.55960833 -0.01053164
6
MD Step 71
C  -0.33313809 -0.57867173 0.00261815
H  0.17129605 -1.55360020 -0.00944954
H  -1.44126085 -0.64064271 -0.00978391
C  0.33996645 0.58859413 0.00118527
H  -0.22833363 1.51637860 -0.01326631
H  1.41693146 0.55962875 -0.01282188
6
MD Step 72
C  -0.33344191 -0.57935105 0.00302689
H  0.17228884 -1.55219357 -0.01173246
H  -1.44068248 -0.63811413 -0.01205185
C  0.34030345 0.58913955 0.00153457
H  -0.22717452 1.51372452 -0.01550640
H  1.41380592 0.55994309 -0.01506381
6
MD Step 73
C  -0.33375478 -0.58001636 0.00342937
H  0.17322957 -1.55052649 -0.01397840
H  -1.43961776 -0.63546939 -0.01428013
C  0.34057612 0.58960992 0.00187840
H  -0.22574767 1.51115008 -0.01771311
H  1.41085251 0.56052873 -0.01727593
6
MD Step 74
C  -0.33407574 -0.58066385 0.00382238
H  0.17413506 -1.54861348 -0.01616866
H  -1.43807822 -0.63270881 -0.01644952
C  0.34077778 0.58999585 0.00221393
H  -0.22407352 1.50872502 -0.01986905
H  1.40815506 0.56139689 -0.01944156
6
MD Step 75
C  -0.33440486 -0.58129098 0.00420136
H  0.17503236 -1.54646455 -0.01827664
H  -1.43607603 -0.62982492 -0.01853277
C  0.34090112 0.59028698 0.00253698
H  -0.22216574 1.50652707 -0.02194881
H  1.40579973 0.56256574 -0.02153598
6
MD Step 76
C  -0.33473302 -0.58188655 0.00457057
H  0.17589889 -1.54414466 -0.02032715
H  -1.43368375 -0.62686241 -0.02055467
C  0.34094838 0.59048218 0.00285196
H  -0.22009038 1.50458060 -0.02397917
H  1.40381278 0.56400071 -0.02358606
6
MD Step 77
C  -0.33505919 -0.58244779 0.00492589
H  0.17676324 -1.54167161 -0.02229591
H  -1.43093203 -0.62381628 -0.02249051
C  0.34091443 0.59057258 0.00315502
H  -0.21786341 1.50295697 -0.02593697
H  1.40226097 0.56571575 -0.02556907
6
MD Step 78
C  -0.33537532 -0.58296542 0.00526996
H  0.17761569 -1.53910485 -0.02419830
H  -1.42789857 -0.62072139 -0.02435590
C  0.34080181 0.59055676 0.00344896
H  -0.21553943 1.50168349 -0.02783914
H  1.40116010 0.56768414 -0.02750157
6
MD Step 79
C  -0.33567408 -0.58343138 0.00560448
H  0.17845304 -1.53649937 -0.02604436
H  -1.42466167 -0.61760691 -0.02616135
C  0.34061316 0.59043328 0.00373562
H  -0.21316537 1.50078756 -0.02969696
H  1.40051969 0.56988380 -0.02939420
6
MD Step 80
C  -0.33595581 -0.58384573 0.00592349
H  0.17931890 -1.53386394 -0.02779824
H  -1.42125803 -0.61445518 -0.02787073
C  0.34034440 0.59019389 0.00400897
H  -0.21073886 1.50033627 -0.03147497
H  1.40038340 0.57233800 -0.03121156
6
MD Step 81
C  -0.33620676 -0.58419512 0.00623481
H  0.18017428 -1.53129001 -0.02950679
H  -1.41781150 -0.61133147 -0.02953269
C  0.34000634 0.58984547 0.00427708
H  -0.20833699 1.50030557 -0.03322110
H  1.40069838 0.57498622 -0.03299949
6
MD Step 82
C  -0.33642666 -0.58448004 0.00653321
H  0.18105918 -1.52878795 -0.03113795
H  -1.41436814 -0.60822077 -0.03111529
C  0.33959741 0.58938269 0.00453437
H  -0.20595299 1.50074220 -0.03490308
H  1.40147924 0.57784640 -0.03472528
6
MD Step 83
C  -0.33660630 -0.58469266 0.00682226
H  0.18195928 -1.52641970 -0.03271325
H  -1.41102833 -0.60516139 -0.03264185
C  0.33912590 0.58881063 0.00478445
H  -0.20362919 1.50162944 -0.03654240
H  1.40267458 0.58088186 -0.03640837
6
MD Step 84
C  -0.33674076 -0.58482984 0.00710172
H  0.18288267 -1.52422045 -0.03423082
H  -1.40786716 -0.60216723 -0.03411178
C  0.33859690 0.58813168 0.00502679
H  -0.20137927 1.50296422 -0.03813644
H  1.40424587 0.58407855 -0.03804459
6
MD Step 85
C  -0.33682253 -0.58488624 0.00737420
H  0.18381812 -1.52223932 -0.03570655
H  -1.40497387 -0.59926928 -0.03554316
C  0.33801908 0.58735263 0.00526394
H  -0.19922967 1.50471547 -0.03970014
H  1.40612729 0.58740367 -0.03964658
6
MD Step 86
C  -0.33685196 -0.58486468 0.00763541
H  0.18479536 -1.52047771 -0.03711347
H  -1.40238876 -0.59645458 -0.03690974
C  0.33739440 0.58647432 0.00549084
H  -0.19715883 1.50688530 -0.04120477
H  1.40828851 0.59086645 -0.04118484
6
MD Step 87
C  -0.33683083 -0.58476963 0.00788040
H  0.18584655 -1.51892738 -0.03841997
H  -1.40014020 -0.59370470 -0.03818021
C  0.33672443 0.58549818 0.00570148
H  -0.19513588 1.50947091 -0.04261656
H  1.41069739 0.59447979 -0.04262537
6
MD Step 88
C  -0.33674985 -0.58459471 0.00811533
H  0.18693135 -1.51764525 -0.03966439
H  -1.39831849 -0.59107093 -0.03939617
C  0.33602284 0.58443868 0.00590224
H  -0.19319599 1.51239019 -0.04397180
H  1.41324629 0.59818530 -0.04400140
6
MD Step 89
C  -0.33660679 -0.58434060 0.00834052
H  0.18804312 -1.51664606 -0.04084875
H  -1.39696679 -0.58856726 -0.04056136
C  0.33529735 0.58330532 0.00609305
H  -0.19133438 1.51558974 -0.04526988
H  1.41586136 0.60196005 -0.04531086
6
MD Step 90
C  -0.33640456 -0.58401308 0.00855245
H  0.18919712 -1.51591398 -0.04195033
H  -1.39609158 -0.58618229 -0.04165351
C  0.33455164 0.58210447 0.00626937
H  -0.18951879 1.51903438 -0.04648525
H  1.41849269 0.60580491 -0.04652816
6
MD Step 91
C  -0.33614625 -0.58361797 0.00874839
H  0.19040081 -1.51543266 -0.04295144
H  -1.39569200 -0.58390905 -0.04265517
C  0.33379022 0.58084425 0.00642753
H  -0.18772005 1.52267860 -0.04759728
H  1.42108577 0.60971484 -0.04763279
6
MD Step 92
C  -0.33582865 -0.58315463 0.00893235
H  0.19161541 -1.51522415 -0.04387811
H  -1.39579850 -0.58178378 -0.04359457
C  0.33302489 0.57954088 0.00657178
H  -0.18595141 1.52642927 -0.04862901
H  1.42354414 0.61364026 -0.04864598
6
MD Step 93
C  -0.33545534 -0.58262895 0.00910302
H  0.19283374 -1.51527117 -0.04472225
H  -1.39639438 -0.57980803 -0.04446378
C  0.33226159 0.57820540 0.00670026
H  -0.18419173 1.53022519 -0.04956945
H  1.42580908 0.61756512 -0.04955693
6
MD Step 94
C  -0.33502797 -0.58204457 0.00926178
H  0.19402875 -1.51556940 -0.04549354
H  -1.39746810 -0.57800046 -0.04527324
C  0.33150903 0.57685223 0.00681439
H  -0.18243785 1.53398674 -0.05042542
H  1.42780904 0.62145524 -0.05037195
6
MD Step 95
C  -0.33455441 -0.58141108 0.00940523
H  0.19520264 -1.51607908 -0.04617045
H  -1.39896513 -0.57634801 -0.04600027
C  0.33077038 0.57549077 0.00690994
H  -0.18065660 1.53766626 -0.05117299
H  1.42950965 0.62530745 -0.05106839
6
MD Step 96
C  -0.33404392 -0.58073921 0.00952952
H  0.19635979 -1.51675333 -0.04672785
H  -1.40081712 -0.57483354 -0.04661788
C  0.33004792 0.57412989 0.00698202
H  -0.17881293 1.54122167 -0.05178513
H  1.43088665 0.62912206 -0.05162115
6
MD Step 97
C  -0.33349335 -0.58002686 0.00964254
H  0.19742470 -1.51762155 -0.04722015
H  -1.40302644 -0.57351802 -0.04718247
C  0.32935690 0.57279156 0.00704051
H  -0.17695236 1.54453518 -0.05231344
H  1.43184413 0.63282047 -0.05207971
6
MD Step 98
C  -0.33291805 -0.57929036 0.00973620
H  0.19842852 -1.51860352 -0.04759386
H  -1.40548053 -0.57235481 -0.04763682
C  0.32869406 0.57147952 0.00707545
H  -0.17501633 1.54760065 -0.05270383
H  1.43240152 0.63643191 -0.05239356
6
MD Step 99
C  -0.33232034 -0.57853265 0.00981445
H  0.19932143 -1.51969863 -0.04787725
H  -1.40814289 -0.57137719 -0.04800920
C  0.32806935 0.57021061 0.00709203
H  -0.17302949 1.55033639 -0.05298277
H  1.43250579 0.63990510 -0.05258881
6
MD Step 100
C  -0.33171061 -0.57776468 0.00987432
H  0.20010067 -1.52085890 -0.04805164
H  -1.41092687 -0.57057123 -0.04827862
C  0.32748438 0.56899333 0.00708687
H  -0.17097319 1.55271349 -0.05313126
H  1.43215925 0.64323629 -0.05264846
6
MD Step 101
C  -0.33109806 -0.57699604 0.00991409
H  0.20075625 -1.52204446 -0.04810672
H  -1.41375250 -0.56993026 -0.04843268
C  0.32694158 0.56783680 0.00705818
H  -0.16884005 1.55470177 -0.05313892
H  1.43136511 0.64641464 -0.05256384
6
MD Step 102
C  -0.33049030 -0.57623461 0.00993351
H  0.20126992 -1.52322575 -0.04804200
H  -1.41654991 -0.56945624 -0.04846917
C  0.32644443 0.56675094 0.00700606
H  -0.16663533 1.55626886 -0.05300539
H  1.43012596 0.64942084 -0.05233591
6
MD Step 103
C  -0.32989270 -0.57548594 0.00993421
H  0.20161248 -1.52438723 -0.04787007
H  -1.41926391 -0.56916280 -0.04839951
C  0.32599801 0.56574681 0.00693307
H  -0.16438010 1.55737760 -0.05274330
H  1.42844080 0.65222426 -0.05197810
6
MD Step 104
C  -0.32931466 -0.57475964 0.00991407
H  0.20178262 -1.52548936 -0.04757750
H  -1.42181677 -0.56903699 -0.04820809
C  0.32560232 0.56483015 0.00683702
H  -0.16207307 1.55802476 -0.05234058
H  1.42634347 0.65482172 -0.05148022
6
MD Step 105
C  -0.32876090 -0.57406051 0.00987488
H  0.20175524 -1.52652107 -0.04717761
H  -1.42416152 -0.56909078 -0.04790711
C  0.32526120 0.56400991 0.00672069
H  -0.15974188 1.55818956 -0.05181127
H  1.42385072 0.65718551 -0.05085722
6
MD Step 106
C  -0.32823672 -0.57339389 0.00981755
H  0.20151394 -1.52746788 -0.04667776
H  -1.42625057 -0.56932904 -0.04750271
C  0.32497671 0.56329279 0.00658582
H  -0.15741114 1.55786594 -0.05116394
H  1.42099421 0.65929593 -0.05011870
6
MD Step 107
C  -0.32775104 -0.57276885 0.00973936
H  0.20107046 -1.52829312 -0.04605979
H  -1.42801737 -0.56973064 -0.04697483
C  0.32474593 0.56268004 0.00642950
H  -0.15508335 1.55708171 -0.05038307
H  1.41783923 0.66116061 -0.04925099
6
MD Step 108
C  -0.32730741 -0.57218895 0.00964186
H  0.20041051 -1.52899241 -0.04533522
H  -1.42943153 -0.57030209 -0.04633422
C  0.32457018 0.56217636 0.00625430
H  -0.15279223 1.55584451 -0.04948176
H  1.41443016 0.66276021 -0.04826798
6
MD Step 109
C  -0.32691674 -0.57166529 0.00951945
H  0.19957195 -1.52951625 -0.04446598
H  -1.43042152 -0.57100061 -0.04554082
C  0.32444177 0.56177704 0.00605374
H  -0.15052571 1.55421907 -0.04842603
H  1.41086710 0.66412654 -0.04713772
6
MD Step 110
C  -0.32657966 -0.57119847 0.00937520
H  0.19853770 -1.52987697 -0.04347318
H  -1.43098253 -0.57183990 -0.04461553
C  0.32436228 0.56148560 0.00583211
H  -0.14833105 1.55222040 -0.04723866
H  1.40719831 0.66523525 -0.04588338
6
MD Step 111
C  -0.32629741 -0.57078964 0.00921101
H  0.19730214 -1.53008270 -0.04236975
H  -1.43111023 -0.57282468 -0.04357105
C  0.32433133 0.56130290 0.00559225
H  -0.14624920 1.54987935 -0.04593476
H  1.40348517 0.66607231 -0.04452047
6
MD Step 112
C  -0.32607199 -0.57044083 0.00902738
H  0.19587238 -1.53013600 -0.04115910
H  -1.43079950 -0.57394940 -0.04241054
C  0.32434641 0.56122692 0.00533525
H  -0.14431315 1.54724342 -0.04452035
H  1.39980241 0.66663530 -0.04305545
6
MD Step 113
C  -0.32590822 -0.57015695 0.00882159
H  0.19428065 -1.53002146 -0.03982240
H  -1.43003212 -0.57518610 -0.04111472
C  0.32440082 0.56125074 0.00505814
H  -0.14253527 1.54438839 -0.04298035
H  1.39624895 0.66694585 -0.04147386
6
MD Step 114
C  -0.32580489 -0.56993676 0.00859575
H  0.19253042 -1.52975917 -0.03837321
H  -1.42883063 -0.57653745 -0.03969749
C  0.32449298 0.56137158 0.00476379
H  -0.14095965 1.54136392 -0.04133060
H  1.39289262 0.66699556 -0.03979136
6
MD Step 115
C  -0.32575942 -0.56977768 0.00835247
H  0.19062461 -1.52937624 -0.03682862
H  -1.42722981 -0.57800880 -0.03817650
C  0.32462164 0.56158618 0.00445565
H  -0.13963363 1.53822071 -0.03959019
H  1.38979665 0.66677439 -0.03802660
6
MD Step 116
C  -0.32577086 -0.56967886 0.00809223
H  0.18858334 -1.52888860 -0.03519098
H  -1.42525828 -0.57959058 -0.03655462
C  0.32478300 0.56188797 0.00413447
H  -0.13858946 1.53502712 -0.03776404
H  1.38703576 0.66628852 -0.03618401
6
MD Step 117
C  -0.32583771 -0.56963902 0.00781529
H  0.18643056 -1.52831373 -0.03346123
H  -1.42295131 -0.58127126 -0.03483348
C  0.32497301 0.56226939 0.00380070
H  -0.13785657 1.53185470 -0.03585552
H  1.38468112 0.66554698 -0.03426631
6
MD Step 118
C  -0.32595632 -0.56965477 0.00752330
H  0.18418348 -1.52768042 -0.03164925
H  -1.42036054 -0.58304752 -0.03302386
C  0.32518926 0.56272379 0.00345633
H  -0.13747081 1.52876643 -0.03387630
H  1.38278821 0.66455129 -0.03228419
6
MD Step 119
C  -0.32612363 -0.56972348 0.00721669
H  0.18186878 -1.52701187 -0.02975710
H  -1.41753683 -0.58490804 -0.03112879
C  0.32542827 0.56324285 0.00310190
H  -0.13745738 1.52583142 -0.03183023
H  1.38141133 0.66331181 -0.03024044
6
MD Step 120
C  -0.32634050 -0.56984669 0.00689163
H  0.17954234 -1.52630519 -0.02775863
H  -1.41450948 -0.58681377 -0.02912287
C  0.32568220 0.56381349 0.00273287
H  -0.13781022 1.52314305 -0.02969371
H  1.38062175 0.66186770 -0.02811061
6
MD Step 121
C  -0.32659375 -0.57001179 0.00655698
H  0.17717903 -1.52564022 -0.02571057
H  -1.41139527 -0.58880646 -0.02706444
C  0.32595754 0.56443627 0.00235930
H  -0.13859942 1.52070789 -0.02752271
H  1.38039673 0.66017684 -0.02594894
6
MD Step 122
C  -0.32688095 -0.57021732 0.00621101
H  0.17482242 -1.52502906 -0.02360061
H  -1.40824657 -0.59086025 -0.02494215
C  0.32624970 0.56510065 0.00197899
H  -0.13982228 1.51859357 -0.02530616
H  1.38076849 0.65826614 -0.02374331
6
MD Step 123
C  -0.32719603 -0.57045827 0.00585508
H  0.17249604 -1.52450336 -0.02143665
H  -1.40513832 -0.59296903 -0.02276504
C  0.32655793 0.56579983 0.00159326
H  -0.14148978 1.51683936 -0.02305218
H  1.38173568 0.65614313 -0.02150068
6
MD Step 124
C  -0.32753515 -0.57073205 0.00548816
H  0.17023799 -1.52407857 -0.01921128
H  -1.40213140 -0.59511171 -0.02052659
C  0.32687944 0.56652506 0.00120070
H  -0.14359124 1.51548976 -0.02075370
H  1.38329809 0.65383109 -0.01921313
6
MD Step 125
C  -0.32788775 -0.57102937 0.00511552
H  0.16804570 -1.52380797 -0.01695709
H  -1.39932581 -0.59730664 -0.01826052
C  0.32721858 0.56727490 0.00080686
H  -0.14614820 1.51453884 -0.01844239
H  1.38540214 0.65131415 -0.01691132
6