 Entering Gaussian System, Link 0=g16
 Initial command:
 /software/gaussian/g16-c01/avx2/g16/l1.exe "/gpfs/fs2/scratch/bweight/software/many_molecule_many_mode_NAMD/src/NAMD/TEST_NVT/TRAJ/traj-51/G16/GS_NEW/Gau-14109.inp" -scrdir="/gpfs/fs2/scratch/bweight/software/many_molecule_many_mode_NAMD/src/NAMD/TEST_NVT/TRAJ/traj-51/G16/GS_NEW/"
 Entering Link 1 = /software/gaussian/g16-c01/avx2/g16/l1.exe PID=     14110.
  
 Copyright (c) 1988-2019, Gaussian, Inc.  All Rights Reserved.
  
 This is part of the Gaussian(R) 16 program.  It is based on
 the Gaussian(R) 09 system (copyright 2009, Gaussian, Inc.),
 the Gaussian(R) 03 system (copyright 2003, Gaussian, Inc.),
 the Gaussian(R) 98 system (copyright 1998, Gaussian, Inc.),
 the Gaussian(R) 94 system (copyright 1995, Gaussian, Inc.),
 the Gaussian 92(TM) system (copyright 1992, Gaussian, Inc.),
 the Gaussian 90(TM) system (copyright 1990, Gaussian, Inc.),
 the Gaussian 88(TM) system (copyright 1988, Gaussian, Inc.),
 the Gaussian 86(TM) system (copyright 1986, Carnegie Mellon
 University), and the Gaussian 82(TM) system (copyright 1983,
 Carnegie Mellon University). Gaussian is a federally registered
 trademark of Gaussian, Inc.
  
 This software contains proprietary and confidential information,
 including trade secrets, belonging to Gaussian, Inc.
  
 This software is provided under written license and may be
 used, copied, transmitted, or stored only in accord with that
 written license.
  
 The following legend is applicable only to US Government
 contracts under FAR:
  
                    RESTRICTED RIGHTS LEGEND
  
 Use, reproduction and disclosure by the US Government is
 subject to restrictions as set forth in subparagraphs (a)
 and (c) of the Commercial Computer Software - Restricted
 Rights clause in FAR 52.227-19.
  
 Gaussian, Inc.
 340 Quinnipiac St., Bldg. 40, Wallingford CT 06492
  
  
 ---------------------------------------------------------------
 Warning -- This program may not be used in any manner that
 competes with the business of Gaussian, Inc. or will provide
 assistance to any competitor of Gaussian, Inc.  The licensee
 of this program is prohibited from giving any competitor of
 Gaussian, Inc. access to this program.  By using this program,
 the user acknowledges that Gaussian, Inc. is engaged in the
 business of creating and licensing software in the field of
 computational chemistry and represents and warrants to the
 licensee that it is not a competitor of Gaussian, Inc. and that
 it will not use this program in any manner prohibited above.
 ---------------------------------------------------------------
  

 Cite this work as:
 Gaussian 16, Revision C.01,
 M. J. Frisch, G. W. Trucks, H. B. Schlegel, G. E. Scuseria, 
 M. A. Robb, J. R. Cheeseman, G. Scalmani, V. Barone, 
 G. A. Petersson, H. Nakatsuji, X. Li, M. Caricato, A. V. Marenich, 
 J. Bloino, B. G. Janesko, R. Gomperts, B. Mennucci, H. P. Hratchian, 
 J. V. Ortiz, A. F. Izmaylov, J. L. Sonnenberg, D. Williams-Young, 
 F. Ding, F. Lipparini, F. Egidi, J. Goings, B. Peng, A. Petrone, 
 T. Henderson, D. Ranasinghe, V. G. Zakrzewski, J. Gao, N. Rega, 
 G. Zheng, W. Liang, M. Hada, M. Ehara, K. Toyota, R. Fukuda, 
 J. Hasegawa, M. Ishida, T. Nakajima, Y. Honda, O. Kitao, H. Nakai, 
 T. Vreven, K. Throssell, J. A. Montgomery, Jr., J. E. Peralta, 
 F. Ogliaro, M. J. Bearpark, J. J. Heyd, E. N. Brothers, K. N. Kudin, 
 V. N. Staroverov, T. A. Keith, R. Kobayashi, J. Normand, 
 K. Raghavachari, A. P. Rendell, J. C. Burant, S. S. Iyengar, 
 J. Tomasi, M. Cossi, J. M. Millam, M. Klene, C. Adamo, R. Cammi, 
 J. W. Ochterski, R. L. Martin, K. Morokuma, O. Farkas, 
 J. B. Foresman, and D. J. Fox, Gaussian, Inc., Wallingford CT, 2019.
 
 ******************************************
 Gaussian 16:  ES64L-G16RevC.01  3-Jul-2019
                11-Jan-2023 
 ******************************************
 %oldchk=../GS_OLD/geometry.chk
 %chk=geometry.chk
 %nprocshared=4
 Will use up to    4 processors via shared memory.
 %mem=5GB
 Copying data from "../GS_OLD/geometry.chk" to current chk file "geometry.chk"
 IOpt=  2 FromEx=T IUOpen= 4 IOptOp= 5 NList=   0 IFRang= 0 IUIn= 4 IUOut= 2.
 -------------------------------------------------------
 # WB97XD/6-311G SCF=XQC FORCE nosym pop=full guess=read
 -------------------------------------------------------
 1/10=7,30=1,38=1/1,3;
 2/12=2,15=1,17=6,18=5,40=1/2;
 3/5=4,6=6,11=2,25=1,30=1,71=1,74=-58,116=-2/1,2,3;
 4/5=1/1;
 5/5=2,8=3,13=1,38=6/2,8;
 6/7=3,28=1/1;
 7/29=1,30=1/1,2,3,16;
 1/10=7,30=1/3;
 99//99;
 ------------
 MD Step 1000
 ------------
 Symbolic Z-matrix:
 Charge =  0 Multiplicity = 1
 C                    -0.33694  -0.58272   0.00455 
 H                     0.22531  -1.52697  -0.01152 
 H                    -1.42236  -0.57844  -0.01234 
 C                     0.33283   0.57681   0.00318 
 H                    -0.15468   1.56301  -0.01446 
 H                     1.441     0.65315  -0.01355 
 

 GradGradGradGradGradGradGradGradGradGradGradGradGradGradGradGradGradGrad
 Berny optimization.
 Initialization pass.
 Trust Radius=3.00D-01 FncErr=1.00D-07 GrdErr=1.00D-07 EigMax=2.50D+02 EigMin=1.00D-04
 Number of steps in this run=      2 maximum allowed number of steps=      2.
 GradGradGradGradGradGradGradGradGradGradGradGradGradGradGradGradGradGrad

                          Input orientation:                          
 ---------------------------------------------------------------------
 Center     Atomic      Atomic             Coordinates (Angstroms)
 Number     Number       Type             X           Y           Z
 ---------------------------------------------------------------------
      1          6           0       -0.336943   -0.582725    0.004554
      2          1           0        0.225306   -1.526967   -0.011521
      3          1           0       -1.422362   -0.578443   -0.012345
      4          6           0        0.332833    0.576812    0.003182
      5          1           0       -0.154676    1.563013   -0.014462
      6          1           0        1.440995    0.653147   -0.013549
 ---------------------------------------------------------------------
                    Distance matrix (angstroms):
                    1          2          3          4          5
     1  C    0.000000
     2  H    1.099080   0.000000
     3  H    1.085558   1.901186   0.000000
     4  C    1.339077   2.106576   2.101324   0.000000
     5  H    2.153549   3.113257   2.488546   1.100259   0.000000
     6  H    2.165357   2.496158   3.116990   1.110914   1.836852
                    6
     6  H    0.000000
 Symmetry turned off by external request.
 Stoichiometry    C2H4
 Framework group  C1[X(C2H4)]
 Deg. of freedom    12
 Full point group                 C1      NOp   1
 Rotational constants (GHZ):         143.4646894          29.6857071          24.5985847
 Standard basis: 6-311G (5D, 7F)
    38 basis functions,    72 primitive gaussians,    38 cartesian basis functions
     8 alpha electrons        8 beta electrons
       nuclear repulsion energy        33.0736244723 Hartrees.
 NAtoms=    6 NActive=    6 NUniq=    6 SFac= 1.00D+00 NAtFMM=   60 NAOKFM=F Big=F
 Integral buffers will be    131072 words long.
 Raffenetti 2 integral format.
 Two-electron integral symmetry is turned off.
 Nuclear repulsion after empirical dispersion term =       33.0727820768 Hartrees.
 One-electron integrals computed using PRISM.
 NBasis=    38 RedAO= T EigKep=  6.45D-03  NBF=    38
 NBsUse=    38 1.00D-06 EigRej= -1.00D+00 NBFU=    38
 Initial guess from the checkpoint file:  "geometry.chk"
 B after Tr=    -0.000297   -0.000391   -0.000489
         Rot=    1.000000    0.000002    0.000000    0.000006 Ang=   0.00 deg.
 Keep R1 ints in memory in canonical form, NReq=4036876.
 Requested convergence on RMS density matrix=1.00D-08 within  32 cycles.
 Requested convergence on MAX density matrix=1.00D-06.
 Requested convergence on             energy=1.00D-06.
 No special actions if energy rises.
 SCF Done:  E(RwB97XD) =  -78.5556747194     A.U. after    8 cycles
            NFock=  8  Conv=0.54D-08     -V/T= 2.0051
 QCSCF skips out because SCF is already converged.

 **********************************************************************

            Population analysis using the SCF Density.

 **********************************************************************

 Alpha  occ. eigenvalues --  -10.28972 -10.28830  -0.86372  -0.67253  -0.55987
 Alpha  occ. eigenvalues --   -0.50887  -0.43689  -0.35667
 Alpha virt. eigenvalues --    0.07981   0.14098   0.16500   0.17030   0.24077
 Alpha virt. eigenvalues --    0.37136   0.39420   0.40027   0.46457   0.48867
 Alpha virt. eigenvalues --    0.49392   0.59100   0.66601   0.69190   0.77329
 Alpha virt. eigenvalues --    0.77521   0.84522   0.95124   2.23109   2.29126
 Alpha virt. eigenvalues --    2.33260   2.40804   2.67100   2.81838   2.87701
 Alpha virt. eigenvalues --    2.95226   3.14060   3.32182  23.35297  23.70542
     Molecular Orbital Coefficients:
                           1         2         3         4         5
                           O         O         O         O         O
     Eigenvalues --   -10.28972 -10.28830  -0.86372  -0.67253  -0.55987
   1 1   C  1S          0.18330   0.53275  -0.08826   0.06695  -0.00045
   2        2S          0.15105   0.43840  -0.13951   0.10720  -0.00074
   3        2PX         0.00016  -0.00004   0.02584   0.03562   0.13867
   4        2PY         0.00028  -0.00005   0.04646   0.05799  -0.07385
   5        2PZ        -0.00000  -0.00000  -0.00071   0.00099   0.00015
   6        3S          0.00393   0.01409   0.37427  -0.29256   0.00204
   7        3PX        -0.00053   0.00051   0.03437   0.05717   0.21739
   8        3PY        -0.00090   0.00092   0.06144   0.09428  -0.11672
   9        3PZ        -0.00001  -0.00002  -0.00118   0.00177   0.00022
  10        4S          0.00101  -0.01498   0.19190  -0.22567   0.00158
  11        4PX         0.00123  -0.00176   0.00484   0.02278   0.11227
  12        4PY         0.00212  -0.00303   0.00876   0.03922  -0.06126
  13        4PZ         0.00001   0.00004  -0.00041   0.00089   0.00011
  14 2   H  1S         -0.00005  -0.00005   0.05237  -0.08638   0.10308
  15        2S         -0.00028   0.00015   0.05381  -0.10449   0.13049
  16        3S          0.00107   0.00153  -0.00183  -0.01479   0.04203
  17 3   H  1S         -0.00006  -0.00006   0.05403  -0.09021  -0.10655
  18        2S         -0.00028   0.00013   0.05485  -0.10821  -0.13381
  19        3S          0.00110   0.00157  -0.00184  -0.01584  -0.04305
  20 4   C  1S          0.53270  -0.18348  -0.08693  -0.06826  -0.00030
  21        2S          0.43849  -0.15082  -0.13725  -0.10947  -0.00048
  22        2PX        -0.00004  -0.00016  -0.02753   0.03829   0.11689
  23        2PY        -0.00006  -0.00028  -0.04618   0.06877  -0.07369
  24        2PZ        -0.00000   0.00000  -0.00054  -0.00112   0.00015
  25        3S          0.01339  -0.00554   0.36762   0.29920   0.00132
  26        3PX        -0.00009   0.00075  -0.03443   0.06193   0.18286
  27        3PY        -0.00013   0.00129  -0.05760   0.11047  -0.11418
  28        3PZ        -0.00002  -0.00000  -0.00094  -0.00201   0.00023
  29        4S         -0.01086   0.01013   0.18879   0.23717   0.00015
  30        4PX         0.00058  -0.00201  -0.00547   0.02728   0.10085
  31        4PY         0.00094  -0.00350  -0.00898   0.04699  -0.06198
  32        4PZ         0.00003  -0.00001  -0.00039  -0.00103   0.00012
  33 5   H  1S         -0.00007  -0.00003   0.05032   0.09483  -0.08917
  34        2S         -0.00007  -0.00031   0.05125   0.11261  -0.11195
  35        3S          0.00182  -0.00013  -0.00098   0.01699  -0.03583
  36 6   H  1S         -0.00006  -0.00003   0.04888   0.09255   0.08456
  37        2S         -0.00007  -0.00032   0.05043   0.11053   0.10673
  38        3S          0.00177  -0.00013  -0.00105   0.01629   0.03448
                           6         7         8         9        10
                           O         O         O         V         V
     Eigenvalues --    -0.50887  -0.43689  -0.35667   0.07981   0.14098
   1 1   C  1S         -0.00279   0.00021  -0.00054   0.00145  -0.03385
   2        2S         -0.00407   0.00036  -0.00088   0.00240  -0.05432
   3        2PX         0.09462  -0.10971  -0.00179   0.00078  -0.03140
   4        2PY         0.16892   0.06550  -0.00297   0.00124  -0.06508
   5        2PZ         0.00263  -0.00002   0.17946  -0.18920  -0.00140
   6        3S          0.01690  -0.00079   0.00257  -0.00727   0.11840
   7        3PX         0.13721  -0.17513  -0.00252   0.00117  -0.03680
   8        3PY         0.24675   0.10518  -0.00418   0.00184  -0.08035
   9        3PZ         0.00417  -0.00001   0.28855  -0.27817  -0.00222
  10        4S         -0.05745  -0.00364   0.00372  -0.00844   1.23662
  11        4PX         0.06893  -0.10911  -0.00208   0.00664  -0.18989
  12        4PY         0.12526   0.06599  -0.00345   0.01100  -0.38142
  13        4PZ         0.00238   0.00002   0.26720  -0.69523  -0.00801
  14 2   H  1S         -0.08146  -0.11426   0.00008   0.00226  -0.01812
  15        2S         -0.11331  -0.17638   0.00106   0.00360  -0.04914
  16        3S         -0.04242  -0.08149   0.00063   0.00956  -0.84150
  17 3   H  1S         -0.07950   0.11170   0.00003   0.00226  -0.01407
  18        2S         -0.10987   0.17143   0.00099   0.00362  -0.03943
  19        3S         -0.04078   0.07889   0.00060   0.00933  -0.77428
  20 4   C  1S         -0.00926  -0.00052  -0.00042  -0.00136  -0.03584
  21        2S         -0.01455  -0.00086  -0.00068  -0.00226  -0.05756
  22        2PX        -0.09817   0.12601   0.00173   0.00087   0.04068
  23        2PY        -0.16139  -0.07441   0.00327   0.00166   0.06056
  24        2PZ         0.00288   0.00015   0.17910   0.18953  -0.00148
  25        3S          0.04637   0.00243   0.00201   0.00678   0.12698
  26        3PX        -0.14560   0.20139   0.00242   0.00134   0.05004
  27        3PY        -0.23755  -0.11796   0.00461   0.00257   0.07181
  28        3PZ         0.00454   0.00023   0.28674   0.27809  -0.00225
  29        4S         -0.02360   0.00351   0.00338   0.00734   1.23265
  30        4PX        -0.07640   0.12898   0.00185   0.00677   0.26670
  31        4PY        -0.12325  -0.07490   0.00361   0.01232   0.41537
  32        4PZ         0.00263   0.00014   0.26770   0.69637  -0.00899
  33 5   H  1S         -0.07340  -0.12567   0.00014  -0.00208  -0.01105
  34        2S         -0.09981  -0.19525   0.00115  -0.00344  -0.03654
  35        3S         -0.03730  -0.09165   0.00064  -0.00885  -0.81538
  36 6   H  1S         -0.07956   0.12520   0.00009  -0.00208  -0.01492
  37        2S         -0.10871   0.19572   0.00107  -0.00347  -0.04604
  38        3S         -0.04083   0.09199   0.00059  -0.00905  -0.88258
                          11        12        13        14        15
                           V         V         V         V         V
     Eigenvalues --     0.16500   0.17030   0.24077   0.37136   0.39420
   1 1   C  1S          0.00140  -0.04537   0.00012   0.00853   0.00087
   2        2S          0.00227  -0.07397   0.00018   0.01131   0.00131
   3        2PX         0.09739  -0.01868   0.09947  -0.03533  -0.02320
   4        2PY        -0.05370  -0.03690  -0.05690  -0.06414   0.01037
   5        2PZ         0.00010  -0.00347   0.00003  -0.00242  -0.00010
   6        3S         -0.00492   0.16768   0.00025   0.03540   0.00130
   7        3PX         0.13898  -0.00980   0.10462  -0.04238  -0.10466
   8        3PY        -0.07793  -0.02400  -0.06091  -0.08144   0.05219
   9        3PZ         0.00014  -0.00483   0.00000  -0.00504  -0.00015
  10        4S         -0.06218   1.42514  -0.02734  -2.43356  -0.17925
  11        4PX         0.59062  -0.10894   1.16955  -1.52201  -0.53903
  12        4PY        -0.31656  -0.20436  -0.67133  -2.64474   0.13529
  13        4PZ         0.00072  -0.02271   0.00069  -0.02140  -0.00140
  14 2   H  1S         -0.02876  -0.02593   0.01395  -0.06169   0.07490
  15        2S         -0.08084  -0.01869  -0.02581  -0.69164   0.76182
  16        3S         -1.02950  -1.00539  -1.53378  -0.26774  -0.31562
  17 3   H  1S          0.02823  -0.02536  -0.01626  -0.05489  -0.07587
  18        2S          0.07981  -0.02084   0.01913  -0.63774  -0.76250
  19        3S          1.11000  -0.99727   1.56962  -0.34685   0.24239
  20 4   C  1S          0.00113   0.04256  -0.00016  -0.01983  -0.00010
  21        2S          0.00179   0.06926  -0.00027  -0.03272  -0.00006
  22        2PX         0.10080  -0.02364  -0.10062  -0.03972  -0.03210
  23        2PY        -0.06082  -0.03825   0.05765  -0.07113   0.01287
  24        2PZ         0.00011   0.00341  -0.00004   0.00170   0.00017
  25        3S         -0.00347  -0.15329   0.00039   0.04613  -0.00196
  26        3PX         0.14462  -0.01882  -0.11477  -0.09215  -0.11146
  27        3PY        -0.08625  -0.02821   0.06431  -0.16718   0.05504
  28        3PZ         0.00015   0.00468  -0.00002   0.00196   0.00034
  29        4S         -0.05706  -1.35439   0.02087   3.19362   0.16183
  30        4PX         0.53270  -0.12155  -1.12755  -1.09430  -0.56850
  31        4PY        -0.32861  -0.20387   0.65118  -1.92565   0.11638
  32        4PZ         0.00071   0.02220  -0.00072   0.01833   0.00124
  33 5   H  1S          0.03079   0.02445   0.00592   0.00659  -0.08102
  34        2S          0.06619   0.02141  -0.03502   0.01731  -0.80056
  35        3S          1.07680   0.95176  -1.54101   0.44295   0.47358
  36 6   H  1S         -0.03141   0.02504  -0.00435   0.00155   0.08844
  37        2S         -0.06743   0.01978   0.03685  -0.02541   0.89967
  38        3S         -1.00044   0.95436   1.51620   0.45395  -0.45638
                          16        17        18        19        20
                           V         V         V         V         V
     Eigenvalues --     0.40027   0.46457   0.48867   0.49392   0.59100
   1 1   C  1S         -0.01934   0.01201   0.04647  -0.00042  -0.00029
   2        2S         -0.03371   0.02819   0.07771  -0.00057  -0.00052
   3        2PX         0.02959  -0.06131  -0.01305   0.00072   0.00111
   4        2PY         0.05401  -0.10591  -0.01607   0.00094   0.00156
   5        2PZ         0.00029  -0.00019  -0.00348  -0.15202  -0.19240
   6        3S          0.07327  -0.33602  -0.09386  -0.00435  -0.00033
   7        3PX         0.10692  -0.24178   0.03227   0.00011   0.00367
   8        3PY         0.20096  -0.41543   0.06906  -0.00077   0.00523
   9        3PZ        -0.00173  -0.00210  -0.01550  -0.62885  -0.68443
  10        4S          2.88208   0.18693  -3.07969   0.06258   0.03642
  11        4PX         0.35216   0.25071  -0.82282   0.01945   0.01149
  12        4PY         0.64153   0.47444  -1.43485   0.03511   0.02011
  13        4PZ        -0.00027   0.00046   0.05033   0.68718   1.24013
  14 2   H  1S         -0.02399  -0.03321   0.07564  -0.00178  -0.00089
  15        2S         -0.50846  -0.31939   0.89635  -0.01777  -0.00682
  16        3S          0.34353   0.07592  -0.65139   0.01950   0.01232
  17 3   H  1S         -0.03120  -0.03632   0.07296  -0.00173  -0.00084
  18        2S         -0.57168  -0.35635   0.86763  -0.01737  -0.00579
  19        3S          0.35773   0.07864  -0.61161   0.01865   0.01199
  20 4   C  1S          0.00099  -0.00238  -0.05098   0.00187   0.00037
  21        2S         -0.00198   0.00362  -0.08872   0.00336   0.00069
  22        2PX         0.01064   0.05467  -0.02682   0.00017   0.00105
  23        2PY         0.02067   0.09478  -0.05000   0.00022   0.00215
  24        2PZ        -0.00203  -0.00099  -0.00350  -0.15268   0.19226
  25        3S          0.07663  -0.28702   0.23067  -0.01239  -0.00133
  26        3PX        -0.03917   0.23416  -0.05549   0.00035   0.00370
  27        3PY        -0.05715   0.41018  -0.10106   0.00008   0.00747
  28        3PZ        -0.00559  -0.00401  -0.01333  -0.63151   0.68262
  29        4S         -1.10087   0.72426   3.13484  -0.07513  -0.03211
  30        4PX         1.33625  -0.32246  -0.60694   0.01085   0.01117
  31        4PY         2.41452  -0.52164  -1.02070   0.01832   0.01878
  32        4PZ        -0.01902  -0.00869  -0.01497   0.69229  -1.23756
  33 5   H  1S         -0.04572  -0.06455  -0.06436   0.00158   0.00081
  34        2S         -0.83734  -0.66837  -0.82349   0.02323   0.00305
  35        3S         -0.24825   0.25687   0.53502  -0.00773  -0.01186
  36 6   H  1S         -0.03813  -0.06253  -0.06491   0.00162   0.00085
  37        2S         -0.74929  -0.63990  -0.82012   0.02313   0.00358
  38        3S         -0.26367   0.27317   0.56233  -0.00871  -0.01207
                          21        22        23        24        25
                           V         V         V         V         V
     Eigenvalues --     0.66601   0.69190   0.77329   0.77521   0.84522
   1 1   C  1S          0.00092  -0.00044   0.04852   0.07448   0.00084
   2        2S          0.00189  -0.00102   0.10237   0.15876   0.00192
   3        2PX        -0.13732   0.19461  -0.02995   0.11338  -0.00749
   4        2PY         0.08040  -0.11739  -0.05079   0.18362   0.01256
   5        2PZ        -0.00006   0.00015   0.00027   0.00248   0.00009
   6        3S         -0.01497   0.01563  -0.68023  -1.36670  -0.02032
   7        3PX        -0.63097   0.68034  -0.19093   0.43877  -0.22294
   8        3PY         0.36552  -0.41051  -0.32604   0.70099   0.16152
   9        3PZ        -0.00034   0.00055   0.00111   0.00865   0.00031
  10        4S          0.02733  -0.08208   0.64665   2.46472  -0.05734
  11        4PX         1.08134  -0.78917   0.19489  -0.74686   4.54377
  12        4PY        -0.62872   0.47521   0.24364  -0.99345  -2.61834
  13        4PZ         0.00036   0.00039   0.00562  -0.02819   0.00287
  14 2   H  1S          0.02535  -0.05805   0.00903   0.03310  -0.02784
  15        2S          0.15782  -0.61702   0.06917   0.09215  -1.59380
  16        3S         -1.06316   1.08481  -0.06046  -1.09631  -1.23299
  17 3   H  1S         -0.02460   0.05762   0.00881   0.03398   0.03120
  18        2S         -0.17294   0.65424   0.09593   0.06444   1.63683
  19        3S          1.05166  -1.05142  -0.03732  -1.24595   1.23784
  20 4   C  1S          0.00116  -0.00043   0.08319   0.03439   0.00072
  21        2S          0.00235  -0.00078   0.17712   0.07238   0.00146
  22        2PX        -0.14705  -0.18903  -0.09813   0.04935   0.00811
  23        2PY         0.08409   0.10450  -0.17812   0.09091   0.00266
  24        2PZ        -0.00007  -0.00016   0.00274  -0.00050  -0.00010
  25        3S         -0.01668  -0.00176  -1.48287  -0.43188  -0.00793
  26        3PX        -0.67030  -0.64673  -0.36000   0.26748   0.22561
  27        3PY         0.38628   0.35499  -0.65883   0.48874  -0.09344
  28        3PZ        -0.00037  -0.00055   0.00970  -0.00200  -0.00028
  29        4S          0.01269   0.05884   2.67115   0.21918   0.03657
  30        4PX         1.28971   0.81132   0.52498  -0.23450  -4.16510
  31        4PY        -0.73661  -0.44854   1.05030  -0.64697   2.35218
  32        4PZ         0.00073  -0.00021  -0.02788   0.01265  -0.00247
  33 5   H  1S         -0.02368  -0.05548   0.03430   0.00416  -0.02368
  34        2S         -0.12509  -0.55737   0.08000   0.07850  -1.41523
  35        3S          1.10052   1.02062  -1.18327   0.26171  -1.09417
  36 6   H  1S          0.02436   0.05531   0.03374   0.00496   0.02362
  37        2S          0.11898   0.52074   0.08292   0.02386   1.39753
  38        3S         -1.10408  -1.03834  -1.10077   0.18835   1.10280
                          26        27        28        29        30
                           V         V         V         V         V
     Eigenvalues --     0.95124   2.23109   2.29126   2.33260   2.40804
   1 1   C  1S          0.09600  -0.00983  -0.01456   0.00039  -0.00050
   2        2S          0.19951   0.00201  -0.01423   0.00091  -0.00054
   3        2PX        -0.09095  -0.07333  -0.13248   0.35173  -0.40614
   4        2PY        -0.15768  -0.13864  -0.23005  -0.20059   0.23153
   5        2PZ         0.00016  -0.00687  -0.00963   0.00005  -0.00047
   6        3S         -1.54711  -0.18735  -0.04100  -0.00187  -0.00519
   7        3PX        -0.23235   0.06704   0.20756  -0.42271   0.56632
   8        3PY        -0.39435   0.14207   0.37598   0.24362  -0.32562
   9        3PZ        -0.00114   0.00688   0.01196   0.00000   0.00056
  10        4S          5.71252  -0.09449  -0.87994   0.00080  -0.02876
  11        4PX         1.20683   0.05608  -0.19056  -0.07093   0.99703
  12        4PY         1.98672   0.06962  -0.35903   0.03116  -0.55587
  13        4PZ        -0.01062   0.00137   0.00438  -0.00018   0.00103
  14 2   H  1S          0.01532  -0.69793  -0.80572  -0.71418   0.64213
  15        2S         -0.28954   0.98839   1.20417   1.11121  -1.45242
  16        3S         -0.09941  -0.29891  -0.48173  -0.46937   0.35562
  17 3   H  1S          0.01563  -0.68989  -0.80414   0.70262  -0.66606
  18        2S         -0.25540   0.97907   1.20539  -1.09868   1.50209
  19        3S         -0.08071  -0.27519  -0.46469   0.45593  -0.34766
  20 4   C  1S         -0.09379  -0.01082   0.01236   0.00051   0.00034
  21        2S         -0.19450  -0.00074   0.01264   0.00073   0.00057
  22        2PX        -0.09229   0.13873  -0.12151   0.29854   0.41991
  23        2PY        -0.15899   0.24166  -0.20223  -0.17312  -0.23980
  24        2PZ         0.00022  -0.00785   0.00919   0.00026   0.00028
  25        3S          1.50309  -0.16532   0.01605   0.00002   0.00023
  26        3PX        -0.22557  -0.17778   0.20941  -0.37086  -0.58786
  27        3PY        -0.39508  -0.30369   0.34157   0.21211   0.33520
  28        3PZ         0.00205   0.00843  -0.01173  -0.00028  -0.00038
  29        4S         -5.68909  -0.18735   0.89254   0.01686   0.01353
  30        4PX         1.09794  -0.01322  -0.19498   0.12249  -0.86611
  31        4PY         1.97995  -0.03411  -0.31211  -0.06936   0.50462
  32        4PZ         0.00583   0.00269  -0.00327  -0.00004  -0.00090
  33 5   H  1S         -0.01781  -0.79834   0.66162   0.69953   0.69545
  34        2S          0.28922   1.16315  -1.01307  -1.00931  -1.47566
  35        3S          0.06316  -0.35736   0.39055   0.50724   0.42843
  36 6   H  1S         -0.01777  -0.79130   0.68697  -0.68467  -0.69185
  37        2S          0.31543   1.15023  -1.04619   0.98376   1.46162
  38        3S          0.07176  -0.35982   0.42047  -0.50342  -0.43604
                          31        32        33        34        35
                           V         V         V         V         V
     Eigenvalues --     2.67100   2.81838   2.87701   2.95226   3.14060
   1 1   C  1S          0.00026  -0.00137  -0.01358   0.00006  -0.00987
   2        2S          0.00021  -0.00391  -0.04424  -0.00014  -0.03018
   3        2PX         0.00262  -0.03943  -0.48102  -0.72373   0.44086
   4        2PY         0.00374  -0.06910  -0.86813   0.40307   0.77198
   5        2PZ        -0.92530   0.93645  -0.07438  -0.00074   0.00289
   6        3S         -0.00083   0.03218   0.38575   0.00328   0.25307
   7        3PX        -0.00188   0.06807   0.84651   0.87179  -0.41788
   8        3PY        -0.00260   0.11833   1.49958  -0.47172  -0.73046
   9        3PZ         0.94074  -1.14500   0.09314   0.00099  -0.00379
  10        4S          0.00684  -0.07548  -0.87977  -0.01152  -0.49749
  11        4PX        -0.00109  -0.05444  -0.71674  -0.67247   0.20499
  12        4PY        -0.00157  -0.09518  -1.27511   0.35450   0.35373
  13        4PZ        -0.33859   0.62109  -0.05868  -0.00080   0.00215
  14 2   H  1S          0.00638   0.01038   0.25947  -0.37308  -0.20998
  15        2S         -0.00724  -0.00629  -0.21458   0.38953   0.15880
  16        3S         -0.00154  -0.02210  -0.30063   0.27337   0.05111
  17 3   H  1S          0.00645   0.00985   0.24683   0.37508  -0.20951
  18        2S         -0.00741  -0.00515  -0.19166  -0.38658   0.15851
  19        3S         -0.00183  -0.02248  -0.30399  -0.29242   0.05838
  20 4   C  1S          0.00027   0.00132   0.01360   0.00061  -0.00733
  21        2S          0.00026   0.00412   0.04818   0.00144  -0.02247
  22        2PX        -0.00387  -0.03413  -0.40186  -0.81241  -0.50943
  23        2PY        -0.00744  -0.06168  -0.71978   0.45040  -0.90262
  24        2PZ        -0.92427  -0.93717   0.07680   0.00000   0.00756
  25        3S         -0.00149  -0.03542  -0.43401  -0.01092   0.19164
  26        3PX         0.00403   0.06264   0.76439   0.97163   0.55165
  27        3PY         0.00761   0.11189   1.35745  -0.53056   0.98637
  28        3PZ         0.93965   1.14566  -0.09686   0.00001  -0.00955
  29        4S          0.00815   0.07662   0.90435   0.03061  -0.36246
  30        4PX        -0.00044  -0.05379  -0.70978  -0.70289  -0.34213
  31        4PY        -0.00115  -0.09493  -1.24430   0.37688  -0.61444
  32        4PZ        -0.33801  -0.62102   0.06177  -0.00004   0.00750
  33 5   H  1S          0.00595  -0.01490  -0.29416   0.42045  -0.26947
  34        2S         -0.00735   0.01213   0.26749  -0.42819   0.21146
  35        3S         -0.00077   0.02079   0.28668  -0.24792   0.13310
  36 6   H  1S          0.00604  -0.01511  -0.29271  -0.43141  -0.25844
  37        2S         -0.00765   0.01282   0.27348   0.43906   0.20354
  38        3S         -0.00050   0.01946   0.26827   0.24836   0.12589
                          36        37        38
                           V         V         V
     Eigenvalues --     3.32182  23.35297  23.70542
   1 1   C  1S         -0.00048  -1.41589  -1.45044
   2        2S         -0.00070   1.51009   1.56848
   3        2PX         0.79077  -0.00655   0.01208
   4        2PY        -0.44204  -0.01060   0.02134
   5        2PZ         0.00067  -0.00028  -0.00014
   6        3S          0.00056  -0.29693  -0.39889
   7        3PX        -1.12969   0.02382  -0.05541
   8        3PY         0.62756   0.03924  -0.09675
   9        3PZ        -0.00102   0.00080   0.00043
  10        4S         -0.01725   0.27685   0.76677
  11        4PX         1.99210  -0.02516   0.13283
  12        4PY        -1.11027  -0.04218   0.22962
  13        4PZ         0.00173  -0.00135  -0.00169
  14 2   H  1S          0.56640   0.01283   0.00702
  15        2S         -0.88602   0.00776  -0.01451
  16        3S         -0.46665  -0.08399  -0.03938
  17 3   H  1S         -0.57903   0.01478   0.00846
  18        2S          0.90404   0.00724  -0.01488
  19        3S          0.49348  -0.08634  -0.03996
  20 4   C  1S          0.00020  -1.44566   1.42060
  21        2S          0.00001   1.54187  -1.53623
  22        2PX        -0.70379   0.00616   0.01270
  23        2PY         0.40215   0.01120   0.02146
  24        2PZ        -0.00057  -0.00030   0.00006
  25        3S          0.00340  -0.30248   0.39041
  26        3PX         1.00348  -0.02256  -0.05644
  27        3PY        -0.58212  -0.04051  -0.09664
  28        3PZ         0.00087   0.00085  -0.00014
  29        4S         -0.00747   0.27747  -0.75940
  30        4PX        -1.77977   0.02398   0.13086
  31        4PY         1.03808   0.04443   0.22555
  32        4PZ        -0.00150  -0.00136   0.00107
  33 5   H  1S          0.48264   0.01389  -0.00510
  34        2S         -0.75460   0.00787   0.01405
  35        3S         -0.43450  -0.08344   0.03790
  36 6   H  1S         -0.47665   0.01228  -0.00374
  37        2S          0.74788   0.00920   0.01330
  38        3S          0.42298  -0.08139   0.03688
     Density Matrix:
                           1         2         3         4         5
   1 1   C  1S          0.65939
   2        2S          0.56149   0.49196
   3        2PX        -0.00047  -0.00061   0.08431
   4        2PY        -0.00124  -0.00171   0.00365   0.08762
   5        2PZ         0.00004   0.00007  -0.00006  -0.00015   0.06443
   6        3S         -0.08888  -0.15376   0.00243   0.00614  -0.00010
   7        3PX         0.00091   0.00140   0.13054   0.00114  -0.00005
   8        3PY         0.00120   0.00185   0.00115   0.13105  -0.00014
   9        3PZ         0.00009   0.00015  -0.00011  -0.00024   0.10360
  10        4S         -0.07937  -0.11430  -0.01580  -0.02848   0.00031
  11        4PX         0.00025   0.00156   0.07000  -0.00448  -0.00031
  12        4PY         0.00064   0.00307  -0.00451   0.06540  -0.00054
  13        4PZ        -0.00006  -0.00014  -0.00044  -0.00073   0.09592
  14 2   H  1S         -0.02057  -0.03276   0.03479  -0.06287  -0.00061
  15        2S         -0.02299  -0.03677   0.04878  -0.08779  -0.00046
  16        3S          0.00053  -0.00077   0.02036  -0.03310  -0.00001
  17 3   H  1S         -0.02112  -0.03361  -0.07274  -0.00193  -0.00070
  18        2S         -0.02333  -0.03726  -0.10040  -0.00236  -0.00056
  19        3S          0.00058  -0.00072  -0.03819   0.00091  -0.00004
  20 4   C  1S          0.00605   0.00975  -0.01089  -0.01883  -0.00021
  21        2S          0.00971   0.01518  -0.01744  -0.03015  -0.00034
  22        2PX         0.01029   0.01645  -0.01251  -0.03205   0.00025
  23        2PY         0.01797   0.02873  -0.03215  -0.04972   0.00051
  24        2PZ        -0.00026  -0.00043  -0.00019  -0.00027   0.06430
  25        3S         -0.02609  -0.03962   0.04892   0.08464   0.00104
  26        3PX         0.01587   0.02458  -0.01841  -0.04585   0.00032
  27        3PY         0.02766   0.04286  -0.04586  -0.07141   0.00068
  28        3PZ        -0.00045  -0.00072  -0.00034  -0.00049   0.10294
  29        4S          0.00537   0.00397   0.02144   0.03748   0.00129
  30        4PX         0.00307   0.00635  -0.01314  -0.02116   0.00035
  31        4PY         0.00520   0.01083  -0.02121  -0.03770   0.00074
  32        4PZ        -0.00037  -0.00060  -0.00055  -0.00086   0.09610
  33 5   H  1S          0.00419   0.00688  -0.00169  -0.01242  -0.00024
  34        2S          0.00625   0.01039   0.00357  -0.02495   0.00001
  35        3S          0.00318   0.00464   0.00427  -0.01744   0.00006
  36 6   H  1S          0.00413   0.00677  -0.00996  -0.00769  -0.00025
  37        2S          0.00612   0.01020  -0.02344  -0.00935  -0.00001
  38        3S          0.00311   0.00456  -0.01724  -0.00505   0.00004
                           6         7         8         9        10
   6        3S          0.45237
   7        3PX        -0.00192   0.20242
   8        3PY        -0.00148  -0.00485   0.19651
   9        3PZ        -0.00030  -0.00009  -0.00022   0.16657
  10        4S          0.27336  -0.02644  -0.04852   0.00041   0.18261
  11        4PX        -0.00679   0.10889  -0.01024  -0.00050  -0.01515
  12        4PY        -0.01259  -0.01028   0.09849  -0.00086  -0.02933
  13        4PZ         0.00063  -0.00058  -0.00096   0.15423   0.00115
  14 2   H  1S          0.08759   0.05620  -0.09815  -0.00102   0.06961
  15        2S          0.09841   0.07917  -0.13658  -0.00077   0.08253
  16        3S          0.00621   0.03335  -0.05091  -0.00002   0.01154
  17 3   H  1S          0.08993  -0.11386  -0.00124  -0.00114   0.06944
  18        2S          0.09985  -0.15698  -0.00060  -0.00092   0.08084
  19        3S          0.00627  -0.05948   0.00330  -0.00006   0.01038
  20 4   C  1S         -0.02643  -0.01702  -0.02945  -0.00036   0.00508
  21        2S         -0.03999  -0.02647  -0.04582  -0.00058   0.00381
  22        2PX        -0.04605  -0.01778  -0.04541   0.00043  -0.01710
  23        2PY        -0.08043  -0.04559  -0.07083   0.00086  -0.02988
  24        2PZ         0.00127  -0.00027  -0.00036   0.10338   0.00130
  25        3S          0.10164   0.07190   0.12463   0.00174   0.00092
  26        3PX        -0.06647  -0.02629  -0.06475   0.00056  -0.02533
  27        3PY        -0.11600  -0.06486  -0.10168   0.00116  -0.04418
  28        3PZ         0.00210  -0.00047  -0.00066   0.16551   0.00216
  29        4S          0.00196   0.03246   0.05699   0.00215  -0.03220
  30        4PX        -0.02247  -0.01957  -0.02966   0.00058  -0.00618
  31        4PY        -0.03859  -0.02980  -0.05440   0.00122  -0.01001
  32        4PZ         0.00177  -0.00077  -0.00118   0.15451   0.00200
  33 5   H  1S         -0.02046  -0.00059  -0.01778  -0.00035  -0.01442
  34        2S         -0.03105   0.00872  -0.03667   0.00006  -0.01860
  35        3S         -0.01192   0.00815  -0.02625   0.00011  -0.00319
  36 6   H  1S         -0.02011  -0.01498  -0.00921  -0.00037  -0.01451
  37        2S         -0.03047  -0.03588  -0.01037   0.00003  -0.01911
  38        3S         -0.01169  -0.02665  -0.00591   0.00007  -0.00361
                          11        12        13        14        15
  11        4PX         0.05963
  12        4PY        -0.00899   0.05088
  13        4PZ        -0.00073  -0.00120   0.14281
  14 2   H  1S          0.03342  -0.05397  -0.00053   0.08104
  15        2S          0.04793  -0.07492  -0.00018   0.10936   0.14959
  16        3S          0.02067  -0.02773   0.00012   0.03656   0.05222
  17 3   H  1S         -0.06285   0.00175  -0.00058  -0.01329  -0.02453
  18        2S         -0.08701   0.00396  -0.00025  -0.02442  -0.04198
  19        3S         -0.03325   0.00419   0.00010  -0.01772  -0.02671
  20 4   C  1S         -0.00322  -0.00586  -0.00032   0.00422   0.00676
  21        2S         -0.00663  -0.01191  -0.00052   0.00698   0.01129
  22        2PX        -0.01332  -0.01977   0.00058   0.00180  -0.00266
  23        2PY        -0.01989  -0.03666   0.00112   0.01139   0.02425
  24        2PZ        -0.00040  -0.00061   0.09572  -0.00031  -0.00011
  25        3S          0.02339   0.04176   0.00153  -0.02102  -0.03399
  26        3PX        -0.02049  -0.02807   0.00079   0.00109  -0.00697
  27        3PY        -0.02819  -0.05348   0.00155   0.01700   0.03637
  28        3PZ        -0.00066  -0.00101   0.15325  -0.00045  -0.00012
  29        4S          0.00857   0.01631   0.00197  -0.01813  -0.02509
  30        4PX        -0.01485  -0.01243   0.00071  -0.00152  -0.00815
  31        4PY        -0.01251  -0.02964   0.00142   0.01536   0.02740
  32        4PZ        -0.00080  -0.00127   0.14307  -0.00026   0.00012
  33 5   H  1S          0.00209  -0.01573  -0.00017   0.01118   0.02329
  34        2S          0.00933  -0.02733   0.00027   0.02371   0.04426
  35        3S          0.00758  -0.01573   0.00019   0.01660   0.02778
  36 6   H  1S         -0.01461  -0.00565  -0.00018  -0.00908  -0.01815
  37        2S         -0.02821  -0.00493   0.00024  -0.01882  -0.03422
  38        3S         -0.01723  -0.00105   0.00016  -0.01019  -0.01772
                          16        17        18        19        20
  16        3S          0.02086
  17 3   H  1S         -0.01794   0.08241
  18        2S         -0.02686   0.10973   0.14817
  19        3S         -0.01253   0.03594   0.05076   0.02000
  20 4   C  1S          0.00376   0.00430   0.00682   0.00377   0.65948
  21        2S          0.00555   0.00711   0.01138   0.00555   0.56159
  22        2PX        -0.00341   0.00897   0.02219   0.01672   0.00119
  23        2PY         0.01776   0.00734   0.00973   0.00576   0.00179
  24        2PZ         0.00001  -0.00030  -0.00008   0.00003   0.00004
  25        3S         -0.01440  -0.02137  -0.03414  -0.01432  -0.08933
  26        3PX        -0.00680   0.01428   0.03493   0.02608  -0.00047
  27        3PY         0.02673   0.00959   0.01210   0.00732  -0.00110
  28        3PZ         0.00002  -0.00044  -0.00008   0.00006   0.00010
  29        4S         -0.00625  -0.01789  -0.02425  -0.00573  -0.08005
  30        4PX        -0.00685   0.01396   0.02752   0.01705  -0.00020
  31        4PY         0.01609   0.00662   0.00684   0.00211  -0.00017
  32        4PZ         0.00014  -0.00025   0.00015   0.00015  -0.00002
  33 5   H  1S          0.01622  -0.00907  -0.01809  -0.00935  -0.02022
  34        2S          0.02736  -0.01868  -0.03380  -0.01678  -0.02212
  35        3S          0.01459  -0.01008  -0.01742  -0.00886   0.00064
  36 6   H  1S         -0.00946   0.01118   0.02311   0.01585  -0.01989
  37        2S         -0.01716   0.02377   0.04404   0.02687  -0.02208
  38        3S         -0.00910   0.01664   0.02764   0.01437   0.00053
                          21        22        23        24        25
  21        2S          0.49211
  22        2PX         0.00172   0.08282
  23        2PY         0.00254   0.00353   0.08777
  24        2PZ         0.00007   0.00007   0.00009   0.06417
  25        3S         -0.15437  -0.00551  -0.00831  -0.00008   0.45408
  26        3PX        -0.00070   0.12874   0.00179   0.00004  -0.00030
  27        3PY        -0.00166   0.00186   0.13160   0.00002   0.00085
  28        3PZ         0.00016   0.00011   0.00015   0.10274  -0.00032
  29        4S         -0.11565   0.01333   0.02228   0.00034   0.27817
  30        4PX        -0.00145   0.07348  -0.00513   0.00024   0.00616
  31        4PY        -0.00217  -0.00506   0.06738   0.00045   0.00963
  32        4PZ        -0.00007   0.00042   0.00076   0.09591   0.00042
  33 5   H  1S         -0.03219  -0.03361   0.06393  -0.00071   0.08609
  34        2S         -0.03534  -0.04998   0.08854  -0.00056   0.09457
  35        3S         -0.00054  -0.02279   0.03339  -0.00006   0.00550
  36 6   H  1S         -0.03170   0.07134   0.00280  -0.00062   0.08477
  37        2S         -0.03529   0.10131   0.00078  -0.00045   0.09438
  38        3S         -0.00070   0.04057  -0.00325  -0.00002   0.00578
                          26        27        28        29        30
  26        3PX         0.20044
  27        3PY        -0.00242   0.19786
  28        3PZ         0.00006   0.00004   0.16449
  29        4S          0.02475   0.04107   0.00042   0.18538
  30        4PX         0.11484  -0.01049   0.00037   0.01538   0.06685
  31        4PY        -0.01049   0.10182   0.00072   0.02410  -0.01030
  32        4PZ         0.00053   0.00098   0.15355   0.00105   0.00060
  33 5   H  1S         -0.05357   0.10004  -0.00116   0.06654  -0.03456
  34        2S         -0.08010   0.13804  -0.00094   0.07608  -0.05211
  35        3S         -0.03698   0.05140  -0.00010   0.00876  -0.02423
  36 6   H  1S          0.11262   0.00377  -0.00104   0.06702   0.06602
  37        2S          0.15974  -0.00028  -0.00077   0.07801   0.09411
  38        3S          0.06364  -0.00645  -0.00004   0.00988   0.03783
                          31        32        33        34        35
  31        4PY         0.05391
  32        4PZ         0.00116   0.14334
  33 5   H  1S          0.05598  -0.00060   0.08131
  34        2S          0.07740  -0.00026   0.11021   0.15186
  35        3S          0.02899   0.00008   0.03802   0.05499   0.02274
  36 6   H  1S         -0.00180  -0.00055  -0.01240  -0.02609  -0.02002
  37        2S         -0.00626  -0.00018  -0.02623  -0.04856  -0.03176
  38        3S         -0.00643   0.00010  -0.02029  -0.03193  -0.01572
                          36        37        38
  36 6   H  1S          0.08022
  37        2S          0.10975   0.15256
  38        3S          0.03828   0.05574   0.02318
    Full Mulliken population analysis:
                           1         2         3         4         5
   1 1   C  1S          0.65939
   2        2S          0.49324   0.49196
   3        2PX         0.00000   0.00000   0.08431
   4        2PY         0.00000   0.00000   0.00000   0.08762
   5        2PZ         0.00000   0.00000   0.00000   0.00000   0.06443
   6        3S         -0.02926  -0.06440   0.00000   0.00000   0.00000
   7        3PX         0.00000   0.00000   0.08212   0.00000   0.00000
   8        3PY         0.00000   0.00000   0.00000   0.08245   0.00000
   9        3PZ         0.00000   0.00000   0.00000   0.00000   0.06517
  10        4S         -0.01220  -0.02139   0.00000   0.00000   0.00000
  11        4PX         0.00000   0.00000   0.01542   0.00000   0.00000
  12        4PY         0.00000   0.00000   0.00000   0.01440   0.00000
  13        4PZ         0.00000   0.00000   0.00000   0.00000   0.02112
  14 2   H  1S         -0.00023  -0.00033   0.00182   0.00553   0.00000
  15        2S         -0.00167  -0.00320   0.00434   0.01310   0.00000
  16        3S          0.00004  -0.00007   0.00070   0.00190   0.00000
  17 3   H  1S         -0.00026  -0.00037   0.00790  -0.00000   0.00000
  18        2S         -0.00175  -0.00334   0.01772  -0.00000   0.00000
  19        3S          0.00005  -0.00007   0.00254   0.00000   0.00000
  20 4   C  1S          0.00000   0.00000  -0.00002  -0.00006   0.00000
  21        2S          0.00000  -0.00000  -0.00002  -0.00005   0.00000
  22        2PX        -0.00002  -0.00002   0.00011   0.00085   0.00000
  23        2PY        -0.00006  -0.00005   0.00085   0.00196   0.00000
  24        2PZ        -0.00000  -0.00000  -0.00000  -0.00000   0.00041
  25        3S         -0.00058  -0.00098   0.00255   0.00763  -0.00000
  26        3PX        -0.00053  -0.00098   0.00019   0.00553   0.00000
  27        3PY        -0.00161  -0.00296   0.00554   0.01070   0.00000
  28        3PZ        -0.00000  -0.00000  -0.00000  -0.00000   0.00609
  29        4S          0.00034   0.00030   0.00097   0.00294  -0.00000
  30        4PX        -0.00018  -0.00045  -0.00071   0.00147   0.00000
  31        4PY        -0.00052  -0.00133   0.00147   0.00098   0.00000
  32        4PZ        -0.00000  -0.00000  -0.00000  -0.00000   0.00903
  33 5   H  1S          0.00000   0.00000  -0.00000  -0.00000   0.00000
  34        2S          0.00001   0.00002   0.00000  -0.00031  -0.00000
  35        3S          0.00007   0.00013   0.00001  -0.00070  -0.00000
  36 6   H  1S          0.00000   0.00000  -0.00000  -0.00000   0.00000
  37        2S          0.00001   0.00002  -0.00023  -0.00006   0.00000
  38        3S          0.00007   0.00012  -0.00056  -0.00011  -0.00000
                           6         7         8         9        10
   6        3S          0.45237
   7        3PX         0.00000   0.20242
   8        3PY         0.00000   0.00000   0.19651
   9        3PZ         0.00000   0.00000   0.00000   0.16657
  10        4S          0.21177   0.00000   0.00000   0.00000   0.18261
  11        4PX         0.00000   0.07116   0.00000   0.00000   0.00000
  12        4PY         0.00000   0.00000   0.06436   0.00000   0.00000
  13        4PZ         0.00000   0.00000   0.00000   0.10078   0.00000
  14 2   H  1S          0.01599   0.01091   0.03201   0.00001   0.01837
  15        2S          0.04128   0.01976   0.05724   0.00001   0.04749
  16        3S          0.00286   0.00397   0.01019   0.00000   0.00870
  17 3   H  1S          0.01703   0.04429  -0.00000   0.00001   0.01858
  18        2S          0.04276   0.07720  -0.00000   0.00001   0.04702
  19        3S          0.00291   0.01380   0.00000   0.00000   0.00787
  20 4   C  1S         -0.00059  -0.00057  -0.00172   0.00000   0.00032
  21        2S         -0.00099  -0.00106  -0.00317   0.00000   0.00029
  22        2PX         0.00240   0.00019   0.00548   0.00000   0.00078
  23        2PY         0.00725   0.00550   0.01061   0.00000   0.00235
  24        2PZ         0.00000  -0.00000  -0.00000   0.00611   0.00000
  25        3S          0.02162   0.01346   0.04039  -0.00000   0.00035
  26        3PX         0.01244  -0.00126   0.01847   0.00000   0.00391
  27        3PY         0.03759   0.01850   0.02857   0.00000   0.01179
  28        3PZ         0.00000  -0.00000  -0.00000   0.03520   0.00000
  29        4S          0.00074   0.00500   0.01521  -0.00000  -0.02020
  30        4PX         0.00631  -0.00401   0.00588   0.00000   0.00187
  31        4PY         0.01877   0.00590   0.00129   0.00000   0.00525
  32        4PZ         0.00000  -0.00000  -0.00000   0.04932   0.00000
  33 5   H  1S         -0.00005  -0.00000  -0.00019   0.00000  -0.00077
  34        2S         -0.00120   0.00007  -0.00322  -0.00000  -0.00312
  35        3S         -0.00194   0.00011  -0.00423  -0.00000  -0.00115
  36 6   H  1S         -0.00005  -0.00012  -0.00005   0.00000  -0.00076
  37        2S         -0.00114  -0.00252  -0.00051  -0.00000  -0.00315
  38        3S         -0.00188  -0.00350  -0.00054  -0.00000  -0.00129
                          11        12        13        14        15
  11        4PX         0.05963
  12        4PY         0.00000   0.05088
  13        4PZ         0.00000   0.00000   0.14281
  14 2   H  1S          0.00640   0.01736   0.00000   0.08104
  15        2S          0.01546   0.04057   0.00000   0.07725   0.14959
  16        3S          0.00523   0.01178  -0.00000   0.01366   0.04120
  17 3   H  1S          0.02355   0.00000   0.00000  -0.00001  -0.00062
  18        2S          0.05475   0.00001   0.00000  -0.00062  -0.00513
  19        3S          0.01634   0.00001  -0.00000  -0.00195  -0.00769
  20 4   C  1S         -0.00019  -0.00059   0.00000   0.00000   0.00002
  21        2S         -0.00047  -0.00146   0.00000   0.00000   0.00003
  22        2PX        -0.00072   0.00137   0.00000  -0.00000   0.00000
  23        2PY         0.00138   0.00095   0.00000  -0.00000  -0.00036
  24        2PZ        -0.00000  -0.00000   0.00899   0.00000   0.00000
  25        3S          0.00657   0.02031  -0.00000  -0.00007  -0.00151
  26        3PX        -0.00419   0.00556   0.00000  -0.00000   0.00004
  27        3PY         0.00559   0.00127   0.00000  -0.00023  -0.00360
  28        3PZ        -0.00000  -0.00000   0.04892   0.00000   0.00000
  29        4S          0.00260   0.00856  -0.00000  -0.00107  -0.00452
  30        4PX        -0.00714   0.00315   0.00000   0.00001   0.00016
  31        4PY         0.00317  -0.00560   0.00000  -0.00245  -0.01036
  32        4PZ        -0.00000  -0.00000   0.08977   0.00000  -0.00000
  33 5   H  1S          0.00003  -0.00233   0.00000   0.00000   0.00000
  34        2S          0.00028  -0.00981  -0.00000   0.00000   0.00016
  35        3S          0.00030  -0.00726  -0.00000   0.00023   0.00147
  36 6   H  1S         -0.00175  -0.00047   0.00000  -0.00000  -0.00004
  37        2S         -0.00824  -0.00100  -0.00000  -0.00004  -0.00091
  38        3S         -0.00652  -0.00028  -0.00000  -0.00046  -0.00246
                          16        17        18        19        20
  16        3S          0.02086
  17 3   H  1S         -0.00197   0.08241
  18        2S         -0.00773   0.07751   0.14817
  19        3S         -0.00646   0.01343   0.04005   0.02000
  20 4   C  1S          0.00009   0.00000   0.00002   0.00010   0.65948
  21        2S          0.00016   0.00000   0.00003   0.00017   0.49333
  22        2PX         0.00001  -0.00000  -0.00028  -0.00059   0.00000
  23        2PY        -0.00075  -0.00000  -0.00008  -0.00013   0.00000
  24        2PZ        -0.00000   0.00000   0.00000  -0.00000   0.00000
  25        3S         -0.00249  -0.00007  -0.00154  -0.00250  -0.02940
  26        3PX         0.00006  -0.00016  -0.00293  -0.00367   0.00000
  27        3PY        -0.00448  -0.00007  -0.00067  -0.00068   0.00000
  28        3PZ        -0.00000   0.00000   0.00000  -0.00000   0.00000
  29        4S         -0.00235  -0.00106  -0.00441  -0.00217  -0.01231
  30        4PX         0.00017  -0.00188  -0.00875  -0.00675   0.00000
  31        4PY        -0.00760  -0.00059  -0.00143  -0.00055   0.00000
  32        4PZ        -0.00000   0.00000  -0.00000  -0.00000   0.00000
  33 5   H  1S          0.00023  -0.00000  -0.00004  -0.00043  -0.00022
  34        2S          0.00145  -0.00004  -0.00092  -0.00235  -0.00160
  35        3S          0.00247  -0.00046  -0.00244  -0.00285   0.00005
  36 6   H  1S         -0.00043   0.00000   0.00000   0.00022  -0.00021
  37        2S         -0.00238   0.00000   0.00015   0.00141  -0.00156
  38        3S         -0.00290   0.00023   0.00145   0.00242   0.00004
                          21        22        23        24        25
  21        2S          0.49211
  22        2PX         0.00000   0.08282
  23        2PY         0.00000   0.00000   0.08777
  24        2PZ         0.00000   0.00000   0.00000   0.06417
  25        3S         -0.06465   0.00000   0.00000   0.00000   0.45408
  26        3PX         0.00000   0.08099   0.00000   0.00000   0.00000
  27        3PY         0.00000   0.00000   0.08279   0.00000   0.00000
  28        3PZ         0.00000   0.00000   0.00000   0.06464   0.00000
  29        4S         -0.02164   0.00000   0.00000   0.00000   0.21550
  30        4PX         0.00000   0.01618   0.00000   0.00000   0.00000
  31        4PY         0.00000   0.00000   0.01484   0.00000   0.00000
  32        4PZ         0.00000   0.00000   0.00000   0.02112   0.00000
  33 5   H  1S         -0.00032   0.00152   0.00583   0.00000   0.01567
  34        2S         -0.00306   0.00384   0.01377   0.00000   0.03960
  35        3S         -0.00005   0.00067   0.00200   0.00000   0.00253
  36 6   H  1S         -0.00029   0.00691   0.00002   0.00000   0.01498
  37        2S         -0.00298   0.01731   0.00001   0.00000   0.03888
  38        3S         -0.00007   0.00271  -0.00001   0.00000   0.00264
                          26        27        28        29        30
  26        3PX         0.20044
  27        3PY         0.00000   0.19786
  28        3PZ         0.00000   0.00000   0.16449
  29        4S          0.00000   0.00000   0.00000   0.18538
  30        4PX         0.07504   0.00000   0.00000   0.00000   0.06685
  31        4PY         0.00000   0.06654   0.00000   0.00000   0.00000
  32        4PZ         0.00000   0.00000   0.10034   0.00000   0.00000
  33 5   H  1S          0.00899   0.03396   0.00001   0.01754   0.00573
  34        2S          0.01730   0.06032   0.00001   0.04374   0.01456
  35        3S          0.00382   0.01073   0.00000   0.00660   0.00531
  36 6   H  1S          0.04172   0.00010   0.00001   0.01747   0.02462
  37        2S          0.07716  -0.00001   0.00001   0.04447   0.05926
  38        3S          0.01483  -0.00010   0.00000   0.00741   0.01875
                          31        32        33        34        35
  31        4PY         0.05391
  32        4PZ         0.00000   0.14334
  33 5   H  1S          0.01878   0.00000   0.08131
  34        2S          0.04374   0.00000   0.07785   0.15186
  35        3S          0.01285  -0.00000   0.01421   0.04338   0.02274
  36 6   H  1S         -0.00005   0.00000  -0.00001  -0.00082  -0.00239
  37        2S         -0.00027   0.00000  -0.00083  -0.00682  -0.00978
  38        3S         -0.00022  -0.00000  -0.00242  -0.00983  -0.00847
                          36        37        38
  36 6   H  1S          0.08022
  37        2S          0.07752   0.15256
  38        3S          0.01430   0.04398   0.02318
     Gross orbital populations:
                           1
   1 1   C  1S          1.10435
   2        2S          0.88586
   3        2PX         0.22702
   4        2PY         0.23574
   5        2PZ         0.16627
   6        3S          0.79259
   7        3PX         0.56132
   8        3PY         0.55503
   9        3PZ         0.42319
  10        4S          0.50527
  11        4PX         0.25861
  12        4PY         0.21174
  13        4PZ         0.41240
  14 2   H  1S          0.27315
  15        2S          0.46709
  16        3S          0.08608
  17 3   H  1S          0.27739
  18        2S          0.46478
  19        3S          0.08247
  20 4   C  1S          1.10440
  21        2S          0.88584
  22        2PX         0.22250
  23        2PY         0.23643
  24        2PZ         0.16546
  25        3S          0.79293
  26        3PX         0.55274
  27        3PY         0.55742
  28        3PZ         0.41970
  29        4S          0.50503
  30        4PX         0.27544
  31        4PY         0.21653
  32        4PZ         0.41292
  33 5   H  1S          0.27404
  34        2S          0.46884
  35        3S          0.08796
  36 6   H  1S          0.27065
  37        2S          0.47032
  38        3S          0.09050
          Condensed to atoms (all electrons):
               1          2          3          4          5          6
     1  C    5.030997   0.387514   0.388553   0.602076  -0.035255  -0.034508
     2  H    0.387514   0.515715  -0.032167  -0.041108   0.006002  -0.009630
     3  H    0.388553  -0.032167   0.512559  -0.040664  -0.009542   0.005891
     4  C    0.602076  -0.041108  -0.040664   5.059321   0.384212   0.383517
     5  H   -0.035255   0.006002  -0.009542   0.384212   0.526780  -0.041356
     6  H   -0.034508  -0.009630   0.005891   0.383517  -0.041356   0.527557
 Mulliken charges:
               1
     1  C   -0.339377
     2  H    0.173674
     3  H    0.175370
     4  C   -0.347354
     5  H    0.169159
     6  H    0.168528
 Sum of Mulliken charges =  -0.00000
 Mulliken charges with hydrogens summed into heavy atoms:
               1
     1  C    0.009667
     4  C   -0.009667
 Electronic spatial extent (au):  <R**2>=             83.6940
 Charge=             -0.0000 electrons
 Dipole moment (field-independent basis, Debye):
    X=              0.0047    Y=              0.0303    Z=             -0.0560  Tot=              0.0638
 Quadrupole moment (field-independent basis, Debye-Ang):
   XX=            -12.1965   YY=            -12.2198   ZZ=            -15.6723
   XY=              0.0077   XZ=             -0.0001   YZ=             -0.0030
 Traceless Quadrupole moment (field-independent basis, Debye-Ang):
   XX=              1.1664   YY=              1.1430   ZZ=             -2.3094
   XY=              0.0077   XZ=             -0.0001   YZ=             -0.0030
 Octapole moment (field-independent basis, Debye-Ang**2):
  XXX=             -0.3834  YYY=             -0.0076  ZZZ=             -0.0625  XYY=              0.2561
  XXY=             -0.0126  XXZ=             -0.0822  XZZ=             -0.0909  YZZ=             -0.0738
  YYZ=             -0.1061  XYZ=             -0.0206
 Hexadecapole moment (field-independent basis, Debye-Ang**3):
 XXXX=            -34.2667 YYYY=            -55.1962 ZZZZ=            -17.8069 XXXY=             -7.2548
 XXXZ=              0.0130 YYYX=            -10.7077 YYYZ=              0.0179 ZZZX=              0.0156
 ZZZY=              0.0305 XXYY=            -16.1797 XXZZ=             -9.9241 YYZZ=            -13.6381
 XXYZ=              0.0069 YYXZ=              0.0009 ZZXY=             -3.2040
 N-N= 3.307278207675D+01 E-N=-2.478584255721D+02  KE= 7.815539057337D+01
 Orbital energies and kinetic energies (alpha):
                                 1                 2
   1         O               -10.289717         15.977370
   2         O               -10.288301         15.980949
   3         O                -0.863721          1.537188
   4         O                -0.672533          1.272134
   5         O                -0.559871          0.942423
   6         O                -0.508869          1.284973
   7         O                -0.436885          1.044699
   8         O                -0.356666          1.037958
   9         V                 0.079806          1.182059
  10         V                 0.140980          0.588955
  11         V                 0.165002          0.592665
  12         V                 0.170299          0.679494
  13         V                 0.240775          0.582362
  14         V                 0.371356          0.847442
  15         V                 0.394198          0.935304
  16         V                 0.400272          0.788593
  17         V                 0.464572          1.191977
  18         V                 0.488666          1.420005
  19         V                 0.493916          1.302054
  20         V                 0.591004          1.651658
  21         V                 0.666007          1.572853
  22         V                 0.691895          2.148056
  23         V                 0.773287          2.417178
  24         V                 0.775210          2.327876
  25         V                 0.845223          1.088517
  26         V                 0.951239          3.420235
  27         V                 2.231086          3.928498
  28         V                 2.291260          4.026095
  29         V                 2.332596          4.306514
  30         V                 2.408039          4.521545
  31         V                 2.671002          6.300807
  32         V                 2.818383          6.308186
  33         V                 2.877006          6.137604
  34         V                 2.952265          6.225929
  35         V                 3.140595          6.820216
  36         V                 3.321816          6.402272
  37         V                23.352970         60.074915
  38         V                23.705421         60.203269
 Total kinetic energy from orbitals= 7.815539057337D+01
 Calling FoFJK, ICntrl=      2127 FMM=F ISym2X=0 I1Cent= 0 IOpClX= 0 NMat=1 NMatS=1 NMatT=0.
 -------------------------------------------------------------------
 Center     Atomic                   Forces (Hartrees/Bohr)
 Number     Number              X              Y              Z
 -------------------------------------------------------------------
      1        6           0.015590440    0.010108855   -0.002256061
      2        1          -0.011137916    0.006240681    0.001139622
      3        1           0.002510297   -0.005934385    0.001025876
      4        6           0.009334602    0.007588894   -0.002402932
      5        1          -0.000056384   -0.011365225    0.001210297
      6        1          -0.016241039   -0.006638819    0.001283199
 -------------------------------------------------------------------
 Cartesian Forces:  Max     0.016241039 RMS     0.007985535

 GradGradGradGradGradGradGradGradGradGradGradGradGradGradGradGradGradGrad
 Berny optimization.
 Search for a local minimum.
 Step number   1 out of a maximum of    2
 All quantities printed in internal units (Hartrees-Bohrs-Radians)
 Second derivative matrix not updated -- first step.
 The second derivative matrix:
                          X1        Y1        Z1        X2        Y2
           X1           0.76026
           Y1           0.09449   0.85389
           Z1           0.00327   0.00476   0.16938
           X2          -0.16593   0.09672   0.00115   0.14317
           Y2           0.10233  -0.28016  -0.00414  -0.11589   0.26876
           Z2           0.00185  -0.00523  -0.05430  -0.00168   0.00427
           X3          -0.35324   0.00097  -0.00464   0.00011   0.00007
           Y3          -0.00446  -0.11062  -0.00110   0.03225   0.01919
           Z3          -0.00594  -0.00105  -0.05554   0.00087   0.00034
           X4          -0.26650  -0.17751  -0.00036   0.02265   0.01348
           Y4          -0.17801  -0.47140  -0.00055  -0.01308  -0.00779
           Z4           0.00081   0.00149  -0.09418  -0.00033  -0.00046
           X5           0.02361  -0.01364   0.00036  -0.00000   0.00000
           Y5           0.01166  -0.00674   0.00049   0.00000  -0.00000
           Z5          -0.00029   0.00019   0.01760   0.00014  -0.00007
           X6           0.00180  -0.00104   0.00022  -0.00000   0.00000
           Y6          -0.02602   0.01503   0.00054   0.00000  -0.00000
           Z6           0.00031  -0.00016   0.01704  -0.00014   0.00007
                          Z2        X3        Y3        Z3        X4
           Z2           0.02811
           X3          -0.00016   0.35323
           Y3           0.00094  -0.00110   0.07602
           Z3           0.01055   0.00505   0.00071   0.02903
           X4           0.00028  -0.00010  -0.02669  -0.00027   0.71414
           Y4          -0.00015   0.00006   0.01542   0.00018   0.12105
           Z4           0.01558  -0.00025  -0.00055   0.01602  -0.00297
           X5          -0.00014  -0.00000   0.00000   0.00015  -0.14688
           Y5           0.00009   0.00000  -0.00000  -0.00010   0.09372
           Z5           0.00923   0.00015  -0.00010  -0.00939  -0.00184
           X6          -0.00014  -0.00000   0.00000   0.00015  -0.32330
           Y6           0.00007   0.00000  -0.00000  -0.00007  -0.02405
           Z6          -0.00917  -0.00014   0.00009   0.00933   0.00515
                          Y4        Z4        X5        Y5        Z5
           Y4           0.86313
           Z4          -0.00599   0.17701
           X5           0.08513  -0.00123   0.12555
           Y5          -0.29436   0.00438  -0.10427   0.28491
           Z5           0.00539  -0.05755   0.00164  -0.00468   0.02982
           X6          -0.01514   0.00397  -0.00227  -0.00112   0.00021
           Y6          -0.10499   0.00113   0.03277   0.01619  -0.00074
           Z6           0.00111  -0.05687  -0.00078  -0.00020   0.01030
                          X6        Y6        Z6
           X6           0.32378
           Y6           0.01729   0.07378
           Z6          -0.00440  -0.00092   0.02936
 ITU=  0
     Eigenvalues ---    0.03715   0.04385   0.09403   0.09896   0.13515
     Eigenvalues ---    0.17519   0.26396   0.29091   0.52941   0.70413
     Eigenvalues ---    0.97736   1.55969
 Angle between quadratic step and forces=  32.47 degrees.
 Linear search not attempted -- first point.
 B after Tr=     0.007331    0.008380   -0.005745
         Rot=    1.000000   -0.000031    0.000017   -0.000126 Ang=  -0.02 deg.
 Variable       Old X    -DE/DX   Delta X   Delta X   Delta X     New X
                                 (Linear)    (Quad)   (Total)
    X1       -0.63673   0.01559   0.00000   0.02280   0.03040  -0.60633
    Y1       -1.10119   0.01011   0.00000   0.02551   0.03374  -1.06745
    Z1        0.00861  -0.00226   0.00000  -0.01230  -0.01813  -0.00953
    X2        0.42577  -0.01114   0.00000  -0.04386  -0.03580   0.38996
    Y2       -2.88555   0.00624   0.00000   0.02352   0.03199  -2.85356
    Z2       -0.02177   0.00114   0.00000   0.01509   0.00918  -0.01259
    X3       -2.68787   0.00251   0.00000   0.02939   0.03701  -2.65087
    Y3       -1.09310  -0.00593   0.00000  -0.02631  -0.01860  -1.11170
    Z3       -0.02333   0.00103   0.00000   0.01468   0.00878  -0.01455
    X4        0.62896   0.00933   0.00000   0.00752   0.01457   0.64354
    Y4        1.09002   0.00759   0.00000   0.00920   0.01774   1.10775
    Z4        0.00601  -0.00240   0.00000  -0.01147  -0.01713  -0.01111
    X5       -0.29230  -0.00006   0.00000  -0.01997  -0.01338  -0.30567
    Y5        2.95367  -0.01137   0.00000  -0.03768  -0.02938   2.92428
    Z5       -0.02733   0.00121   0.00000   0.01445   0.00887  -0.01846
    X6        2.72309  -0.01624   0.00000  -0.03983  -0.03280   2.69029
    Y6        1.23427  -0.00664   0.00000  -0.04454  -0.03548   1.19879
    Z6       -0.02560   0.00128   0.00000   0.01402   0.00844  -0.01717
         Item               Value     Threshold  Converged?
 Maximum Force            0.016241     0.000450     NO 
 RMS     Force            0.007986     0.000300     NO 
 Maximum Displacement     0.037006     0.001800     NO 
 RMS     Displacement     0.024632     0.001200     NO 
 Predicted change in Energy=-1.556765D-03
 GradGradGradGradGradGradGradGradGradGradGradGradGradGradGradGradGradGrad

 Unable to Open any file for archive entry.
 1\1\GINC-BHD0010\Force\RwB97XD\6-311G\C2H4\BWEIGHT\11-Jan-2023\0\\# WB
 97XD/6-311G SCF=XQC FORCE nosym pop=full guess=read\\MD Step 1000\\0,1
 \C,-0.33694316,-0.58272468,0.0045538\H,0.22530607,-1.52696684,-0.01152
 064\H,-1.42236157,-0.57844276,-0.01234486\C,0.33283292,0.57681161,0.00
 318181\H,-0.15467623,1.56301294,-0.01446234\H,1.44099525,0.65314743,-0
 .0135492\\Version=ES64L-G16RevC.01\HF=-78.5556747\RMSD=5.443e-09\RMSF=
 7.986e-03\Dipole=0.0018677,0.0119127,-0.0220219\Quadrupole=0.8671977,0
 .8498098,-1.7170075,0.0057381,-0.0000396,-0.0022014\PG=C01 [X(C2H4)]\\
 @
 The archive entry for this job was punched.


 ... A MOLECULAR SYSTEM ... (PASSES) ... FROM ONE STATE OF EQUILIBRIUM 
 TO ANOTHER ... BY MEANS OF ALL POSSIBLE INTERMEDIATE PATHS, 
 BUT THE PATH MOST ECONOMICAL OF ENERGY WILL BE THE MORE OFTEN TRAVELED.

                      -- HENRY EYRING, 1945
 Job cpu time:       0 days  0 hours  0 minutes 13.9 seconds.
 Elapsed time:       0 days  0 hours  0 minutes  4.4 seconds.
 File lengths (MBytes):  RWF=    272 Int=      0 D2E=      0 Chk=     32 Scr=     32
 Normal termination of Gaussian 16 at Wed Jan 11 18:47:35 2023.
