 Entering Gaussian System, Link 0=g16
 Initial command:
 /software/gaussian/g16-c01/avx2/g16/l1.exe "/gpfs/fs2/scratch/bweight/software/many_molecule_many_mode_NAMD/src/NAMD/EXAMPLE_4_BOMD_S1_HF/G16/TD_NEW_S4/Gau-21913.inp" -scrdir="/gpfs/fs2/scratch/bweight/software/many_molecule_many_mode_NAMD/src/NAMD/EXAMPLE_4_BOMD_S1_HF/G16/TD_NEW_S4/"
 Entering Link 1 = /software/gaussian/g16-c01/avx2/g16/l1.exe PID=     21914.
  
 Copyright (c) 1988-2019, Gaussian, Inc.  All Rights Reserved.
  
 This is part of the Gaussian(R) 16 program.  It is based on
 the Gaussian(R) 09 system (copyright 2009, Gaussian, Inc.),
 the Gaussian(R) 03 system (copyright 2003, Gaussian, Inc.),
 the Gaussian(R) 98 system (copyright 1998, Gaussian, Inc.),
 the Gaussian(R) 94 system (copyright 1995, Gaussian, Inc.),
 the Gaussian 92(TM) system (copyright 1992, Gaussian, Inc.),
 the Gaussian 90(TM) system (copyright 1990, Gaussian, Inc.),
 the Gaussian 88(TM) system (copyright 1988, Gaussian, Inc.),
 the Gaussian 86(TM) system (copyright 1986, Carnegie Mellon
 University), and the Gaussian 82(TM) system (copyright 1983,
 Carnegie Mellon University). Gaussian is a federally registered
 trademark of Gaussian, Inc.
  
 This software contains proprietary and confidential information,
 including trade secrets, belonging to Gaussian, Inc.
  
 This software is provided under written license and may be
 used, copied, transmitted, or stored only in accord with that
 written license.
  
 The following legend is applicable only to US Government
 contracts under FAR:
  
                    RESTRICTED RIGHTS LEGEND
  
 Use, reproduction and disclosure by the US Government is
 subject to restrictions as set forth in subparagraphs (a)
 and (c) of the Commercial Computer Software - Restricted
 Rights clause in FAR 52.227-19.
  
 Gaussian, Inc.
 340 Quinnipiac St., Bldg. 40, Wallingford CT 06492
  
  
 ---------------------------------------------------------------
 Warning -- This program may not be used in any manner that
 competes with the business of Gaussian, Inc. or will provide
 assistance to any competitor of Gaussian, Inc.  The licensee
 of this program is prohibited from giving any competitor of
 Gaussian, Inc. access to this program.  By using this program,
 the user acknowledges that Gaussian, Inc. is engaged in the
 business of creating and licensing software in the field of
 computational chemistry and represents and warrants to the
 licensee that it is not a competitor of Gaussian, Inc. and that
 it will not use this program in any manner prohibited above.
 ---------------------------------------------------------------
  

 Cite this work as:
 Gaussian 16, Revision C.01,
 M. J. Frisch, G. W. Trucks, H. B. Schlegel, G. E. Scuseria, 
 M. A. Robb, J. R. Cheeseman, G. Scalmani, V. Barone, 
 G. A. Petersson, H. Nakatsuji, X. Li, M. Caricato, A. V. Marenich, 
 J. Bloino, B. G. Janesko, R. Gomperts, B. Mennucci, H. P. Hratchian, 
 J. V. Ortiz, A. F. Izmaylov, J. L. Sonnenberg, D. Williams-Young, 
 F. Ding, F. Lipparini, F. Egidi, J. Goings, B. Peng, A. Petrone, 
 T. Henderson, D. Ranasinghe, V. G. Zakrzewski, J. Gao, N. Rega, 
 G. Zheng, W. Liang, M. Hada, M. Ehara, K. Toyota, R. Fukuda, 
 J. Hasegawa, M. Ishida, T. Nakajima, Y. Honda, O. Kitao, H. Nakai, 
 T. Vreven, K. Throssell, J. A. Montgomery, Jr., J. E. Peralta, 
 F. Ogliaro, M. J. Bearpark, J. J. Heyd, E. N. Brothers, K. N. Kudin, 
 V. N. Staroverov, T. A. Keith, R. Kobayashi, J. Normand, 
 K. Raghavachari, A. P. Rendell, J. C. Burant, S. S. Iyengar, 
 J. Tomasi, M. Cossi, J. M. Millam, M. Klene, C. Adamo, R. Cammi, 
 J. W. Ochterski, R. L. Martin, K. Morokuma, O. Farkas, 
 J. B. Foresman, and D. J. Fox, Gaussian, Inc., Wallingford CT, 2019.
 
 ******************************************
 Gaussian 16:  ES64L-G16RevC.01  3-Jul-2019
                29-Dec-2022 
 ******************************************
 %oldchk=../TD_NEW_S1/geometry.chk
 %chk=geometry.chk
 %nprocshared=1
 Will use up to    1 processors via shared memory.
 %mem=10GB
 Copying data from "../TD_NEW_S1/geometry.chk" to current chk file "geometry.chk"
 IOpt=  2 FromEx=T IUOpen= 4 IOptOp= 5 NList=   0 IFRang= 0 IUIn= 4 IUOut= 2.
 ----------------------------------------------------------------------
 # BLYP/3-21G* SCF=XQC TD=(read,singlets,nstates=8,root=4) FORCE nosym 
 pop=full guess=read
 ----------------------------------------------------------------------
 1/10=7,30=1,38=1/1,3;
 2/12=2,15=1,17=6,18=5,40=1/2;
 3/5=5,7=1,11=9,25=1,30=1,71=1,74=402,116=-2/1,2,3,8;
 4/5=1/1;
 5/5=2,8=3,13=1,38=6/2,8;
 8/6=1,10=1,107=4,108=8/1;
 9/8=4,15=2,41=8,42=1,48=1,49=3,70=2/14;
 10/5=4,28=4,31=1/2;
 6/7=3,18=1/1;
 7/12=6,13=5,14=4,29=1,30=1/1,2,3,16;
 1/10=7,30=1/3;
 99//99;
 ------------
 MD Step 1000
 ------------
 Symbolic Z-matrix:
 Charge =  0 Multiplicity = 1
 Li                    2.21055   2.20729   1.69948 
 F                     0.6675    0.66862   3.85416 
 

 GradGradGradGradGradGradGradGradGradGradGradGradGradGradGradGradGradGrad
 Berny optimization.
 Initialization pass.
 Trust Radius=3.00D-01 FncErr=1.00D-07 GrdErr=1.00D-07 EigMax=2.50D+02 EigMin=1.00D-04
 Number of steps in this run=      2 maximum allowed number of steps=      2.
 GradGradGradGradGradGradGradGradGradGradGradGradGradGradGradGradGradGrad

                          Input orientation:                          
 ---------------------------------------------------------------------
 Center     Atomic      Atomic             Coordinates (Angstroms)
 Number     Number       Type             X           Y           Z
 ---------------------------------------------------------------------
      1          3           0        2.210548    2.207291    1.699475
      2          9           0        0.667501    0.668618    3.854159
 ---------------------------------------------------------------------
 Symmetry turned off by external request.
 Stoichiometry    FLi
 Framework group  C*V[C*(LiF)]
 Deg. of freedom     1
 Full point group                 C*V     NOp   4
 Rotational constants (GHZ):           0.0000000          10.5027877          10.5027877
 Standard basis: 3-21G* (6D, 7F)
    18 basis functions,    30 primitive gaussians,    18 cartesian basis functions
     6 alpha electrons        6 beta electrons
       nuclear repulsion energy         4.6623524453 Hartrees.
 NAtoms=    2 NActive=    2 NUniq=    2 SFac= 1.00D+00 NAtFMM=   60 NAOKFM=F Big=F
 Integral buffers will be    131072 words long.
 Regular integral format.
 Two-electron integral symmetry is turned off.
 One-electron integrals computed using PRISM.
 NBasis=    18 RedAO= T EigKep=  2.01D-01  NBF=    18
 NBsUse=    18 1.00D-06 EigRej= -1.00D+00 NBFU=    18
 Initial guess from the checkpoint file:  "geometry.chk"
 B after Tr=     0.000000    0.000000    0.000000
         Rot=    1.000000    0.000000    0.000000    0.000000 Ang=   0.00 deg.
 Keep J ints in memory in canonical form, NReq=877801.
 Requested convergence on RMS density matrix=1.00D-08 within  32 cycles.
 Requested convergence on MAX density matrix=1.00D-06.
 Requested convergence on             energy=1.00D-06.
 No special actions if energy rises.
 Skip diagonalization as Alpha Fock matrix is already diagonal.
 SCF Done:  E(RB-LYP) =  -106.665424495     A.U. after    1 cycles
            NFock=  1  Conv=0.00D+00     -V/T= 2.0078
 QCSCF skips out because SCF is already converged.
 DoSCS=F DFT=T ScalE2(SS,OS)=  1.000000  1.000000
 ExpMin= 2.86D-02 ExpMax= 4.14D+02 ExpMxC= 4.14D+02 IAcc=3 IRadAn=         5 AccDes= 0.00D+00
 HarFok:  IExCor=  205 AccDes= 0.00D+00 IRadAn=         5 IDoV=-2 UseB2=F ITyADJ=14
 ICtDFT= 12500011 ScaDFX=  1.000000  1.000000  1.000000  1.000000
 Range of M.O.s used for correlation:     3    18
 NBasis=    18 NAE=     6 NBE=     6 NFC=     2 NFV=     0
 NROrb=     16 NOA=     4 NOB=     4 NVA=    12 NVB=    12

 **** Warning!!: The smallest alpha delta epsilon is  0.10540352D-01

 Keep J ints in memory in canonical form, NReq=903220.
 Generating guess from checkpoint file densities.
 Convergence on wavefunction:    0.000001000000000
 Iteration     1 Dimension     8 NMult     0 NNew      8
 CISAX will form     8 AO SS matrices at one time.
 Iteration     2 Dimension    16 NMult     8 NNew      8
 ***********************************************************************
 Excited states from <AA,BB:AA,BB> singles matrix:
 ***********************************************************************
 
 Ground to excited state transition densities written to RWF  633
 Ground to excited state transition electric dipole moments (Au):
       state          X           Y           Z        Dip. S.      Osc.
         1        -0.3899      0.3841     -0.0049      0.2996      0.0025
         2        -0.2676     -0.2766     -0.3892      0.2995      0.0025
         3         0.3206      0.3197     -0.4477      0.4054      0.0144
         4         0.0000     -0.0000      0.0000      0.0000      0.0000
         5         0.0000      0.0000      0.0000      0.0000      0.0000
         6         0.0000     -0.0000     -0.0000      0.0000      0.0000
         7         0.8506     -0.8038      0.0351      1.3707      0.0934
         8         0.5475      0.6157      0.8318      1.3708      0.0934
 Ground to excited state transition velocity dipole moments (Au):
       state          X           Y           Z        Dip. S.      Osc.
         1        -0.0203      0.0200     -0.0003      0.0008      0.0429
         2        -0.0139     -0.0144     -0.0202      0.0008      0.0429
         3        -0.0398     -0.0397      0.0556      0.0062      0.0781
         4         0.0000     -0.0000      0.0000      0.0000      0.0000
         5        -0.0000     -0.0000      0.0000      0.0000      0.0000
         6        -0.0000      0.0000      0.0000      0.0000      0.0000
         7        -0.0739      0.0698     -0.0031      0.0103      0.0674
         8        -0.0475     -0.0535     -0.0722      0.0103      0.0674
 Ground to excited state transition magnetic dipole moments (Au):
       state          X           Y           Z
         1        -0.2002     -0.2036     -0.0284
         2         0.1585     -0.1540      0.0004
         3         0.3592     -0.3599      0.0002
         4        -0.0000     -0.0000     -0.0000
         5         0.0000     -0.0000     -0.0000
         6        -0.0000     -0.0000      0.0000
         7        -0.4922     -0.5116      0.2117
         8         0.2671     -0.2258     -0.0087
 Ground to excited state transition velocity quadrupole moments (Au):
       state          XX          YY          ZZ          XY          XZ          YZ
         1        -0.2534      0.2492     -0.0002     -0.0016     -0.0080      0.0047
         2        -0.1739     -0.1794     -0.0128     -0.1767     -0.1309     -0.1308
         3        -0.2830     -0.2820      0.4758     -0.2590      0.0024      0.0027
         4         0.0114     -0.0114     -0.0000     -0.0001      0.0081     -0.0082
         5         0.0040      0.0042     -0.0082     -0.0121     -0.0058     -0.0057
         6         0.0000     -0.0000      0.0000      0.0000      0.0000     -0.0000
         7        -0.5966      0.5629     -0.0208     -0.0160     -0.2638      0.2253
         8        -0.3840     -0.4312     -0.4919     -0.4077     -0.4536     -0.4734
 <0|del|b> * <b|rxdel|0> + <0|del|b> * <b|delr+rdel|0>
 Rotatory Strengths (R) in cgs (10**-40 erg-esu-cm/Gauss)
       state          XX          YY          ZZ    R(velocity)    E-M Angle
         1      -109.4204    111.4215     -2.0011     -0.0000       90.00
         2       109.4207   -111.4214      2.0009      0.0001       90.00
         3         0.0008     -0.0006     -0.0003      0.0000       90.00
         4         0.0000     -0.0000      0.0000     -0.0000       90.00
         5        -0.0000      0.0000      0.0000     -0.0000       90.00
         6        -0.0000      0.0000     -0.0000     -0.0000       90.00
         7       -61.8937     65.7780     -3.8838      0.0001       90.00
         8        61.8908    -65.7763      3.8848     -0.0002       90.00
 1/2[<0|r|b>*<b|rxdel|0> + (<0|rxdel|b>*<b|r|0>)*]
 Rotatory Strengths (R) in cgs (10**-40 erg-esu-cm/Gauss)
       state          XX          YY          ZZ     R(length)
         1       -55.1990     55.2931     -0.0980     -0.0013
         2        29.9884    -30.1091      0.1204     -0.0001
         3       -81.4466     81.3749      0.0713     -0.0001
         4         0.0000     -0.0000      0.0000     -0.0000
         5        -0.0000      0.0000      0.0000     -0.0000
         6         0.0000     -0.0000      0.0000      0.0000
         7       296.0481   -290.7825     -5.2594      0.0021
         8      -103.4089     98.3176      5.0915      0.0001
  1/2[<0|del|b>*<b|r|0> + (<0|r|b>*<b|del|0>)*] (Au)
       state          X           Y           Z        Dip. S.   Osc.(frdel)
         1         0.0079      0.0077      0.0000     -0.0156     -0.0104
         2         0.0037      0.0040      0.0079     -0.0156     -0.0104
         3        -0.0128     -0.0127     -0.0249      0.0503      0.0335
         4         0.0000      0.0000      0.0000     -0.0000     -0.0000
         5        -0.0000     -0.0000      0.0000      0.0000      0.0000
         6        -0.0000     -0.0000     -0.0000      0.0000      0.0000
         7        -0.0628     -0.0561     -0.0001      0.1190      0.0793
         8        -0.0260     -0.0329     -0.0601      0.1190      0.0794

 Excitation energies and oscillator strengths:
 
 Excited state symmetry could not be determined.
 Excited State   1:      Singlet-?Sym    0.3427 eV 3617.65 nm  f=0.0025  <S**2>=0.000
       6 ->  7         0.70955
 
 Excited state symmetry could not be determined.
 Excited State   2:      Singlet-?Sym    0.3427 eV 3617.39 nm  f=0.0025  <S**2>=0.000
       5 ->  7         0.70956
 
 Excited state symmetry could not be determined.
 Excited State   3:      Singlet-?Sym    1.4511 eV  854.39 nm  f=0.0144  <S**2>=0.000
       4 ->  7         0.64320
       5 ->  8         0.21599
       6 ->  9         0.21599
       4 <-  7        -0.10947
 
 Excited state symmetry could not be determined.
 Excited State   4:      Singlet-?Sym    2.0203 eV  613.70 nm  f=0.0000  <S**2>=0.000
       5 ->  9         0.49970
       6 ->  8         0.50007
 This state for optimization and/or second-order correction.
 Total Energy, E(TD-HF/TD-DFT) =  -106.591181033    
 Copying the excited state density for this state as the 1-particle RhoCI density.
 
 Excited state symmetry could not be determined.
 Excited State   5:      Singlet-?Sym    2.0203 eV  613.70 nm  f=0.0000  <S**2>=0.000
       5 ->  8        -0.49988
       6 ->  9         0.49988
 
 Excited state symmetry could not be determined.
 Excited State   6:      Singlet-?Sym    2.0310 eV  610.46 nm  f=0.0000  <S**2>=0.000
       5 ->  9         0.50016
       6 ->  8        -0.49979
 
 Excited state symmetry could not be determined.
 Excited State   7:      Singlet-?Sym    2.7811 eV  445.82 nm  f=0.0934  <S**2>=0.000
       4 ->  9         0.69388
       6 -> 10         0.13439
 
 Excited state symmetry could not be determined.
 Excited State   8:      Singlet-?Sym    2.7811 eV  445.81 nm  f=0.0934  <S**2>=0.000
       4 ->  8         0.69388
       5 -> 10         0.13436
 SavETr:  write IOETrn=   770 NScale= 10 NData=  16 NLR=1 NState=    8 LETran=     154.
          IDoAtm=11
          Differentiating once with respect to electric field.
                with respect to dipole field.
          Differentiating once with respect to nuclear coordinates.
 Keep J ints in memory in canonical form, NReq=879286.
          There are     1 degrees of freedom in the 1st order CPHF.  IDoFFX=0 NUNeed=     1.
 LinEq1:  Iter=  0 NonCon=     1 RMS=2.73D+00 Max=2.03D+01 NDo=     1
 AX will form     1 AO Fock derivatives at one time.
 LinEq1:  Iter=  1 NonCon=     1 RMS=6.01D-01 Max=2.98D+00 NDo=     1
 LinEq1:  Iter=  2 NonCon=     1 RMS=2.16D-02 Max=1.29D-01 NDo=     1
 LinEq1:  Iter=  3 NonCon=     1 RMS=1.02D-02 Max=4.92D-02 NDo=     1
 LinEq1:  Iter=  4 NonCon=     1 RMS=4.94D-04 Max=2.75D-03 NDo=     1
 LinEq1:  Iter=  5 NonCon=     1 RMS=2.63D-05 Max=1.32D-04 NDo=     1
 LinEq1:  Iter=  6 NonCon=     1 RMS=9.30D-06 Max=5.93D-05 NDo=     1
 LinEq1:  Iter=  7 NonCon=     1 RMS=3.54D-07 Max=1.73D-06 NDo=     1
 LinEq1:  Iter=  8 NonCon=     1 RMS=1.87D-08 Max=8.90D-08 NDo=     1
 LinEq1:  Iter=  9 NonCon=     1 RMS=1.19D-09 Max=7.77D-09 NDo=     1
 LinEq1:  Iter= 10 NonCon=     1 RMS=1.03D-10 Max=6.95D-10 NDo=     1
 LinEq1:  Iter= 11 NonCon=     0 RMS=3.35D-11 Max=1.51D-10 NDo=     1
 Linear equations converged to 1.000D-10 1.000D-09 after    11 iterations.
 End of Minotr F.D. properties file   721 does not exist.
 End of Minotr F.D. properties file   722 does not exist.
 End of Minotr F.D. properties file   788 does not exist.

 **********************************************************************

            Population analysis using the SCF Density.

 **********************************************************************

 Alpha  occ. eigenvalues --  -23.95349  -1.95087  -0.80836  -0.14575  -0.11847
 Alpha  occ. eigenvalues --   -0.11847
 Alpha virt. eigenvalues --   -0.10793  -0.04383  -0.04383  -0.00400   0.06782
 Alpha virt. eigenvalues --    0.07083   0.07083   0.10912   1.90332   1.90332
 Alpha virt. eigenvalues --    1.91232   3.04128
     Molecular Orbital Coefficients:
                           1         2         3         4         5
                           O         O         O         O         O
     Eigenvalues --   -23.95349  -1.95087  -0.80836  -0.14575  -0.11847
   1 1   Li 1S         -0.00013   0.98774  -0.00375   0.08920   0.00000
   2        2S         -0.00125   0.08468  -0.00586  -0.22758   0.00000
   3        2PX         0.00006   0.00125  -0.00332   0.08755   0.03352
   4        2PY         0.00006   0.00125  -0.00332   0.08731   0.03376
   5        2PZ        -0.00009  -0.00175   0.00464  -0.12226   0.04811
   6        3S          0.00246  -0.03298   0.02808  -0.20617  -0.00000
   7        3PX        -0.00133  -0.00051  -0.01485  -0.02129   0.08146
   8        3PY        -0.00132  -0.00051  -0.01481  -0.02123   0.08204
   9        3PZ         0.00185   0.00071   0.02073   0.02973   0.11692
  10 2   F  1S          0.98064  -0.00003  -0.25633  -0.01333  -0.00000
  11        2S          0.09922  -0.00008   0.24413   0.01170   0.00000
  12        2PX         0.00015   0.00022   0.00497  -0.24176   0.26339
  13        2PY         0.00015   0.00022   0.00495  -0.24108   0.26525
  14        2PZ        -0.00021  -0.00031  -0.00694   0.33759   0.37804
  15        3S         -0.02815   0.00081   0.81568   0.06015   0.00000
  16        3PX        -0.00014  -0.00101   0.00438  -0.26658   0.29315
  17        3PY        -0.00014  -0.00101   0.00437  -0.26582   0.29522
  18        3PZ         0.00019   0.00142  -0.00611   0.37224   0.42075
                           6         7         8         9        10
                           O         V         V         V         V
     Eigenvalues --    -0.11847  -0.10793  -0.04383  -0.04383  -0.00400
   1 1   Li 1S          0.00000  -0.18320   0.00000  -0.00000  -0.07043
   2        2S         -0.00000   0.34741  -0.00000   0.00000   0.29111
   3        2PX         0.04790   0.11838   0.26988   0.39324  -0.20549
   4        2PY        -0.04780   0.11805   0.27899  -0.38739  -0.20490
   5        2PZ         0.00017  -0.16531   0.39251   0.00498   0.28694
   6        3S         -0.00000   0.58849  -0.00000   0.00000   0.02096
   7        3PX         0.11639   0.07429   0.26715   0.38926  -0.32746
   8        3PY        -0.11615   0.07408   0.27618  -0.38347  -0.32653
   9        3PZ         0.00041  -0.10373   0.38854   0.00493   0.45725
  10 2   F  1S          0.00000   0.00475   0.00000   0.00000   0.03575
  11        2S         -0.00000  -0.00466  -0.00000  -0.00000  -0.02965
  12        2PX         0.37631  -0.09751  -0.06300  -0.09180  -0.08012
  13        2PY        -0.37554  -0.09723  -0.06513   0.09044  -0.07990
  14        2PZ         0.00132   0.13616  -0.09163  -0.00116   0.11188
  15        3S         -0.00000  -0.02545  -0.00000  -0.00000  -0.20352
  16        3PX         0.41883  -0.10777  -0.07235  -0.10541  -0.09483
  17        3PY        -0.41797  -0.10747  -0.07479   0.10385  -0.09457
  18        3PZ         0.00147   0.15049  -0.10522  -0.00133   0.13243
                          11        12        13        14        15
                           V         V         V         V         V
     Eigenvalues --     0.06782   0.07083   0.07083   0.10912   1.90332
   1 1   Li 1S         -0.07077  -0.00000  -0.00000  -0.07345  -0.00000
   2        2S          1.07862   0.00004   0.00001   1.09796   0.00000
   3        2PX         0.42352   0.52850   0.79500  -0.38507  -0.00272
   4        2PY         0.42233   0.56985  -0.76705  -0.38398  -0.00265
   5        2PZ        -0.59145   0.78538   0.02157   0.53769  -0.00384
   6        3S         -1.06336  -0.00004  -0.00001  -1.05725  -0.00000
   7        3PX        -0.34553  -0.52547  -0.79045   0.41555   0.02379
   8        3PY        -0.34456  -0.56658   0.76266   0.41438   0.02323
   9        3PZ         0.48256  -0.78089  -0.02145  -0.58026   0.03362
  10 2   F  1S         -0.00408  -0.00000  -0.00000  -0.02601   0.00000
  11        2S          0.00527   0.00000   0.00000   0.01502   0.00000
  12        2PX         0.03217   0.01607   0.02418  -0.04215   0.50648
  13        2PY         0.03208   0.01733  -0.02333  -0.04203   0.49452
  14        2PZ        -0.04492   0.02388   0.00066   0.05886   0.71583
  15        3S          0.01529   0.00000   0.00000   0.18614  -0.00000
  16        3PX         0.04265   0.02106   0.03167  -0.04213  -0.48889
  17        3PY         0.04253   0.02270  -0.03056  -0.04201  -0.47735
  18        3PZ        -0.05956   0.03129   0.00086   0.05883  -0.69097
                          16        17        18
                           V         V         V
     Eigenvalues --     1.90332   1.91232   3.04128
   1 1   Li 1S         -0.00000   0.01132  -0.00704
   2        2S          0.00000  -0.05317  -0.06987
   3        2PX         0.00379   0.06122   0.00276
   4        2PY        -0.00384   0.06105   0.00275
   5        2PZ        -0.00003  -0.08549  -0.00385
   6        3S          0.00000  -0.00389   0.13795
   7        3PX        -0.03321  -0.01866  -0.07374
   8        3PY         0.03365  -0.01861  -0.07353
   9        3PZ         0.00025   0.02606   0.10296
  10 2   F  1S          0.00000  -0.00151  -0.14383
  11        2S          0.00000   0.00344   1.47037
  12        2PX        -0.70712  -0.50679   0.00235
  13        2PY         0.71655  -0.50535   0.00234
  14        2PZ         0.00530   0.70768  -0.00328
  15        3S         -0.00000   0.00480  -1.27259
  16        3PX         0.68256   0.49598  -0.00664
  17        3PY        -0.69167   0.49457  -0.00662
  18        3PZ        -0.00511  -0.69259   0.00928
     Density Matrix:
                           1         2         3         4         5
   1 1   Li 1S          1.96722
   2        2S          0.12673   0.11800
   3        2PX         0.01812  -0.03960   0.02219
   4        2PY         0.01807  -0.03949   0.01300   0.02212
   5        2PZ        -0.02530   0.05530  -0.01820  -0.01815   0.03457
   6        3S         -0.10213   0.08792  -0.03637  -0.03627   0.05079
   7        3PX        -0.00469   0.00978   0.01298  -0.00925   0.01295
   8        3PY        -0.00468   0.00975  -0.00925   0.01303   0.01291
   9        3PZ         0.00655  -0.01366   0.01295   0.01291   0.00417
  10 2   F  1S         -0.00077   0.00662  -0.00051  -0.00051   0.00071
  11        2S          0.00007  -0.00845   0.00044   0.00044  -0.00061
  12        2PX        -0.04273   0.11002   0.01134  -0.06044   0.08463
  13        2PY        -0.04261   0.10971  -0.06044   0.01168   0.08439
  14        2PZ         0.05967  -0.15363   0.08463   0.08439  -0.04623
  15        3S          0.00621  -0.03673   0.00511   0.00509  -0.00713
  16        3PX        -0.04959   0.12111   0.01306  -0.06682   0.09358
  17        3PY        -0.04945   0.12077  -0.06682   0.01344   0.09331
  18        3PZ         0.06925  -0.16912   0.09358   0.09331  -0.05059
                           6         7         8         9        10
   6        3S          0.08877
   7        3PX         0.00797   0.04171
   8        3PY         0.00795  -0.01232   0.04178
   9        3PZ        -0.01113   0.01726   0.01721   0.02998
  10 2   F  1S         -0.00406   0.00558   0.00556  -0.00779   2.05507
  11        2S          0.00938  -0.00801  -0.00799   0.01119   0.06913
  12        2PX         0.09995   0.14065  -0.03408   0.04773   0.00419
  13        2PY         0.09967  -0.03408   0.14085   0.04759   0.00418
  14        2PZ        -0.13957   0.04773   0.04759   0.10818  -0.00585
  15        3S          0.02081  -0.02671  -0.02663   0.03730  -0.47498
  16        3PX         0.11023   0.15647  -0.03800   0.05322   0.00460
  17        3PY         0.10992  -0.03800   0.15669   0.05307   0.00459
  18        3PZ        -0.15392   0.05322   0.05307   0.12027  -0.00642
                          11        12        13        14        15
  11        2S          0.13916
  12        2PX        -0.00320   0.53892
  13        2PY        -0.00319  -0.02630   0.53906
  14        2PZ         0.00447   0.03683   0.03672   0.51386
  15        3S          0.39409  -0.02099  -0.02093   0.02931   1.33949
  16        3PX        -0.00412   0.59858  -0.03049   0.04270  -0.02492
  17        3PY        -0.00411  -0.03049   0.59876   0.04257  -0.02485
  18        3PZ         0.00576   0.04270   0.04257   0.56954   0.03480
                          16        17        18
  16        3PX         0.66488
  17        3PY        -0.03527   0.66508
  18        3PZ         0.04939   0.04925   0.63128
    Full Mulliken population analysis:
                           1         2         3         4         5
   1 1   Li 1S          1.96722
   2        2S          0.02246   0.11800
   3        2PX         0.00000   0.00000   0.02219
   4        2PY         0.00000   0.00000   0.00000   0.02212
   5        2PZ         0.00000   0.00000   0.00000   0.00000   0.03457
   6        3S         -0.01437   0.06882   0.00000   0.00000   0.00000
   7        3PX         0.00000   0.00000   0.00764   0.00000   0.00000
   8        3PY         0.00000   0.00000   0.00000   0.00767   0.00000
   9        3PZ         0.00000   0.00000   0.00000   0.00000   0.00246
  10 2   F  1S         -0.00000   0.00001   0.00000   0.00000   0.00000
  11        2S          0.00000  -0.00011  -0.00001  -0.00001  -0.00002
  12        2PX        -0.00000   0.00046  -0.00003   0.00036   0.00070
  13        2PY        -0.00000   0.00046   0.00036  -0.00003   0.00070
  14        2PZ        -0.00000   0.00089   0.00070   0.00070   0.00037
  15        3S          0.00000  -0.00164  -0.00028  -0.00028  -0.00055
  16        3PX        -0.00000   0.00382  -0.00016   0.00261   0.00512
  17        3PY        -0.00000   0.00380   0.00261  -0.00016   0.00509
  18        3PZ        -0.00000   0.00745   0.00512   0.00509   0.00249
                           6         7         8         9        10
   6        3S          0.08877
   7        3PX         0.00000   0.04171
   8        3PY         0.00000   0.00000   0.04178
   9        3PZ         0.00000   0.00000   0.00000   0.02998
  10 2   F  1S         -0.00004  -0.00005  -0.00005  -0.00009   2.05507
  11        2S          0.00044   0.00037   0.00037   0.00072   0.01484
  12        2PX         0.00044   0.00065   0.00014   0.00028   0.00000
  13        2PY         0.00043   0.00014   0.00065   0.00028   0.00000
  14        2PZ         0.00085   0.00028   0.00028   0.00006   0.00000
  15        3S          0.00262   0.00313   0.00312   0.00611  -0.08720
  16        3PX         0.00315   0.00491   0.00101   0.00197   0.00000
  17        3PY         0.00313   0.00101   0.00494   0.00196   0.00000
  18        3PZ         0.00614   0.00197   0.00196   0.00074   0.00000
                          11        12        13        14        15
  11        2S          0.13916
  12        2PX         0.00000   0.53892
  13        2PY         0.00000   0.00000   0.53906
  14        2PZ         0.00000   0.00000   0.00000   0.51386
  15        3S          0.28855   0.00000   0.00000   0.00000   1.33949
  16        3PX         0.00000   0.29233   0.00000   0.00000   0.00000
  17        3PY         0.00000   0.00000   0.29242   0.00000   0.00000
  18        3PZ         0.00000   0.00000   0.00000   0.27815   0.00000
                          16        17        18
  16        3PX         0.66488
  17        3PY         0.00000   0.66508
  18        3PZ         0.00000   0.00000   0.63128
     Gross orbital populations:
                           1
   1 1   Li 1S          1.97530
   2        2S          0.22443
   3        2PX         0.03815
   4        2PY         0.03807
   5        2PZ         0.05093
   6        3S          0.16039
   7        3PX         0.06177
   8        3PY         0.06187
   9        3PZ         0.04446
  10 2   F  1S          1.98251
  11        2S          0.44430
  12        2PX         0.83425
  13        2PY         0.83447
  14        2PZ         0.79615
  15        3S          1.55307
  16        3PX         0.97964
  17        3PY         0.97987
  18        3PZ         0.94038
          Condensed to atoms (all electrons):
               1          2
     1  Li   2.555705   0.099666
     2  F    0.099666   9.244962
 Mulliken charges:
               1
     1  Li   0.344628
     2  F   -0.344628
 Sum of Mulliken charges =  -0.00000
 Mulliken charges with hydrogens summed into heavy atoms:
               1
     1  Li   0.344628
     2  F   -0.344628
 Electronic spatial extent (au):  <R**2>=            667.3618
 Charge=             -0.0000 electrons
 Dipole moment (field-independent basis, Debye):
    X=              3.5967    Y=              3.5865    Z=             -5.0223  Tot=              7.1430
 Quadrupole moment (field-independent basis, Debye-Ang):
   XX=              0.7929   YY=              0.7484   ZZ=            -36.1982
   XY=             11.6478   XZ=              0.9187   YZ=              0.9010
 Traceless Quadrupole moment (field-independent basis, Debye-Ang):
   XX=             12.3452   YY=             12.3007   ZZ=            -24.6459
   XY=             11.6478   XZ=              0.9187   YZ=              0.9010
 Octapole moment (field-independent basis, Debye-Ang**2):
  XXX=            -17.7709  YYY=            -17.8904  ZZZ=           -191.2543  XYY=             14.8111
  XXY=             14.8782  XXZ=            -17.0363  XZZ=            -28.9850  YZZ=            -29.0118
  YYZ=            -17.1000  XYZ=             12.1694
 Hexadecapole moment (field-independent basis, Debye-Ang**3):
 XXXX=           -143.6342 YYYY=           -143.7436 ZZZZ=           -977.5065 XXXY=             -9.1957
 XXXZ=            -72.2537 YYYX=             -9.4618 YYYZ=            -72.4156 ZZZX=           -178.5792
 ZZZY=           -178.6485 XXYY=              5.4091 XXZZ=           -127.7389 YYZZ=           -127.7778
 XXYZ=              0.9319 YYXZ=              0.8463 ZZXY=            -23.9312
 N-N= 4.662352445254D+00 E-N=-2.654663058991D+02  KE= 1.058347448457D+02
 Orbital energies and kinetic energies (alpha):
                                 1                 2
   1         O               -23.953489         36.783247
   2         O                -1.950866          3.543332
   3         O                -0.808364          3.962031
   4         O                -0.145746          2.540478
   5         O                -0.118470          3.044143
   6         O                -0.118470          3.044142
   7         V                -0.107930          0.621069
   8         V                -0.043833          0.335749
   9         V                -0.043833          0.335752
  10         V                -0.004002          0.523969
  11         V                 0.067824          0.378388
  12         V                 0.070834          0.313760
  13         V                 0.070834          0.313759
  14         V                 0.109122          0.425548
  15         V                 1.903319          6.448094
  16         V                 1.903319          6.448093
  17         V                 1.912316          6.453248
  18         V                 3.041281          8.522541
 Total kinetic energy from orbitals= 1.058347448457D+02
 Calling FoFJK, ICntrl=  10005527 FMM=F ISym2X=0 I1Cent= 0 IOpClX= 0 NMat=1 NMatS=1 NMatT=0.
 -------------------------------------------------------------------
 Center     Atomic                   Forces (Hartrees/Bohr)
 Number     Number              X              Y              Z
 -------------------------------------------------------------------
      1        3          -0.009355649   -0.009329333    0.013063424
      2        9           0.009355649    0.009329333   -0.013063424
 -------------------------------------------------------------------
 Cartesian Forces:  Max     0.013063424 RMS     0.010727188

 GradGradGradGradGradGradGradGradGradGradGradGradGradGradGradGradGradGrad
 Berny optimization.
 Search for a local minimum.
 Step number   1 out of a maximum of    2
 All quantities printed in internal units (Hartrees-Bohrs-Radians)
 Second derivative matrix not updated -- first step.
 The second derivative matrix:
                          X1        Y1        Z1        X2        Y2
           X1           1.00000
           Y1           0.00000   1.00000
           Z1           0.00000   0.00000   1.00000
           X2           0.00000   0.00000   0.00000   1.00000
           Y2           0.00000   0.00000   0.00000   0.00000   1.00000
           Z2           0.00000   0.00000   0.00000   0.00000   0.00000
                          Z2
           Z2           1.00000
 ITU=  0
     Eigenvalues ---    1.00000   1.00000   1.00000   1.00000   1.00000
     Eigenvalues ---    1.00000
 Angle between quadratic step and forces=   0.00 degrees.
 Linear search not attempted -- first point.
 B after Tr=     0.000000    0.000001   -0.000001
         Rot=    1.000000   -0.000000    0.000000    0.000000 Ang=  -0.00 deg.
 Variable       Old X    -DE/DX   Delta X   Delta X   Delta X     New X
                                 (Linear)    (Quad)   (Total)
    X1        4.17733  -0.00936   0.00000  -0.00936  -0.00936   4.16797
    Y1        4.17118  -0.00933   0.00000  -0.00933  -0.00933   4.16185
    Z1        3.21154   0.01306   0.00000   0.01306   0.01306   3.22461
    X2        1.26139   0.00936   0.00000   0.00936   0.00936   1.27075
    Y2        1.26351   0.00933   0.00000   0.00933   0.00933   1.27283
    Z2        7.28331  -0.01306   0.00000  -0.01306  -0.01306   7.27024
         Item               Value     Threshold  Converged?
 Maximum Force            0.013063     0.000450     NO 
 RMS     Force            0.010727     0.000300     NO 
 Maximum Displacement     0.013064     0.001800     NO 
 RMS     Displacement     0.010727     0.001200     NO 
 Predicted change in Energy=-3.452177D-04
 GradGradGradGradGradGradGradGradGradGradGradGradGradGradGradGradGradGrad

 Unable to Open any file for archive entry.
 1\1\GINC-BHD0014\Force\RBLYP TD-FC\3-21G*\F1Li1\BWEIGHT\29-Dec-2022\0\
 \# BLYP/3-21G* SCF=XQC TD=(read,singlets,nstates=8,root=4) FORCE nosym
  pop=full guess=read\\MD Step 1000\\0,1\Li,2.210548,2.20729076,1.69947
 539\F,0.66750128,0.66861839,3.85415908\\Version=ES64L-G16RevC.01\HF=-1
 06.6654245\RMSD=0.000e+00\RMSF=1.073e-02\Dipole=1.110445,1.1072793,-1.
 5506953\PG=C*V [C*(Li1F1)]\\@
 The archive entry for this job was punched.


 OLD AGE AND TREACHERY WILL ALWAYS PREVAIL OVER YOUTH AND SKILL.
 Job cpu time:       0 days  0 hours  0 minutes  4.4 seconds.
 Elapsed time:       0 days  0 hours  0 minutes  6.8 seconds.
 File lengths (MBytes):  RWF=    272 Int=      0 D2E=      0 Chk=     32 Scr=     32
 Normal termination of Gaussian 16 at Thu Dec 29 13:12:46 2022.
