 Entering Gaussian System, Link 0=g16
 Initial command:
 /software/gaussian/g16-c01/avx2/g16/l1.exe "/gpfs/fs2/scratch/bweight/software/many_molecule_many_mode_NAMD/src/NAMD/TEST_NVT/TRAJ/traj-35/G16/GS_NEW/Gau-716.inp" -scrdir="/gpfs/fs2/scratch/bweight/software/many_molecule_many_mode_NAMD/src/NAMD/TEST_NVT/TRAJ/traj-35/G16/GS_NEW/"
 Entering Link 1 = /software/gaussian/g16-c01/avx2/g16/l1.exe PID=       717.
  
 Copyright (c) 1988-2019, Gaussian, Inc.  All Rights Reserved.
  
 This is part of the Gaussian(R) 16 program.  It is based on
 the Gaussian(R) 09 system (copyright 2009, Gaussian, Inc.),
 the Gaussian(R) 03 system (copyright 2003, Gaussian, Inc.),
 the Gaussian(R) 98 system (copyright 1998, Gaussian, Inc.),
 the Gaussian(R) 94 system (copyright 1995, Gaussian, Inc.),
 the Gaussian 92(TM) system (copyright 1992, Gaussian, Inc.),
 the Gaussian 90(TM) system (copyright 1990, Gaussian, Inc.),
 the Gaussian 88(TM) system (copyright 1988, Gaussian, Inc.),
 the Gaussian 86(TM) system (copyright 1986, Carnegie Mellon
 University), and the Gaussian 82(TM) system (copyright 1983,
 Carnegie Mellon University). Gaussian is a federally registered
 trademark of Gaussian, Inc.
  
 This software contains proprietary and confidential information,
 including trade secrets, belonging to Gaussian, Inc.
  
 This software is provided under written license and may be
 used, copied, transmitted, or stored only in accord with that
 written license.
  
 The following legend is applicable only to US Government
 contracts under FAR:
  
                    RESTRICTED RIGHTS LEGEND
  
 Use, reproduction and disclosure by the US Government is
 subject to restrictions as set forth in subparagraphs (a)
 and (c) of the Commercial Computer Software - Restricted
 Rights clause in FAR 52.227-19.
  
 Gaussian, Inc.
 340 Quinnipiac St., Bldg. 40, Wallingford CT 06492
  
  
 ---------------------------------------------------------------
 Warning -- This program may not be used in any manner that
 competes with the business of Gaussian, Inc. or will provide
 assistance to any competitor of Gaussian, Inc.  The licensee
 of this program is prohibited from giving any competitor of
 Gaussian, Inc. access to this program.  By using this program,
 the user acknowledges that Gaussian, Inc. is engaged in the
 business of creating and licensing software in the field of
 computational chemistry and represents and warrants to the
 licensee that it is not a competitor of Gaussian, Inc. and that
 it will not use this program in any manner prohibited above.
 ---------------------------------------------------------------
  

 Cite this work as:
 Gaussian 16, Revision C.01,
 M. J. Frisch, G. W. Trucks, H. B. Schlegel, G. E. Scuseria, 
 M. A. Robb, J. R. Cheeseman, G. Scalmani, V. Barone, 
 G. A. Petersson, H. Nakatsuji, X. Li, M. Caricato, A. V. Marenich, 
 J. Bloino, B. G. Janesko, R. Gomperts, B. Mennucci, H. P. Hratchian, 
 J. V. Ortiz, A. F. Izmaylov, J. L. Sonnenberg, D. Williams-Young, 
 F. Ding, F. Lipparini, F. Egidi, J. Goings, B. Peng, A. Petrone, 
 T. Henderson, D. Ranasinghe, V. G. Zakrzewski, J. Gao, N. Rega, 
 G. Zheng, W. Liang, M. Hada, M. Ehara, K. Toyota, R. Fukuda, 
 J. Hasegawa, M. Ishida, T. Nakajima, Y. Honda, O. Kitao, H. Nakai, 
 T. Vreven, K. Throssell, J. A. Montgomery, Jr., J. E. Peralta, 
 F. Ogliaro, M. J. Bearpark, J. J. Heyd, E. N. Brothers, K. N. Kudin, 
 V. N. Staroverov, T. A. Keith, R. Kobayashi, J. Normand, 
 K. Raghavachari, A. P. Rendell, J. C. Burant, S. S. Iyengar, 
 J. Tomasi, M. Cossi, J. M. Millam, M. Klene, C. Adamo, R. Cammi, 
 J. W. Ochterski, R. L. Martin, K. Morokuma, O. Farkas, 
 J. B. Foresman, and D. J. Fox, Gaussian, Inc., Wallingford CT, 2019.
 
 ******************************************
 Gaussian 16:  ES64L-G16RevC.01  3-Jul-2019
                11-Jan-2023 
 ******************************************
 %oldchk=../GS_OLD/geometry.chk
 %chk=geometry.chk
 %nprocshared=4
 Will use up to    4 processors via shared memory.
 %mem=5GB
 Copying data from "../GS_OLD/geometry.chk" to current chk file "geometry.chk"
 IOpt=  2 FromEx=T IUOpen= 4 IOptOp= 5 NList=   0 IFRang= 0 IUIn= 4 IUOut= 2.
 -------------------------------------------------------
 # WB97XD/6-311G SCF=XQC FORCE nosym pop=full guess=read
 -------------------------------------------------------
 1/10=7,30=1,38=1/1,3;
 2/12=2,15=1,17=6,18=5,40=1/2;
 3/5=4,6=6,11=2,25=1,30=1,71=1,74=-58,116=-2/1,2,3;
 4/5=1/1;
 5/5=2,8=3,13=1,38=6/2,8;
 6/7=3,28=1/1;
 7/29=1,30=1/1,2,3,16;
 1/10=7,30=1/3;
 99//99;
 ------------
 MD Step 1000
 ------------
 Symbolic Z-matrix:
 Charge =  0 Multiplicity = 1
 C                    -0.33793  -0.58386   0.00577 
 H                     0.23207  -1.52622  -0.01933 
 H                    -1.42543  -0.57709  -0.02008 
 C                     0.33256   0.57705   0.00412 
 H                    -0.14779   1.56351  -0.02323 
 H                     1.43803   0.6538   -0.02227 
 

 GradGradGradGradGradGradGradGradGradGradGradGradGradGradGradGradGradGrad
 Berny optimization.
 Initialization pass.
 Trust Radius=3.00D-01 FncErr=1.00D-07 GrdErr=1.00D-07 EigMax=2.50D+02 EigMin=1.00D-04
 Number of steps in this run=      2 maximum allowed number of steps=      2.
 GradGradGradGradGradGradGradGradGradGradGradGradGradGradGradGradGradGrad

                          Input orientation:                          
 ---------------------------------------------------------------------
 Center     Atomic      Atomic             Coordinates (Angstroms)
 Number     Number       Type             X           Y           Z
 ---------------------------------------------------------------------
      1          6           0       -0.337925   -0.583860    0.005770
      2          1           0        0.232074   -1.526219   -0.019331
      3          1           0       -1.425431   -0.577088   -0.020083
      4          6           0        0.332557    0.577054    0.004117
      5          1           0       -0.147791    1.563508   -0.023234
      6          1           0        1.438026    0.653798   -0.022265
 ---------------------------------------------------------------------
                    Distance matrix (angstroms):
                    1          2          3          4          5
     1  C    0.000000
     2  H    1.101622   0.000000
     3  H    1.087834   1.910019   0.000000
     4  C    1.340622   2.105802   2.103128   0.000000
     5  H    2.155964   3.112994   2.492895   1.097531   0.000000
     6  H    2.164852   2.491346   3.116805   1.108444   1.828221
                    6
     6  H    0.000000
 Symmetry turned off by external request.
 Stoichiometry    C2H4
 Framework group  C1[X(C2H4)]
 Deg. of freedom    12
 Full point group                 C1      NOp   1
 Rotational constants (GHZ):         143.3634254          29.6420571          24.5689311
 Standard basis: 6-311G (5D, 7F)
    38 basis functions,    72 primitive gaussians,    38 cartesian basis functions
     8 alpha electrons        8 beta electrons
       nuclear repulsion energy        33.0560596709 Hartrees.
 NAtoms=    6 NActive=    6 NUniq=    6 SFac= 1.00D+00 NAtFMM=   60 NAOKFM=F Big=F
 Integral buffers will be    131072 words long.
 Raffenetti 2 integral format.
 Two-electron integral symmetry is turned off.
 Nuclear repulsion after empirical dispersion term =       33.0552164339 Hartrees.
 One-electron integrals computed using PRISM.
 NBasis=    38 RedAO= T EigKep=  6.48D-03  NBF=    38
 NBsUse=    38 1.00D-06 EigRej= -1.00D+00 NBFU=    38
 Initial guess from the checkpoint file:  "geometry.chk"
 B after Tr=    -0.000348   -0.000548   -0.000424
         Rot=    1.000000    0.000004   -0.000001    0.000006 Ang=   0.00 deg.
 Keep R1 ints in memory in canonical form, NReq=4036876.
 Requested convergence on RMS density matrix=1.00D-08 within  32 cycles.
 Requested convergence on MAX density matrix=1.00D-06.
 Requested convergence on             energy=1.00D-06.
 No special actions if energy rises.
 SCF Done:  E(RwB97XD) =  -78.5553946258     A.U. after    8 cycles
            NFock=  8  Conv=0.52D-08     -V/T= 2.0052
 QCSCF skips out because SCF is already converged.

 **********************************************************************

            Population analysis using the SCF Density.

 **********************************************************************

 Alpha  occ. eigenvalues --  -10.28965 -10.28879  -0.86342  -0.67278  -0.55981
 Alpha  occ. eigenvalues --   -0.50852  -0.43704  -0.35640
 Alpha virt. eigenvalues --    0.07936   0.14087   0.16510   0.17026   0.24075
 Alpha virt. eigenvalues --    0.36967   0.39432   0.40132   0.46505   0.48861
 Alpha virt. eigenvalues --    0.49409   0.59083   0.66604   0.69164   0.77362
 Alpha virt. eigenvalues --    0.77438   0.84364   0.94998   2.23117   2.29174
 Alpha virt. eigenvalues --    2.33202   2.40721   2.67074   2.81808   2.87790
 Alpha virt. eigenvalues --    2.95207   3.14001   3.32078  23.35323  23.70406
     Molecular Orbital Coefficients:
                           1         2         3         4         5
                           O         O         O         O         O
     Eigenvalues --   -10.28965 -10.28879  -0.86342  -0.67278  -0.55981
   1 1   C  1S          0.40430  -0.39239  -0.08804   0.06717  -0.00035
   2        2S          0.33288  -0.32280  -0.13917   0.10755  -0.00057
   3        2PX         0.00013   0.00010   0.02594   0.03477   0.13893
   4        2PY         0.00022   0.00017   0.04645   0.05648  -0.07309
   5        2PZ        -0.00000   0.00000  -0.00107   0.00150   0.00020
   6        3S          0.00985  -0.01077   0.37349  -0.29355   0.00155
   7        3PX        -0.00024  -0.00070   0.03469   0.05596   0.21796
   8        3PY        -0.00038  -0.00122   0.06166   0.09215  -0.11576
   9        3PZ        -0.00002   0.00002  -0.00178   0.00270   0.00030
  10        4S         -0.00587   0.01377   0.19213  -0.22599   0.00076
  11        4PX         0.00029   0.00213   0.00498   0.02245   0.11259
  12        4PY         0.00050   0.00365   0.00884   0.03835  -0.06073
  13        4PZ         0.00004  -0.00005  -0.00062   0.00136   0.00014
  14 2   H  1S         -0.00007   0.00002   0.05221  -0.08558   0.10284
  15        2S         -0.00018  -0.00026   0.05374  -0.10394   0.13050
  16        3S          0.00164  -0.00089  -0.00189  -0.01462   0.04203
  17 3   H  1S         -0.00008   0.00003   0.05373  -0.08963  -0.10685
  18        2S         -0.00019  -0.00024   0.05473  -0.10782  -0.13442
  19        3S          0.00168  -0.00090  -0.00191  -0.01564  -0.04320
  20 4   C  1S          0.39226   0.40443  -0.08706  -0.06804  -0.00024
  21        2S          0.32299   0.33272  -0.13746  -0.10912  -0.00037
  22        2PX        -0.00011   0.00013  -0.02717   0.03908   0.11650
  23        2PY        -0.00018   0.00023  -0.04575   0.07013  -0.07433
  24        2PZ        -0.00000  -0.00000  -0.00088  -0.00179   0.00021
  25        3S          0.00944   0.01099   0.36819   0.29830   0.00099
  26        3PX         0.00026  -0.00071  -0.03389   0.06304   0.18215
  27        3PY         0.00047  -0.00121  -0.05705   0.11232  -0.11501
  28        3PZ        -0.00003  -0.00001  -0.00151  -0.00318   0.00032
  29        4S         -0.00510  -0.01392   0.18905   0.23650  -0.00025
  30        4PX        -0.00041   0.00203  -0.00530   0.02763   0.10040
  31        4PY        -0.00076   0.00354  -0.00887   0.04783  -0.06260
  32        4PZ         0.00004   0.00004  -0.00062  -0.00162   0.00016
  33 5   H  1S         -0.00008  -0.00001   0.05066   0.09563  -0.08940
  34        2S         -0.00020   0.00024   0.05152   0.11308  -0.11200
  35        3S          0.00157   0.00094  -0.00093   0.01705  -0.03585
  36 6   H  1S         -0.00007   0.00000   0.04934   0.09307   0.08432
  37        2S         -0.00021   0.00026   0.05074   0.11080   0.10633
  38        3S          0.00152   0.00092  -0.00097   0.01637   0.03442
                           6         7         8         9        10
                           O         O         O         V         V
     Eigenvalues --    -0.50852  -0.43704  -0.35640   0.07936   0.14087
   1 1   C  1S         -0.00227   0.00028  -0.00082   0.00225  -0.03463
   2        2S         -0.00322   0.00048  -0.00134   0.00373  -0.05559
   3        2PX         0.09415  -0.10949  -0.00274   0.00117  -0.03101
   4        2PY         0.16956   0.06524  -0.00469   0.00197  -0.06608
   5        2PZ         0.00412   0.00002   0.17943  -0.18926  -0.00232
   6        3S          0.01461  -0.00117   0.00390  -0.01130   0.12160
   7        3PX         0.13647  -0.17504  -0.00387   0.00176  -0.03600
   8        3PY         0.24778   0.10476  -0.00661   0.00292  -0.08147
   9        3PZ         0.00655   0.00005   0.28837  -0.27805  -0.00367
  10        4S         -0.06059  -0.00397   0.00586  -0.01320   1.25390
  11        4PX         0.06836  -0.10902  -0.00316   0.01029  -0.18605
  12        4PY         0.12572   0.06609  -0.00542   0.01724  -0.38376
  13        4PZ         0.00372   0.00008   0.26735  -0.69372  -0.01300
  14 2   H  1S         -0.08208  -0.11409   0.00013   0.00350  -0.01942
  15        2S         -0.11461  -0.17625   0.00161   0.00553  -0.05135
  16        3S         -0.04296  -0.08130   0.00099   0.01494  -0.85683
  17 3   H  1S         -0.07963   0.11131   0.00005   0.00349  -0.01492
  18        2S         -0.11048   0.17102   0.00151   0.00561  -0.04027
  19        3S         -0.04103   0.07868   0.00094   0.01467  -0.77985
  20 4   C  1S         -0.00984  -0.00056  -0.00067  -0.00211  -0.03513
  21        2S         -0.01549  -0.00093  -0.00109  -0.00350  -0.05641
  22        2PX        -0.09840   0.12640   0.00272   0.00137   0.04088
  23        2PY        -0.16048  -0.07472   0.00502   0.00253   0.05933
  24        2PZ         0.00443   0.00020   0.17896   0.18946  -0.00216
  25        3S          0.04900   0.00266   0.00322   0.01052   0.12422
  26        3PX        -0.14617   0.20153   0.00381   0.00213   0.05057
  27        3PY        -0.23649  -0.11832   0.00706   0.00393   0.07036
  28        3PZ         0.00700   0.00029   0.28660   0.27810  -0.00329
  29        4S         -0.01948   0.00374   0.00518   0.01139   1.21485
  30        4PX        -0.07693   0.12924   0.00295   0.01045   0.26938
  31        4PY        -0.12304  -0.07486   0.00557   0.01887   0.41176
  32        4PZ         0.00407   0.00017   0.26803   0.69474  -0.01345
  33 5   H  1S         -0.07268  -0.12575   0.00020  -0.00325  -0.00989
  34        2S         -0.09848  -0.19511   0.00182  -0.00543  -0.03494
  35        3S         -0.03682  -0.09155   0.00099  -0.01357  -0.79986
  36 6   H  1S         -0.07914   0.12560   0.00012  -0.00324  -0.01423
  37        2S         -0.10789   0.19598   0.00169  -0.00539  -0.04567
  38        3S         -0.04061   0.09199   0.00091  -0.01373  -0.87570
                          11        12        13        14        15
                           V         V         V         V         V
     Eigenvalues --     0.16510   0.17026   0.24075   0.36967   0.39432
   1 1   C  1S          0.00153  -0.04503   0.00003   0.00804   0.00105
   2        2S          0.00247  -0.07342   0.00005   0.01050   0.00168
   3        2PX         0.09834  -0.01853   0.09910  -0.03501  -0.02391
   4        2PY        -0.05349  -0.03581  -0.05680  -0.06401   0.00935
   5        2PZ         0.00014  -0.00535   0.00001  -0.00370  -0.00015
   6        3S         -0.00531   0.16677   0.00024   0.03549  -0.00169
   7        3PX         0.14014  -0.00966   0.10411  -0.04144  -0.10677
   8        3PY        -0.07761  -0.02289  -0.06073  -0.07945   0.04804
   9        3PZ         0.00019  -0.00741  -0.00004  -0.00766  -0.00020
  10        4S         -0.06894   1.40570  -0.01721  -2.35091  -0.18070
  11        4PX         0.59774  -0.10888   1.16786  -1.49361  -0.52633
  12        4PY        -0.31643  -0.19466  -0.66491  -2.59712   0.13828
  13        4PZ         0.00095  -0.03493   0.00067  -0.03375  -0.00194
  14 2   H  1S         -0.02853  -0.02625   0.01383  -0.06348   0.07470
  15        2S         -0.08057  -0.01878  -0.02619  -0.70139   0.76174
  16        3S         -1.02964  -0.98692  -1.52554  -0.24325  -0.31785
  17 3   H  1S          0.02814  -0.02568  -0.01632  -0.05694  -0.07554
  18        2S          0.07984  -0.02222   0.01934  -0.65247  -0.75593
  19        3S          1.11834  -0.98859   1.55513  -0.32280   0.24208
  20 4   C  1S          0.00137   0.04293  -0.00009  -0.01979  -0.00003
  21        2S          0.00219   0.06984  -0.00016  -0.03271   0.00013
  22        2PX         0.09969  -0.02404  -0.10103  -0.03953  -0.03135
  23        2PY        -0.06102  -0.03886   0.05787  -0.06992   0.01371
  24        2PZ         0.00016   0.00533  -0.00003   0.00257   0.00027
  25        3S         -0.00431  -0.15415   0.00036   0.04739  -0.00460
  26        3PX         0.14302  -0.01940  -0.11547  -0.09231  -0.10882
  27        3PY        -0.08630  -0.02881   0.06477  -0.16502   0.05866
  28        3PZ         0.00023   0.00735   0.00000   0.00294   0.00054
  29        4S         -0.06679  -1.37534   0.01176   3.12400   0.16130
  30        4PX         0.52583  -0.12316  -1.12480  -1.06086  -0.58311
  31        4PY        -0.33040  -0.21081   0.65541  -1.85805   0.11556
  32        4PZ         0.00108   0.03474  -0.00078   0.02660   0.00200
  33 5   H  1S          0.03075   0.02403   0.00581   0.00433  -0.08148
  34        2S          0.06584   0.02139  -0.03438  -0.00538  -0.80311
  35        3S          1.08020   0.96630  -1.54882   0.43995   0.47088
  36 6   H  1S         -0.03122   0.02479  -0.00412   0.00060   0.08834
  37        2S         -0.06673   0.01896   0.03601  -0.03856   0.90312
  38        3S         -0.99058   0.96673   1.52961   0.44523  -0.45216
                          16        17        18        19        20
                           V         V         V         V         V
     Eigenvalues --     0.40132   0.46505   0.48861   0.49409   0.59083
   1 1   C  1S         -0.02011  -0.01103   0.04666  -0.00056  -0.00046
   2        2S         -0.03492  -0.02657   0.07818  -0.00072  -0.00083
   3        2PX         0.03080   0.06045  -0.01365   0.00106   0.00168
   4        2PY         0.05682   0.10553  -0.01773   0.00147   0.00252
   5        2PZ         0.00054   0.00025  -0.00507  -0.15223  -0.19224
   6        3S          0.07397   0.33406  -0.10142  -0.00665  -0.00039
   7        3PX         0.10881   0.24023   0.02998   0.00014   0.00558
   8        3PY         0.20696   0.41684   0.06372  -0.00087   0.00845
   9        3PZ        -0.00249   0.00317  -0.02282  -0.62925  -0.68368
  10        4S          2.98184  -0.28174  -3.01000   0.08602   0.05589
  11        4PX         0.39920  -0.28625  -0.82411   0.02770   0.01728
  12        4PY         0.73322  -0.52766  -1.42511   0.04927   0.03075
  13        4PZ         0.00098  -0.00068   0.07555   0.68685   1.23887
  14 2   H  1S         -0.02280   0.03462   0.07444  -0.00258  -0.00136
  15        2S         -0.49446   0.33852   0.88001  -0.02525  -0.01025
  16        3S          0.36337  -0.09527  -0.64935   0.02831   0.01902
  17 3   H  1S         -0.03121   0.03677   0.07215  -0.00251  -0.00131
  18        2S         -0.56958   0.36211   0.84870  -0.02450  -0.00929
  19        3S          0.38113  -0.09486  -0.61518   0.02723   0.01856
  20 4   C  1S          0.00214   0.00141  -0.05085   0.00278   0.00056
  21        2S         -0.00011  -0.00526  -0.08839   0.00502   0.00104
  22        2PX         0.01155  -0.05569  -0.02652   0.00017   0.00169
  23        2PY         0.02220  -0.09541  -0.04856   0.00020   0.00328
  24        2PZ        -0.00326   0.00156  -0.00517  -0.15253   0.19224
  25        3S          0.07468   0.29050   0.22455  -0.01870  -0.00190
  26        3PX        -0.03820  -0.23724  -0.05398   0.00029   0.00590
  27        3PY        -0.05399  -0.41148  -0.09564  -0.00016   0.01138
  28        3PZ        -0.00897   0.00624  -0.01965  -0.63115   0.68277
  29        4S         -1.21022  -0.64295   3.14488  -0.10818  -0.04924
  30        4PX         1.38182   0.28301  -0.58296   0.01367   0.01756
  31        4PY         2.49475   0.46366  -0.98928   0.02311   0.02913
  32        4PZ        -0.02967   0.01409  -0.02608   0.69250  -1.23728
  33 5   H  1S         -0.04414   0.06324  -0.06588   0.00237   0.00128
  34        2S         -0.83167   0.65701  -0.84778   0.03519   0.00483
  35        3S         -0.27990  -0.23581   0.53073  -0.01010  -0.01841
  36 6   H  1S         -0.03588   0.06214  -0.06580   0.00240   0.00130
  37        2S         -0.73357   0.64195  -0.84341   0.03496   0.00513
  38        3S         -0.29655  -0.25540   0.55307  -0.01138  -0.01869
                          21        22        23        24        25
                           V         V         V         V         V
     Eigenvalues --     0.66604   0.69164   0.77362   0.77438   0.84364
   1 1   C  1S          0.00101   0.00050   0.03268   0.08233   0.00085
   2        2S          0.00211   0.00112   0.06863   0.17531   0.00201
   3        2PX        -0.14449  -0.18933  -0.05260   0.10554  -0.00766
   4        2PY         0.08452   0.11462  -0.08654   0.16964   0.01480
   5        2PZ        -0.00006  -0.00013  -0.00040   0.00386   0.00014
   6        3S         -0.01744  -0.01567  -0.39481  -1.47028  -0.02413
   7        3PX        -0.65421  -0.65465  -0.27707   0.39295  -0.22613
   8        3PY         0.37819   0.39731  -0.45747   0.61827   0.17211
   9        3PZ        -0.00035  -0.00049  -0.00118   0.01354   0.00047
  10        4S          0.03130   0.06753   0.16971   2.52620  -0.00461
  11        4PX         1.08391   0.73702   0.37046  -0.71051   4.56109
  12        4PY        -0.62806  -0.46025   0.43043  -0.91303  -2.59676
  13        4PZ         0.00010  -0.00114   0.01733  -0.04103   0.00328
  14 2   H  1S          0.02781   0.05725   0.00190   0.03443  -0.02714
  15        2S          0.18792   0.61272   0.03958   0.10429  -1.59556
  16        3S         -1.09250  -1.04637   0.15160  -1.07311  -1.23352
  17 3   H  1S         -0.02691  -0.05668   0.00169   0.03522   0.03119
  18        2S         -0.20626  -0.64604   0.08639   0.07382   1.63976
  19        3S          1.07946   1.00279   0.22009  -1.23067   1.23446
  20 4   C  1S          0.00126   0.00021   0.07457   0.05076   0.00063
  21        2S          0.00256   0.00037   0.15900   0.10718   0.00121
  22        2PX        -0.14006   0.19428  -0.10591   0.02886   0.00852
  23        2PY         0.08044  -0.10707  -0.19353   0.05401   0.00458
  24        2PZ        -0.00006   0.00016   0.00433   0.00012  -0.00015
  25        3S         -0.01848   0.00420  -1.36489  -0.72520  -0.00284
  26        3PX        -0.64761   0.67188  -0.40386   0.18972   0.22340
  27        3PY         0.37529  -0.36758  -0.74557   0.34904  -0.08341
  28        3PZ        -0.00038   0.00056   0.01540   0.00008  -0.00043
  29        4S          0.01263  -0.04867   2.55283   0.75892  -0.01583
  30        4PX         1.28014  -0.86068   0.54651  -0.11398  -4.11995
  31        4PY        -0.73706   0.46031   1.18546  -0.44047   2.35896
  32        4PZ         0.00085   0.00087  -0.04649   0.01051  -0.00296
  33 5   H  1S         -0.02142   0.05619   0.03252   0.01116  -0.02364
  34        2S         -0.09951   0.56358   0.06410   0.09855  -1.40666
  35        3S          1.07171  -1.05689  -1.22732   0.02416  -1.08880
  36 6   H  1S          0.02230  -0.05630   0.03179   0.01167   0.02294
  37        2S          0.09404  -0.52947   0.08727   0.03642   1.38493
  38        3S         -1.07458   1.08740  -1.11143  -0.03962   1.10227
                          26        27        28        29        30
                           V         V         V         V         V
     Eigenvalues --     0.94998   2.23117   2.29174   2.33202   2.40721
   1 1   C  1S          0.09610  -0.00941  -0.01445   0.00044   0.00051
   2        2S          0.19971   0.00270  -0.01370   0.00092   0.00061
   3        2PX        -0.09053  -0.06955  -0.13167   0.35899   0.40233
   4        2PY        -0.15688  -0.13299  -0.23092  -0.20378  -0.22633
   5        2PZ         0.00018  -0.01037  -0.01507   0.00003   0.00061
   6        3S         -1.55061  -0.18888  -0.04523  -0.00092   0.00494
   7        3PX        -0.23005   0.06240   0.20624  -0.43434  -0.56255
   8        3PY        -0.38961   0.13499   0.37748   0.24913   0.31795
   9        3PZ        -0.00189   0.01038   0.01877   0.00007  -0.00070
  10        4S          5.70916  -0.08036  -0.87076   0.00101   0.01598
  11        4PX         1.21356   0.05490  -0.18688  -0.08778  -0.99372
  12        4PY         1.97902   0.07068  -0.36374   0.03894   0.54490
  13        4PZ        -0.01571   0.00170   0.00653  -0.00027  -0.00138
  14 2   H  1S          0.01541  -0.68920  -0.81617  -0.72220  -0.63035
  15        2S         -0.29176   0.97406   1.21584   1.13221   1.43216
  16        3S         -0.10592  -0.29587  -0.49031  -0.47399  -0.35130
  17 3   H  1S          0.01585  -0.67915  -0.81284   0.71443   0.65417
  18        2S         -0.25262   0.96097   1.21743  -1.12511  -1.48222
  19        3S         -0.08065  -0.27216  -0.46878   0.46169   0.34184
  20 4   C  1S         -0.09367  -0.01121   0.01245   0.00053  -0.00037
  21        2S         -0.19420  -0.00144   0.01298   0.00074  -0.00068
  22        2PX        -0.09176   0.14263  -0.12023   0.29121  -0.42089
  23        2PY        -0.15824   0.24625  -0.19831  -0.16988   0.24358
  24        2PZ         0.00026  -0.01254   0.01416   0.00034  -0.00034
  25        3S          1.50149  -0.16321   0.01382   0.00049  -0.00009
  26        3PX        -0.22287  -0.18274   0.20727  -0.35928   0.58816
  27        3PY        -0.39113  -0.30902   0.33521   0.20648  -0.34081
  28        3PZ         0.00303   0.01343  -0.01802  -0.00034   0.00044
  29        4S         -5.68789  -0.20319   0.89433   0.01752  -0.00204
  30        4PX         1.08491  -0.01399  -0.19658   0.13585   0.85227
  31        4PY         1.97617  -0.03534  -0.30466  -0.07683  -0.50688
  32        4PZ         0.01020   0.00463  -0.00530  -0.00008   0.00126
  33 5   H  1S         -0.01774  -0.80453   0.65150   0.68926  -0.70800
  34        2S          0.28867   1.17481  -1.00123  -0.98694   1.49062
  35        3S          0.06345  -0.35781   0.38195   0.50106  -0.43680
  36 6   H  1S         -0.01761  -0.80034   0.67619  -0.67309   0.70390
  37        2S          0.31904   1.16628  -1.03078   0.96000  -1.47470
  38        3S          0.07905  -0.36241   0.41488  -0.49685   0.44643
                          31        32        33        34        35
                           V         V         V         V         V
     Eigenvalues --     2.67074   2.81808   2.87790   2.95207   3.14001
   1 1   C  1S          0.00039  -0.00211  -0.01366   0.00003  -0.01004
   2        2S          0.00028  -0.00597  -0.04393  -0.00026  -0.03057
   3        2PX         0.00377  -0.06010  -0.48013  -0.71884   0.43833
   4        2PY         0.00575  -0.10660  -0.87460   0.40287   0.76129
   5        2PZ        -0.92625   0.93144  -0.11333  -0.00094   0.00424
   6        3S         -0.00101   0.04886   0.38083   0.00452   0.25557
   7        3PX        -0.00248   0.10353   0.84135   0.86509  -0.41139
   8        3PY        -0.00372   0.18162   1.50118  -0.46968  -0.71078
   9        3PZ         0.94229  -1.13852   0.14214   0.00131  -0.00539
  10        4S          0.01004  -0.11515  -0.87391  -0.01252  -0.50535
  11        4PX        -0.00189  -0.08246  -0.71025  -0.67336   0.19819
  12        4PY        -0.00268  -0.14550  -1.27046   0.35394   0.33474
  13        4PZ        -0.33950   0.61686  -0.08982  -0.00107   0.00278
  14 2   H  1S          0.00992   0.01537   0.25679  -0.37309  -0.20469
  15        2S         -0.01122  -0.00905  -0.21074   0.39244   0.15491
  16        3S         -0.00241  -0.03383  -0.29987   0.27136   0.04356
  17 3   H  1S          0.01007   0.01473   0.24494   0.37407  -0.20789
  18        2S         -0.01154  -0.00746  -0.18960  -0.38891   0.15800
  19        3S         -0.00280  -0.03403  -0.30048  -0.29067   0.05471
  20 4   C  1S          0.00043   0.00201   0.01343   0.00058  -0.00743
  21        2S          0.00044   0.00628   0.04779   0.00136  -0.02230
  22        2PX        -0.00630  -0.05223  -0.39724  -0.81749  -0.51130
  23        2PY        -0.01161  -0.09315  -0.70555   0.44930  -0.91087
  24        2PZ        -0.92312  -0.93395   0.11750   0.00031   0.01205
  25        3S         -0.00260  -0.05388  -0.43058  -0.01012   0.18819
  26        3PX         0.00671   0.09580   0.75854   0.97954   0.55730
  27        3PY         0.01212   0.16953   1.33897  -0.53096   1.00302
  28        3PZ         0.93849   1.14079  -0.14796  -0.00035  -0.01539
  29        4S          0.01326   0.11645   0.89297   0.02952  -0.35463
  30        4PX        -0.00091  -0.08240  -0.70709  -0.70365  -0.34849
  31        4PY        -0.00200  -0.14411  -1.23449   0.37636  -0.63268
  32        4PZ        -0.33750  -0.61721   0.09437   0.00020   0.01224
  33 5   H  1S          0.00925  -0.02266  -0.29532   0.41934  -0.27550
  34        2S         -0.01148   0.01845   0.27026  -0.42432   0.21692
  35        3S         -0.00120   0.03152   0.28459  -0.24986   0.14048
  36 6   H  1S          0.00935  -0.02269  -0.29136  -0.43321  -0.26063
  37        2S         -0.01188   0.01922   0.27263   0.43793   0.20511
  38        3S         -0.00079   0.02991   0.26882   0.25079   0.12902
                          36        37        38
                           V         V         V
     Eigenvalues --     3.32078  23.35323  23.70406
   1 1   C  1S         -0.00039  -1.41847  -1.44790
   2        2S         -0.00049   1.51290   1.56569
   3        2PX         0.79486  -0.00650   0.01220
   4        2PY        -0.44137  -0.01053   0.02146
   5        2PZ         0.00085  -0.00043  -0.00020
   6        3S         -0.00148  -0.29788  -0.39793
   7        3PX        -1.13435   0.02342  -0.05540
   8        3PY         0.62417   0.03857  -0.09651
   9        3PZ        -0.00132   0.00122   0.00061
  10        4S         -0.00201   0.27948   0.76381
  11        4PX         1.99383  -0.02415   0.13342
  12        4PY        -1.09525  -0.04059   0.22884
  13        4PZ         0.00223  -0.00207  -0.00251
  14 2   H  1S          0.56667   0.01247   0.00687
  15        2S         -0.88494   0.00779  -0.01455
  16        3S         -0.46150  -0.08372  -0.03960
  17 3   H  1S         -0.57957   0.01445   0.00815
  18        2S          0.90352   0.00742  -0.01437
  19        3S          0.49150  -0.08624  -0.03953
  20 4   C  1S          0.00010  -1.44315   1.42314
  21        2S         -0.00019   1.53918  -1.53888
  22        2PX        -0.69993   0.00636   0.01264
  23        2PY         0.40344   0.01153   0.02147
  24        2PZ        -0.00075  -0.00047   0.00011
  25        3S          0.00529  -0.30179   0.39042
  26        3PX         0.99773  -0.02304  -0.05601
  27        3PY        -0.58559  -0.04132  -0.09615
  28        3PZ         0.00116   0.00134  -0.00028
  29        4S         -0.02163   0.27513  -0.75827
  30        4PX        -1.76031   0.02506   0.12934
  31        4PY         1.04398   0.04600   0.22477
  32        4PZ        -0.00200  -0.00216   0.00179
  33 5   H  1S          0.48028   0.01432  -0.00530
  34        2S         -0.74807   0.00783   0.01405
  35        3S         -0.43749  -0.08380   0.03792
  36 6   H  1S         -0.47378   0.01268  -0.00409
  37        2S          0.74018   0.00896   0.01379
  38        3S          0.42219  -0.08153   0.03759
     Density Matrix:
                           1         2         3         4         5
   1 1   C  1S          0.65939
   2        2S          0.56146   0.49191
   3        2PX        -0.00046  -0.00059   0.08409
   4        2PY        -0.00122  -0.00168   0.00369   0.08744
   5        2PZ         0.00007   0.00011  -0.00011  -0.00024   0.06443
   6        3S         -0.08885  -0.15369   0.00238   0.00608  -0.00016
   7        3PX         0.00090   0.00139   0.13031   0.00116  -0.00009
   8        3PY         0.00120   0.00185   0.00120   0.13082  -0.00023
   9        3PZ         0.00014   0.00024  -0.00018  -0.00038   0.10355
  10        4S         -0.07948  -0.11451  -0.01611  -0.02890   0.00052
  11        4PX         0.00026   0.00159   0.06987  -0.00447  -0.00047
  12        4PY         0.00065   0.00310  -0.00452   0.06534  -0.00084
  13        4PZ        -0.00009  -0.00021  -0.00068  -0.00116   0.09598
  14 2   H  1S         -0.02052  -0.03270   0.03486  -0.06258  -0.00096
  15        2S         -0.02304  -0.03685   0.04883  -0.08771  -0.00075
  16        3S          0.00050  -0.00081   0.02027  -0.03316  -0.00002
  17 3   H  1S         -0.02109  -0.03356  -0.07251  -0.00199  -0.00106
  18        2S         -0.02340  -0.03737  -0.10027  -0.00261  -0.00086
  19        3S          0.00056  -0.00075  -0.03815   0.00071  -0.00006
  20 4   C  1S          0.00603   0.00971  -0.01086  -0.01883  -0.00034
  21        2S          0.00967   0.01512  -0.01738  -0.03015  -0.00055
  22        2PX         0.01028   0.01643  -0.01254  -0.03204   0.00039
  23        2PY         0.01788   0.02858  -0.03204  -0.04968   0.00075
  24        2PZ        -0.00040  -0.00065  -0.00030  -0.00046   0.06425
  25        3S         -0.02597  -0.03945   0.04875   0.08470   0.00167
  26        3PX         0.01584   0.02454  -0.01844  -0.04596   0.00050
  27        3PY         0.02754   0.04265  -0.04577  -0.07150   0.00099
  28        3PZ        -0.00068  -0.00108  -0.00053  -0.00082   0.10290
  29        4S          0.00536   0.00396   0.02166   0.03814   0.00200
  30        4PX         0.00307   0.00633  -0.01326  -0.02130   0.00056
  31        4PY         0.00515   0.01075  -0.02133  -0.03781   0.00112
  32        4PZ        -0.00057  -0.00092  -0.00084  -0.00137   0.09621
  33 5   H  1S          0.00418   0.00686  -0.00171  -0.01248  -0.00039
  34        2S          0.00618   0.01026   0.00359  -0.02494   0.00002
  35        3S          0.00313   0.00455   0.00429  -0.01736   0.00009
  36 6   H  1S          0.00413   0.00677  -0.00995  -0.00768  -0.00040
  37        2S          0.00611   0.01017  -0.02336  -0.00934  -0.00001
  38        3S          0.00309   0.00452  -0.01715  -0.00505   0.00006
                           6         7         8         9        10
   6        3S          0.45222
   7        3PX        -0.00188   0.20224
   8        3PY        -0.00144  -0.00486   0.19621
   9        3PZ        -0.00048  -0.00015  -0.00035   0.16642
  10        4S          0.27407  -0.02684  -0.04909   0.00068   0.18386
  11        4PX        -0.00692   0.10879  -0.01024  -0.00077  -0.01546
  12        4PY        -0.01269  -0.01036   0.09843  -0.00133  -0.02976
  13        4PZ         0.00093  -0.00091  -0.00154   0.15425   0.00183
  14 2   H  1S          0.08743   0.05641  -0.09773  -0.00160   0.06975
  15        2S          0.09865   0.07939  -0.13648  -0.00127   0.08313
  16        3S          0.00630   0.03329  -0.05099  -0.00005   0.01177
  17 3   H  1S          0.08984  -0.11359  -0.00129  -0.00174   0.06976
  18        2S          0.10014  -0.15691  -0.00094  -0.00141   0.08160
  19        3S          0.00630  -0.05947   0.00302  -0.00009   0.01058
  20 4   C  1S         -0.02636  -0.01700  -0.02949  -0.00058   0.00502
  21        2S         -0.03987  -0.02643  -0.04590  -0.00093   0.00374
  22        2PX        -0.04603  -0.01785  -0.04544   0.00067  -0.01697
  23        2PY        -0.08006  -0.04541  -0.07076   0.00128  -0.02928
  24        2PZ         0.00192  -0.00041  -0.00061   0.10327   0.00203
  25        3S          0.10130   0.07176   0.12491   0.00280   0.00093
  26        3PX        -0.06645  -0.02637  -0.06499   0.00087  -0.02510
  27        3PY        -0.11545  -0.06470  -0.10178   0.00171  -0.04322
  28        3PZ         0.00318  -0.00073  -0.00111   0.16538   0.00337
  29        4S          0.00203   0.03283   0.05806   0.00333  -0.03218
  30        4PX        -0.02244  -0.01978  -0.02989   0.00093  -0.00598
  31        4PY        -0.03837  -0.02997  -0.05453   0.00185  -0.00945
  32        4PZ         0.00270  -0.00117  -0.00190   0.15463   0.00314
  33 5   H  1S         -0.02040  -0.00057  -0.01780  -0.00057  -0.01408
  34        2S         -0.03067   0.00882  -0.03658   0.00010  -0.01797
  35        3S         -0.01166   0.00821  -0.02612   0.00016  -0.00291
  36 6   H  1S         -0.02013  -0.01497  -0.00919  -0.00058  -0.01438
  37        2S         -0.03043  -0.03580  -0.01036   0.00006  -0.01887
  38        3S         -0.01161  -0.02653  -0.00594   0.00011  -0.00351
                          11        12        13        14        15
  11        4PX         0.05956
  12        4PY        -0.00904   0.05091
  13        4PZ        -0.00111  -0.00188   0.14299
  14 2   H  1S          0.03349  -0.05385  -0.00083   0.08076
  15        2S          0.04800  -0.07501  -0.00033   0.10927   0.14985
  16        3S          0.02063  -0.02782   0.00017   0.03655   0.05231
  17 3   H  1S         -0.06271   0.00174  -0.00089  -0.01335  -0.02447
  18        2S         -0.08697   0.00383  -0.00039  -0.02437  -0.04175
  19        3S         -0.03322   0.00408   0.00016  -0.01762  -0.02655
  20 4   C  1S         -0.00324  -0.00592  -0.00052   0.00421   0.00682
  21        2S         -0.00665  -0.01201  -0.00083   0.00698   0.01140
  22        2PX        -0.01331  -0.01970   0.00092   0.00175  -0.00263
  23        2PY        -0.01973  -0.03668   0.00171   0.01133   0.02425
  24        2PZ        -0.00061  -0.00098   0.09572  -0.00047  -0.00018
  25        3S          0.02344   0.04200   0.00244  -0.02106  -0.03435
  26        3PX        -0.02045  -0.02805   0.00125   0.00115  -0.00673
  27        3PY        -0.02801  -0.05361   0.00235   0.01699   0.03644
  28        3PZ        -0.00100  -0.00162   0.15329  -0.00069  -0.00020
  29        4S          0.00887   0.01695   0.00303  -0.01844  -0.02573
  30        4PX        -0.01491  -0.01245   0.00113  -0.00149  -0.00803
  31        4PY        -0.01256  -0.02975   0.00218   0.01529   0.02737
  32        4PZ        -0.00122  -0.00201   0.14334  -0.00039   0.00018
  33 5   H  1S          0.00215  -0.01581  -0.00028   0.01116   0.02322
  34        2S          0.00944  -0.02738   0.00042   0.02368   0.04416
  35        3S          0.00761  -0.01571   0.00028   0.01654   0.02771
  36 6   H  1S         -0.01455  -0.00553  -0.00029  -0.00910  -0.01817
  37        2S         -0.02807  -0.00476   0.00040  -0.01880  -0.03418
  38        3S         -0.01714  -0.00100   0.00025  -0.01015  -0.01764
                          16        17        18        19        20
  16        3S          0.02089
  17 3   H  1S         -0.01782   0.08214
  18        2S         -0.02667   0.10961   0.14829
  19        3S         -0.01243   0.03588   0.05076   0.01999
  20 4   C  1S          0.00380   0.00429   0.00684   0.00379   0.65948
  21        2S          0.00562   0.00710   0.01140   0.00558   0.56161
  22        2PX        -0.00334   0.00899   0.02226   0.01678   0.00117
  23        2PY         0.01782   0.00732   0.00977   0.00582   0.00174
  24        2PZ         0.00002  -0.00046  -0.00014   0.00004   0.00007
  25        3S         -0.01465  -0.02133  -0.03421  -0.01441  -0.08937
  26        3PX        -0.00660   0.01428   0.03497   0.02614  -0.00049
  27        3PY         0.02684   0.00963   0.01226   0.00745  -0.00113
  28        3PZ         0.00005  -0.00068  -0.00015   0.00009   0.00015
  29        4S         -0.00656  -0.01809  -0.02463  -0.00589  -0.07999
  30        4PX        -0.00675   0.01405   0.02768   0.01713  -0.00019
  31        4PY         0.01612   0.00678   0.00714   0.00226  -0.00017
  32        4PZ         0.00022  -0.00039   0.00020   0.00023  -0.00004
  33 5   H  1S          0.01619  -0.00901  -0.01799  -0.00928  -0.02029
  34        2S          0.02727  -0.01855  -0.03361  -0.01668  -0.02211
  35        3S          0.01454  -0.01001  -0.01732  -0.00881   0.00068
  36 6   H  1S         -0.00944   0.01116   0.02311   0.01587  -0.01993
  37        2S         -0.01709   0.02368   0.04395   0.02685  -0.02202
  38        3S         -0.00904   0.01655   0.02755   0.01433   0.00056
                          21        22        23        24        25
  21        2S          0.49213
  22        2PX         0.00168   0.08301
  23        2PY         0.00247   0.00337   0.08780
  24        2PZ         0.00010   0.00011   0.00014   0.06410
  25        3S         -0.15444  -0.00542  -0.00809  -0.00012   0.45435
  26        3PX        -0.00073   0.12894   0.00170   0.00006  -0.00022
  27        3PY        -0.00171   0.00175   0.13173   0.00003   0.00100
  28        3PZ         0.00025   0.00016   0.00023   0.10266  -0.00048
  29        4S         -0.11556   0.01296   0.02165   0.00050   0.27805
  30        4PX        -0.00142   0.07367  -0.00516   0.00038   0.00599
  31        4PY        -0.00215  -0.00504   0.06756   0.00069   0.00952
  32        4PZ        -0.00013   0.00064   0.00116   0.09598   0.00071
  33 5   H  1S         -0.03230  -0.03359   0.06419  -0.00109   0.08639
  34        2S         -0.03532  -0.04999   0.08858  -0.00084   0.09450
  35        3S         -0.00049  -0.02286   0.03331  -0.00008   0.00538
  36 6   H  1S         -0.03177   0.07157   0.00264  -0.00099   0.08494
  37        2S         -0.03520   0.10146   0.00045  -0.00072   0.09416
  38        3S         -0.00065   0.04060  -0.00344  -0.00004   0.00568
                          26        27        28        29        30
  26        3PX         0.20059
  27        3PY        -0.00237   0.19815
  28        3PZ         0.00007   0.00005   0.16440
  29        4S          0.02417   0.04005   0.00062   0.18463
  30        4PX         0.11502  -0.01045   0.00059   0.01496   0.06701
  31        4PY        -0.01034   0.10213   0.00111   0.02350  -0.01020
  32        4PZ         0.00082   0.00149   0.15370   0.00162   0.00095
  33 5   H  1S         -0.05338   0.10040  -0.00179   0.06633  -0.03453
  34        2S         -0.07987   0.13806  -0.00140   0.07542  -0.05206
  35        3S         -0.03698   0.05127  -0.00013   0.00845  -0.02424
  36 6   H  1S          0.11287   0.00359  -0.00165   0.06666   0.06619
  37        2S          0.15981  -0.00068  -0.00122   0.07722   0.09420
  38        3S          0.06363  -0.00668  -0.00007   0.00960   0.03786
                          31        32        33        34        35
  31        4PY         0.05414
  32        4PZ         0.00180   0.14372
  33 5   H  1S          0.05615  -0.00093   0.08160
  34        2S          0.07739  -0.00036   0.11026   0.15151
  35        3S          0.02892   0.00014   0.03795   0.05477   0.02264
  36 6   H  1S         -0.00186  -0.00087  -0.01236  -0.02618  -0.02013
  37        2S         -0.00638  -0.00030  -0.02628  -0.04875  -0.03188
  38        3S         -0.00649   0.00015  -0.02035  -0.03200  -0.01575
                          36        37        38
  36 6   H  1S          0.08049
  37        2S          0.10987   0.15242
  38        3S          0.03829   0.05567   0.02314
    Full Mulliken population analysis:
                           1         2         3         4         5
   1 1   C  1S          0.65939
   2        2S          0.49321   0.49191
   3        2PX         0.00000   0.00000   0.08409
   4        2PY         0.00000   0.00000   0.00000   0.08744
   5        2PZ         0.00000   0.00000   0.00000   0.00000   0.06443
   6        3S         -0.02925  -0.06437   0.00000   0.00000   0.00000
   7        3PX         0.00000   0.00000   0.08198   0.00000   0.00000
   8        3PY         0.00000   0.00000   0.00000   0.08230   0.00000
   9        3PZ         0.00000   0.00000   0.00000   0.00000   0.06514
  10        4S         -0.01222  -0.02143   0.00000   0.00000   0.00000
  11        4PX         0.00000   0.00000   0.01539   0.00000   0.00000
  12        4PY         0.00000   0.00000   0.00000   0.01439   0.00000
  13        4PZ         0.00000   0.00000   0.00000   0.00000   0.02114
  14 2   H  1S         -0.00022  -0.00032   0.00183   0.00542   0.00000
  15        2S         -0.00166  -0.00318   0.00438   0.01299   0.00000
  16        3S          0.00004  -0.00008   0.00070   0.00189   0.00000
  17 3   H  1S         -0.00025  -0.00036   0.00779  -0.00000   0.00000
  18        2S         -0.00174  -0.00334   0.01765  -0.00000   0.00000
  19        3S          0.00004  -0.00007   0.00254   0.00000   0.00000
  20 4   C  1S          0.00000   0.00000  -0.00002  -0.00006   0.00000
  21        2S          0.00000  -0.00000  -0.00002  -0.00005   0.00000
  22        2PX        -0.00002  -0.00002   0.00011   0.00084   0.00000
  23        2PY        -0.00006  -0.00005   0.00084   0.00194   0.00000
  24        2PZ        -0.00000  -0.00000  -0.00000  -0.00000   0.00041
  25        3S         -0.00058  -0.00097   0.00253   0.00760  -0.00000
  26        3PX        -0.00053  -0.00097   0.00020   0.00553   0.00000
  27        3PY        -0.00160  -0.00293   0.00551   0.01069   0.00000
  28        3PZ        -0.00000  -0.00000  -0.00000  -0.00000   0.00605
  29        4S          0.00034   0.00030   0.00098   0.00299  -0.00000
  30        4PX        -0.00018  -0.00045  -0.00071   0.00148   0.00000
  31        4PY        -0.00052  -0.00132   0.00148   0.00099   0.00000
  32        4PZ        -0.00000  -0.00000  -0.00000  -0.00000   0.00902
  33 5   H  1S          0.00000   0.00000  -0.00000  -0.00000   0.00000
  34        2S          0.00001   0.00002   0.00000  -0.00031  -0.00000
  35        3S          0.00007   0.00012   0.00002  -0.00069  -0.00000
  36 6   H  1S          0.00000   0.00000  -0.00000  -0.00000   0.00000
  37        2S          0.00001   0.00002  -0.00023  -0.00006   0.00000
  38        3S          0.00007   0.00012  -0.00056  -0.00011  -0.00000
                           6         7         8         9        10
   6        3S          0.45222
   7        3PX         0.00000   0.20224
   8        3PY         0.00000   0.00000   0.19621
   9        3PZ         0.00000   0.00000   0.00000   0.16642
  10        4S          0.21232   0.00000   0.00000   0.00000   0.18386
  11        4PX         0.00000   0.07109   0.00000   0.00000   0.00000
  12        4PY         0.00000   0.00000   0.06432   0.00000   0.00000
  13        4PZ         0.00000   0.00000   0.00000   0.10080   0.00000
  14 2   H  1S          0.01585   0.01103   0.03158   0.00001   0.01836
  15        2S          0.04122   0.02001   0.05687   0.00001   0.04774
  16        3S          0.00289   0.00401   0.01016   0.00000   0.00886
  17 3   H  1S          0.01691   0.04399  -0.00000   0.00002   0.01862
  18        2S          0.04274   0.07705  -0.00000   0.00002   0.04737
  19        3S          0.00292   0.01381   0.00000   0.00000   0.00802
  20 4   C  1S         -0.00059  -0.00057  -0.00171   0.00000   0.00032
  21        2S         -0.00098  -0.00105  -0.00315   0.00000   0.00028
  22        2PX         0.00239   0.00019   0.00547   0.00000   0.00077
  23        2PY         0.00718   0.00546   0.01058   0.00000   0.00230
  24        2PZ         0.00000  -0.00000  -0.00000   0.00607   0.00000
  25        3S          0.02147   0.01340   0.04038  -0.00000   0.00035
  26        3PX         0.01241  -0.00125   0.01851   0.00000   0.00387
  27        3PY         0.03732   0.01843   0.02862   0.00000   0.01153
  28        3PZ         0.00000  -0.00000  -0.00000   0.03505   0.00000
  29        4S          0.00077   0.00506   0.01549  -0.00000  -0.02017
  30        4PX         0.00630  -0.00404   0.00593   0.00000   0.00181
  31        4PY         0.01865   0.00594   0.00134   0.00000   0.00496
  32        4PZ         0.00000  -0.00000  -0.00000   0.04928   0.00000
  33 5   H  1S         -0.00005  -0.00000  -0.00019   0.00000  -0.00075
  34        2S         -0.00118   0.00007  -0.00319  -0.00000  -0.00300
  35        3S         -0.00189   0.00012  -0.00420  -0.00000  -0.00105
  36 6   H  1S         -0.00005  -0.00012  -0.00005   0.00000  -0.00075
  37        2S         -0.00114  -0.00251  -0.00051  -0.00000  -0.00311
  38        3S         -0.00186  -0.00348  -0.00054  -0.00000  -0.00125
                          11        12        13        14        15
  11        4PX         0.05956
  12        4PY         0.00000   0.05091
  13        4PZ         0.00000   0.00000   0.14299
  14 2   H  1S          0.00648   0.01724   0.00001   0.08076
  15        2S          0.01566   0.04046   0.00000   0.07719   0.14985
  16        3S          0.00528   0.01178  -0.00000   0.01366   0.04127
  17 3   H  1S          0.02349   0.00000   0.00001  -0.00001  -0.00060
  18        2S          0.05473   0.00002   0.00001  -0.00060  -0.00500
  19        3S          0.01634   0.00001  -0.00000  -0.00191  -0.00757
  20 4   C  1S         -0.00019  -0.00060   0.00000   0.00000   0.00002
  21        2S         -0.00047  -0.00147   0.00000   0.00000   0.00003
  22        2PX        -0.00072   0.00137   0.00000  -0.00000   0.00000
  23        2PY         0.00137   0.00096   0.00000  -0.00000  -0.00036
  24        2PZ        -0.00000  -0.00000   0.00898   0.00000   0.00000
  25        3S          0.00658   0.02042  -0.00000  -0.00007  -0.00153
  26        3PX        -0.00418   0.00556   0.00000  -0.00000   0.00003
  27        3PY         0.00555   0.00132   0.00000  -0.00023  -0.00361
  28        3PZ        -0.00000  -0.00000   0.04885   0.00000   0.00000
  29        4S          0.00269   0.00889  -0.00000  -0.00109  -0.00465
  30        4PX        -0.00716   0.00316   0.00000   0.00001   0.00015
  31        4PY         0.00318  -0.00558   0.00000  -0.00244  -0.01036
  32        4PZ        -0.00000  -0.00000   0.08984   0.00000  -0.00000
  33 5   H  1S          0.00003  -0.00233   0.00000   0.00000   0.00000
  34        2S          0.00030  -0.00980  -0.00000   0.00000   0.00016
  35        3S          0.00031  -0.00724  -0.00000   0.00023   0.00146
  36 6   H  1S         -0.00174  -0.00046   0.00000  -0.00000  -0.00004
  37        2S         -0.00819  -0.00097  -0.00000  -0.00004  -0.00092
  38        3S         -0.00648  -0.00026  -0.00000  -0.00046  -0.00246
                          16        17        18        19        20
  16        3S          0.02089
  17 3   H  1S         -0.00194   0.08214
  18        2S         -0.00760   0.07742   0.14829
  19        3S         -0.00636   0.01341   0.04005   0.01999
  20 4   C  1S          0.00010   0.00000   0.00002   0.00010   0.65948
  21        2S          0.00017   0.00000   0.00003   0.00017   0.49334
  22        2PX         0.00001  -0.00000  -0.00028  -0.00059   0.00000
  23        2PY        -0.00075  -0.00000  -0.00008  -0.00014   0.00000
  24        2PZ        -0.00000   0.00000   0.00000  -0.00000   0.00000
  25        3S         -0.00254  -0.00007  -0.00154  -0.00251  -0.02942
  26        3PX         0.00005  -0.00016  -0.00292  -0.00368   0.00000
  27        3PY        -0.00451  -0.00007  -0.00067  -0.00069   0.00000
  28        3PZ        -0.00000   0.00000   0.00000  -0.00000   0.00000
  29        4S         -0.00247  -0.00107  -0.00446  -0.00223  -0.01230
  30        4PX         0.00015  -0.00188  -0.00879  -0.00678   0.00000
  31        4PY        -0.00762  -0.00060  -0.00149  -0.00059   0.00000
  32        4PZ        -0.00000   0.00000  -0.00000  -0.00000   0.00000
  33 5   H  1S          0.00023  -0.00000  -0.00004  -0.00042  -0.00023
  34        2S          0.00144  -0.00004  -0.00090  -0.00232  -0.00161
  35        3S          0.00246  -0.00046  -0.00241  -0.00282   0.00005
  36 6   H  1S         -0.00043   0.00000   0.00000   0.00022  -0.00021
  37        2S         -0.00239   0.00000   0.00015   0.00141  -0.00156
  38        3S         -0.00290   0.00023   0.00145   0.00241   0.00004
                          21        22        23        24        25
  21        2S          0.49213
  22        2PX         0.00000   0.08301
  23        2PY         0.00000   0.00000   0.08780
  24        2PZ         0.00000   0.00000   0.00000   0.06410
  25        3S         -0.06468   0.00000   0.00000   0.00000   0.45435
  26        3PX         0.00000   0.08112   0.00000   0.00000   0.00000
  27        3PY         0.00000   0.00000   0.08287   0.00000   0.00000
  28        3PZ         0.00000   0.00000   0.00000   0.06458   0.00000
  29        4S         -0.02163   0.00000   0.00000   0.00000   0.21541
  30        4PX         0.00000   0.01622   0.00000   0.00000   0.00000
  31        4PY         0.00000   0.00000   0.01488   0.00000   0.00000
  32        4PZ         0.00000   0.00000   0.00000   0.02114   0.00000
  33 5   H  1S         -0.00032   0.00152   0.00594   0.00000   0.01584
  34        2S         -0.00308   0.00381   0.01386   0.00000   0.03974
  35        3S         -0.00005   0.00067   0.00200   0.00000   0.00248
  36 6   H  1S         -0.00029   0.00701   0.00002   0.00000   0.01512
  37        2S         -0.00299   0.01738   0.00001   0.00000   0.03894
  38        3S         -0.00006   0.00271  -0.00002   0.00000   0.00260
                          26        27        28        29        30
  26        3PX         0.20059
  27        3PY         0.00000   0.19815
  28        3PZ         0.00000   0.00000   0.16440
  29        4S          0.00000   0.00000   0.00000   0.18463
  30        4PX         0.07516   0.00000   0.00000   0.00000   0.06701
  31        4PY         0.00000   0.06674   0.00000   0.00000   0.00000
  32        4PZ         0.00000   0.00000   0.10044   0.00000   0.00000
  33 5   H  1S          0.00889   0.03435   0.00002   0.01753   0.00566
  34        2S          0.01707   0.06059   0.00002   0.04345   0.01436
  35        3S          0.00377   0.01073   0.00000   0.00637   0.00524
  36 6   H  1S          0.04199   0.00009   0.00001   0.01742   0.02468
  37        2S          0.07730  -0.00002   0.00001   0.04411   0.05929
  38        3S          0.01481  -0.00011   0.00000   0.00720   0.01874
                          31        32        33        34        35
  31        4PY         0.05414
  32        4PZ         0.00000   0.14372
  33 5   H  1S          0.01889   0.00001   0.08160
  34        2S          0.04384   0.00001   0.07788   0.15151
  35        3S          0.01284  -0.00000   0.01418   0.04321   0.02264
  36 6   H  1S         -0.00005   0.00001  -0.00001  -0.00085  -0.00243
  37        2S         -0.00028   0.00000  -0.00085  -0.00697  -0.00990
  38        3S         -0.00022  -0.00000  -0.00245  -0.00994  -0.00853
                          36        37        38
  36 6   H  1S          0.08049
  37        2S          0.07761   0.15242
  38        3S          0.01431   0.04392   0.02314
     Gross orbital populations:
                           1
   1 1   C  1S          1.10436
   2        2S          0.88586
   3        2PX         0.22646
   4        2PY         0.23519
   5        2PZ         0.16621
   6        3S          0.79220
   7        3PX         0.56084
   8        3PY         0.55421
   9        3PZ         0.42282
  10        4S          0.50760
  11        4PX         0.25891
  12        4PY         0.21208
  13        4PZ         0.41261
  14 2   H  1S          0.27227
  15        2S          0.46755
  16        3S          0.08647
  17 3   H  1S          0.27653
  18        2S          0.46511
  19        3S          0.08274
  20 4   C  1S          1.10440
  21        2S          0.88584
  22        2PX         0.22295
  23        2PY         0.23654
  24        2PZ         0.16530
  25        3S          0.79328
  26        3PX         0.55317
  27        3PY         0.55806
  28        3PZ         0.41944
  29        4S          0.50357
  30        4PX         0.27535
  31        4PY         0.21682
  32        4PZ         0.41345
  33 5   H  1S          0.27492
  34        2S          0.46815
  35        3S          0.08730
  36 6   H  1S          0.27149
  37        2S          0.46991
  38        3S          0.09004
          Condensed to atoms (all electrons):
               1          2          3          4          5          6
     1  C    5.031299   0.387323   0.388330   0.601456  -0.034809  -0.034254
     2  H    0.387323   0.515736  -0.031592  -0.041515   0.005986  -0.009653
     3  H    0.388330  -0.031592   0.512176  -0.040991  -0.009425   0.005879
     4  C    0.601456  -0.041515  -0.040991   5.061287   0.384258   0.383686
     5  H   -0.034809   0.005986  -0.009425   0.384258   0.526294  -0.041934
     6  H   -0.034254  -0.009653   0.005879   0.383686  -0.041934   0.527721
 Mulliken charges:
               1
     1  C   -0.339344
     2  H    0.173715
     3  H    0.175624
     4  C   -0.348180
     5  H    0.169630
     6  H    0.168556
 Sum of Mulliken charges =   0.00000
 Mulliken charges with hydrogens summed into heavy atoms:
               1
     1  C    0.009995
     4  C   -0.009995
 Electronic spatial extent (au):  <R**2>=             83.7473
 Charge=              0.0000 electrons
 Dipole moment (field-independent basis, Debye):
    X=              0.0095    Y=              0.0366    Z=             -0.0871  Tot=              0.0950
 Quadrupole moment (field-independent basis, Debye-Ang):
   XX=            -12.1966   YY=            -12.2228   ZZ=            -15.6760
   XY=              0.0058   XZ=             -0.0012   YZ=             -0.0044
 Traceless Quadrupole moment (field-independent basis, Debye-Ang):
   XX=              1.1685   YY=              1.1424   ZZ=             -2.3109
   XY=              0.0058   XZ=             -0.0012   YZ=             -0.0044
 Octapole moment (field-independent basis, Debye-Ang**2):
  XXX=             -0.4067  YYY=              0.0617  ZZZ=             -0.0471  XYY=              0.3055
  XXY=             -0.0121  XXZ=             -0.1147  XZZ=             -0.0825  YZZ=             -0.0577
  YYZ=             -0.1522  XYZ=             -0.0321
 Hexadecapole moment (field-independent basis, Debye-Ang**3):
 XXXX=            -34.2873 YYYY=            -55.2510 ZZZZ=            -17.8248 XXXY=             -7.2764
 XXXZ=              0.0185 YYYX=            -10.7216 YYYZ=              0.0217 ZZZX=              0.0230
 ZZZY=              0.0409 XXYY=            -16.1915 XXZZ=             -9.9291 YYZZ=            -13.6479
 XXYZ=              0.0086 YYXZ=             -0.0010 ZZXY=             -3.2087
 N-N= 3.305521643387D+01 E-N=-2.478196337722D+02  KE= 7.815152199532D+01
 Orbital energies and kinetic energies (alpha):
                                 1                 2
   1         O               -10.289652         15.975822
   2         O               -10.288789         15.982692
   3         O                -0.863415          1.535326
   4         O                -0.672778          1.272413
   5         O                -0.559811          0.942087
   6         O                -0.508516          1.284585
   7         O                -0.437045          1.045233
   8         O                -0.356403          1.037603
   9         V                 0.079358          1.182515
  10         V                 0.140872          0.589292
  11         V                 0.165101          0.591944
  12         V                 0.170261          0.679795
  13         V                 0.240747          0.582684
  14         V                 0.369671          0.846560
  15         V                 0.394322          0.935136
  16         V                 0.401324          0.793765
  17         V                 0.465049          1.190511
  18         V                 0.488613          1.419862
  19         V                 0.494088          1.302989
  20         V                 0.590829          1.650932
  21         V                 0.666044          1.574942
  22         V                 0.691636          2.146157
  23         V                 0.773618          2.335204
  24         V                 0.774380          2.411999
  25         V                 0.843641          1.087377
  26         V                 0.949977          3.411649
  27         V                 2.231167          3.931401
  28         V                 2.291736          4.024123
  29         V                 2.332017          4.307397
  30         V                 2.407213          4.517414
  31         V                 2.670737          6.300194
  32         V                 2.818084          6.307075
  33         V                 2.877903          6.140528
  34         V                 2.952068          6.225379
  35         V                 3.140012          6.819402
  36         V                 3.320775          6.403352
  37         V                23.353226         60.075391
  38         V                23.704063         60.202289
 Total kinetic energy from orbitals= 7.815152199532D+01
 Calling FoFJK, ICntrl=      2127 FMM=F ISym2X=0 I1Cent= 0 IOpClX= 0 NMat=1 NMatS=1 NMatT=0.
 -------------------------------------------------------------------
 Center     Atomic                   Forces (Hartrees/Bohr)
 Number     Number              X              Y              Z
 -------------------------------------------------------------------
      1        6           0.016331420    0.011198859   -0.003476198
      2        1          -0.012671599    0.007121026    0.001772546
      3        1           0.004080635   -0.006485048    0.001593387
      4        6           0.008486414    0.005318334   -0.003757270
      5        1          -0.001621932   -0.010118731    0.001873203
      6        1          -0.014604939   -0.007034440    0.001994332
 -------------------------------------------------------------------
 Cartesian Forces:  Max     0.016331420 RMS     0.008060861

 GradGradGradGradGradGradGradGradGradGradGradGradGradGradGradGradGradGrad
 Berny optimization.
 Search for a local minimum.
 Step number   1 out of a maximum of    2
 All quantities printed in internal units (Hartrees-Bohrs-Radians)
 Second derivative matrix not updated -- first step.
 The second derivative matrix:
                          X1        Y1        Z1        X2        Y2
           X1           0.75660
           Y1           0.09278   0.84702
           Z1           0.00495   0.00754   0.16766
           X2          -0.16637   0.09667   0.00181   0.14373
           Y2           0.10194  -0.27635  -0.00640  -0.11564   0.26491
           Z2           0.00287  -0.00806  -0.05363  -0.00264   0.00659
           X3          -0.35045   0.00154  -0.00704   0.00017   0.00011
           Y3          -0.00362  -0.11031  -0.00171   0.03195   0.01929
           Z3          -0.00902  -0.00165  -0.05515   0.00134   0.00053
           X4          -0.26531  -0.17623  -0.00064   0.02248   0.01359
           Y4          -0.17659  -0.46874  -0.00105  -0.01299  -0.00785
           Z4           0.00117   0.00212  -0.09354  -0.00051  -0.00072
           X5           0.02371  -0.01369   0.00057  -0.00001   0.00000
           Y5           0.01153  -0.00666   0.00077   0.00000  -0.00000
           Z5          -0.00043   0.00027   0.01774   0.00022  -0.00011
           X6           0.00182  -0.00105   0.00034  -0.00001   0.00000
           Y6          -0.02604   0.01504   0.00085   0.00000  -0.00000
           Z6           0.00045  -0.00023   0.01692  -0.00022   0.00011
                          Z2        X3        Y3        Z3        X4
           Z2           0.02782
           X3          -0.00024   0.35045
           Y3           0.00145  -0.00174   0.07567
           Z3           0.01050   0.00766   0.00110   0.02883
           X4           0.00046  -0.00016  -0.02660  -0.00044   0.71527
           Y4          -0.00024   0.00009   0.01536   0.00028   0.11987
           Z4           0.01522  -0.00038  -0.00084   0.01592  -0.00471
           X5          -0.00023  -0.00001   0.00000   0.00023  -0.14654
           Y5           0.00014   0.00000  -0.00000  -0.00015   0.09391
           Z5           0.00916   0.00022  -0.00014  -0.00935  -0.00288
           X6          -0.00022  -0.00001   0.00000   0.00023  -0.32575
           Y6           0.00012   0.00000  -0.00000  -0.00012  -0.02453
           Z6          -0.00906  -0.00022   0.00014   0.00925   0.00821
                          Y4        Z4        X5        Y5        Z5
           Y4           0.86433
           Z4          -0.00921   0.17729
           X5           0.08502  -0.00190   0.12516
           Y5          -0.29793   0.00688  -0.10433   0.28856
           Z5           0.00849  -0.05797   0.00254  -0.00734   0.03009
           X6          -0.01540   0.00634  -0.00232  -0.00112   0.00033
           Y6          -0.10518   0.00176   0.03300   0.01604  -0.00117
           Z6           0.00172  -0.05690  -0.00121  -0.00030   0.01033
                          X6        Y6        Z6
           X6           0.32627
           Y6           0.01757   0.07410
           Z6          -0.00702  -0.00144   0.02946
 ITU=  0
     Eigenvalues ---    0.03688   0.04382   0.09259   0.09983   0.13502
     Eigenvalues ---    0.17523   0.26239   0.29093   0.52928   0.70503
     Eigenvalues ---    0.97580   1.55303
 Angle between quadratic step and forces=  33.28 degrees.
 Linear search not attempted -- first point.
 B after Tr=     0.008005    0.008622   -0.008968
         Rot=    1.000000   -0.000044    0.000024   -0.000122 Ang=  -0.02 deg.
 Variable       Old X    -DE/DX   Delta X   Delta X   Delta X     New X
                                 (Linear)    (Quad)   (Total)
    X1       -0.63859   0.01633   0.00000   0.02485   0.03311  -0.60547
    Y1       -1.10333   0.01120   0.00000   0.02736   0.03583  -1.06750
    Z1        0.01090  -0.00348   0.00000  -0.01912  -0.02821  -0.01730
    X2        0.43856  -0.01267   0.00000  -0.05303  -0.04433   0.39423
    Y2       -2.88414   0.00712   0.00000   0.02339   0.03210  -2.85203
    Z2       -0.03653   0.00177   0.00000   0.02352   0.01432  -0.02221
    X3       -2.69367   0.00408   0.00000   0.03537   0.04364  -2.65003
    Y3       -1.09054  -0.00649   0.00000  -0.02759  -0.01962  -1.11015
    Z3       -0.03795   0.00159   0.00000   0.02287   0.01368  -0.02427
    X4        0.62844   0.00849   0.00000   0.00826   0.01600   0.64444
    Y4        1.09047   0.00532   0.00000   0.00836   0.01714   1.10761
    Z4        0.00778  -0.00376   0.00000  -0.01799  -0.02683  -0.01905
    X5       -0.27929  -0.00162   0.00000  -0.03025  -0.02295  -0.30224
    Y5        2.95460  -0.01012   0.00000  -0.03689  -0.02835   2.92626
    Z5       -0.04391   0.00187   0.00000   0.02259   0.01386  -0.03004
    X6        2.71748  -0.01460   0.00000  -0.03319  -0.02548   2.69200
    Y6        1.23550  -0.00703   0.00000  -0.04639  -0.03711   1.19839
    Z6       -0.04207   0.00199   0.00000   0.02191   0.01318  -0.02889
         Item               Value     Threshold  Converged?
 Maximum Force            0.016331     0.000450     NO 
 RMS     Force            0.008061     0.000300     NO 
 Maximum Displacement     0.044331     0.001800     NO 
 RMS     Displacement     0.027735     0.001200     NO 
 Predicted change in Energy=-1.760102D-03
 GradGradGradGradGradGradGradGradGradGradGradGradGradGradGradGradGradGrad

 Unable to Open any file for archive entry.
 1\1\GINC-BHD0007\Force\RwB97XD\6-311G\C2H4\BWEIGHT\11-Jan-2023\0\\# WB
 97XD/6-311G SCF=XQC FORCE nosym pop=full guess=read\\MD Step 1000\\0,1
 \C,-0.33792504,-0.5838597,0.00576969\H,0.23207414,-1.52621926,-0.01933
 067\H,-1.42543088,-0.57708805,-0.02008336\C,0.33255658,0.57705371,0.00
 411712\H,-0.14779135,1.56350845,-0.02323417\H,1.43802621,0.65379812,-0
 .02226506\\Version=ES64L-G16RevC.01\HF=-78.5553946\RMSD=5.155e-09\RMSF
 =8.061e-03\Dipole=0.0037529,0.0144053,-0.0342663\Quadrupole=0.8687461,
 0.8493203,-1.7180664,0.0042789,-0.0008826,-0.0032946\PG=C01 [X(C2H4)]\
 \@
 The archive entry for this job was punched.


 FOR THE NATURE OF THE CHEMICAL BOND
 IS THE PROBLEM AT THE HEART OF ALL CHEMISTRY.

                     -- BRYCE CRAWFORD, JR., 1953
 Job cpu time:       0 days  0 hours  0 minutes 58.2 seconds.
 Elapsed time:       0 days  0 hours  0 minutes 18.8 seconds.
 File lengths (MBytes):  RWF=    272 Int=      0 D2E=      0 Chk=     32 Scr=     32
 Normal termination of Gaussian 16 at Wed Jan 11 16:37:02 2023.
