6
MD Step 0
C  -0.33763715 -0.58748864 0.00000000
H  0.19552659 -1.51519357 0.00000000
H  -1.40763715 -0.58748864 0.00000000
C  0.33763715 0.58748865 0.00000000
H  -0.19552659 1.51519357 0.00000000
H  1.40763715 0.58748865 0.00000000
6
MD Step 1
C  -0.33800595 -0.58783596 -0.00039518
H  0.19789029 -1.51298595 0.00235559
H  -1.40541779 -0.58520618 0.00235247
C  0.33721625 0.58704627 -0.00039484
H  -0.19318621 1.51769158 0.00235445
H  1.41012385 0.58991053 0.00235133
6
MD Step 2
C  -0.33832533 -0.58809341 -0.00079713
H  0.20031756 -1.51104661 0.00475151
H  -1.40347821 -0.58303236 0.00474535
C  0.33674109 0.58650532 -0.00079642
H  -0.19082172 1.52049753 0.00474911
H  1.41286024 0.59250522 0.00474277
6
MD Step 3
C  -0.33858257 -0.58825101 -0.00119668
H  0.20275258 -1.50944086 0.00713300
H  -1.40191856 -0.58102890 0.00712418
C  0.33622598 0.58587903 -0.00119548
H  -0.18848035 1.52352623 0.00712887
H  1.41572744 0.59520806 0.00711897
6
MD Step 4
C  -0.33877607 -0.58831021 -0.00159500
H  0.20519790 -1.50816507 0.00950698
H  -1.40076766 -0.57919489 0.00949631
C  0.33567517 0.58517126 -0.00159307
H  -0.18614556 1.52674878 0.00950005
H  1.41866569 0.59801505 0.00948583
6
MD Step 5
C  -0.33889944 -0.58826795 -0.00198762
H  0.20761906 -1.50724220 0.01184657
H  -1.40007742 -0.57756225 0.01183551
C  0.33509874 0.58439240 -0.00198453
H  -0.18383293 1.53009799 0.01183501
H  1.42158050 0.60088756 0.01181517
6
MD Step 6
C  -0.33895648 -0.58813145 -0.00237928
H  0.21003341 -1.50663310 0.01417981
H  -1.39983255 -0.57610687 0.01417051
C  0.33449758 0.58354440 -0.00237438
H  -0.18150198 1.53355824 0.01416085
H  1.42443356 0.60384120 0.01413355
6
MD Step 7
C  -0.33894682 -0.58790379 -0.00276949
H  0.21242450 -1.50632309 0.01650370
H  -1.40003672 -0.57483470 0.01649908
C  0.33387777 0.58263506 -0.00276192
H  -0.17914257 1.53708032 0.01647349
H  1.42715768 0.60685984 0.01643625
6
MD Step 8
C  -0.33886781 -0.58758573 -0.00315452
H  0.21475398 -1.50631104 0.01879567
H  -1.40070089 -0.57377019 0.01879951
C  0.33324858 0.58167603 -0.00314316
H  -0.17676391 1.54059405 0.01874925
H  1.42966969 0.60990727 0.01869897
6
MD Step 9
C  -0.33872319 -0.58718420 -0.00353587
H  0.21701297 -1.50655889 0.02106462
H  -1.40179212 -0.57290524 0.02108140
C  0.33261379 0.58067409 -0.00351939
H  -0.17434411 1.54406049 0.02099583
H  1.43192303 0.61297841 0.02092885
6
MD Step 10
C  -0.33851254 -0.58670181 -0.00390987
H  0.21916035 -1.50705486 0.02328858
H  -1.40329680 -0.57226144 0.02332352
C  0.33198210 0.57964146 -0.00388672
H  -0.17189293 1.54741062 0.02319013
H  1.43384625 0.61603709 0.02310222
6
MD Step 11
C  -0.33824357 -0.58614901 -0.00427998
H  0.22119660 -1.50774089 0.02548809
H  -1.40514801 -0.57181675 0.02554677
C  0.33135476 0.57858342 -0.00424841
H  -0.16937889 1.55061980 0.02535153
H  1.43541750 0.61908963 0.02523821
6
MD Step 12
C  -0.33791685 -0.58552879 -0.00464157
H  0.22307406 -1.50860409 0.02763576
H  -1.40731780 -0.57159579 0.02772426
C  0.33074075 0.57751331 -0.00459975
H  -0.16681998 1.55361811 0.02745170
H  1.43657444 0.62209447 0.02730803
6
MD Step 13
C  -0.33754335 -0.58485430 -0.00499966
H  0.22480256 -1.50957246 0.02976155
H  -1.40971315 -0.57156476 0.02988572
C  0.33013899 0.57643482 -0.00494557
H  -0.16417895 1.55639645 0.02951956
H  1.43732019 0.62506756 0.02934078
6
MD Step 14
C  -0.33712339 -0.58412774 -0.00534788
H  0.22632547 -1.51064055 0.03182797
H  -1.41230305 -0.57175593 0.03199387
C  0.32955937 0.57536276 -0.00527956
H  -0.16148800 1.55888247 0.03151700
H  1.43759861 0.62795776 0.03129807
6
MD Step 15
C  -0.33665843 -0.58335216 -0.00568044
H  0.22759096 -1.51179938 0.03380106
H  -1.41504879 -0.57219677 0.03401479
C  0.32901076 0.57431106 -0.00559604
H  -0.15877825 1.56101227 0.03340968
H  1.43736602 0.63071790 0.03314527
6
MD Step 16
C  -0.33616250 -0.58254296 -0.00600376
H  0.22862132 -1.51296832 0.03571935
H  -1.41783646 -0.57284126 0.03598580
C  0.32848931 0.57328114 -0.00590137
H  -0.15601133 1.56279990 0.03523547
H  1.43666046 0.63337388 0.03492120
6
MD Step 17
C  -0.33563812 -0.58170378 -0.00631234
H  0.22937071 -1.51413873 0.03755091
H  -1.42062221 -0.57371235 0.03787463
C  0.32800258 0.57228573 -0.00619032
H  -0.15322175 1.56419495 0.03696249
H  1.43545861 0.63588192 0.03659397
6
MD Step 18
C  -0.33509473 -0.58084503 -0.00660757
H  0.22983645 -1.51526365 0.03930455
H  -1.42332262 -0.57479126 0.03968886
C  0.32755074 0.57133023 -0.00646441
H  -0.15040637 1.56519383 0.03859948
H  1.43378694 0.63823970 0.03817319
6
MD Step 19
C  -0.33454229 -0.57997746 -0.00689138
H  0.23002181 -1.51629603 0.04099225
H  -1.42585401 -0.57605505 0.04143891
C  0.32713296 0.57041889 -0.00672572
H  -0.14756180 1.56580248 0.04015852
H  1.43168384 0.64044891 0.03967207
6
MD Step 20
C  -0.33398651 -0.57910745 -0.00716149
H  0.22990853 -1.51721712 0.04260132
H  -1.42816188 -0.57750433 0.04311091
C  0.32675204 0.56955942 -0.00697231
H  -0.14471202 1.56600866 0.04162742
H  1.42917149 0.64248744 0.04107918
6
MD Step 21
C  -0.33342894 -0.57823708 -0.00741162
H  0.22945824 -1.51803553 0.04409563
H  -1.43022067 -0.57916206 0.04466830
C  0.32641422 0.56876273 -0.00719850
H  -0.14190696 1.56578338 0.04297108
H  1.42625695 0.64431085 0.04235961
6
MD Step 22
C  -0.33287614 -0.57737334 -0.00764090
H  0.22866764 -1.51873255 0.04547092
H  -1.43197925 -0.58101874 0.04610545
C  0.32611987 0.56803362 -0.00740384
H  -0.13916770 1.56513606 0.04418614
H  1.42298716 0.64590758 0.04351103
6
MD Step 23
C  -0.33233635 -0.57652486 -0.00785067
H  0.22754951 -1.51928140 0.04673570
H  -1.43338086 -0.58305147 0.04742906
C  0.32586668 0.56737395 -0.00758998
H  -0.13650533 1.56409547 0.04528204
H  1.41942948 0.64727996 0.04454446
6
MD Step 24
C  -0.33181617 -0.57569854 -0.00804106
H  0.22611307 -1.51966724 0.04789147
H  -1.43438365 -0.58524376 0.04863906
C  0.32565302 0.56678590 -0.00775749
H  -0.13394022 1.56268972 0.04626147
H  1.41565107 0.64842453 0.04546402
6
MD Step 25
C  -0.33132291 -0.57490191 -0.00821358
H  0.22437867 -1.51987262 0.04894752
H  -1.43494670 -0.58757093 0.04974281
C  0.32547554 0.56626952 -0.00790819
H  -0.13148724 1.56096063 0.04713497
H  1.41173262 0.64934673 0.04628211
6
MD Step 26
C  -0.33085637 -0.57413493 -0.00836258
H  0.22232887 -1.51992651 0.04987177
H  -1.43507939 -0.59004903 0.05070812
C  0.32533743 0.56583092 -0.00803727
H  -0.12920398 1.55891441 0.04787241
H  1.40771832 0.65001193 0.04696886
6
MD Step 27
C  -0.33041926 -0.57340040 -0.00848610
H  0.21997066 -1.51984180 0.05065345
H  -1.43477903 -0.59267274 0.05152344
C  0.32523797 0.56547183 -0.00814343
H  -0.12712849 1.55658358 0.04846485
H  1.40367733 0.65040798 0.04751629
6
MD Step 28
C  -0.33001602 -0.57270287 -0.00858475
H  0.21732873 -1.51962173 0.05129653
H  -1.43403737 -0.59542201 0.05219144
C  0.32517364 0.56519073 -0.00822769
H  -0.12528543 1.55401993 0.04891797
H  1.39969599 0.65053859 0.04793158
6
MD Step 29
C  -0.32964776 -0.57204351 -0.00865639
H  0.21441503 -1.51929003 0.05178925
H  -1.43287107 -0.59829237 0.05270000
C  0.32514339 0.56498797 -0.00828860
H  -0.12371570 1.55126340 0.04922201
H  1.39584594 0.65039297 0.04820570
6
MD Step 30
C  -0.32931790 -0.57142582 -0.00870209
H  0.21126224 -1.51885686 0.05213807
H  -1.43128773 -0.60126137 0.05305460
C  0.32514300 0.56486018 -0.00832758
H  -0.12244239 1.54837498 0.04938524
H  1.39221618 0.64997962 0.04834818
6
MD Step 31
C  -0.32903157 -0.57085510 -0.00872557
H  0.20792035 -1.51832176 0.05236445
H  -1.42928916 -0.60429191 0.05327514
C  0.32516573 0.56480092 -0.00834843
H  -0.12147342 1.54543244 0.04943072
H  1.38890777 0.64932294 0.04838390
6
MD Step 32
C  -0.32878994 -0.57033268 -0.00872718
H  0.20442226 -1.51770739 0.05247057
H  -1.42690546 -0.60736638 0.05336344
C  0.32520826 0.56480651 -0.00835182
H  -0.12083471 1.54249483 0.04936239
H  1.38599731 0.64842895 0.04831749
6
MD Step 33
C  -0.32859409 -0.56985997 -0.00870809
H  0.20080689 -1.51703559 0.05246293
H  -1.42417125 -0.61046332 0.05332572
C  0.32526683 0.56487218 -0.00833909
H  -0.12054616 1.53962476 0.04918839
H  1.38355823 0.64730872 0.04815761
6
MD Step 34
C  -0.32844501 -0.56943843 -0.00867019
H  0.19711862 -1.51632704 0.05235214
H  -1.42112556 -0.61355783 0.05317236
C  0.32533742 0.56499233 -0.00831214
H  -0.12062124 1.53688667 0.04892073
H  1.38165839 0.64597798 0.04791672
6
MD Step 35
C  -0.32833961 -0.56906558 -0.00861186
H  0.19338273 -1.51562470 0.05212876
H  -1.41783527 -0.61664561 0.05289499
C  0.32541990 0.56516461 -0.00826968
H  -0.12109015 1.53432138 0.04855130
H  1.38033398 0.64443294 0.04758581
6
MD Step 36
C  -0.32827633 -0.56874076 -0.00853393
H  0.18963865 -1.51495931 0.05179711
H  -1.41436048 -0.61970944 0.05249857
C  0.32551246 0.56538446 -0.00821248
H  -0.12196565 1.53197856 0.04808536
H  1.37962185 0.64268401 0.04716962
6
MD Step 37
C  -0.32824800 -0.56845791 -0.00843194
H  0.18589598 -1.51439202 0.05133163
H  -1.41079694 -0.62276262 0.05195991
C  0.32561893 0.56565248 -0.00813656
H  -0.12328579 1.52987194 0.04749814
H  1.37951490 0.64071228 0.04664110
6
MD Step 38
C  -0.32825218 -0.56821597 -0.00830708
H  0.18219539 -1.51395180 0.05073858
H  -1.40721282 -0.62578746 0.05128649
C  0.32573843 0.56596422 -0.00804291
H  -0.12505206 1.52804002 0.04679621
H  1.38002344 0.63853116 0.04600565
6
MD Step 39
C  -0.32829025 -0.56801800 -0.00816519
H  0.17860189 -1.51364067 0.05004981
H  -1.40365342 -0.62874137 0.05051033
C  0.32586642 0.56631128 -0.00793636
H  -0.12723494 1.52653897 0.04601148
H  1.38116880 0.63618030 0.04529493
6
MD Step 40
C  -0.32835007 -0.56785380 -0.00799808
H  0.17510093 -1.51353663 0.04921910
H  -1.40024372 -0.63166070 0.04958901
C  0.32601210 0.56669884 -0.00780954
H  -0.12987708 1.52533793 0.04509730
H  1.38287920 0.63362187 0.04445864
6
MD Step 41
C  -0.32843469 -0.56772858 -0.00781404
H  0.17176722 -1.51362260 0.04829186
H  -1.39701597 -0.63449055 0.04856816
C  0.32616972 0.56711711 -0.00766934
H  -0.13292346 1.52448891 0.04409880
H  1.38516157 0.63091058 0.04354169
6
MD Step 42
C  -0.32854194 -0.56764257 -0.00761601
H  0.16864286 -1.51390757 0.04728354
H  -1.39403025 -0.63720670 0.04746468
C  0.32633906 0.56756183 -0.00751794
H  -0.13634289 1.52400449 0.04303081
H  1.38797990 0.62807193 0.04255761
6
MD Step 43
C  -0.32866252 -0.56758907 -0.00739937
H  0.16572475 -1.51443815 0.04616763
H  -1.39138501 -0.63982787 0.04625496
C  0.32652726 0.56803639 -0.00735086
H  -0.14014033 1.52384557 0.04186558
H  1.39124434 0.62509013 0.04147605
6
MD Step 44
C  -0.32878793 -0.56756233 -0.00716027
H  0.16301062 -1.51525117 0.04492210
H  -1.38916802 -0.64236894 0.04491950
C  0.32674092 0.56854392 -0.00716434
H  -0.14431071 1.52396876 0.04057957
H  1.39486035 0.62195472 0.04027120
6
MD Step 45
C  -0.32891850 -0.56756534 -0.00690386
H  0.16054440 -1.51632704 0.04357488
H  -1.38740797 -0.64479460 0.04348722
C  0.32697821 0.56907941 -0.00696248
H  -0.14879327 1.52437329 0.03919998
H  1.39877737 0.61870660 0.03896965
6
MD Step 46
C  -0.32905190 -0.56759837 -0.00663208
H  0.15834782 -1.51765805 0.04213589
H  -1.38614181 -0.64708803 0.04196925
C  0.32724030 0.56964128 -0.00674658
H  -0.15354071 1.52503324 0.03773582
H  1.40292180 0.61536950 0.03757955
6
MD Step 47
C  -0.32917552 -0.56765147 -0.00633545
H  0.15637521 -1.51929362 0.04055243
H  -1.38545856 -0.64929638 0.04031519
C  0.32753866 0.57023889 -0.00650804
H  -0.15856534 1.52585325 0.03613201
H  1.40715356 0.61190498 0.03604387
6
MD Step 48
C  -0.32929380 -0.56773119 -0.00602176
H  0.15467258 -1.52117999 0.03886729
H  -1.38533736 -0.65136993 0.03856787
C  0.32786838 0.57086544 -0.00625348
H  -0.16377944 1.52683033 0.03443129
H  1.41142955 0.60837179 0.03440562
6
MD Step 49
C  -0.32941087 -0.56784343 -0.00569773
H  0.15327578 -1.52326318 0.03711743
H  -1.38574992 -0.65326491 0.03676421
C  0.32822513 0.57151514 -0.00598861
H  -0.16909868 1.52795231 0.03267084
H  1.41570206 0.60482358 0.03270224
6
MD Step 50
C  -0.32952202 -0.56798508 -0.00536011
H  0.15216116 -1.52553961 0.03528493
H  -1.38671093 -0.65499394 0.03488674
C  0.32861343 0.57219165 -0.00571048
H  -0.17449311 1.52914893 0.03083153
H  1.41986968 0.60125906 0.03091427
6
MD Step 51
C  -0.32962791 -0.56815786 -0.00501056
H  0.15132844 -1.52797336 0.03337900
H  -1.38819481 -0.65654231 0.03294448
C  0.32903276 0.57289388 -0.00542049
H  -0.17990450 1.53037649 0.02892235
H  1.42386264 0.59770463 0.02905090
6
MD Step 52
C  -0.32972842 -0.56836228 -0.00464927
H  0.15076575 -1.53053253 0.03140102
H  -1.39017199 -0.65790385 0.03093841
C  0.32948344 0.57362191 -0.00511886
H  -0.18528286 1.53158355 0.02694435
H  1.42760832 0.59417889 0.02711350
6
MD Step 53
C  -0.32982333 -0.56859825 -0.00427568
H  0.15045370 -1.53318620 0.02934824
H  -1.39260612 -0.65907722 0.02886516
C  0.32996596 0.57437630 -0.00480514
H  -0.19058346 1.53271582 0.02489447
H  1.43103625 0.59069616 0.02509942
6
MD Step 54
C  -0.32991071 -0.56886357 -0.00388693
H  0.15035745 -1.53591381 0.02720551
H  -1.39546375 -0.66007456 0.02670886
C  0.33048238 0.57515943 -0.00447697
H  -0.19577615 1.53370878 0.02275683
H  1.43407048 0.58725796 0.02299325
6
MD Step 55
C  -0.33000062 -0.56916721 -0.00349223
H  0.15050677 -1.53862569 0.02502406
H  -1.39863547 -0.66084072 0.02451959
C  0.33102300 0.57596181 -0.00414262
H  -0.20076524 1.53456905 0.02058454
H  1.43671126 0.58393263 0.02084889
6
MD Step 56
C  -0.33008406 -0.56949909 -0.00308058
H  0.15081700 -1.54134512 0.02274394
H  -1.40211916 -0.66143568 0.02223659
C  0.33159640 0.57679278 -0.00379257
H  -0.20557214 1.53519376 0.01831546
H  1.43885319 0.58067523 0.01860465
6
MD Step 57
C  -0.33017325 -0.56986946 -0.00266290
H  0.15132434 -1.54397238 0.02042628
H  -1.40578456 -0.66179641 0.01991986
C  0.33219020 0.57764031 -0.00343675
H  -0.21009785 1.53560843 0.01601292
H  1.44052402 0.57756268 0.01632461
6
MD Step 58
C  -0.33027064 -0.57027855 -0.00223988
H  0.15200656 -1.54646692 0.01807546
H  -1.40955691 -0.66191933 0.01757286
C  0.33280114 0.57850167 -0.00307597
H  -0.21430558 1.53578589 0.01368152
H  1.44170235 0.57461349 0.01401395
6
MD Step 59
C  -0.33037631 -0.57072401 -0.00180984
H  0.15282769 -1.54880382 0.01568283
H  -1.41337447 -0.66181580 0.01518608
C  0.33342772 0.57937594 -0.00270890
H  -0.21817636 1.53569114 0.01131229
H  1.44236236 0.57183181 0.01166421
6
MD Step 60
C  -0.33049285 -0.57120559 -0.00137383
H  0.15376705 -1.55094546 0.01325507
H  -1.41716103 -0.66148303 0.01276549
C  0.33406545 0.58025908 -0.00233673
H  -0.22168038 1.53531075 0.00891200
H  1.44250311 0.56923603 0.00928261
6
MD Step 61
C  -0.33062959 -0.57172935 -0.00094018
H  0.15484485 -1.55281685 0.01083902
H  -1.42080221 -0.66087869 0.01035738
C  0.33470268 0.58113964 -0.00196709
H  -0.22475165 1.53467835 0.00652892
H  1.44217386 0.56688391 0.00691776
6
MD Step 62
C  -0.33078318 -0.57228876 -0.00050446
H  0.15601022 -1.55441957 0.00841055
H  -1.42426047 -0.66003490 0.00793717
C  0.33533942 0.58201795 -0.00159610
H  -0.22740199 1.53376138 0.00413784
H  1.44135989 0.56475982 0.00454470
6
MD Step 63
C  -0.33095487 -0.57288160 -0.00006741
H  0.15724229 -1.55573054 0.00597421
H  -1.42747442 -0.65895606 0.00550916
C  0.33597054 0.58288897 -0.00122450
H  -0.22961918 1.53256280 0.00174309
H  1.44008443 0.56287567 0.00216791
6
MD Step 64
C  -0.33114178 -0.57350142 0.00037408
H  0.15849961 -1.55675350 0.00351294
H  -1.43041079 -0.65767030 0.00305613
C  0.33659430 0.58375096 -0.00084949
H  -0.23141845 1.53106997 -0.00067345
H  1.43835720 0.56121998 -0.00023068
6
MD Step 65
C  -0.33134554 -0.57414608 0.00081802
H  0.15977125 -1.55746799 0.00103832
H  -1.43301370 -0.65617792 0.00058971
C  0.33720386 0.58459683 -0.00047291
H  -0.23279112 1.52930585 -0.00310048
H  1.43622560 0.55980868 -0.00263987
6
MD Step 66
C  -0.33156721 -0.57481282 0.00126253
H  0.16104713 -1.55785952 -0.00143891
H  -1.43523538 -0.65448149 -0.00187923
C  0.33779235 0.58541928 -0.00009640
H  -0.23373476 1.52729883 -0.00552775
H  1.43374402 0.55865526 -0.00504964
6
MD Step 67
C  -0.33180433 -0.57549533 0.00170891
H  0.16230114 -1.55793691 -0.00392589
H  -1.43705388 -0.65260312 -0.00435757
C  0.33835578 0.58621377 0.00028131
H  -0.23427038 1.52506524 -0.00796353
H  1.43095585 0.55775364 -0.00746855
6
MD Step 68
C  -0.33206038 -0.57619316 0.00215193
H  0.16354662 -1.55767653 -0.00639269
H  -1.43841765 -0.65052834 -0.00681497
C  0.33888385 0.58696911 0.00065550
H  -0.23438630 1.52266480 -0.01037826
H  1.42794865 0.55713355 -0.00986756
6
MD Step 69
C  -0.33233619 -0.57690327 0.00258860
H  0.16478641 -1.55707279 -0.00882207
H  -1.43929645 -0.64825668 -0.00923369
C  0.33936844 0.58767611 0.00102352
H  -0.23408859 1.52014970 -0.01275552
H  1.42480212 0.55681039 -0.01223085
6
MD Step 70
C  -0.33263334 -0.57762344 0.00301470
H  0.16603273 -1.55611814 -0.01118979
H  -1.43966184 -0.64578159 -0.01158890
C  0.33980041 0.58832422 0.00138160
H  -0.23338063 1.51758390 -0.01507191
H  1.42160671 0.55680504 -0.01453576
6
MD Step 71
C  -0.33294237 -0.57834071 0.00343672
H  0.16723827 -1.55487227 -0.01353314
H  -1.43955668 -0.64315988 -0.01391757
C  0.34018122 0.58891337 0.00173615
H  -0.23233228 1.51497309 -0.01736700
H  1.41839234 0.55707495 -0.01682229
6
MD Step 72
C  -0.33326386 -0.57905215 0.00385060
H  0.16841925 -1.55333788 -0.01582866
H  -1.43897087 -0.64038736 -0.01619560
C  0.34050246 0.58943312 0.00208356
H  -0.23095532 1.51238790 -0.01961844
H  1.41525154 0.55763740 -0.01906888
6
MD Step 73
C  -0.33359587 -0.57975258 0.00425442
H  0.16958185 -1.55153428 -0.01806518
H  -1.43791524 -0.63747280 -0.01841126
C  0.34075822 0.58987525 0.00242226
H  -0.22927691 1.50988905 -0.02181650
H  1.41226346 0.55849604 -0.02126652
6
MD Step 74
C  -0.33393387 -0.58043450 0.00464850
H  0.17072137 -1.54949770 -0.02024457
H  -1.43642215 -0.63443859 -0.02056605
C  0.34094538 0.59023395 0.00275286
H  -0.22733968 1.50752550 -0.02396482
H  1.40949115 0.55964027 -0.02341936
6
MD Step 75
C  -0.33427852 -0.58109586 0.00502763
H  0.17186777 -1.54723495 -0.02233632
H  -1.43449931 -0.63127452 -0.02262875
C  0.34105601 0.59049826 0.00307053
H  -0.22515491 1.50537927 -0.02603404
H  1.40702575 0.56109097 -0.02549885
6
MD Step 76
C  -0.33462108 -0.58172567 0.00539569
H  0.17299951 -1.54480930 -0.02436310
H  -1.43221592 -0.62802435 -0.02462214
C  0.34109194 0.59066669 0.00337935
H  -0.22278829 1.50347764 -0.02804885
H  1.40489772 0.56281459 -0.02752959
6
MD Step 77
C  -0.33495863 -0.58231911 0.00575047
H  0.17413257 -1.54225009 -0.02631189
H  -1.42961216 -0.62469564 -0.02653292
C  0.34104986 0.59073227 0.00367737
H  -0.22026908 1.50188165 -0.02999751
H  1.40316541 0.56481262 -0.02950010
6
MD Step 78
C  -0.33528165 -0.58286526 0.00609610
H  0.17524663 -1.53962580 -0.02820715
H  -1.42677229 -0.62133361 -0.02838615
C  0.34093365 0.59069509 0.00396894
H  -0.21766322 1.50061089 -0.03190618
H  1.40183952 0.56704805 -0.03143584
6
MD Step 79
C  -0.33558546 -0.58335849 0.00643180
H  0.17635161 -1.53697603 -0.03004421
H  -1.42375616 -0.61795366 -0.03017747
C  0.34074322 0.59055114 0.00425345
H  -0.21500514 1.49970937 -0.03377127
H  1.40094966 0.56951248 -0.03333273
6
MD Step 80
C  -0.33586838 -0.58379662 0.00675382
H  0.17747610 -1.53432197 -0.03180039
H  -1.42060939 -0.61455249 -0.03188426
C  0.34047640 0.59029431 0.00452709
H  -0.21230819 1.49923300 -0.03557068
H  1.40053216 0.57221485 -0.03516838
6
MD Step 81
C  -0.33612594 -0.58417523 0.00706118
H  0.17863247 -1.53170032 -0.03346936
H  -1.41739708 -0.61114273 -0.03350077
C  0.34013471 0.58992233 0.00478880
H  -0.20959845 1.49921355 -0.03729851
H  1.40059449 0.57514698 -0.03693605
6
MD Step 82
C  -0.33635050 -0.58448728 0.00735602
H  0.17981370 -1.52916541 -0.03506391
H  -1.41420534 -0.60775570 -0.03504115
C  0.33972379 0.58943739 0.00504073
H  -0.20691684 1.49965480 -0.03896781
H  1.40111226 0.57828067 -0.03864711
6
MD Step 83
C  -0.33653673 -0.58472849 0.00763847
H  0.18102447 -1.52675658 -0.03658451
H  -1.41110777 -0.60440954 -0.03650709
C  0.33924809 0.58884088 0.00528281
H  -0.20428696 1.50056339 -0.04057869
H  1.40206155 0.58159929 -0.04030014
6
MD Step 84
C  -0.33667999 -0.58489574 0.00790827
H  0.18227085 -1.52450743 -0.03802908
H  -1.40817371 -0.60111910 -0.03789789
C  0.33871237 0.58813510 0.00551449
H  -0.20172471 1.50193838 -0.04212827
H  1.40340976 0.58508784 -0.04189069
6
MD Step 85
C  -0.33677668 -0.58498736 0.00816457
H  0.18356086 -1.52244417 -0.03939210
H  -1.40546551 -0.59789498 -0.03920944
C  0.33812145 0.58732315 0.00573449
H  -0.19923726 1.50377191 -0.04360972
H  1.40511763 0.58873386 -0.04341035
6
MD Step 86
C  -0.33682902 -0.58500780 0.00840156
H  0.18493223 -1.52055691 -0.04063644
H  -1.40300880 -0.59471531 -0.04040480
C  0.33747544 0.58640418 0.00593585
H  -0.19679490 1.50607742 -0.04498395
H  1.40716872 0.59255548 -0.04481982
6
MD Step 87
C  -0.33683573 -0.58495834 0.00861732
H  0.18639625 -1.51885557 -0.04174927
H  -1.40084756 -0.59158199 -0.04147218
C  0.33677905 0.58538285 0.00611581
H  -0.19438742 1.50883375 -0.04623588
H  1.40951416 0.59654537 -0.04610303
6
MD Step 88
C  -0.33679164 -0.58483659 0.00881417
H  0.18793503 -1.51737223 -0.04274462
H  -1.39904554 -0.58852333 -0.04242785
C  0.33604189 0.58426965 0.00627634
H  -0.19202709 1.51198317 -0.04737701
H  1.41207165 0.60066801 -0.04726948
6
MD Step 89
C  -0.33669348 -0.58464217 0.00899338
H  0.18953475 -1.51612718 -0.04362996
H  -1.39765087 -0.58556040 -0.04328112
C  0.33527276 0.58307522 0.00641822
H  -0.18971578 1.51546609 -0.04841188
H  1.41476128 0.60489339 -0.04832212
6
MD Step 90
C  -0.33653774 -0.58437446 0.00915722
H  0.19117208 -1.51514230 -0.04441966
H  -1.39670822 -0.58272059 -0.04404854
C  0.33448180 0.58181241 0.00654350
H  -0.18745927 1.51920880 -0.04935167
H  1.41749401 0.60918345 -0.04927039
6
MD Step 91
C  -0.33632604 -0.58403789 0.00930409
H  0.19284607 -1.51440901 -0.04510308
H  -1.39622562 -0.58000563 -0.04472012
C  0.33367499 0.58049085 0.00664969
H  -0.18523618 1.52315702 -0.05018243
H  1.42020578 0.61352429 -0.05010010
6
MD Step 92
C  -0.33605733 -0.58363407 0.00943576
H  0.19453118 -1.51393562 -0.04569172
H  -1.39622130 -0.57743883 -0.04530883
C  0.33286198 0.57912462 0.00673835
H  -0.18304585 1.52723019 -0.05091226
H  1.42281191 0.61787902 -0.05081834
6
MD Step 93
C  -0.33573001 -0.58316381 0.00955537
H  0.19619018 -1.51373485 -0.04620654
H  -1.39671047 -0.57505221 -0.04583726
C  0.33205388 0.57772999 0.00681282
H  -0.18089645 1.53133589 -0.05155866
H  1.42522164 0.62220081 -0.05144137
6
MD Step 94
C  -0.33534594 -0.58263108 0.00966380
H  0.19779799 -1.51380033 -0.04665427
H  -1.39768150 -0.57286293 -0.04631289
C  0.33125919 0.57632120 0.00687397
H  -0.17878216 1.53539526 -0.05212512
H  1.42736344 0.62645672 -0.05197226
6
MD Step 95
C  -0.33491732 -0.58204999 0.00975353
H  0.19938394 -1.51406516 -0.04698516
H  -1.39905457 -0.57083138 -0.04668320
C  0.33047664 0.57490332 0.00691226
H  -0.17664223 1.53938640 -0.05255965
H  1.42922813 0.63067006 -0.05236201
6
MD Step 96
C  -0.33444255 -0.58142038 0.00983019
H  0.20088814 -1.51454710 -0.04723804
H  -1.40082797 -0.56900512 -0.04698859
C  0.32971947 0.57349616 0.00693458
H  -0.17450496 1.54320143 -0.05289797
H  1.43072516 0.63477597 -0.05264488
6
MD Step 97
C  -0.33393291 -0.58075482 0.00988854
H  0.20232239 -1.51518827 -0.04737871
H  -1.40291810 -0.56735860 -0.04719240
C  0.32898831 0.57210728 0.00693443
H  -0.17232850 1.54680845 -0.05310432
H  1.43184424 0.63878271 -0.05278755
6
MD Step 98
C  -0.33339734 -0.58006326 0.00992601
H  0.20368047 -1.51594642 -0.04739088
H  -1.40525204 -0.56588319 -0.04727652
C  0.32828634 0.57074690 0.00690866
H  -0.17009101 1.55016232 -0.05316105
H  1.43256534 0.64268129 -0.05277405
6
MD Step 99
C  -0.33284469 -0.57935536 0.00994055
H  0.20495321 -1.51678115 -0.04726142
H  -1.40775507 -0.56457259 -0.04722586
C  0.32761683 0.56942531 0.00685477
H  -0.16777646 1.55322012 -0.05305419
H  1.43287353 0.64646034 -0.05259213
6
MD Step 100
C  -0.33227741 -0.57863407 0.00993608
H  0.20609141 -1.51769209 -0.04701839
H  -1.41039004 -0.56346001 -0.04706837
C  0.32698946 0.56815901 0.00677797
H  -0.16541193 1.55590456 -0.05281023
H  1.43272191 0.65006864 -0.05226810
6
MD Step 101
C  -0.33170497 -0.57790931 0.00991048
H  0.20708816 -1.51863768 -0.04664836
H  -1.41307684 -0.56253678 -0.04678842
C  0.32640638 0.56695689 0.00667584
H  -0.16298676 1.55818650 -0.05241579
H  1.43211368 0.65349743 -0.05179041
6
MD Step 102
C  -0.33113225 -0.57718621 0.00986574
H  0.20790993 -1.51960498 -0.04616645
H  -1.41576338 -0.56182102 -0.04640021
C  0.32587389 0.56583162 0.00655134
H  -0.16052112 1.56001642 -0.05188553
H  1.43103332 0.65671124 -0.05117429
6
MD Step 103
C  -0.33057076 -0.57647658 0.00979798
H  0.20856575 -1.52054157 -0.04554666
H  -1.41835822 -0.56128945 -0.04587507
C  0.32539079 0.56478817 0.00639988
H  -0.15799810 1.56139346 -0.05119494
H  1.42951521 0.65971700 -0.05039756
6
MD Step 104
C  -0.33002373 -0.57578368 0.00971052
H  0.20901787 -1.52144563 -0.04481281
H  -1.42082196 -0.56096612 -0.04523613
C  0.32496350 0.56383852 0.00622610
H  -0.15545224 1.56227641 -0.05036787
H  1.42755419 0.66247428 -0.04948446
6
MD Step 105
C  -0.32949672 -0.57511310 0.00960436
H  0.20924677 -1.52230168 -0.04397291
H  -1.42310331 -0.56085826 -0.04449022
C  0.32459507 0.56299086 0.00603182
H  -0.15290541 1.56264855 -0.04941324
H  1.42517015 0.66496043 -0.04844483
6
MD Step 106
C  -0.32900042 -0.57447568 0.00947566
H  0.20926957 -1.52306301 -0.04300070
H  -1.42512212 -0.56093846 -0.04360882
C  0.32428206 0.56224651 0.00581253
H  -0.15034907 1.56253573 -0.04830767
H  1.42242573 0.66718887 -0.04725737
6
MD Step 107
C  -0.32853432 -0.57387069 0.00933017
H  0.20904081 -1.52375094 -0.04193659
H  -1.42686965 -0.56124267 -0.04263233
C  0.32403141 0.56161630 0.00557606
H  -0.14784182 1.56190774 -0.04709169
H  1.41932737 0.66910962 -0.04596253
6
MD Step 108
C  -0.32810726 -0.57330705 0.00916480
H  0.20857866 -1.52432957 -0.04075964
H  -1.42828313 -0.56174588 -0.04153816
C  0.32383903 0.56109965 0.00531900
H  -0.14538520 1.56080352 -0.04574754
H  1.41595008 0.67073571 -0.04454414
6
MD Step 109
C  -0.32772508 -0.57279052 0.00897870
H  0.20788970 -1.52478106 -0.03946406
H  -1.42932178 -0.56243648 -0.04031951
C  0.32370258 0.56069703 0.00504074
H  -0.14299767 1.55925612 -0.04427226
H  1.41236197 0.67206775 -0.04300026
6
MD Step 110
C  -0.32739117 -0.57232439 0.00877258
H  0.20697318 -1.52510156 -0.03805492
H  -1.42996317 -0.56331207 -0.03898092
C  0.32362084 0.56040925 0.00474267
H  -0.14071008 1.55729665 -0.04267333
H  1.40862752 0.67309813 -0.04133901
6
MD Step 111
C  -0.32711109 -0.57191418 0.00854469
H  0.20584914 -1.52527356 -0.03651959
H  -1.43017568 -0.56435204 -0.03750901
C  0.32358896 0.56023285 0.00442293
H  -0.13853794 1.55498156 -0.04094175
H  1.40483424 0.67383912 -0.03955223
6
MD Step 112
C  -0.32687747 -0.57155211 0.00830432
H  0.20446639 -1.52535716 -0.03492126
H  -1.43001037 -0.56560787 -0.03596777
C  0.32361418 0.56017526 0.00409341
H  -0.13657114 1.55230107 -0.03914049
H  1.40100052 0.67423079 -0.03770223
6
MD Step 113
C  -0.32669675 -0.57124462 0.00804755
H  0.20286569 -1.52532754 -0.03323294
H  -1.42943758 -0.56704258 -0.03432970
C  0.32368809 0.56022796 0.00374970
H  -0.13481338 1.54934059 -0.03724681
H  1.39723653 0.67430445 -0.03576691
6
MD Step 114
C  -0.32657384 -0.57099669 0.00777123
H  0.20108624 -1.52516786 -0.03143235
H  -1.42844051 -0.56862281 -0.03257227
C  0.32380261 0.56038197 0.00338817
H  -0.13327345 1.54618699 -0.03524259
H  1.39364974 0.67408900 -0.03372848
6
MD Step 115
C  -0.32649835 -0.57079753 0.00748561
H  0.19908105 -1.52495304 -0.02958767
H  -1.42709955 -0.57040186 -0.03076466
C  0.32396452 0.56064187 0.00302141
H  -0.13204746 1.54284379 -0.03319571
H  1.39025920 0.67352625 -0.03165389
6
MD Step 116
C  -0.32646917 -0.57064600 0.00719177
H  0.19686677 -1.52470010 -0.02770519
H  -1.42544169 -0.57237211 -0.02891356
C  0.32416998 0.56100119 0.00265087
H  -0.13117096 1.53937895 -0.03111490
H  1.38714308 0.67262102 -0.02955153
6
MD Step 117
C  -0.32648866 -0.57054465 0.00688688
H  0.19448786 -1.52440308 -0.02576536
H  -1.42347541 -0.57449994 -0.02699976
C  0.32441071 0.56144843 0.00227339
H  -0.13065314 1.53588835 -0.02898404
H  1.38440161 0.67140546 -0.02740489
6
MD Step 118
C  -0.32655795 -0.57049486 0.00656869
H  0.19198734 -1.52406171 -0.02375222
H  -1.42121973 -0.57675456 -0.02500784
C  0.32467909 0.56197202 0.00188637
H  -0.13050458 1.53246507 -0.02679023
H  1.38212563 0.66990966 -0.02520047
6
MD Step 119
C  -0.32667205 -0.57049188 0.00624002
H  0.18937651 -1.52371086 -0.02168374
H  -1.41873372 -0.57913756 -0.02295659
C  0.32497338 0.56256551 0.00149322
H  -0.13076579 1.52916782 -0.02455264
H  1.38036442 0.66813148 -0.02295653
6
MD Step 120
C  -0.32683286 -0.57053821 0.00589663
H  0.18671395 -1.52334119 -0.01953147
H  -1.41603666 -0.58160487 -0.02081825
C  0.32528443 0.56321469 0.00108907
H  -0.13142838 1.52609777 -0.02224559
H  1.37920228 0.66611563 -0.02064654
6
MD Step 121
C  -0.32703436 -0.57062844 0.00554126
H  0.18401440 -1.52298903 -0.01731231
H  -1.41319821 -0.58415642 -0.01861061
C  0.32561116 0.56391281 0.00067697
H  -0.13252346 1.52330631 -0.01988665
H  1.37866615 0.66386271 -0.01828706
6
MD Step 122
C  -0.32726712 -0.57075387 0.00517942
H  0.18127555 -1.52270869 -0.01506099
H  -1.41031005 -0.58680937 -0.01636930
C  0.32595606 0.56465633 0.00026301
H  -0.13409412 1.52082026 -0.01751030
H  1.37875131 0.66135627 -0.01591157
6
MD Step 123
C  -0.32753028 -0.57091473 0.00480808
H  0.17854935 -1.52250015 -0.01275751
H  -1.40741249 -0.58952717 -0.01407506
C  0.32631298 0.56543312 -0.00015631
H  -0.13612371 1.51871174 -0.01509767
H  1.37949231 0.65863467 -0.01350038
6
MD Step 124
C  -0.32782063 -0.57110906 0.00442612
H  0.17587497 -1.52237492 -0.01039446
H  -1.40456011 -0.59228553 -0.01172119
C  0.32667851 0.56623377 -0.00058229
H  -0.13860100 1.51703024 -0.01264176
H  1.38089571 0.65572428 -0.01104578
6
MD Step 125
C  -0.32813246 -0.57133250 0.00403464
H  0.17327706 -1.52235682 -0.00797832
H  -1.40182178 -0.59507390 -0.00931475
C  0.32705216 0.56705193 -0.00101389
H  -0.14152100 1.51579998 -0.01014877