 Entering Gaussian System, Link 0=g16
 Initial command:
 /software/gaussian/g16-c01/avx/g16/l1.exe "/gpfs/fs2/scratch/bweight/software/many_molecule_many_mode_NAMD/src/NAMD/TEST_OUTPUT/G16/TD_NEW_S1/Gau-9118.inp" -scrdir="/gpfs/fs2/scratch/bweight/software/many_molecule_many_mode_NAMD/src/NAMD/TEST_OUTPUT/G16/TD_NEW_S1/"
 Entering Link 1 = /software/gaussian/g16-c01/avx/g16/l1.exe PID=      9119.
  
 Copyright (c) 1988-2019, Gaussian, Inc.  All Rights Reserved.
  
 This is part of the Gaussian(R) 16 program.  It is based on
 the Gaussian(R) 09 system (copyright 2009, Gaussian, Inc.),
 the Gaussian(R) 03 system (copyright 2003, Gaussian, Inc.),
 the Gaussian(R) 98 system (copyright 1998, Gaussian, Inc.),
 the Gaussian(R) 94 system (copyright 1995, Gaussian, Inc.),
 the Gaussian 92(TM) system (copyright 1992, Gaussian, Inc.),
 the Gaussian 90(TM) system (copyright 1990, Gaussian, Inc.),
 the Gaussian 88(TM) system (copyright 1988, Gaussian, Inc.),
 the Gaussian 86(TM) system (copyright 1986, Carnegie Mellon
 University), and the Gaussian 82(TM) system (copyright 1983,
 Carnegie Mellon University). Gaussian is a federally registered
 trademark of Gaussian, Inc.
  
 This software contains proprietary and confidential information,
 including trade secrets, belonging to Gaussian, Inc.
  
 This software is provided under written license and may be
 used, copied, transmitted, or stored only in accord with that
 written license.
  
 The following legend is applicable only to US Government
 contracts under FAR:
  
                    RESTRICTED RIGHTS LEGEND
  
 Use, reproduction and disclosure by the US Government is
 subject to restrictions as set forth in subparagraphs (a)
 and (c) of the Commercial Computer Software - Restricted
 Rights clause in FAR 52.227-19.
  
 Gaussian, Inc.
 340 Quinnipiac St., Bldg. 40, Wallingford CT 06492
  
  
 ---------------------------------------------------------------
 Warning -- This program may not be used in any manner that
 competes with the business of Gaussian, Inc. or will provide
 assistance to any competitor of Gaussian, Inc.  The licensee
 of this program is prohibited from giving any competitor of
 Gaussian, Inc. access to this program.  By using this program,
 the user acknowledges that Gaussian, Inc. is engaged in the
 business of creating and licensing software in the field of
 computational chemistry and represents and warrants to the
 licensee that it is not a competitor of Gaussian, Inc. and that
 it will not use this program in any manner prohibited above.
 ---------------------------------------------------------------
  

 Cite this work as:
 Gaussian 16, Revision C.01,
 M. J. Frisch, G. W. Trucks, H. B. Schlegel, G. E. Scuseria, 
 M. A. Robb, J. R. Cheeseman, G. Scalmani, V. Barone, 
 G. A. Petersson, H. Nakatsuji, X. Li, M. Caricato, A. V. Marenich, 
 J. Bloino, B. G. Janesko, R. Gomperts, B. Mennucci, H. P. Hratchian, 
 J. V. Ortiz, A. F. Izmaylov, J. L. Sonnenberg, D. Williams-Young, 
 F. Ding, F. Lipparini, F. Egidi, J. Goings, B. Peng, A. Petrone, 
 T. Henderson, D. Ranasinghe, V. G. Zakrzewski, J. Gao, N. Rega, 
 G. Zheng, W. Liang, M. Hada, M. Ehara, K. Toyota, R. Fukuda, 
 J. Hasegawa, M. Ishida, T. Nakajima, Y. Honda, O. Kitao, H. Nakai, 
 T. Vreven, K. Throssell, J. A. Montgomery, Jr., J. E. Peralta, 
 F. Ogliaro, M. J. Bearpark, J. J. Heyd, E. N. Brothers, K. N. Kudin, 
 V. N. Staroverov, T. A. Keith, R. Kobayashi, J. Normand, 
 K. Raghavachari, A. P. Rendell, J. C. Burant, S. S. Iyengar, 
 J. Tomasi, M. Cossi, J. M. Millam, M. Klene, C. Adamo, R. Cammi, 
 J. W. Ochterski, R. L. Martin, K. Morokuma, O. Farkas, 
 J. B. Foresman, and D. J. Fox, Gaussian, Inc., Wallingford CT, 2019.
 
 ******************************************
 Gaussian 16:  ES64L-G16RevC.01  3-Jul-2019
                30-Dec-2022 
 ******************************************
 %oldchk=../GS_NEW/geometry.chk
 %chk=geometry.chk
 %nprocshared=1
 Will use up to    1 processors via shared memory.
 %mem=5GB
 Copying data from "../GS_NEW/geometry.chk" to current chk file "geometry.chk"
 IOpt=  2 FromEx=T IUOpen= 4 IOptOp= 5 NList=   0 IFRang= 0 IUIn= 4 IUOut= 2.
 ----------------------------------------------------------------------
 # B3LYP/6-31G* SCF=XQC TD=(singlets,nstates=2,root=1) FORCE nosym pop=
 full guess=read
 ----------------------------------------------------------------------
 1/10=7,30=1,38=1/1,3;
 2/12=2,15=1,17=6,18=5,40=1/2;
 3/5=1,6=6,7=1,11=9,25=1,30=1,71=1,74=-5,116=-2/1,2,3,8;
 4/5=1/1;
 5/5=2,8=3,13=1,38=6/2,8;
 8/6=1,10=2,107=1,108=2/1;
 9/8=1,15=2,41=2,42=1,48=1,70=2/14;
 10/5=4,28=1,31=1/2;
 6/7=3,18=1/1;
 7/12=6,13=5,14=1,29=1,30=1/1,2,3,16;
 1/10=7,30=1/3;
 99//99;
 -----------
 MD Step 123
 -----------
 Symbolic Z-matrix:
 Charge =  0 Multiplicity = 1
 Li                    1.02989   1.02954   0.81917 
 F                     0.61747   0.61756   4.69451 
 

 GradGradGradGradGradGradGradGradGradGradGradGradGradGradGradGradGradGrad
 Berny optimization.
 Initialization pass.
 Trust Radius=3.00D-01 FncErr=1.00D-07 GrdErr=1.00D-07 EigMax=2.50D+02 EigMin=1.00D-04
 Number of steps in this run=      2 maximum allowed number of steps=      2.
 GradGradGradGradGradGradGradGradGradGradGradGradGradGradGradGradGradGrad

                          Input orientation:                          
 ---------------------------------------------------------------------
 Center     Atomic      Atomic             Coordinates (Angstroms)
 Number     Number       Type             X           Y           Z
 ---------------------------------------------------------------------
      1          3           0        1.029887    1.029538    0.819165
      2          9           0        0.617469    0.617561    4.694513
 ---------------------------------------------------------------------
 Symmetry turned off by external request.
 Stoichiometry    FLi
 Framework group  C*V[C*(LiF)]
 Deg. of freedom     1
 Full point group                 C*V     NOp   4
 Rotational constants (GHZ):           0.0000000           6.4222265           6.4222265
 Standard basis: 6-31G(d) (6D, 7F)
    30 basis functions,    56 primitive gaussians,    30 cartesian basis functions
     6 alpha electrons        6 beta electrons
       nuclear repulsion energy         3.6458233024 Hartrees.
 NAtoms=    2 NActive=    2 NUniq=    2 SFac= 1.00D+00 NAtFMM=   60 NAOKFM=F Big=F
 Integral buffers will be    131072 words long.
 Regular integral format.
 Two-electron integral symmetry is turned off.
 One-electron integrals computed using PRISM.
 NBasis=    30 RedAO= T EigKep=  7.03D-03  NBF=    30
 NBsUse=    30 1.00D-06 EigRej= -1.00D+00 NBFU=    30
 Initial guess from the checkpoint file:  "geometry.chk"
 B after Tr=     0.000000    0.000000    0.000000
         Rot=    1.000000    0.000000    0.000000    0.000000 Ang=   0.00 deg.
 Keep R1 ints in memory in canonical form, NReq=972176.
 Requested convergence on RMS density matrix=1.00D-08 within  32 cycles.
 Requested convergence on MAX density matrix=1.00D-06.
 Requested convergence on             energy=1.00D-06.
 No special actions if energy rises.
 SCF Done:  E(RB3LYP) =  -107.237245484     A.U. after    1 cycles
            NFock=  1  Conv=0.56D-09     -V/T= 2.0064
 QCSCF skips out because SCF is already converged.
 DoSCS=F DFT=T ScalE2(SS,OS)=  1.000000  1.000000
 ExpMin= 3.60D-02 ExpMax= 7.00D+03 ExpMxC= 1.05D+03 IAcc=3 IRadAn=         5 AccDes= 0.00D+00
 HarFok:  IExCor=  205 AccDes= 0.00D+00 IRadAn=         5 IDoV=-2 UseB2=F ITyADJ=14
 ICtDFT= 12500011 ScaDFX=  1.000000  1.000000  1.000000  1.000000
 Range of M.O.s used for correlation:     3    30
 NBasis=    30 NAE=     6 NBE=     6 NFC=     2 NFV=     0
 NROrb=     28 NOA=     4 NOB=     4 NVA=    24 NVB=    24

 **** Warning!!: The smallest alpha delta epsilon is  0.43225830D-01

 Keep R1, R2, and R3 ints in memory in canonical form, NReq=1252301.
     8 initial guesses have been made.
 Convergence on wavefunction:    0.000001000000000
 Iteration     1 Dimension     8 NMult     0 NNew      8
 CISAX will form     8 AO SS matrices at one time.
 New state      1 was old state      2
 New state      2 was old state      3
 Iteration     2 Dimension    12 NMult     8 NNew      4
 New state      1 was old state      2
 New state      2 was old state      1
 Iteration     3 Dimension    16 NMult    12 NNew      4
 Iteration     4 Dimension    20 NMult    16 NNew      4
 Iteration     5 Dimension    24 NMult    20 NNew      4
 Iteration     6 Dimension    28 NMult    24 NNew      4
 Iteration     7 Dimension    32 NMult    28 NNew      4
 Iteration     8 Dimension    36 NMult    32 NNew      4
 Iteration     9 Dimension    40 NMult    36 NNew      4
 Iteration    10 Dimension    44 NMult    40 NNew      4
 Iteration    11 Dimension    48 NMult    44 NNew      4
 Iteration    12 Dimension    52 NMult    48 NNew      4
 Iteration    13 Dimension    56 NMult    52 NNew      4
 Iteration    14 Dimension    60 NMult    56 NNew      4
 Iteration    15 Dimension    64 NMult    60 NNew      4
 Iteration    16 Dimension    66 NMult    64 NNew      2
 Iteration    17 Dimension    68 NMult    66 NNew      2
 Iteration    18 Dimension    70 NMult    68 NNew      2
 Iteration    19 Dimension    71 NMult    70 NNew      1
 Iteration    20 Dimension    73 NMult    71 NNew      2
 ***********************************************************************
 Excited states from <AA,BB:AA,BB> singles matrix:
 ***********************************************************************
 
 Ground to excited state transition densities written to RWF  633
 Ground to excited state transition electric dipole moments (Au):
       state          X           Y           Z        Dip. S.      Osc.
         1        -0.1051      0.1067      0.0002      0.0224      0.0001
         2         0.1055      0.1039      0.0223      0.0224      0.0001
 Ground to excited state transition velocity dipole moments (Au):
       state          X           Y           Z        Dip. S.      Osc.
         1        -0.0094      0.0095      0.0000      0.0002      0.0213
         2         0.0094      0.0093      0.0020      0.0002      0.0213
 Ground to excited state transition magnetic dipole moments (Au):
       state          X           Y           Z
         1        -0.5373     -0.5289     -0.0735
         2        -0.5308      0.5391      0.0005
 Ground to excited state transition velocity quadrupole moments (Au):
       state          XX          YY          ZZ          XY          XZ          YZ
         1        -0.0525      0.0533     -0.0002      0.0004      0.0604     -0.0612
         2         0.0527      0.0519     -0.0259      0.0523     -0.0551     -0.0541
 <0|del|b> * <b|rxdel|0> + <0|del|b> * <b|delr+rdel|0>
 Rotatory Strengths (R) in cgs (10**-40 erg-esu-cm/Gauss)
       state          XX          YY          ZZ    R(velocity)    E-M Angle
         1      -353.9154    353.8094      0.0974     -0.0029       90.00
         2       353.8495   -353.7566     -0.1250     -0.0107       90.00
 1/2[<0|r|b>*<b|rxdel|0> + (<0|rxdel|b>*<b|r|0>)*]
 Rotatory Strengths (R) in cgs (10**-40 erg-esu-cm/Gauss)
       state          XX          YY          ZZ     R(length)
         1       -39.9255     39.9160      0.0084     -0.0004
         2        39.6146    -39.6068     -0.0081     -0.0001
  1/2[<0|del|b>*<b|r|0> + (<0|r|b>*<b|del|0>)*] (Au)
       state          X           Y           Z        Dip. S.   Osc.(frdel)
         1         0.0010      0.0010      0.0000     -0.0020     -0.0013
         2         0.0010      0.0010      0.0000     -0.0020     -0.0013

 Excitation energies and oscillator strengths:
 
 Excited state symmetry could not be determined.
 Excited State   1:      Singlet-?Sym    0.1528 eV 8113.70 nm  f=0.0001  <S**2>=0.000
       4 ->  7        -0.75624
       4 -> 10        -0.10259
       4 <-  7         0.28054
 This state for optimization and/or second-order correction.
 Total Energy, E(TD-HF/TD-DFT) =  -107.231629878    
 Copying the excited state density for this state as the 1-particle RhoCI density.
 
 Excited state symmetry could not be determined.
 Excited State   2:      Singlet-?Sym    0.1528 eV 8113.69 nm  f=0.0001  <S**2>=0.000
       5 ->  7        -0.75624
       5 -> 10        -0.10259
       5 <-  7         0.28054
 SavETr:  write IOETrn=   770 NScale= 10 NData=  16 NLR=1 NState=    2 LETran=      46.
          IDoAtm=11
          Differentiating once with respect to electric field.
                with respect to dipole field.
          Differentiating once with respect to nuclear coordinates.
 Keep R1 ints in memory in canonical form, NReq=973697.
          There are     1 degrees of freedom in the 1st order CPHF.  IDoFFX=0 NUNeed=     1.
 LinEq1:  Iter=  0 NonCon=     1 RMS=1.92D+00 Max=2.25D+01 NDo=     1
 AX will form     1 AO Fock derivatives at one time.
 LinEq1:  Iter=  1 NonCon=     1 RMS=2.64D-01 Max=2.93D+00 NDo=     1
 LinEq1:  Iter=  2 NonCon=     1 RMS=3.99D-02 Max=2.67D-01 NDo=     1
 LinEq1:  Iter=  3 NonCon=     1 RMS=6.36D-03 Max=4.59D-02 NDo=     1
 LinEq1:  Iter=  4 NonCon=     1 RMS=8.37D-04 Max=7.75D-03 NDo=     1
 LinEq1:  Iter=  5 NonCon=     1 RMS=1.87D-04 Max=1.24D-03 NDo=     1
 LinEq1:  Iter=  6 NonCon=     1 RMS=2.33D-05 Max=1.31D-04 NDo=     1
 LinEq1:  Iter=  7 NonCon=     1 RMS=7.94D-07 Max=4.70D-06 NDo=     1
 LinEq1:  Iter=  8 NonCon=     1 RMS=4.58D-08 Max=2.90D-07 NDo=     1
 LinEq1:  Iter=  9 NonCon=     1 RMS=1.35D-08 Max=1.11D-07 NDo=     1
 LinEq1:  Iter= 10 NonCon=     1 RMS=1.57D-09 Max=9.45D-09 NDo=     1
 LinEq1:  Iter= 11 NonCon=     1 RMS=1.24D-10 Max=7.84D-10 NDo=     1
 LinEq1:  Iter= 12 NonCon=     0 RMS=5.64D-12 Max=2.41D-11 NDo=     1
 Linear equations converged to 1.000D-10 1.000D-09 after    12 iterations.
 End of Minotr F.D. properties file   721 does not exist.
 End of Minotr F.D. properties file   722 does not exist.
 End of Minotr F.D. properties file   788 does not exist.

 **********************************************************************

            Population analysis using the SCF Density.

 **********************************************************************

 Alpha  occ. eigenvalues --  -24.45609  -2.13775  -0.88966  -0.16658  -0.16658
 Alpha  occ. eigenvalues --   -0.16638
 Alpha virt. eigenvalues --   -0.12316  -0.04683  -0.04683  -0.02312   0.07557
 Alpha virt. eigenvalues --    0.08057   0.08057   0.12762   0.38733   0.38733
 Alpha virt. eigenvalues --    0.39167   0.39167   0.39415   1.04298   1.13216
 Alpha virt. eigenvalues --    1.36801   1.36801   1.38552   2.05163   2.05163
 Alpha virt. eigenvalues --    2.05263   2.06272   2.06272   3.62210
     Molecular Orbital Coefficients:
                           1         2         3         4         5
                           O         O         O         O         O
     Eigenvalues --   -24.45609  -2.13775  -0.88966  -0.16658  -0.16658
   1 1   Li 1S          0.00003   0.99849  -0.00181  -0.00000  -0.00001
   2        2S          0.00043   0.05287  -0.01578   0.00000   0.00002
   3        2PX        -0.00002   0.00025   0.00059   0.00953  -0.00960
   4        2PY        -0.00002   0.00025   0.00058  -0.00971  -0.00942
   5        2PZ         0.00019  -0.00235  -0.00550  -0.00002  -0.00202
   6        3S         -0.00041  -0.02456   0.01869   0.00000   0.00002
   7        3PX         0.00004  -0.00014  -0.00178  -0.05347   0.05388
   8        3PY         0.00004  -0.00014  -0.00178   0.05448   0.05287
   9        3PZ        -0.00038   0.00134   0.01676   0.00010   0.01136
  10        4XX        -0.00003  -0.00595   0.00087   0.00037  -0.00038
  11        4YY        -0.00003  -0.00595   0.00087  -0.00038  -0.00037
  12        4ZZ        -0.00009  -0.00609   0.00416   0.00001   0.00074
  13        4XY        -0.00000  -0.00000   0.00004  -0.00000  -0.00043
  14        4XZ         0.00001   0.00002  -0.00041  -0.00201   0.00198
  15        4YZ         0.00001   0.00002  -0.00041   0.00205   0.00194
  16 2   F  1S          0.99313  -0.00012  -0.23991   0.00000   0.00000
  17        2S          0.01984  -0.00063   0.50818  -0.00000  -0.00000
  18        2PX         0.00001   0.00000   0.00043  -0.45568   0.45919
  19        2PY         0.00001   0.00000   0.00043   0.46426   0.45053
  20        2PZ        -0.00009  -0.00003  -0.00401   0.00086   0.09671
  21        3S          0.01376   0.00213   0.57989  -0.00000  -0.00000
  22        3PX         0.00000  -0.00000   0.00027  -0.34764   0.35031
  23        3PY         0.00000  -0.00000   0.00027   0.35418   0.34370
  24        3PZ        -0.00001   0.00002  -0.00250   0.00066   0.07378
  25        4XX        -0.00765  -0.00044  -0.00186  -0.00023   0.00023
  26        4YY        -0.00765  -0.00044  -0.00186   0.00023   0.00023
  27        4ZZ        -0.00767  -0.00053   0.00289  -0.00000  -0.00046
  28        4XY        -0.00000  -0.00000   0.00006   0.00000   0.00026
  29        4XZ         0.00000   0.00001  -0.00059   0.00125  -0.00123
  30        4YZ         0.00000   0.00001  -0.00059  -0.00127  -0.00121
                           6         7         8         9        10
                           O         V         V         V         V
     Eigenvalues --    -0.16638  -0.12316  -0.04683  -0.04683  -0.02312
   1 1   Li 1S          0.08315  -0.16313   0.00000   0.00000  -0.03490
   2        2S         -0.24662   0.48362  -0.00000  -0.00000   0.34172
   3        2PX         0.00520   0.01987  -0.45097   0.45252  -0.07126
   4        2PY         0.00519   0.01985   0.45754   0.44588  -0.07118
   5        2PZ        -0.04882  -0.18669   0.00065   0.09556   0.66958
   6        3S         -0.25429   0.44319   0.00000   0.00000  -0.07543
   7        3PX         0.00551   0.01266  -0.28519   0.28617  -0.03381
   8        3PY         0.00551   0.01265   0.28935   0.28198  -0.03378
   9        3PZ        -0.05174  -0.11898   0.00041   0.06043   0.31772
  10        4XX         0.02672  -0.00670  -0.00308   0.00309   0.00909
  11        4YY         0.02672  -0.00670   0.00312   0.00304   0.00909
  12        4ZZ         0.01138  -0.01853  -0.00004  -0.00613  -0.06048
  13        4XY        -0.00020  -0.00016   0.00003   0.00354  -0.00092
  14        4XZ         0.00191   0.00147   0.01670  -0.01638   0.00865
  15        4YZ         0.00191   0.00147  -0.01694  -0.01613   0.00864
  16 2   F  1S         -0.00691   0.00095  -0.00000  -0.00000   0.01481
  17        2S          0.00934  -0.00337  -0.00000  -0.00000  -0.01615
  18        2PX        -0.05993  -0.02747   0.03229  -0.03240  -0.01741
  19        2PY        -0.05987  -0.02744  -0.03276  -0.03193  -0.01739
  20        2PZ         0.56354   0.25812  -0.00005  -0.00684   0.16359
  21        3S          0.03912  -0.00184   0.00000   0.00000  -0.09813
  22        3PX        -0.04595  -0.02126   0.02655  -0.02665  -0.01496
  23        3PY        -0.04591  -0.02124  -0.02694  -0.02625  -0.01494
  24        3PZ         0.43209   0.19977  -0.00004  -0.00563   0.14053
  25        4XX        -0.00253  -0.00036  -0.00009   0.00009   0.00976
  26        4YY        -0.00253  -0.00036   0.00009   0.00009   0.00976
  27        4ZZ        -0.00604  -0.00081  -0.00000  -0.00018   0.01090
  28        4XY        -0.00005  -0.00001   0.00000   0.00010   0.00002
  29        4XZ         0.00044   0.00006   0.00049  -0.00048  -0.00014
  30        4YZ         0.00043   0.00006  -0.00049  -0.00047  -0.00014
                          11        12        13        14        15
                           V         V         V         V         V
     Eigenvalues --     0.07557   0.08057   0.08057   0.12762   0.38733
   1 1   Li 1S          0.05835  -0.00000   0.00000   0.08080  -0.00000
   2        2S          2.03403  -0.00000   0.00001   2.51807  -0.00000
   3        2PX         0.12829  -1.09452  -1.07976  -0.09906  -0.00000
   4        2PY         0.12816   1.09195  -1.08238  -0.09896   0.00000
   5        2PZ        -1.20550  -0.00040  -0.22997   0.93085  -0.00000
   6        3S         -1.63297   0.00000  -0.00001  -2.06892   0.00000
   7        3PX        -0.13426   1.14941   1.13391   0.11667   0.00000
   8        3PY        -0.13412  -1.14671   1.13666   0.11655  -0.00000
   9        3PZ         1.26160   0.00042   0.24151  -1.09632   0.00000
  10        4XX        -0.20489  -0.00245  -0.00242  -0.23408  -0.85637
  11        4YY        -0.20489   0.00244  -0.00242  -0.23408   0.85641
  12        4ZZ        -0.17976   0.00001   0.00484  -0.23692  -0.00004
  13        4XY         0.00033  -0.00000  -0.00280  -0.00004  -0.00084
  14        4XZ        -0.00312   0.01330   0.01282   0.00035  -0.10532
  15        4YZ        -0.00312  -0.01327   0.01286   0.00035   0.10503
  16 2   F  1S          0.01057  -0.00000  -0.00000  -0.02964   0.00000
  17        2S          0.01562  -0.00000  -0.00000   0.01274   0.00000
  18        2PX         0.00108  -0.02514  -0.02480   0.00423  -0.00000
  19        2PY         0.00108   0.02508  -0.02486   0.00422   0.00000
  20        2PZ        -0.01011  -0.00001  -0.00528  -0.03971  -0.00000
  21        3S         -0.12879   0.00000   0.00000   0.26432  -0.00000
  22        3PX        -0.00023  -0.02493  -0.02459   0.00671   0.00000
  23        3PY        -0.00023   0.02487  -0.02465   0.00671  -0.00000
  24        3PZ         0.00215  -0.00001  -0.00524  -0.06309   0.00000
  25        4XX         0.01999   0.00001   0.00001  -0.02935  -0.00009
  26        4YY         0.01999  -0.00001   0.00001  -0.02935   0.00009
  27        4ZZ         0.01853  -0.00000  -0.00002  -0.02516  -0.00000
  28        4XY        -0.00002   0.00000   0.00001   0.00006  -0.00000
  29        4XZ         0.00018  -0.00005  -0.00005  -0.00052  -0.00001
  30        4YZ         0.00018   0.00005  -0.00005  -0.00052   0.00001
                          16        17        18        19        20
                           V         V         V         V         V
     Eigenvalues --     0.38733   0.39167   0.39167   0.39415   1.04298
   1 1   Li 1S         -0.00000  -0.00000  -0.00000  -0.00196   0.10743
   2        2S         -0.00001  -0.00000  -0.00000   0.00250   9.14444
   3        2PX         0.00000   0.03133   0.03196  -0.00595   0.00107
   4        2PY         0.00000   0.03161  -0.03169  -0.00595   0.00107
   5        2PZ        -0.00000   0.00670   0.00003   0.05592  -0.01002
   6        3S          0.00000   0.00000   0.00000   0.00864  -2.82261
   7        3PX         0.00000  -0.01498  -0.01528   0.00206  -0.00183
   8        3PY         0.00000  -0.01511   0.01515   0.00205  -0.00182
   9        3PZ         0.00000  -0.00320  -0.00002  -0.01932   0.01715
  10        4XX        -0.01030  -0.12685  -0.12937  -0.48162  -3.05103
  11        4YY        -0.00884  -0.12784   0.12813  -0.48165  -3.05103
  12        4ZZ         0.01916   0.25468   0.00125   0.96323  -3.05286
  13        4XY         0.98893  -0.14704  -0.00056   0.01911  -0.00002
  14        4XZ         0.10388   0.67240   0.70182  -0.17961   0.00023
  15        4YZ         0.10417   0.67852  -0.69595  -0.17942   0.00023
  16 2   F  1S          0.00000  -0.00000  -0.00000  -0.00356   0.01095
  17        2S          0.00000  -0.00000  -0.00000  -0.07297   0.24191
  18        2PX        -0.00000  -0.00549  -0.00560  -0.00517  -0.01618
  19        2PY        -0.00000  -0.00554   0.00555  -0.00516  -0.01616
  20        2PZ        -0.00000  -0.00117  -0.00001   0.04858   0.15201
  21        3S         -0.00000   0.00001   0.00000   0.14273  -0.43276
  22        3PX         0.00000   0.00159   0.00162   0.00090   0.01208
  23        3PY         0.00000   0.00161  -0.00161   0.00090   0.01206
  24        3PZ         0.00000   0.00034   0.00000  -0.00844  -0.11348
  25        4XX        -0.00000   0.00019   0.00019  -0.04259   0.10338
  26        4YY        -0.00000   0.00019  -0.00019  -0.04259   0.10338
  27        4ZZ         0.00000  -0.00039  -0.00000  -0.03406   0.14184
  28        4XY         0.00011   0.00022   0.00000   0.00011   0.00051
  29        4XZ         0.00001  -0.00101  -0.00106  -0.00106  -0.00478
  30        4YZ         0.00001  -0.00102   0.00105  -0.00106  -0.00478
                          21        22        23        24        25
                           V         V         V         V         V
     Eigenvalues --     1.13216   1.36801   1.36801   1.38552   2.05163
   1 1   Li 1S          0.04045  -0.00000  -0.00000   0.00657  -0.00000
   2        2S          1.79027  -0.00000  -0.00000   1.54095  -0.00003
   3        2PX        -0.01959  -0.02884   0.02917  -0.00050  -0.00336
   4        2PY        -0.01957   0.02950   0.02852  -0.00050  -0.00337
   5        2PZ         0.18412   0.00007   0.00614   0.00471  -0.00072
   6        3S         -0.79961   0.00000   0.00000  -0.36940   0.00001
   7        3PX         0.03586   0.04711  -0.04764  -0.01014   0.00956
   8        3PY         0.03582  -0.04817  -0.04657  -0.01012   0.00958
   9        3PZ        -0.33692  -0.00011  -0.01002   0.09524   0.00204
  10        4XX        -0.48474  -0.00102   0.00104  -0.56718  -0.00033
  11        4YY        -0.48474   0.00105   0.00101  -0.56718  -0.00033
  12        4ZZ        -0.56052  -0.00002  -0.00205  -0.49105   0.00068
  13        4XY        -0.00100   0.00001   0.00118   0.00101  -0.00039
  14        4XZ         0.00942   0.00556  -0.00550  -0.00946   0.00179
  15        4YZ         0.00941  -0.00568  -0.00537  -0.00945   0.00180
  16 2   F  1S         -0.09746  -0.00000  -0.00000   0.00661   0.00000
  17        2S         -1.91649   0.00000   0.00000   0.15106   0.00000
  18        2PX         0.00492   0.66564  -0.67327   0.09909  -0.00039
  19        2PY         0.00491  -0.68068  -0.65808   0.09899  -0.00039
  20        2PZ        -0.04622  -0.00152  -0.14161  -0.93115  -0.00008
  21        3S          3.73861  -0.00000   0.00000  -0.28759  -0.00000
  22        3PX        -0.00352  -0.72919   0.73755  -0.11020   0.00164
  23        3PY        -0.00352   0.74567   0.72091  -0.11008   0.00165
  24        3PZ         0.03309   0.00167   0.15512   1.03555   0.00035
  25        4XX        -0.89660  -0.00025   0.00026   0.05766  -0.12731
  26        4YY        -0.89660   0.00026   0.00025   0.05766  -0.12753
  27        4ZZ        -0.88574  -0.00001  -0.00051   0.07104   0.25483
  28        4XY         0.00014   0.00000   0.00029   0.00018  -0.14710
  29        4XZ        -0.00135   0.00138  -0.00136  -0.00166   0.67486
  30        4YZ        -0.00135  -0.00141  -0.00133  -0.00166   0.67681
                          26        27        28        29        30
                           V         V         V         V         V
     Eigenvalues --     2.05163   2.05263   2.06272   2.06272   3.62210
   1 1   Li 1S          0.00000  -0.00556   0.00000  -0.00000   0.01401
   2        2S          0.00000  -0.57697   0.00000  -0.00000   0.23743
   3        2PX        -0.00341   0.00397  -0.00000  -0.00000  -0.00948
   4        2PY         0.00340   0.00397  -0.00000   0.00000  -0.00947
   5        2PZ        -0.00000  -0.03730   0.00000  -0.00000   0.08909
   6        3S         -0.00000   0.18151  -0.00000   0.00000  -0.20481
   7        3PX         0.00969  -0.00230   0.00000   0.00000   0.01901
   8        3PY        -0.00966  -0.00230   0.00000  -0.00000   0.01899
   9        3PZ         0.00000   0.02164  -0.00000   0.00000  -0.17863
  10        4XX        -0.00034   0.19216  -0.00000  -0.00015  -0.02378
  11        4YY         0.00034   0.19216   0.00000   0.00015  -0.02378
  12        4ZZ         0.00000   0.17540  -0.00000   0.00000  -0.05823
  13        4XY        -0.00000  -0.00022  -0.00018   0.00000  -0.00046
  14        4XZ         0.00186   0.00208  -0.00002  -0.00002   0.00428
  15        4YZ        -0.00185   0.00208  -0.00002   0.00002   0.00428
  16 2   F  1S         -0.00000   0.00320  -0.00000   0.00000  -0.50384
  17        2S         -0.00000   0.00844  -0.00000   0.00000  -0.57896
  18        2PX        -0.00039  -0.00081   0.00000  -0.00000  -0.00143
  19        2PY         0.00039  -0.00081   0.00000   0.00000  -0.00143
  20        2PZ        -0.00000   0.00758  -0.00000   0.00000   0.01347
  21        3S          0.00000  -0.03749   0.00000  -0.00000   4.50214
  22        3PX         0.00166   0.00100  -0.00000   0.00000   0.00298
  23        3PY        -0.00166   0.00100  -0.00000  -0.00000   0.00298
  24        3PZ         0.00000  -0.00938   0.00000  -0.00000  -0.02801
  25        4XX        -0.12907  -0.47288  -0.00687   0.85641  -1.91570
  26        4YY         0.12859  -0.47292  -0.01228  -0.85637  -1.91570
  27        4ZZ         0.00049   0.97767   0.01915  -0.00004  -1.91051
  28        4XY        -0.00012   0.01918   0.98893  -0.00313   0.00007
  29        4XZ         0.70018  -0.18033   0.10429   0.10491  -0.00065
  30        4YZ        -0.69835  -0.18014   0.10374  -0.10546  -0.00065
     Density Matrix:
                           1         2         3         4         5
   1 1   Li 1S          2.00779
   2        2S          0.06462   0.12773
   3        2PX         0.00136  -0.00255   0.00042
   4        2PY         0.00136  -0.00255   0.00005   0.00042
   5        2PZ        -0.01279   0.02401  -0.00048  -0.00048   0.00485
   6        3S         -0.09141   0.12224  -0.00263  -0.00263   0.02474
   7        3PX         0.00064  -0.00267  -0.00200   0.00008  -0.00073
   8        3PY         0.00064  -0.00267   0.00008  -0.00200  -0.00073
   9        3PZ        -0.00599   0.02513  -0.00073  -0.00073   0.00482
  10        4XX        -0.00743  -0.01384   0.00029   0.00028  -0.00259
  11        4YY        -0.00743  -0.01384   0.00028   0.00029  -0.00259
  12        4ZZ        -0.01029  -0.00639   0.00011   0.00011  -0.00113
  13        4XY        -0.00004   0.00010   0.00001   0.00001   0.00002
  14        4XZ         0.00036  -0.00093  -0.00006   0.00002  -0.00019
  15        4YZ         0.00036  -0.00092   0.00002  -0.00006  -0.00019
  16 2   F  1S         -0.00047   0.01183  -0.00039  -0.00039   0.00368
  17        2S         -0.00155  -0.02069   0.00069   0.00069  -0.00649
  18        2PX        -0.00997   0.02957  -0.01812  -0.00043   0.00401
  19        2PY        -0.00996   0.02954  -0.00043  -0.01812   0.00401
  20        2PZ         0.09366  -0.27783   0.00401   0.00401  -0.05537
  21        3S          0.00865  -0.03736   0.00109   0.00108  -0.01021
  22        3PX        -0.00765   0.02267  -0.01383  -0.00033   0.00308
  23        3PY        -0.00764   0.02265  -0.00033  -0.01383   0.00308
  24        3PZ         0.07190  -0.21304   0.00308   0.00308  -0.04246
  25        4XX        -0.00129   0.00126  -0.00004  -0.00003   0.00027
  26        4YY        -0.00129   0.00126  -0.00003  -0.00004   0.00027
  27        4ZZ        -0.00207   0.00282  -0.00005  -0.00005   0.00056
  28        4XY        -0.00001   0.00002  -0.00001  -0.00001   0.00000
  29        4XZ         0.00010  -0.00019   0.00005   0.00000  -0.00003
  30        4YZ         0.00010  -0.00019   0.00000   0.00005  -0.00003
                           6         7         8         9        10
   6        3S          0.13123
   7        3PX        -0.00286   0.01159
   8        3PY        -0.00286  -0.00006   0.01159
   9        3PZ         0.02688   0.00058   0.00058   0.00618
  10        4XX        -0.01327   0.00021   0.00029  -0.00276   0.00150
  11        4YY        -0.01327   0.00029   0.00021  -0.00276   0.00150
  12        4ZZ        -0.00533   0.00019   0.00019  -0.00104   0.00069
  13        4XY         0.00010  -0.00005  -0.00005   0.00001  -0.00001
  14        4XZ        -0.00099   0.00045   0.00001  -0.00017   0.00010
  15        4YZ        -0.00099   0.00001   0.00045  -0.00017   0.00010
  16 2   F  1S         -0.00626   0.00086   0.00086  -0.00808  -0.00085
  17        2S          0.01426  -0.00171  -0.00171   0.01606   0.00139
  18        2PX         0.03052   0.09756  -0.00176   0.01656  -0.00388
  19        2PY         0.03048  -0.00176   0.09756   0.01654  -0.00319
  20        2PZ        -0.28675   0.01656   0.01654  -0.05626   0.03004
  21        3S          0.00166  -0.00164  -0.00164   0.01539   0.00308
  22        3PX         0.02340   0.07442  -0.00135   0.01265  -0.00298
  23        3PY         0.02337  -0.00135   0.07443   0.01264  -0.00245
  24        3PZ        -0.21984   0.01265   0.01264  -0.04312   0.02303
  25        4XX         0.00125   0.00003  -0.00002   0.00021  -0.00013
  26        4YY         0.00125  -0.00002   0.00003   0.00021  -0.00013
  27        4ZZ         0.00321  -0.00013  -0.00013   0.00072  -0.00031
  28        4XY         0.00003   0.00003   0.00003   0.00001  -0.00000
  29        4XZ        -0.00024  -0.00026   0.00001  -0.00009   0.00002
  30        4YZ        -0.00024   0.00001  -0.00026  -0.00009   0.00002
                          11        12        13        14        15
  11        4YY         0.00150
  12        4ZZ         0.00069   0.00037
  13        4XY        -0.00001  -0.00000   0.00000
  14        4XZ         0.00010   0.00004  -0.00000   0.00002
  15        4YZ         0.00010   0.00004  -0.00000   0.00001   0.00002
  16 2   F  1S         -0.00085  -0.00234  -0.00002   0.00019   0.00018
  17        2S          0.00139   0.00445   0.00004  -0.00038  -0.00038
  18        2PX        -0.00320  -0.00069  -0.00036   0.00342  -0.00031
  19        2PY        -0.00388  -0.00069  -0.00036  -0.00031   0.00342
  20        2PZ         0.03004   0.01293  -0.00031   0.00253   0.00253
  21        3S          0.00308   0.00569   0.00003  -0.00032  -0.00032
  22        3PX        -0.00245  -0.00053  -0.00028   0.00261  -0.00024
  23        3PY        -0.00297  -0.00053  -0.00028  -0.00024   0.00261
  24        3PZ         0.02304   0.00992  -0.00024   0.00194   0.00194
  25        4XX        -0.00013  -0.00007   0.00000  -0.00001  -0.00001
  26        4YY        -0.00013  -0.00007   0.00000  -0.00001  -0.00001
  27        4ZZ        -0.00031  -0.00011   0.00000  -0.00003  -0.00003
  28        4XY        -0.00000  -0.00000  -0.00000   0.00000   0.00000
  29        4XZ         0.00002   0.00000   0.00000  -0.00001   0.00000
  30        4YZ         0.00002   0.00000   0.00000   0.00000  -0.00001
                          16        17        18        19        20
  16 2   F  1S          2.08783
  17        2S         -0.20455   0.51746
  18        2PX         0.00064  -0.00069   0.84419
  19        2PY         0.00064  -0.00069  -0.00218   0.84420
  20        2PZ        -0.00604   0.00645   0.02048   0.02046   0.65390
  21        3S         -0.25146   0.59065  -0.00420  -0.00419   0.03945
  22        3PX         0.00051  -0.00059   0.64405  -0.00163   0.01537
  23        3PY         0.00051  -0.00059  -0.00163   0.64405   0.01535
  24        3PZ        -0.00478   0.00552   0.01537   0.01535   0.50130
  25        4XX        -0.01427  -0.00224   0.00072   0.00030  -0.00279
  26        4YY        -0.01427  -0.00224   0.00030   0.00072  -0.00279
  27        4ZZ        -0.01653   0.00252   0.00031   0.00031  -0.00691
  28        4XY        -0.00003   0.00006   0.00025   0.00025  -0.00000
  29        4XZ         0.00028  -0.00059  -0.00232  -0.00000   0.00026
  30        4YZ         0.00028  -0.00059  -0.00000  -0.00232   0.00026
                          21        22        23        24        25
  21        3S          0.67600
  22        3PX        -0.00329   0.49136
  23        3PY        -0.00329  -0.00122   0.49136
  24        3PZ         0.03091   0.01152   0.01151   0.38431
  25        4XX        -0.00257   0.00055   0.00023  -0.00215   0.00014
  26        4YY        -0.00257   0.00023   0.00055  -0.00215   0.00014
  27        4ZZ         0.00266   0.00024   0.00024  -0.00530   0.00014
  28        4XY         0.00007   0.00019   0.00019  -0.00000   0.00000
  29        4XZ        -0.00065  -0.00177  -0.00000   0.00020  -0.00000
  30        4YZ        -0.00065  -0.00000  -0.00177   0.00020  -0.00000
                          26        27        28        29        30
  26        4YY         0.00014
  27        4ZZ         0.00014   0.00021
  28        4XY         0.00000   0.00000   0.00000
  29        4XZ        -0.00000  -0.00001  -0.00000   0.00001
  30        4YZ        -0.00000  -0.00001  -0.00000   0.00000   0.00001
    Full Mulliken population analysis:
                           1         2         3         4         5
   1 1   Li 1S          2.00779
   2        2S          0.00939   0.12773
   3        2PX         0.00000   0.00000   0.00042
   4        2PY         0.00000   0.00000   0.00000   0.00042
   5        2PZ         0.00000   0.00000   0.00000   0.00000   0.00485
   6        3S         -0.01698   0.11069   0.00000   0.00000   0.00000
   7        3PX         0.00000   0.00000  -0.00160   0.00000   0.00000
   8        3PY         0.00000   0.00000   0.00000  -0.00160   0.00000
   9        3PZ         0.00000   0.00000   0.00000   0.00000   0.00386
  10        4XX        -0.00074  -0.01002   0.00000   0.00000   0.00000
  11        4YY        -0.00074  -0.01002   0.00000   0.00000   0.00000
  12        4ZZ        -0.00103  -0.00463   0.00000   0.00000   0.00000
  13        4XY         0.00000   0.00000   0.00000   0.00000   0.00000
  14        4XZ         0.00000   0.00000   0.00000   0.00000   0.00000
  15        4YZ         0.00000   0.00000   0.00000   0.00000   0.00000
  16 2   F  1S         -0.00000   0.00001   0.00000   0.00000   0.00001
  17        2S         -0.00000  -0.00012  -0.00000  -0.00000  -0.00013
  18        2PX        -0.00000   0.00001  -0.00003   0.00000   0.00001
  19        2PY        -0.00000   0.00001   0.00000  -0.00003   0.00001
  20        2PZ        -0.00000   0.00116   0.00001   0.00001   0.00069
  21        3S          0.00000  -0.00078  -0.00001  -0.00001  -0.00063
  22        3PX        -0.00000   0.00008  -0.00018   0.00000   0.00003
  23        3PY        -0.00000   0.00008   0.00000  -0.00018   0.00003
  24        3PZ        -0.00000   0.00709   0.00003   0.00003   0.00356
  25        4XX        -0.00000   0.00001   0.00000   0.00000   0.00001
  26        4YY        -0.00000   0.00001   0.00000   0.00000   0.00001
  27        4ZZ        -0.00000   0.00005   0.00000   0.00000   0.00003
  28        4XY        -0.00000   0.00000  -0.00000  -0.00000   0.00000
  29        4XZ        -0.00000   0.00000  -0.00000   0.00000   0.00000
  30        4YZ        -0.00000   0.00000   0.00000  -0.00000   0.00000
                           6         7         8         9        10
   6        3S          0.13123
   7        3PX         0.00000   0.01159
   8        3PY         0.00000   0.00000   0.01159
   9        3PZ         0.00000   0.00000   0.00000   0.00618
  10        4XX        -0.00791   0.00000   0.00000   0.00000   0.00150
  11        4YY        -0.00791   0.00000   0.00000   0.00000   0.00050
  12        4ZZ        -0.00318   0.00000   0.00000   0.00000   0.00023
  13        4XY         0.00000   0.00000   0.00000   0.00000   0.00000
  14        4XZ         0.00000   0.00000   0.00000   0.00000   0.00000
  15        4YZ         0.00000   0.00000   0.00000   0.00000   0.00000
  16 2   F  1S         -0.00003  -0.00000  -0.00000  -0.00010  -0.00000
  17        2S          0.00040   0.00001   0.00001   0.00121   0.00000
  18        2PX         0.00003   0.00062   0.00000   0.00004   0.00000
  19        2PY         0.00003   0.00000   0.00062   0.00004  -0.00000
  20        2PZ         0.00266   0.00004   0.00004   0.00104  -0.00000
  21        3S          0.00012   0.00003   0.00003   0.00283   0.00000
  22        3PX         0.00014   0.00300   0.00000   0.00020   0.00000
  23        3PY         0.00014   0.00000   0.00300   0.00020  -0.00000
  24        3PZ         0.01280   0.00020   0.00020   0.00453  -0.00003
  25        4XX         0.00005  -0.00000   0.00000   0.00002  -0.00000
  26        4YY         0.00005   0.00000  -0.00000   0.00002  -0.00000
  27        4ZZ         0.00016   0.00000   0.00000   0.00009  -0.00000
  28        4XY         0.00000   0.00000   0.00000   0.00000   0.00000
  29        4XZ         0.00000   0.00000   0.00000   0.00000   0.00000
  30        4YZ         0.00000   0.00000   0.00000   0.00000  -0.00000
                          11        12        13        14        15
  11        4YY         0.00150
  12        4ZZ         0.00023   0.00037
  13        4XY         0.00000   0.00000   0.00000
  14        4XZ         0.00000   0.00000   0.00000   0.00002
  15        4YZ         0.00000   0.00000   0.00000   0.00000   0.00002
  16 2   F  1S         -0.00000  -0.00000  -0.00000  -0.00000  -0.00000
  17        2S          0.00000   0.00000   0.00000   0.00000   0.00000
  18        2PX        -0.00000  -0.00000   0.00000   0.00000   0.00000
  19        2PY         0.00000  -0.00000   0.00000   0.00000   0.00000
  20        2PZ        -0.00000  -0.00001   0.00000   0.00000   0.00000
  21        3S          0.00000   0.00005   0.00000   0.00000   0.00000
  22        3PX        -0.00000  -0.00000   0.00000   0.00001   0.00000
  23        3PY         0.00000  -0.00000   0.00000   0.00000   0.00001
  24        3PZ        -0.00003  -0.00023   0.00000   0.00001   0.00001
  25        4XX        -0.00000  -0.00000   0.00000   0.00000   0.00000
  26        4YY        -0.00000  -0.00000   0.00000   0.00000   0.00000
  27        4ZZ        -0.00000  -0.00000   0.00000   0.00000   0.00000
  28        4XY         0.00000  -0.00000  -0.00000   0.00000   0.00000
  29        4XZ        -0.00000  -0.00000   0.00000   0.00000   0.00000
  30        4YZ         0.00000  -0.00000   0.00000   0.00000   0.00000
                          16        17        18        19        20
  16 2   F  1S          2.08783
  17        2S         -0.04997   0.51746
  18        2PX         0.00000   0.00000   0.84419
  19        2PY         0.00000   0.00000   0.00000   0.84420
  20        2PZ         0.00000   0.00000   0.00000   0.00000   0.65390
  21        3S         -0.04316   0.45097   0.00000   0.00000   0.00000
  22        3PX         0.00000   0.00000   0.32171   0.00000   0.00000
  23        3PY         0.00000   0.00000   0.00000   0.32172   0.00000
  24        3PZ         0.00000   0.00000   0.00000   0.00000   0.25041
  25        4XX        -0.00033  -0.00100   0.00000   0.00000   0.00000
  26        4YY        -0.00033  -0.00100   0.00000   0.00000   0.00000
  27        4ZZ        -0.00038   0.00113   0.00000   0.00000   0.00000
  28        4XY         0.00000   0.00000   0.00000   0.00000   0.00000
  29        4XZ         0.00000   0.00000   0.00000   0.00000   0.00000
  30        4YZ         0.00000   0.00000   0.00000   0.00000   0.00000
                          21        22        23        24        25
  21        3S          0.67600
  22        3PX         0.00000   0.49136
  23        3PY         0.00000   0.00000   0.49136
  24        3PZ         0.00000   0.00000   0.00000   0.38431
  25        4XX        -0.00182   0.00000   0.00000   0.00000   0.00014
  26        4YY        -0.00182   0.00000   0.00000   0.00000   0.00005
  27        4ZZ         0.00189   0.00000   0.00000   0.00000   0.00005
  28        4XY         0.00000   0.00000   0.00000   0.00000   0.00000
  29        4XZ         0.00000   0.00000   0.00000   0.00000   0.00000
  30        4YZ         0.00000   0.00000   0.00000   0.00000   0.00000
                          26        27        28        29        30
  26        4YY         0.00014
  27        4ZZ         0.00005   0.00021
  28        4XY         0.00000   0.00000   0.00000
  29        4XZ         0.00000   0.00000   0.00000   0.00001
  30        4YZ         0.00000   0.00000   0.00000   0.00000   0.00001
     Gross orbital populations:
                           1
   1 1   Li 1S          1.99769
   2        2S          0.23074
   3        2PX        -0.00136
   4        2PY        -0.00136
   5        2PZ         0.01233
   6        3S          0.22250
   7        3PX         0.01390
   8        3PY         0.01390
   9        3PZ         0.02017
  10        4XX        -0.01648
  11        4YY        -0.01648
  12        4ZZ        -0.00821
  13        4XY         0.00000
  14        4XZ         0.00004
  15        4YZ         0.00004
  16 2   F  1S          1.99355
  17        2S          0.91896
  18        2PX         1.16659
  19        2PY         1.16660
  20        2PZ         0.90994
  21        3S          1.08370
  22        3PX         0.81636
  23        3PY         0.81636
  24        3PZ         0.66287
  25        4XX        -0.00282
  26        4YY        -0.00282
  27        4ZZ         0.00326
  28        4XY         0.00000
  29        4XZ         0.00001
  30        4YZ         0.00001
          Condensed to atoms (all electrons):
               1          2
     1  Li   2.422268   0.045170
     2  F    0.045170   9.487392
 Mulliken charges:
               1
     1  Li   0.532562
     2  F   -0.532562
 Sum of Mulliken charges =  -0.00000
 Mulliken charges with hydrogens summed into heavy atoms:
               1
     1  Li   0.532562
     2  F   -0.532562
 Electronic spatial extent (au):  <R**2>=            823.1736
 Charge=             -0.0000 electrons
 Dipole moment (field-independent basis, Debye):
    X=              1.2205    Y=              1.2192    Z=            -11.4691  Tot=             11.5981
 Quadrupole moment (field-independent basis, Debye-Ang):
   XX=             -6.9709   YY=             -6.9735   ZZ=            -67.3603
   XY=              2.0650   XZ=             -6.6049   YZ=             -6.6065
 Traceless Quadrupole moment (field-independent basis, Debye-Ang):
   XX=             20.1307   YY=             20.1281   ZZ=            -40.2587
   XY=              2.0650   XZ=             -6.6049   YZ=             -6.6065
 Octapole moment (field-independent basis, Debye-Ang**2):
  XXX=            -18.2080  YYY=            -18.2100  ZZZ=           -355.8669  XYY=             -4.2866
  XXY=             -4.2847  XXZ=            -32.9163  XZZ=            -43.6405  YZZ=            -43.6445
  YYZ=            -32.9188  XYZ=             -3.4760
 Hexadecapole moment (field-independent basis, Debye-Ang**3):
 XXXX=            -50.7618 YYYY=            -50.7574 ZZZZ=          -1964.3795 XXXY=            -13.8189
 XXXZ=            -61.2619 YYYX=            -13.8216 YYYZ=            -61.2675 ZZZX=           -229.4457
 ZZZY=           -229.4679 XXYY=            -14.8250 XXZZ=           -156.9047 YYZZ=           -156.9092
 XXYZ=            -21.3840 YYXZ=            -21.3843 ZZXY=            -28.5777
 N-N= 3.645823302398D+00 E-N=-2.651804683144D+02  KE= 1.065507100608D+02
 Orbital energies and kinetic energies (alpha):
                                 1                 2
   1         O               -24.456088         37.090233
   2         O                -2.137747          3.592968
   3         O                -0.889664          3.940314
   4         O                -0.166581          3.105803
   5         O                -0.166581          3.105803
   6         O                -0.166384          2.440233
   7         V                -0.123158          0.716430
   8         V                -0.046830          0.183347
   9         V                -0.046830          0.183347
  10         V                -0.023116          0.408866
  11         V                 0.075568          0.314380
  12         V                 0.080570          0.323520
  13         V                 0.080570          0.323520
  14         V                 0.127623          0.352664
  15         V                 0.387328          0.700000
  16         V                 0.387329          0.700000
  17         V                 0.391674          0.699961
  18         V                 0.391674          0.699961
  19         V                 0.394154          0.711188
  20         V                 1.042982          1.528415
  21         V                 1.132158          2.260449
  22         V                 1.368012          4.716172
  23         V                 1.368012          4.716172
  24         V                 1.385520          4.678466
  25         V                 2.051628          2.800230
  26         V                 2.051628          2.800230
  27         V                 2.052627          2.806096
  28         V                 2.062723          2.800000
  29         V                 2.062723          2.800000
  30         V                 3.622097         10.328062
 Total kinetic energy from orbitals= 1.065507100608D+02
 Calling FoFJK, ICntrl=  10005127 FMM=F ISym2X=0 I1Cent= 0 IOpClX= 0 NMat=1 NMatS=1 NMatT=0.
 -------------------------------------------------------------------
 Center     Atomic                   Forces (Hartrees/Bohr)
 Number     Number              X              Y              Z
 -------------------------------------------------------------------
      1        3          -0.000551209   -0.000550612    0.005175137
      2        9           0.000551209    0.000550612   -0.005175137
 -------------------------------------------------------------------
 Cartesian Forces:  Max     0.005175137 RMS     0.003021536

 GradGradGradGradGradGradGradGradGradGradGradGradGradGradGradGradGradGrad
 Berny optimization.
 Search for a local minimum.
 Step number   1 out of a maximum of    2
 All quantities printed in internal units (Hartrees-Bohrs-Radians)
 Second derivative matrix not updated -- first step.
 The second derivative matrix:
                          X1        Y1        Z1        X2        Y2
           X1           1.00000
           Y1           0.00000   1.00000
           Z1           0.00000   0.00000   1.00000
           X2           0.00000   0.00000   0.00000   1.00000
           Y2           0.00000   0.00000   0.00000   0.00000   1.00000
           Z2           0.00000   0.00000   0.00000   0.00000   0.00000
                          Z2
           Z2           1.00000
 ITU=  0
     Eigenvalues ---    1.00000   1.00000   1.00000   1.00000   1.00000
     Eigenvalues ---    1.00000
 Angle between quadratic step and forces=   0.00 degrees.
 Linear search not attempted -- first point.
 B after Tr=     0.194065   -0.177731    0.001758
         Rot=    0.999006    0.004691    0.004687   -0.044084 Ang=   5.11 deg.
 Variable       Old X    -DE/DX   Delta X   Delta X   Delta X     New X
                                 (Linear)    (Quad)   (Total)
    X1        1.94621  -0.00055   0.00000  -0.00055  -0.00055   1.94565
    Y1        1.94555  -0.00055   0.00000  -0.00055  -0.00055   1.94500
    Z1        1.54800   0.00518   0.00000   0.00518   0.00518   1.55317
    X2        1.16685   0.00055   0.00000   0.00055   0.00055   1.16740
    Y2        1.16702   0.00055   0.00000   0.00055   0.00055   1.16757
    Z2        8.87134  -0.00518   0.00000  -0.00518  -0.00518   8.86617
         Item               Value     Threshold  Converged?
 Maximum Force            0.005175     0.000450     NO 
 RMS     Force            0.003022     0.000300     NO 
 Maximum Displacement     0.005175     0.001800     NO 
 RMS     Displacement     0.003022     0.001200     NO 
 Predicted change in Energy=-2.738904D-05
 GradGradGradGradGradGradGradGradGradGradGradGradGradGradGradGradGradGrad

 Unable to Open any file for archive entry.
 1\1\GINC-BHP0004\Force\RB3LYP TD-FC\6-31G(d)\F1Li1\BWEIGHT\30-Dec-2022
 \0\\# B3LYP/6-31G* SCF=XQC TD=(singlets,nstates=2,root=1) FORCE nosym 
 pop=full guess=read\\MD Step 123\\0,1\Li,1.02988743,1.0295382,0.819165
 1\F,0.61746932,0.61756086,4.69451332\\Version=ES64L-G16RevC.01\HF=-107
 .2372455\RMSD=5.595e-10\RMSF=3.022e-03\Dipole=0.2270137,0.2267717,-2.1
 331839\PG=C*V [C*(Li1F1)]\\@
 The archive entry for this job was punched.


 WE HAVE LEARNED THAT NOTHING IS SIMPLE AND
 RATIONAL EXCEPT WHAT WE OURSELVES HAVE INVENTED;
 THAT GOD THINKS IN TERMS NEITHER OF EUCLID OR RIEMANN; THAT SCIENCE HAS "EXPLAINED" NOTHING;
 THAT THE MORE WE KNOW THE MORE FANTASTIC THE WORLD BECOMES
 AND THE PROFOUNDER THE SURROUNDING DARKNESS.
   --  ALDOUS HUXLEY
 Job cpu time:       0 days  0 hours  0 minutes 14.2 seconds.
 Elapsed time:       0 days  0 hours  0 minutes 14.4 seconds.
 File lengths (MBytes):  RWF=    272 Int=      0 D2E=      0 Chk=     32 Scr=     32
 Normal termination of Gaussian 16 at Fri Dec 30 21:58:14 2022.
