 Entering Gaussian System, Link 0=g16
 Initial command:
 /software/gaussian/g16-c01/avx2/g16/l1.exe "/gpfs/fs2/scratch/bweight/software/many_molecule_many_mode_NAMD/src/NAMD/TEST_SPINLSC/G16/TD_NEW_S1/Gau-17263.inp" -scrdir="/gpfs/fs2/scratch/bweight/software/many_molecule_many_mode_NAMD/src/NAMD/TEST_SPINLSC/G16/TD_NEW_S1/"
 Entering Link 1 = /software/gaussian/g16-c01/avx2/g16/l1.exe PID=     17264.
  
 Copyright (c) 1988-2019, Gaussian, Inc.  All Rights Reserved.
  
 This is part of the Gaussian(R) 16 program.  It is based on
 the Gaussian(R) 09 system (copyright 2009, Gaussian, Inc.),
 the Gaussian(R) 03 system (copyright 2003, Gaussian, Inc.),
 the Gaussian(R) 98 system (copyright 1998, Gaussian, Inc.),
 the Gaussian(R) 94 system (copyright 1995, Gaussian, Inc.),
 the Gaussian 92(TM) system (copyright 1992, Gaussian, Inc.),
 the Gaussian 90(TM) system (copyright 1990, Gaussian, Inc.),
 the Gaussian 88(TM) system (copyright 1988, Gaussian, Inc.),
 the Gaussian 86(TM) system (copyright 1986, Carnegie Mellon
 University), and the Gaussian 82(TM) system (copyright 1983,
 Carnegie Mellon University). Gaussian is a federally registered
 trademark of Gaussian, Inc.
  
 This software contains proprietary and confidential information,
 including trade secrets, belonging to Gaussian, Inc.
  
 This software is provided under written license and may be
 used, copied, transmitted, or stored only in accord with that
 written license.
  
 The following legend is applicable only to US Government
 contracts under FAR:
  
                    RESTRICTED RIGHTS LEGEND
  
 Use, reproduction and disclosure by the US Government is
 subject to restrictions as set forth in subparagraphs (a)
 and (c) of the Commercial Computer Software - Restricted
 Rights clause in FAR 52.227-19.
  
 Gaussian, Inc.
 340 Quinnipiac St., Bldg. 40, Wallingford CT 06492
  
  
 ---------------------------------------------------------------
 Warning -- This program may not be used in any manner that
 competes with the business of Gaussian, Inc. or will provide
 assistance to any competitor of Gaussian, Inc.  The licensee
 of this program is prohibited from giving any competitor of
 Gaussian, Inc. access to this program.  By using this program,
 the user acknowledges that Gaussian, Inc. is engaged in the
 business of creating and licensing software in the field of
 computational chemistry and represents and warrants to the
 licensee that it is not a competitor of Gaussian, Inc. and that
 it will not use this program in any manner prohibited above.
 ---------------------------------------------------------------
  

 Cite this work as:
 Gaussian 16, Revision C.01,
 M. J. Frisch, G. W. Trucks, H. B. Schlegel, G. E. Scuseria, 
 M. A. Robb, J. R. Cheeseman, G. Scalmani, V. Barone, 
 G. A. Petersson, H. Nakatsuji, X. Li, M. Caricato, A. V. Marenich, 
 J. Bloino, B. G. Janesko, R. Gomperts, B. Mennucci, H. P. Hratchian, 
 J. V. Ortiz, A. F. Izmaylov, J. L. Sonnenberg, D. Williams-Young, 
 F. Ding, F. Lipparini, F. Egidi, J. Goings, B. Peng, A. Petrone, 
 T. Henderson, D. Ranasinghe, V. G. Zakrzewski, J. Gao, N. Rega, 
 G. Zheng, W. Liang, M. Hada, M. Ehara, K. Toyota, R. Fukuda, 
 J. Hasegawa, M. Ishida, T. Nakajima, Y. Honda, O. Kitao, H. Nakai, 
 T. Vreven, K. Throssell, J. A. Montgomery, Jr., J. E. Peralta, 
 F. Ogliaro, M. J. Bearpark, J. J. Heyd, E. N. Brothers, K. N. Kudin, 
 V. N. Staroverov, T. A. Keith, R. Kobayashi, J. Normand, 
 K. Raghavachari, A. P. Rendell, J. C. Burant, S. S. Iyengar, 
 J. Tomasi, M. Cossi, J. M. Millam, M. Klene, C. Adamo, R. Cammi, 
 J. W. Ochterski, R. L. Martin, K. Morokuma, O. Farkas, 
 J. B. Foresman, and D. J. Fox, Gaussian, Inc., Wallingford CT, 2019.
 
 ******************************************
 Gaussian 16:  ES64L-G16RevC.01  3-Jul-2019
                 5-Jan-2023 
 ******************************************
 %oldchk=../GS_NEW/geometry.chk
 %chk=geometry.chk
 %nprocshared=1
 Will use up to    1 processors via shared memory.
 %mem=5GB
 Copying data from "../GS_NEW/geometry.chk" to current chk file "geometry.chk"
 IOpt=  2 FromEx=T IUOpen= 4 IOptOp= 5 NList=   0 IFRang= 0 IUIn= 4 IUOut= 2.
 ----------------------------------------------------------------------
 # WB97XD/6-311G SCF=XQC TD=(singlets,nstates=2,root=1) FORCE nosym pop
 =full guess=read
 ----------------------------------------------------------------------
 1/10=7,30=1,38=1/1,3;
 2/12=2,15=1,17=6,18=5,40=1/2;
 3/5=4,6=6,11=9,25=1,30=1,71=1,74=-58,116=-2/1,2,3,8;
 4/5=1/1;
 5/5=2,8=3,13=1,38=6/2,8;
 8/6=1,10=2,107=1,108=2/1;
 9/8=1,15=2,41=2,42=1,48=1,70=2/14;
 10/5=4,28=1,31=1/2;
 6/7=3,18=1/1;
 7/12=6,13=5,14=1,29=1,30=1/1,2,3,16;
 1/10=7,30=1/3;
 99//99;
 -----------
 MD Step 999
 -----------
 Symbolic Z-matrix:
 Charge =  0 Multiplicity = 1
 C                    -0.2675   -0.08073  -0.03615 
 H                     0.05106  -1.12191  -0.16432 
 H                    -1.3717    0.15678  -0.25994 
 C                     0.72023   0.88822   0.02143 
 H                     0.32006   1.89888  -0.27238 
 H                     1.7921    0.54611  -0.21065 
 

 GradGradGradGradGradGradGradGradGradGradGradGradGradGradGradGradGradGrad
 Berny optimization.
 Initialization pass.
 Trust Radius=3.00D-01 FncErr=1.00D-07 GrdErr=1.00D-07 EigMax=2.50D+02 EigMin=1.00D-04
 Number of steps in this run=      2 maximum allowed number of steps=      2.
 GradGradGradGradGradGradGradGradGradGradGradGradGradGradGradGradGradGrad

                          Input orientation:                          
 ---------------------------------------------------------------------
 Center     Atomic      Atomic             Coordinates (Angstroms)
 Number     Number       Type             X           Y           Z
 ---------------------------------------------------------------------
      1          6           0       -0.267497   -0.080726   -0.036148
      2          1           0        0.051064   -1.121914   -0.164316
      3          1           0       -1.371704    0.156782   -0.259936
      4          6           0        0.720230    0.888215    0.021428
      5          1           0        0.320062    1.898882   -0.272380
      6          1           0        1.792104    0.546109   -0.210648
 ---------------------------------------------------------------------
                    Distance matrix (angstroms):
                    1          2          3          4          5
     1  C    0.000000
     2  H    1.096348   0.000000
     3  H    1.151418   1.915326   0.000000
     4  C    1.384834   2.126712   2.233908   0.000000
     5  H    2.078432   3.034674   2.428403   1.126013   0.000000
     6  H    2.159937   2.411569   3.188054   1.148831   2.000179
                    6
     6  H    0.000000
 Symmetry turned off by external request.
 Stoichiometry    C2H4
 Framework group  C1[X(C2H4)]
 Deg. of freedom    12
 Full point group                 C1      NOp   1
 Rotational constants (GHZ):         125.5608294          28.7226782          23.7622529
 Standard basis: 6-311G (5D, 7F)
    38 basis functions,    72 primitive gaussians,    38 cartesian basis functions
     8 alpha electrons        8 beta electrons
       nuclear repulsion energy        32.2238780863 Hartrees.
 NAtoms=    6 NActive=    6 NUniq=    6 SFac= 1.00D+00 NAtFMM=   60 NAOKFM=F Big=F
 Integral buffers will be    131072 words long.
 Raffenetti 1 integral format.
 Two-electron integral symmetry is turned off.
 Nuclear repulsion after empirical dispersion term =       32.2229578893 Hartrees.
 One-electron integrals computed using PRISM.
 NBasis=    38 RedAO= T EigKep=  7.11D-03  NBF=    38
 NBsUse=    38 1.00D-06 EigRej= -1.00D+00 NBFU=    38
 Initial guess from the checkpoint file:  "geometry.chk"
 B after Tr=     0.000000    0.000000    0.000000
         Rot=    1.000000    0.000000    0.000000    0.000000 Ang=   0.00 deg.
 Keep R1 ints in memory in canonical form, NReq=1444237.
 Requested convergence on RMS density matrix=1.00D-08 within  32 cycles.
 Requested convergence on MAX density matrix=1.00D-06.
 Requested convergence on             energy=1.00D-06.
 No special actions if energy rises.
 SCF Done:  E(RwB97XD) =  -78.5335654370     A.U. after    1 cycles
            NFock=  1  Conv=0.14D-08     -V/T= 2.0081
 QCSCF skips out because SCF is already converged.
 DoSCS=F DFT=T ScalE2(SS,OS)=  1.000000  1.000000
 ExpMin= 1.03D-01 ExpMax= 4.56D+03 ExpMxC= 6.82D+02 IAcc=3 IRadAn=         5 AccDes= 0.00D+00
 HarFok:  IExCor=  205 AccDes= 0.00D+00 IRadAn=         5 IDoV=-2 UseB2=F ITyADJ=14
 ICtDFT= 12500011 ScaDFX=  1.000000  1.000000  1.000000  1.000000
 Range of M.O.s used for correlation:     3    38
 NBasis=    38 NAE=     8 NBE=     8 NFC=     2 NFV=     0
 NROrb=     36 NOA=     6 NOB=     6 NVA=    30 NVB=    30
 Keep R1, R2, and R3 ints in memory in canonical form, NReq=2642900.
     8 initial guesses have been made.
 Convergence on wavefunction:    0.000001000000000
 Iteration     1 Dimension     8 NMult     0 NNew      8
 CISAX will form     8 AO SS matrices at one time.
 New state      1 was old state      3
 Iteration     2 Dimension    12 NMult     8 NNew      4
 Iteration     3 Dimension    16 NMult    12 NNew      4
 Iteration     4 Dimension    20 NMult    16 NNew      4
 Iteration     5 Dimension    24 NMult    20 NNew      4
 Iteration     6 Dimension    28 NMult    24 NNew      4
 Iteration     7 Dimension    32 NMult    28 NNew      4
 Iteration     8 Dimension    36 NMult    32 NNew      4
 Iteration     9 Dimension    40 NMult    36 NNew      4
 Iteration    10 Dimension    42 NMult    40 NNew      2
 ***********************************************************************
 Excited states from <AA,BB:AA,BB> singles matrix:
 ***********************************************************************
 
 Ground to excited state transition densities written to RWF  633
 Ground to excited state transition electric dipole moments (Au):
       state          X           Y           Z        Dip. S.      Osc.
         1         0.9488      0.9116      0.0884      1.7389      0.3140
         2        -0.0990     -0.2820      0.0195      0.0897      0.0171
 Ground to excited state transition velocity dipole moments (Au):
       state          X           Y           Z        Dip. S.      Osc.
         1        -0.2175     -0.2022     -0.0178      0.0885      0.2178
         2         0.0124      0.0835     -0.0102      0.0072      0.0169
 Ground to excited state transition magnetic dipole moments (Au):
       state          X           Y           Z
         1        -0.5853      0.2313      0.0561
         2        -1.0080     -0.8375      0.0463
 Ground to excited state transition velocity quadrupole moments (Au):
       state          XX          YY          ZZ          XY          XZ          YZ
         1        -0.1926     -0.3161     -0.0070     -0.2456     -0.0414     -0.1002
         2        -0.0368      0.1606      0.0220      0.0530      0.1504     -0.1550
 <0|del|b> * <b|rxdel|0> + <0|del|b> * <b|delr+rdel|0>
 Rotatory Strengths (R) in cgs (10**-40 erg-esu-cm/Gauss)
       state          XX          YY          ZZ    R(velocity)    E-M Angle
         1       -67.5780    187.5916     87.5774     69.1970       64.97
         2      -103.2853    -17.7097    -84.0210    -68.3387      138.01
 1/2[<0|r|b>*<b|rxdel|0> + (<0|rxdel|b>*<b|r|0>)*]
 Rotatory Strengths (R) in cgs (10**-40 erg-esu-cm/Gauss)
       state          XX          YY          ZZ     R(length)
         1       392.7056   -149.1249     -3.5100     80.0236
         2       -70.6003   -167.0310     -0.6390    -79.4234
  1/2[<0|del|b>*<b|r|0> + (<0|r|b>*<b|del|0>)*] (Au)
       state          X           Y           Z        Dip. S.   Osc.(frdel)
         1        -0.2063     -0.1843     -0.0016      0.3922      0.2615
         2        -0.0012     -0.0236     -0.0002      0.0250      0.0167

 Excitation energies and oscillator strengths:
 
 Excited state symmetry could not be determined.
 Excited State   1:      Singlet-?Sym    7.3713 eV  168.20 nm  f=0.3140  <S**2>=0.000
       6 ->  9         0.11962
       7 ->  9         0.12108
       8 ->  9         0.68056
       8 <-  9        -0.10154
 This state for optimization and/or second-order correction.
 Total Energy, E(TD-HF/TD-DFT) =  -78.2626733698    
 Copying the excited state density for this state as the 1-particle RhoCI density.
 
 Excited state symmetry could not be determined.
 Excited State   2:      Singlet-?Sym    7.7788 eV  159.39 nm  f=0.0171  <S**2>=0.000
       7 ->  9         0.68879
       8 ->  9        -0.12633
 SavETr:  write IOETrn=   770 NScale= 10 NData=  16 NLR=1 NState=    2 LETran=      46.
          IDoAtm=111111
          Differentiating once with respect to electric field.
                with respect to dipole field.
          Differentiating once with respect to nuclear coordinates.
 Keep R1 ints in memory in canonical form, NReq=1448038.
          There are     1 degrees of freedom in the 1st order CPHF.  IDoFFX=0 NUNeed=     1.
 LinEq1:  Iter=  0 NonCon=     1 RMS=1.30D-02 Max=7.24D-02 NDo=     1
 AX will form     1 AO Fock derivatives at one time.
 LinEq1:  Iter=  1 NonCon=     1 RMS=5.67D-03 Max=3.52D-02 NDo=     1
 LinEq1:  Iter=  2 NonCon=     1 RMS=1.43D-03 Max=1.16D-02 NDo=     1
 LinEq1:  Iter=  3 NonCon=     1 RMS=7.87D-04 Max=8.35D-03 NDo=     1
 LinEq1:  Iter=  4 NonCon=     1 RMS=1.99D-04 Max=1.69D-03 NDo=     1
 LinEq1:  Iter=  5 NonCon=     1 RMS=1.95D-05 Max=1.06D-04 NDo=     1
 LinEq1:  Iter=  6 NonCon=     1 RMS=2.43D-06 Max=1.57D-05 NDo=     1
 LinEq1:  Iter=  7 NonCon=     1 RMS=4.11D-07 Max=2.33D-06 NDo=     1
 LinEq1:  Iter=  8 NonCon=     1 RMS=6.57D-08 Max=3.50D-07 NDo=     1
 LinEq1:  Iter=  9 NonCon=     1 RMS=9.10D-09 Max=5.57D-08 NDo=     1
 LinEq1:  Iter= 10 NonCon=     1 RMS=1.14D-09 Max=8.42D-09 NDo=     1
 LinEq1:  Iter= 11 NonCon=     1 RMS=1.43D-10 Max=6.27D-10 NDo=     1
 LinEq1:  Iter= 12 NonCon=     0 RMS=1.48D-11 Max=7.01D-11 NDo=     1
 Linear equations converged to 1.000D-10 1.000D-09 after    12 iterations.
 End of Minotr F.D. properties file   721 does not exist.
 End of Minotr F.D. properties file   722 does not exist.
 End of Minotr F.D. properties file   788 does not exist.

 **********************************************************************

            Population analysis using the SCF Density.

 **********************************************************************

 Alpha  occ. eigenvalues --  -10.30297 -10.30214  -0.85721  -0.66262  -0.55692
 Alpha  occ. eigenvalues --   -0.49004  -0.43825  -0.35097
 Alpha virt. eigenvalues --    0.05723   0.13027   0.15545   0.17109   0.23752
 Alpha virt. eigenvalues --    0.34998   0.38287   0.39595   0.47156   0.48830
 Alpha virt. eigenvalues --    0.50002   0.58529   0.64907   0.65632   0.71311
 Alpha virt. eigenvalues --    0.75418   0.76618   0.92072   2.23681   2.29975
 Alpha virt. eigenvalues --    2.31768   2.34512   2.66689   2.79825   2.88940
 Alpha virt. eigenvalues --    2.94331   3.08014   3.23766  23.34493  23.66344
     Molecular Orbital Coefficients:
                           1         2         3         4         5
                           O         O         O         O         O
     Eigenvalues --   -10.30297 -10.30214  -0.85721  -0.66262  -0.55692
   1 1   C  1S          0.23412   0.51257  -0.08645   0.06795   0.00358
   2        2S          0.19283   0.42172  -0.13661   0.10912   0.00571
   3        2PX         0.00020  -0.00015   0.03907   0.04915   0.09994
   4        2PY         0.00020  -0.00015   0.03274   0.06533  -0.10125
   5        2PZ         0.00004   0.00003  -0.00385   0.01056   0.00528
   6        3S          0.00513   0.01314   0.36768  -0.29965  -0.01491
   7        3PX        -0.00058   0.00079   0.05182   0.07651   0.16050
   8        3PY        -0.00065   0.00063   0.04212   0.09954  -0.15659
   9        3PZ        -0.00016  -0.00010  -0.00699   0.01894   0.00905
  10        4S         -0.00012  -0.01406   0.19637  -0.25989  -0.02010
  11        4PX         0.00139  -0.00264   0.00651   0.03156   0.09682
  12        4PY         0.00152  -0.00215   0.00909   0.03957  -0.09525
  13        4PZ         0.00016   0.00022  -0.00426   0.01044   0.00628
  14 2   H  1S         -0.00006  -0.00007   0.05518  -0.09986   0.09286
  15        2S         -0.00027   0.00026   0.05630  -0.11916   0.11457
  16        3S          0.00116   0.00157   0.00018  -0.01867   0.03500
  17 3   H  1S         -0.00004   0.00003   0.04689  -0.08642  -0.09339
  18        2S         -0.00028   0.00010   0.05005  -0.10875  -0.11929
  19        3S          0.00098   0.00125  -0.00238  -0.01604  -0.03804
  20 4   C  1S          0.51255  -0.23427  -0.08527  -0.06861  -0.00276
  21        2S          0.42181  -0.19259  -0.13485  -0.10996  -0.00435
  22        2PX        -0.00015  -0.00019  -0.03859   0.03633   0.10779
  23        2PY        -0.00016  -0.00018  -0.03618   0.04482  -0.09737
  24        2PZ        -0.00013   0.00006  -0.01129  -0.01541   0.00450
  25        3S          0.01247  -0.00657   0.36287   0.30112   0.01093
  26        3PX        -0.00007   0.00095  -0.05439   0.05766   0.17413
  27        3PY        -0.00000   0.00092  -0.05000   0.06992  -0.15294
  28        3PZ        -0.00022   0.00009  -0.02002  -0.02769   0.00679
  29        4S         -0.00973   0.01033   0.20034   0.25653   0.01606
  30        4PX         0.00081  -0.00278  -0.00733   0.02208   0.08254
  31        4PY         0.00058  -0.00279  -0.01117   0.02732  -0.07645
  32        4PZ         0.00060  -0.00044  -0.00721  -0.01440   0.00250
  33 5   H  1S         -0.00006   0.00002   0.05336   0.08652  -0.09408
  34        2S          0.00002  -0.00033   0.05493   0.10636  -0.12707
  35        3S          0.00184  -0.00032  -0.00109   0.01553  -0.04253
  36 6   H  1S         -0.00002  -0.00002   0.04907   0.08048   0.10079
  37        2S         -0.00005  -0.00031   0.05120   0.10233   0.13794
  38        3S          0.00164  -0.00034  -0.00313   0.01466   0.04774
                           6         7         8         9        10
                           O         O         O         V         V
     Eigenvalues --    -0.49004  -0.43825  -0.35097   0.05723   0.13027
   1 1   C  1S          0.01052   0.00316  -0.00197  -0.01273  -0.03673
   2        2S          0.01674   0.00523  -0.00324  -0.02110  -0.05913
   3        2PX        -0.13416   0.08579  -0.03811  -0.02021  -0.05545
   4        2PY        -0.11835  -0.11106  -0.03130  -0.00483  -0.04463
   5        2PZ        -0.03829  -0.00046   0.17147   0.18763  -0.00866
   6        3S         -0.05458  -0.01532   0.00908   0.06654   0.13636
   7        3PX        -0.20662   0.13779  -0.05556  -0.03136  -0.06960
   8        3PY        -0.17755  -0.17397  -0.04410  -0.00845  -0.05498
   9        3PZ        -0.06072  -0.00032   0.27342   0.27506  -0.01529
  10        4S         -0.00369  -0.02005   0.03956   0.02041   1.12207
  11        4PX        -0.11547   0.08718  -0.04044  -0.12603  -0.33874
  12        4PY        -0.09479  -0.10994  -0.03207  -0.06647  -0.30487
  13        4PZ        -0.03581  -0.00055   0.27003   0.61952  -0.04533
  14 2   H  1S          0.05768   0.12618   0.00428  -0.01730  -0.01793
  15        2S          0.08330   0.19612   0.01375  -0.01919  -0.05041
  16        3S          0.03482   0.08964   0.01050  -0.05075  -0.74466
  17 3   H  1S          0.08440  -0.11173   0.00156  -0.02127  -0.02140
  18        2S          0.12291  -0.18217   0.01108  -0.03643  -0.05313
  19        3S          0.04990  -0.08445   0.00789  -0.08706  -0.81785
  20 4   C  1S          0.00156   0.00139  -0.01123   0.02082  -0.03607
  21        2S          0.00215   0.00231  -0.01832   0.03428  -0.05782
  22        2PX         0.13747  -0.08017   0.02521  -0.01404   0.05144
  23        2PY         0.12624   0.10785   0.03786  -0.01931   0.05321
  24        2PZ        -0.03321  -0.01056   0.17411  -0.17963  -0.03190
  25        3S         -0.01471  -0.00789   0.05477  -0.10189   0.12707
  26        3PX         0.20679  -0.13038   0.03507  -0.02046   0.06231
  27        3PY         0.18635   0.17271   0.05493  -0.02746   0.06656
  28        3PZ        -0.05368  -0.01676   0.27714  -0.25978  -0.04867
  29        4S          0.06612   0.00032   0.05962  -0.16248   1.20465
  30        4PX         0.10636  -0.08437   0.03384  -0.10122   0.25111
  31        4PY         0.09233   0.10741   0.05490  -0.11244   0.27317
  32        4PZ        -0.03444  -0.01183   0.27111  -0.59995  -0.17947
  33 5   H  1S          0.06873   0.12300  -0.00063   0.03244  -0.02725
  34        2S          0.10200   0.19207   0.01334   0.05089  -0.07269
  35        3S          0.04384   0.08860   0.00723   0.10705  -0.79841
  36 6   H  1S          0.08755  -0.10530  -0.00373   0.03654  -0.02239
  37        2S          0.12967  -0.16912   0.00962   0.06710  -0.05452
  38        3S          0.05330  -0.07764   0.00325   0.14285  -0.75046
                          11        12        13        14        15
                           V         V         V         V         V
     Eigenvalues --     0.15545   0.17109   0.23752   0.34998   0.38287
   1 1   C  1S         -0.01828  -0.03959   0.00138  -0.02078  -0.00424
   2        2S         -0.02967  -0.06408   0.00233  -0.03403  -0.01038
   3        2PX        -0.08664   0.00349  -0.08859   0.06339  -0.01747
   4        2PY         0.06545  -0.05997   0.08107   0.07617  -0.01375
   5        2PZ        -0.02451  -0.02855  -0.00558   0.02244  -0.01251
   6        3S          0.06837   0.13644  -0.00661   0.05323   0.07913
   7        3PX        -0.11677   0.02069  -0.10961   0.12666   0.04340
   8        3PY         0.09906  -0.06484   0.09241   0.15305   0.04736
   9        3PZ        -0.03351  -0.03778  -0.00859   0.02258  -0.03087
  10        4S          0.48250   1.38265  -0.09903   2.55068  -0.51463
  11        4PX        -0.47453   0.10042  -0.83728   1.50330  -1.25327
  12        4PY         0.37128  -0.28830   0.82238   1.48394  -1.61601
  13        4PZ        -0.14068  -0.18643  -0.04190   0.29485  -0.16933
  14 2   H  1S          0.01490  -0.03048  -0.00599   0.01985  -0.06172
  15        2S          0.05916  -0.03838   0.00031   0.10119  -0.89525
  16        3S          0.57651  -1.33716   1.53940   0.41526  -0.08095
  17 3   H  1S         -0.04256  -0.01654  -0.00328   0.00359  -0.05402
  18        2S         -0.09918   0.00094  -0.01249   0.05791  -0.72154
  19        3S         -1.22741  -0.50267  -1.42772   0.44202   0.00016
  20 4   C  1S          0.02036   0.03883   0.00025   0.01180  -0.01647
  21        2S          0.03309   0.06294   0.00058   0.01707  -0.02866
  22        2PX        -0.08461   0.01375   0.08941   0.06517  -0.02828
  23        2PY         0.06505  -0.05582  -0.08038   0.06741  -0.03941
  24        2PZ         0.02179   0.04163   0.00312  -0.03701   0.00028
  25        3S         -0.07767  -0.13838  -0.00572   0.01713   0.05953
  26        3PX        -0.11389   0.03731   0.10600   0.08566  -0.12028
  27        3PY         0.10184  -0.05847  -0.09094   0.09166  -0.15281
  28        3PZ         0.03112   0.05972   0.00215  -0.07604  -0.01373
  29        4S         -0.55424  -1.28711   0.01816  -2.29010   1.92675
  30        4PX        -0.47270   0.14688   0.84742   1.77281  -0.38756
  31        4PY         0.35086  -0.26722  -0.84000   1.85123  -0.11864
  32        4PZ         0.12326   0.26160   0.04086  -0.19663  -0.12996
  33 5   H  1S         -0.01651   0.03192  -0.00582  -0.07102  -0.03217
  34        2S         -0.05794   0.03944   0.01411  -0.60934  -0.60416
  35        3S         -0.51957   1.32098   1.40708  -0.13755   0.34291
  36 6   H  1S          0.04193   0.01474   0.00245  -0.05582  -0.04268
  37        2S          0.09292  -0.00065  -0.00486  -0.50155  -0.55288
  38        3S          1.27805   0.41228  -1.44236  -0.20153   0.42660
                          16        17        18        19        20
                           V         V         V         V         V
     Eigenvalues --     0.39595   0.47156   0.48830   0.50002   0.58529
   1 1   C  1S          0.00786  -0.01920   0.03493  -0.02996   0.00709
   2        2S          0.01303  -0.02568   0.06185  -0.05386   0.01303
   3        2PX         0.02395  -0.05850  -0.06427   0.02234  -0.03202
   4        2PY        -0.02525  -0.05563  -0.05413   0.02933  -0.02175
   5        2PZ         0.00944  -0.01013   0.06972   0.14395   0.18376
   6        3S         -0.02210  -0.18631  -0.20612   0.19862  -0.03652
   7        3PX         0.08828  -0.29308  -0.19388   0.05320  -0.10393
   8        3PY        -0.06788  -0.30772  -0.16138   0.08880  -0.06732
   9        3PZ         0.02038  -0.04667   0.27613   0.59268   0.64994
  10        4S         -0.07232   1.53193  -2.23591   1.46313  -0.34037
  11        4PX         0.38166   0.92100  -0.68470   0.61389  -0.13417
  12        4PY        -0.33965   0.82653  -0.48265   0.31650  -0.14248
  13        4PZ         0.07858  -0.07979  -0.12001  -0.75575  -1.19203
  14 2   H  1S         -0.05765  -0.07616   0.04169  -0.02502   0.01083
  15        2S         -0.60675  -0.82259   0.58731  -0.41218   0.09233
  16        3S          0.27738   0.37746  -0.41827   0.23761  -0.13915
  17 3   H  1S          0.09567  -0.07249   0.02271  -0.01577   0.00895
  18        2S          1.00648  -0.72376   0.32415  -0.19510   0.02689
  19        3S         -0.58084   0.57097  -0.36520   0.23412  -0.14271
  20 4   C  1S         -0.00701   0.02354  -0.04250   0.01574  -0.00420
  21        2S         -0.01219   0.04650  -0.06993   0.02374  -0.00742
  22        2PX         0.01014   0.09976   0.01209   0.00469  -0.01386
  23        2PY        -0.02774   0.08441   0.01958   0.00908  -0.02253
  24        2PZ        -0.00644  -0.01088   0.07260   0.12890  -0.19400
  25        3S          0.03881  -0.31283   0.06375   0.05768   0.00120
  26        3PX         0.05055   0.35413   0.13804  -0.05402  -0.03763
  27        3PY        -0.07998   0.32436   0.16607  -0.03844  -0.06778
  28        3PZ        -0.00962  -0.04974   0.31133   0.52814  -0.69255
  29        4S          0.03085  -0.99145   2.32199  -1.45786   0.35408
  30        4PX         0.42924   0.16202  -1.20830   0.74232  -0.24945
  31        4PY        -0.36431  -0.13797  -0.99781   0.69585  -0.14324
  32        4PZ        -0.03893   0.13769  -0.73898  -0.35188   1.20907
  33 5   H  1S          0.05872   0.00522  -0.07086   0.04238  -0.01436
  34        2S          0.65755   0.19886  -0.95717   0.50259  -0.12299
  35        3S         -0.22285  -0.24759   0.53319  -0.42716   0.17678
  36 6   H  1S         -0.08315  -0.02524  -0.06077   0.03534  -0.01243
  37        2S         -0.92119  -0.21988  -0.69783   0.41243  -0.05799
  38        3S          0.45895  -0.01744   0.58992  -0.44916   0.17774
                          21        22        23        24        25
                           V         V         V         V         V
     Eigenvalues --     0.64907   0.65632   0.71311   0.75418   0.76618
   1 1   C  1S          0.00256   0.00265  -0.00314  -0.01036   0.08868
   2        2S          0.00600   0.00599  -0.00595  -0.02472   0.18806
   3        2PX         0.07241   0.15789  -0.10316  -0.15471   0.04893
   4        2PY        -0.07012  -0.14546   0.08800  -0.17196   0.07413
   5        2PZ         0.00159   0.00877  -0.01015  -0.02532   0.02060
   6        3S         -0.06973  -0.06825   0.03303   0.36405  -1.45994
   7        3PX         0.10664   0.61761  -0.50183  -0.60325   0.09609
   8        3PY        -0.16320  -0.60665   0.38410  -0.67491   0.18272
   9        3PZ        -0.00400   0.03417  -0.04432  -0.09253   0.06913
  10        4S          0.17782   0.20179  -0.05787  -0.70246   2.16812
  11        4PX         1.24418  -0.44226   2.97316   0.93082  -0.27693
  12        4PY        -1.06921   0.55156  -2.53539   1.19370  -0.39710
  13        4PZ         0.06400  -0.04853   0.18774   0.30156  -0.13445
  14 2   H  1S         -0.03876  -0.04392   0.02121  -0.01956   0.03241
  15        2S         -1.04203  -0.60648  -0.71724  -0.01775   0.11988
  16        3S          0.05867   1.10646  -1.26976   0.93849  -0.86417
  17 3   H  1S          0.04407   0.04184  -0.02075  -0.01622   0.02804
  18        2S          0.93099   0.49616   0.79776  -0.04681   0.00816
  19        3S         -0.10150  -1.04075   1.36080   0.75289  -0.62610
  20 4   C  1S          0.00562   0.00335   0.00071   0.01514   0.08197
  21        2S          0.01153   0.00656   0.00158   0.03502   0.17430
  22        2PX        -0.15707   0.07238   0.08790  -0.16439  -0.04801
  23        2PY         0.16621  -0.06104  -0.08661  -0.15834  -0.06081
  24        2PZ        -0.01006   0.00364   0.00092   0.02273   0.02347
  25        3S         -0.08700  -0.03437  -0.01957  -0.45967  -1.36134
  26        3PX        -0.47575   0.40825   0.45190  -0.62622  -0.09506
  27        3PY         0.55333  -0.34883  -0.40786  -0.60415  -0.13003
  28        3PZ        -0.03577   0.01933   0.00702   0.08186   0.08185
  29        4S         -0.02835  -0.09191  -0.18134   0.76901   2.06406
  30        4PX        -0.57729  -1.30231  -2.85360   1.03235   0.26005
  31        4PY         0.43729   1.30246   2.65306   0.95419   0.29517
  32        4PZ        -0.01408  -0.05000  -0.10485  -0.33635  -0.21690
  33 5   H  1S         -0.05529   0.01505   0.02864   0.02057   0.02865
  34        2S         -1.13123  -0.31500  -0.73154  -0.04352   0.05071
  35        3S          0.83985  -0.84416  -1.18431  -0.79217  -0.74539
  36 6   H  1S          0.06170  -0.00541  -0.02168   0.02130   0.02423
  37        2S          1.10614   0.35617   0.82934  -0.01498  -0.01130
  38        3S         -0.80934   0.74826   1.20790  -0.84595  -0.62469
                          26        27        28        29        30
                           V         V         V         V         V
     Eigenvalues --     0.92072   2.23681   2.29975   2.31768   2.34512
   1 1   C  1S         -0.09179  -0.00911   0.00305   0.01006  -0.00274
   2        2S         -0.19065   0.00178   0.00238   0.00658  -0.00466
   3        2PX         0.10676  -0.15315   0.23578   0.05668   0.37796
   4        2PY         0.09887  -0.22333  -0.09930   0.12472  -0.35077
   5        2PZ         0.00714  -0.07844   0.04553   0.08684   0.02581
   6        3S          1.53910  -0.16547   0.00797   0.04967   0.01326
   7        3PX         0.19433   0.21767  -0.33657  -0.14240  -0.53221
   8        3PY         0.17399   0.28096   0.07443  -0.18421   0.49442
   9        3PZ         0.02668   0.08661  -0.06745  -0.11588  -0.03177
  10        4S         -5.80966  -0.17296   0.33662   0.77361  -0.18266
  11        4PX        -1.62830  -0.05538   0.23828   0.19071  -0.33862
  12        4PY        -1.37893   0.00241   0.06187   0.26343   0.22735
  13        4PZ         0.02151   0.00980   0.00285  -0.01290  -0.00504
  14 2   H  1S         -0.01497  -0.86547  -0.21105   0.72403  -0.87474
  15        2S          0.35079   1.26814   0.27032  -1.05250   1.55698
  16        3S          0.26276  -0.41952  -0.13396   0.40709  -0.68018
  17 3   H  1S         -0.02052  -0.78469   0.73694   0.48608   0.82295
  18        2S          0.29015   1.11267  -1.05499  -0.77313  -1.43724
  19        3S          0.11460  -0.37379   0.51420   0.33040   0.64045
  20 4   C  1S          0.09658  -0.00477  -0.00462  -0.00955   0.00168
  21        2S          0.20147   0.00905  -0.00145  -0.00434  -0.00176
  22        2PX         0.10516   0.03927   0.38510  -0.08162  -0.21198
  23        2PY         0.10011   0.13414  -0.18457   0.28684   0.17614
  24        2PZ         0.00945  -0.11221  -0.06158  -0.13953   0.03988
  25        3S         -1.64159  -0.18325  -0.04168  -0.06521   0.03536
  26        3PX         0.19842  -0.03100  -0.55057   0.06968   0.32891
  27        3PY         0.18798  -0.15146   0.21159  -0.43486  -0.28183
  28        3PZ        -0.00040   0.12619   0.07815   0.17863  -0.04179
  29        4S          5.89535   0.01274  -0.34932  -0.73275   0.18761
  30        4PX        -1.55462  -0.03735   0.15428   0.33853   0.29555
  31        4PY        -1.55734  -0.04369   0.15847   0.20691  -0.35073
  32        4PZ        -0.27203   0.01637   0.01868   0.04403   0.00843
  33 5   H  1S          0.01694  -0.73464   0.28988  -1.18724  -0.26709
  34        2S         -0.32000   1.05559  -0.48351   1.84055   0.62613
  35        3S         -0.22462  -0.35997   0.25805  -0.78695  -0.27580
  36 6   H  1S          0.02102  -0.56045  -1.15235  -0.22695   0.64016
  37        2S         -0.34337   0.77248   1.74794   0.27545  -1.18191
  38        3S         -0.19140  -0.21319  -0.80061  -0.09176   0.46694
                          31        32        33        34        35
                           V         V         V         V         V
     Eigenvalues --     2.66689   2.79825   2.88940   2.94331   3.08014
   1 1   C  1S          0.00147  -0.01192  -0.01019  -0.00655   0.00843
   2        2S         -0.00044  -0.03172  -0.03227  -0.01564   0.02151
   3        2PX         0.09626  -0.35354  -0.23729  -0.72181  -0.72907
   4        2PY         0.02480  -0.41663  -0.58554   0.45571  -0.75102
   5        2PZ        -0.94915   0.70049  -0.55232  -0.13202  -0.09184
   6        3S          0.00605   0.23937   0.26338   0.11706  -0.16246
   7        3PX        -0.08594   0.64317   0.55113   0.94535   0.78139
   8        3PY        -0.00390   0.71930   0.97102  -0.44868   0.82328
   9        3PZ         0.98309  -0.82610   0.70837   0.16867   0.10625
  10        4S          0.02863  -0.51161  -0.49075  -0.28775   0.29638
  11        4PX        -0.00842  -0.51696  -0.52090  -0.77328  -0.51356
  12        4PY        -0.00560  -0.57609  -0.84720   0.30149  -0.45360
  13        4PZ        -0.36823   0.40111  -0.46673  -0.12766  -0.07859
  14 2   H  1S          0.05882   0.07489   0.29231  -0.34813   0.24615
  15        2S         -0.05640  -0.04658  -0.27812   0.38573  -0.17185
  16        3S         -0.01356  -0.19313  -0.30039   0.16887  -0.10303
  17 3   H  1S          0.08057   0.08050   0.14381   0.46493   0.24784
  18        2S         -0.10925  -0.06312  -0.11850  -0.48957  -0.21701
  19        3S          0.00395  -0.11664  -0.14084  -0.24671  -0.13428
  20 4   C  1S          0.00413   0.01322   0.00970   0.00525   0.01127
  21        2S          0.00476   0.03017   0.02970   0.01248   0.02970
  22        2PX        -0.03634  -0.38375  -0.37738  -0.78028   0.58944
  23        2PY        -0.07774  -0.53682  -0.69348   0.41940   0.61394
  24        2PZ        -0.88128  -0.73293   0.62000   0.07109  -0.03611
  25        3S         -0.03168  -0.21121  -0.23257  -0.09338  -0.22236
  26        3PX         0.04797   0.65311   0.69945   1.00691  -0.52376
  27        3PY         0.08433   0.83063   1.06906  -0.41191  -0.55847
  28        3PZ         0.90220   0.88342  -0.75639  -0.08772   0.05346
  29        4S          0.14185   0.52931   0.47058   0.25301   0.42820
  30        4PX         0.01076  -0.49017  -0.59560  -0.74406   0.27073
  31        4PY        -0.04030  -0.60555  -0.84614   0.23597   0.19980
  32        4PZ        -0.33832  -0.44254   0.48185   0.06225  -0.03045
  33 5   H  1S          0.09057   0.00892  -0.30771   0.32053   0.19472
  34        2S         -0.09353  -0.04847   0.27914  -0.32548  -0.13586
  35        3S         -0.01751   0.20449   0.29401  -0.17569   0.00372
  36 6   H  1S          0.11062   0.01892  -0.15151  -0.43592   0.18150
  37        2S         -0.14394  -0.05754   0.12837   0.41843  -0.16126
  38        3S         -0.00794   0.14290   0.15165   0.27840  -0.03959
                          36        37        38
                           V         V         V
     Eigenvalues --     3.23766  23.34493  23.66344
   1 1   C  1S         -0.00177  -1.44036   1.42554
   2        2S         -0.00200   1.53627  -1.53982
   3        2PX        -0.63240  -0.00944  -0.02012
   4        2PY         0.61828  -0.01189  -0.01719
   5        2PZ        -0.03724  -0.00320  -0.00042
   6        3S          0.00778  -0.30168   0.38175
   7        3PX         0.85925   0.02884   0.07348
   8        3PY        -0.86396   0.03512   0.06627
   9        3PZ         0.04866   0.00928   0.00205
  10        4S         -0.03295   0.26193  -0.72796
  11        4PX        -1.11012  -0.02855  -0.18541
  12        4PY         1.05673  -0.04424  -0.16201
  13        4PZ        -0.05832  -0.01255   0.00377
  14 2   H  1S         -0.47849   0.01461  -0.00905
  15        2S          0.56885   0.00559   0.02017
  16        3S          0.34892  -0.08762   0.04893
  17 3   H  1S          0.42878   0.00692   0.00058
  18        2S         -0.53318   0.01344   0.00781
  19        3S         -0.33934  -0.07522   0.03723
  20 4   C  1S         -0.00082  -1.42161  -1.44435
  21        2S         -0.00108   1.51634   1.56020
  22        2PX         0.64378   0.00915  -0.01982
  23        2PY        -0.60055   0.01000  -0.01823
  24        2PZ         0.02603  -0.00351  -0.00288
  25        3S          0.00372  -0.30065  -0.38878
  26        3PX        -0.88065  -0.02730   0.07314
  27        3PY         0.81916  -0.02935   0.06922
  28        3PZ        -0.03626   0.01016   0.00933
  29        4S          0.04370   0.28553   0.73176
  30        4PX         1.11756   0.01854  -0.18084
  31        4PY        -1.03910   0.02933  -0.17628
  32        4PZ         0.04402  -0.02220  -0.03305
  33 5   H  1S         -0.46952   0.01007   0.00762
  34        2S          0.55855   0.00375  -0.01734
  35        3S          0.28753  -0.08481  -0.04493
  36 6   H  1S          0.45240   0.00730   0.00229
  37        2S         -0.56111   0.00909  -0.01322
  38        3S         -0.32089  -0.07692  -0.04218
     Density Matrix:
                           1         2         3         4         5
   1 1   C  1S          0.65955
   2        2S          0.56151   0.49191
   3        2PX        -0.00154  -0.00220   0.08148
   4        2PY        -0.00064  -0.00082   0.00383   0.08582
   5        2PZ         0.00070   0.00106  -0.00108  -0.00151   0.06205
   6        3S         -0.08981  -0.15501   0.00762   0.00370  -0.00201
   7        3PX        -0.00013  -0.00030   0.12697   0.00267  -0.00044
   8        3PY         0.00081   0.00123   0.00292   0.13090  -0.00124
   9        3PZ         0.00132   0.00220  -0.00148  -0.00249   0.09897
  10        4S         -0.08424  -0.12309  -0.01968  -0.01417   0.00665
  11        4PX         0.00008   0.00183   0.07199  -0.00455  -0.00347
  12        4PY        -0.00093  -0.00028  -0.00542   0.07392  -0.00388
  13        4PZ         0.00068   0.00081  -0.00912  -0.00850   0.09567
  14 2   H  1S         -0.02055  -0.03267   0.01890  -0.07019  -0.00462
  15        2S         -0.02202  -0.03521   0.02584  -0.09922  -0.00359
  16        3S          0.00110   0.00009   0.01041  -0.03832   0.00082
  17 3   H  1S         -0.01945  -0.03108  -0.06543   0.01543  -0.00900
  18        2S         -0.02293  -0.03665  -0.09571   0.02390  -0.00939
  19        3S          0.00018  -0.00112  -0.03785   0.01190  -0.00176
  20 4   C  1S          0.00533   0.00851  -0.01301  -0.01369  -0.00477
  21        2S          0.00855   0.01325  -0.02077  -0.02197  -0.00776
  22        2PX         0.01440   0.02309  -0.03046  -0.03592   0.00039
  23        2PY         0.01457   0.02345  -0.03614  -0.03300   0.00341
  24        2PZ        -0.00156  -0.00257  -0.00767  -0.00436   0.06207
  25        3S         -0.02321  -0.03497   0.05856   0.06270   0.02360
  26        3PX         0.02282   0.03554  -0.04431  -0.05347  -0.00022
  27        3PY         0.02279   0.03564  -0.05216  -0.04908   0.00465
  28        3PZ        -0.00259  -0.00427  -0.01252  -0.00723   0.09881
  29        4S          0.00752   0.00822   0.02184   0.02392   0.01943
  30        4PX         0.00396   0.00819  -0.02750  -0.02286   0.00493
  31        4PY         0.00492   0.00987  -0.02399  -0.03083   0.01151
  32        4PZ        -0.00273  -0.00432  -0.01493  -0.00905   0.09540
  33 5   H  1S          0.00408   0.00681  -0.00342  -0.00970  -0.00517
  34        2S          0.00703   0.01182  -0.00608  -0.02441  -0.00293
  35        3S          0.00398   0.00599  -0.00417  -0.01994  -0.00107
  36 6   H  1S          0.00433   0.00714  -0.00938  -0.00378  -0.00550
  37        2S          0.00732   0.01215  -0.02291  -0.00494  -0.00325
  38        3S          0.00391   0.00590  -0.01713  -0.00353  -0.00206
                           6         7         8         9        10
   6        3S          0.45739
   7        3PX         0.00480   0.19813
   8        3PY        -0.00009  -0.00034   0.19988
   9        3PZ        -0.00515  -0.00030  -0.00209   0.15787
  10        4S          0.30212  -0.03429  -0.02412   0.00915   0.21737
  11        4PX        -0.00787   0.11282  -0.00926  -0.00529  -0.02351
  12        4PY        -0.00110  -0.01115   0.11321  -0.00631  -0.01054
  13        4PZ        -0.00074  -0.01219  -0.01116   0.15258   0.01429
  14 2   H  1S          0.08757   0.03071  -0.10908  -0.00762   0.06470
  15        2S          0.09455   0.04247  -0.15389  -0.00595   0.07204
  16        3S          0.00397   0.01754  -0.05914   0.00138   0.00530
  17 3   H  1S          0.08330  -0.10419   0.02476  -0.01495   0.07107
  18        2S          0.09790  -0.15198   0.03869  -0.01573   0.08825
  19        3S          0.00633  -0.05968   0.01949  -0.00295   0.01254
  20 4   C  1S         -0.02282  -0.02020  -0.02098  -0.00791   0.00779
  21        2S         -0.03451  -0.03120  -0.03263  -0.01274   0.00812
  22        2PX        -0.06546  -0.04554  -0.05292   0.00101  -0.03417
  23        2PY        -0.06697  -0.05480  -0.04932   0.00574  -0.03585
  24        2PZ         0.00791  -0.01062  -0.00532   0.09891   0.01784
  25        3S          0.08885   0.08498   0.09020   0.03827  -0.00950
  26        3PX        -0.09766  -0.06620  -0.07879   0.00024  -0.05188
  27        3PY        -0.09872  -0.07909  -0.07350   0.00787  -0.05381
  28        3PZ         0.01308  -0.01736  -0.00887   0.15744   0.02925
  29        4S         -0.01286   0.03134   0.03409   0.03178  -0.05137
  30        4PX        -0.02956  -0.04186  -0.03348   0.00807  -0.01232
  31        4PY        -0.03475  -0.03617  -0.04657   0.01855  -0.01608
  32        4PZ         0.01230  -0.02130  -0.01182   0.15205   0.02674
  33 5   H  1S         -0.02109  -0.00587  -0.01596  -0.00794  -0.02572
  34        2S         -0.03634  -0.00952  -0.03863  -0.00425  -0.03599
  35        3S         -0.01620  -0.00590  -0.03072  -0.00160  -0.01009
  36 6   H  1S         -0.02155  -0.01503  -0.00553  -0.00842  -0.02333
  37        2S         -0.03660  -0.03602  -0.00657  -0.00472  -0.03203
  38        3S         -0.01589  -0.02654  -0.00450  -0.00319  -0.00779
                          11        12        13        14        15
  11        4PX         0.06598
  12        4PY        -0.01050   0.06565
  13        4PZ        -0.01185  -0.01086   0.14873
  14 2   H  1S          0.02073  -0.06354  -0.00335   0.08182
  15        2S          0.02924  -0.09003  -0.00028   0.11051   0.15217
  16        3S          0.01233  -0.03513   0.00313   0.03697   0.05374
  17 3   H  1S         -0.06203   0.02027  -0.00846  -0.01336  -0.02524
  18        2S         -0.09036   0.03107  -0.00681  -0.02661  -0.04645
  19        3S         -0.03530   0.01453  -0.00001  -0.01961  -0.02975
  20 4   C  1S         -0.00253  -0.00377  -0.00685   0.00418   0.00622
  21        2S         -0.00596  -0.00795  -0.01120   0.00692   0.01046
  22        2PX        -0.02510  -0.02841   0.00630   0.00435   0.00385
  23        2PY        -0.02991  -0.02864   0.01131   0.01108   0.02731
  24        2PZ        -0.00850  -0.00483   0.09625  -0.00234  -0.00145
  25        3S          0.02351   0.02942   0.03397  -0.02128  -0.03245
  26        3PX        -0.03668  -0.04238   0.00813   0.00607   0.00431
  27        3PY        -0.04322  -0.04307   0.01610   0.01767   0.04296
  28        3PZ        -0.01363  -0.00776   0.15321  -0.00347  -0.00200
  29        4S          0.00179   0.00438   0.03131  -0.01792  -0.02211
  30        4PX        -0.02471  -0.01788   0.01231   0.00138  -0.00162
  31        4PY        -0.02024  -0.02811   0.02262   0.01734   0.03373
  32        4PZ        -0.01655  -0.01000   0.14869  -0.00209   0.00027
  33 5   H  1S         -0.00644  -0.01430  -0.00523   0.01010   0.02351
  34        2S         -0.00832  -0.02880  -0.00015   0.02157   0.04442
  35        3S         -0.00252  -0.01894   0.00047   0.01636   0.02868
  36 6   H  1S         -0.01304  -0.00514  -0.00564  -0.00844  -0.01738
  37        2S         -0.02638  -0.00526  -0.00047  -0.01681  -0.03148
  38        3S         -0.01597  -0.00123  -0.00105  -0.00782  -0.01439
                          16        17        18        19        20
  16        3S          0.02187
  17 3   H  1S         -0.01741   0.07600
  18        2S         -0.02814   0.10726   0.15396
  19        3S         -0.01356   0.03697   0.05553   0.02279
  20 4   C  1S          0.00291   0.00424   0.00635   0.00297   0.65941
  21        2S          0.00431   0.00692   0.01046   0.00437   0.56117
  22        2PX         0.00190   0.01116   0.02608   0.01847   0.00057
  23        2PY         0.02042   0.00438   0.00244   0.00112   0.00032
  24        2PZ         0.00034  -0.00194   0.00069   0.00142  -0.00019
  25        3S         -0.01163  -0.02061  -0.03132  -0.01148  -0.08870
  26        3PX         0.00178   0.01656   0.03959   0.02837  -0.00061
  27        3PY         0.03176   0.00483   0.00038  -0.00007  -0.00083
  28        3PZ         0.00058  -0.00281   0.00145   0.00231   0.00048
  29        4S         -0.00246  -0.01727  -0.02211  -0.00291  -0.08540
  30        4PX        -0.00206   0.01699   0.03241   0.01844  -0.00077
  31        4PY         0.02046   0.00026  -0.00404  -0.00307  -0.00017
  32        4PZ         0.00188  -0.00098   0.00367   0.00315  -0.00222
  33 5   H  1S          0.01703  -0.00826  -0.01896  -0.00980  -0.01996
  34        2S          0.02897  -0.01516  -0.03193  -0.01606  -0.02253
  35        3S          0.01553  -0.00722  -0.01468  -0.00773   0.00054
  36 6   H  1S         -0.00879   0.01016   0.02316   0.01598  -0.01992
  37        2S         -0.01524   0.02106   0.04366   0.02763  -0.02373
  38        3S         -0.00734   0.01461   0.02657   0.01440  -0.00002
                          21        22        23        24        25
  21        2S          0.49131
  22        2PX         0.00072   0.08077
  23        2PY         0.00034   0.00438   0.08361
  24        2PZ        -0.00031   0.00206   0.00108   0.06383
  25        3S         -0.15323  -0.00379  -0.00266   0.00284   0.45189
  26        3PX        -0.00095   0.12545   0.00194   0.00225  -0.00114
  27        3PY        -0.00133   0.00228   0.12814   0.00070   0.00028
  28        3PZ         0.00075   0.00290   0.00146   0.10179   0.00114
  29        4S         -0.12467   0.02777   0.02665   0.00408   0.30444
  30        4PX        -0.00302   0.06444  -0.00235   0.00673   0.01175
  31        4PY        -0.00188  -0.00270   0.06878   0.00944   0.00833
  32        4PZ        -0.00437   0.00615   0.00803   0.09757   0.01707
  33 5   H  1S         -0.03177  -0.01897   0.06605  -0.01210   0.08474
  34        2S         -0.03612  -0.02599   0.09850  -0.01185   0.09658
  35        3S         -0.00075  -0.00975   0.04048  -0.00310   0.00579
  36 6   H  1S         -0.03180   0.06455  -0.01686  -0.00757   0.08496
  37        2S         -0.03802   0.09647  -0.02441  -0.00476   0.10171
  38        3S         -0.00153   0.03886  -0.01080  -0.00072   0.00766
                          26        27        28        29        30
  26        3PX         0.19519
  27        3PY        -0.00387   0.19671
  28        3PZ         0.00296   0.00070   0.16237
  29        4S          0.04484   0.04225   0.00393   0.22865
  30        4PX         0.10045  -0.00722   0.01035   0.02901   0.05388
  31        4PY        -0.00824   0.10586   0.01481   0.02584  -0.00600
  32        4PZ         0.00785   0.01080   0.15549   0.01755   0.01290
  33 5   H  1S         -0.03229   0.10358  -0.02005   0.07184  -0.01867
  34        2S         -0.04493   0.15407  -0.01981   0.08769  -0.02689
  35        3S         -0.01737   0.06303  -0.00506   0.01284  -0.01145
  36 6   H  1S          0.10245  -0.02864  -0.01299   0.07525   0.05561
  37        2S          0.15267  -0.04204  -0.00877   0.09563   0.08331
  38        3S          0.06117  -0.01883  -0.00136   0.01515   0.03324
                          31        32        33        34        35
  31        4PY         0.05960
  32        4PZ         0.01986   0.15019
  33 5   H  1S          0.05697  -0.01172   0.07808
  34        2S          0.08557  -0.00883   0.10943   0.15590
  35        3S          0.03530  -0.00184   0.03839   0.05717   0.02376
  36 6   H  1S         -0.01897  -0.00808  -0.01367  -0.02579  -0.01722
  37        2S         -0.02797  -0.00271  -0.02658  -0.04592  -0.02713
  38        3S         -0.01290  -0.00021  -0.01856  -0.02822  -0.01263
                          36        37        38
  36 6   H  1S          0.07562
  37        2S          0.10755   0.15526
  38        3S          0.03733   0.05600   0.02277
    Full Mulliken population analysis:
                           1         2         3         4         5
   1 1   C  1S          0.65955
   2        2S          0.49325   0.49191
   3        2PX         0.00000   0.00000   0.08148
   4        2PY         0.00000   0.00000   0.00000   0.08582
   5        2PZ         0.00000   0.00000   0.00000   0.00000   0.06205
   6        3S         -0.02956  -0.06492   0.00000   0.00000   0.00000
   7        3PX         0.00000   0.00000   0.07988   0.00000   0.00000
   8        3PY         0.00000   0.00000   0.00000   0.08235   0.00000
   9        3PZ         0.00000   0.00000   0.00000   0.00000   0.06226
  10        4S         -0.01295  -0.02304   0.00000   0.00000   0.00000
  11        4PX         0.00000   0.00000   0.01585   0.00000   0.00000
  12        4PY         0.00000   0.00000   0.00000   0.01628   0.00000
  13        4PZ         0.00000   0.00000   0.00000   0.00000   0.02107
  14 2   H  1S         -0.00023  -0.00033   0.00057   0.00690   0.00006
  15        2S         -0.00161  -0.00308   0.00131   0.01642   0.00007
  16        3S          0.00009   0.00001   0.00020   0.00243  -0.00001
  17 3   H  1S         -0.00015  -0.00021   0.00507   0.00026   0.00014
  18        2S         -0.00147  -0.00280   0.01492   0.00080   0.00030
  19        3S          0.00001  -0.00010   0.00244   0.00016   0.00002
  20 4   C  1S          0.00000   0.00000  -0.00002  -0.00003  -0.00000
  21        2S          0.00000  -0.00000  -0.00002  -0.00002  -0.00000
  22        2PX        -0.00003  -0.00002   0.00058   0.00084  -0.00000
  23        2PY        -0.00003  -0.00002   0.00084   0.00060  -0.00000
  24        2PZ         0.00000   0.00000   0.00001   0.00001   0.00028
  25        3S         -0.00043  -0.00071   0.00382   0.00401   0.00009
  26        3PX        -0.00094  -0.00172   0.00348   0.00675   0.00000
  27        3PY        -0.00092  -0.00169   0.00658   0.00361  -0.00003
  28        3PZ         0.00001   0.00001   0.00009   0.00005   0.00492
  29        4S          0.00045   0.00058   0.00138   0.00148   0.00007
  30        4PX        -0.00032  -0.00081  -0.00018   0.00184  -0.00002
  31        4PY        -0.00039  -0.00095   0.00193  -0.00030  -0.00005
  32        4PZ         0.00001   0.00002   0.00007   0.00004   0.00842
  33 5   H  1S          0.00000   0.00000  -0.00000  -0.00000   0.00000
  34        2S          0.00002   0.00003  -0.00003  -0.00039   0.00001
  35        3S          0.00010   0.00018  -0.00005  -0.00082   0.00001
  36 6   H  1S          0.00000   0.00000  -0.00000  -0.00000   0.00000
  37        2S          0.00001   0.00002  -0.00027  -0.00002   0.00000
  38        3S          0.00009   0.00016  -0.00065  -0.00004   0.00001
                           6         7         8         9        10
   6        3S          0.45739
   7        3PX         0.00000   0.19813
   8        3PY         0.00000   0.00000   0.19988
   9        3PZ         0.00000   0.00000   0.00000   0.15787
  10        4S          0.23405   0.00000   0.00000   0.00000   0.21737
  11        4PX         0.00000   0.07372   0.00000   0.00000   0.00000
  12        4PY         0.00000   0.00000   0.07398   0.00000   0.00000
  13        4PZ         0.00000   0.00000   0.00000   0.09971   0.00000
  14 2   H  1S          0.01611   0.00340   0.03952   0.00034   0.01712
  15        2S          0.03983   0.00603   0.07142   0.00034   0.04155
  16        3S          0.00183   0.00119   0.01307  -0.00004   0.00400
  17 3   H  1S          0.01314   0.03430   0.00175   0.00100   0.01776
  18        2S          0.03784   0.06863   0.00376   0.00144   0.04868
  19        3S          0.00281   0.01347   0.00095   0.00014   0.00922
  20 4   C  1S         -0.00042  -0.00083  -0.00085  -0.00002   0.00046
  21        2S         -0.00070  -0.00151  -0.00155  -0.00004   0.00058
  22        2PX         0.00427   0.00357   0.00668  -0.00001   0.00216
  23        2PY         0.00428   0.00692   0.00363  -0.00004   0.00222
  24        2PZ        -0.00003   0.00008   0.00004   0.00492  -0.00007
  25        3S          0.01697   0.02107   0.02193   0.00055  -0.00342
  26        3PX         0.02421   0.00865   0.02487  -0.00000   0.01122
  27        3PY         0.02401   0.02496   0.00872  -0.00014   0.01142
  28        3PZ        -0.00019   0.00033   0.00016   0.02990  -0.00037
  29        4S         -0.00463   0.00678   0.00723   0.00040  -0.03121
  30        4PX         0.01165  -0.00280   0.00778  -0.00011   0.00533
  31        4PY         0.01343   0.00840  -0.00353  -0.00025   0.00682
  32        4PZ        -0.00028   0.00029   0.00016   0.04605  -0.00067
  33 5   H  1S         -0.00008  -0.00003  -0.00023   0.00001  -0.00160
  34        2S         -0.00175  -0.00029  -0.00390   0.00005  -0.00677
  35        3S         -0.00291  -0.00029  -0.00502   0.00003  -0.00389
  36 6   H  1S         -0.00006  -0.00015  -0.00002   0.00001  -0.00123
  37        2S         -0.00139  -0.00298  -0.00017   0.00003  -0.00532
  38        3S         -0.00257  -0.00407  -0.00021   0.00004  -0.00279
                          11        12        13        14        15
  11        4PX         0.06598
  12        4PY         0.00000   0.06565
  13        4PZ         0.00000   0.00000   0.14873
  14 2   H  1S          0.00226   0.02259   0.00015   0.08182
  15        2S          0.00535   0.05388   0.00002   0.07806   0.15217
  16        3S          0.00177   0.01647  -0.00018   0.01382   0.04240
  17 3   H  1S          0.02208   0.00155   0.00061  -0.00000  -0.00061
  18        2S          0.05486   0.00406   0.00084  -0.00064  -0.00550
  19        3S          0.01709   0.00151   0.00000  -0.00212  -0.00844
  20 4   C  1S         -0.00020  -0.00030  -0.00003   0.00000   0.00001
  21        2S         -0.00059  -0.00077  -0.00006   0.00000   0.00002
  22        2PX        -0.00016   0.00229  -0.00003  -0.00000  -0.00002
  23        2PY         0.00241  -0.00027  -0.00005  -0.00000  -0.00036
  24        2PZ         0.00004   0.00002   0.00850   0.00000   0.00000
  25        3S          0.00927   0.01137   0.00078  -0.00007  -0.00136
  26        3PX        -0.00245   0.00984  -0.00011  -0.00002  -0.00013
  27        3PY         0.01004  -0.00327  -0.00022  -0.00020  -0.00383
  28        3PZ         0.00019   0.00011   0.04641   0.00000   0.00002
  29        4S          0.00078   0.00186   0.00079  -0.00101  -0.00387
  30        4PX        -0.00740   0.00540  -0.00022  -0.00007   0.00019
  31        4PY         0.00612  -0.00874  -0.00040  -0.00254  -0.01182
  32        4PZ         0.00030   0.00018   0.09016   0.00003  -0.00001
  33 5   H  1S         -0.00030  -0.00227   0.00010   0.00000   0.00000
  34        2S         -0.00092  -0.01069   0.00001   0.00000   0.00021
  35        3S         -0.00034  -0.00863  -0.00003   0.00027   0.00173
  36 6   H  1S         -0.00183  -0.00022   0.00007  -0.00000  -0.00006
  37        2S         -0.00900  -0.00055   0.00001  -0.00006  -0.00107
  38        3S         -0.00704  -0.00016   0.00004  -0.00041  -0.00224
                          16        17        18        19        20
  16        3S          0.02187
  17 3   H  1S         -0.00188   0.07600
  18        2S         -0.00798   0.07577   0.15396
  19        3S         -0.00692   0.01382   0.04381   0.02279
  20 4   C  1S          0.00007   0.00000   0.00001   0.00006   0.65941
  21        2S          0.00012   0.00000   0.00001   0.00011   0.49296
  22        2PX        -0.00002  -0.00000  -0.00023  -0.00064   0.00000
  23        2PY        -0.00080  -0.00000  -0.00001  -0.00001   0.00000
  24        2PZ        -0.00000   0.00000  -0.00000  -0.00001   0.00000
  25        3S         -0.00196  -0.00004  -0.00095  -0.00168  -0.02920
  26        3PX        -0.00009  -0.00011  -0.00265  -0.00400   0.00000
  27        3PY        -0.00496  -0.00001  -0.00001   0.00000   0.00000
  28        3PZ        -0.00001   0.00000  -0.00001  -0.00004   0.00000
  29        4S         -0.00091  -0.00079  -0.00327  -0.00097  -0.01313
  30        4PX         0.00030  -0.00208  -0.00999  -0.00769   0.00000
  31        4PY        -0.00907  -0.00001   0.00044   0.00045   0.00000
  32        4PZ        -0.00008   0.00002  -0.00015  -0.00018   0.00000
  33 5   H  1S          0.00028  -0.00000  -0.00006  -0.00050  -0.00019
  34        2S          0.00175  -0.00005  -0.00103  -0.00245  -0.00154
  35        3S          0.00287  -0.00037  -0.00224  -0.00262   0.00004
  36 6   H  1S         -0.00046   0.00000   0.00000   0.00019  -0.00016
  37        2S         -0.00237   0.00000   0.00012   0.00128  -0.00153
  38        3S         -0.00253   0.00017   0.00123   0.00223  -0.00000
                          21        22        23        24        25
  21        2S          0.49131
  22        2PX         0.00000   0.08077
  23        2PY         0.00000   0.00000   0.08361
  24        2PZ         0.00000   0.00000   0.00000   0.06383
  25        3S         -0.06417   0.00000   0.00000   0.00000   0.45189
  26        3PX         0.00000   0.07892   0.00000   0.00000   0.00000
  27        3PY         0.00000   0.00000   0.08061   0.00000   0.00000
  28        3PZ         0.00000   0.00000   0.00000   0.06404   0.00000
  29        4S         -0.02333   0.00000   0.00000   0.00000   0.23585
  30        4PX         0.00000   0.01419   0.00000   0.00000   0.00000
  31        4PY         0.00000   0.00000   0.01515   0.00000   0.00000
  32        4PZ         0.00000   0.00000   0.00000   0.02149   0.00000
  33 5   H  1S         -0.00026   0.00061   0.00538   0.00029   0.01436
  34        2S         -0.00294   0.00155   0.01485   0.00052   0.03886
  35        3S         -0.00007   0.00023   0.00243   0.00005   0.00261
  36 6   H  1S         -0.00022   0.00492   0.00041   0.00013   0.01350
  37        2S         -0.00292   0.01468   0.00119   0.00016   0.03948
  38        3S         -0.00014   0.00243   0.00022   0.00001   0.00341
                          26        27        28        29        30
  26        3PX         0.19519
  27        3PY         0.00000   0.19671
  28        3PZ         0.00000   0.00000   0.16237
  29        4S          0.00000   0.00000   0.00000   0.22865
  30        4PX         0.06564   0.00000   0.00000   0.00000   0.05388
  31        4PY         0.00000   0.06918   0.00000   0.00000   0.00000
  32        4PZ         0.00000   0.00000   0.10160   0.00000   0.00000
  33 5   H  1S          0.00414   0.03355   0.00189   0.01844   0.00247
  34        2S          0.00765   0.06630   0.00248   0.04939   0.00604
  35        3S          0.00145   0.01326   0.00031   0.00956   0.00203
  36 6   H  1S          0.03298   0.00294   0.00091   0.01885   0.01927
  37        2S          0.06720   0.00591   0.00084   0.05286   0.04920
  38        3S          0.01343   0.00132   0.00006   0.01115   0.01564
                          31        32        33        34        35
  31        4PY         0.05960
  32        4PZ         0.00000   0.15019
  33 5   H  1S          0.01907   0.00114   0.07808
  34        2S          0.04855   0.00146   0.07730   0.15590
  35        3S          0.01584   0.00024   0.01434   0.04510   0.02376
  36 6   H  1S          0.00210   0.00061  -0.00000  -0.00046  -0.00166
  37        2S          0.00527   0.00035  -0.00047  -0.00448  -0.00701
  38        3S          0.00194   0.00002  -0.00179  -0.00729  -0.00606
                          36        37        38
  36 6   H  1S          0.07562
  37        2S          0.07597   0.15526
  38        3S          0.01395   0.04418   0.02277
     Gross orbital populations:
                           1
   1 1   C  1S          1.10455
   2        2S          0.88580
   3        2PX         0.21928
   4        2PY         0.22906
   5        2PZ         0.15965
   6        3S          0.79232
   7        3PX         0.54686
   8        3PY         0.55239
   9        3PZ         0.40445
  10        4S          0.53661
  11        4PX         0.25788
  12        4PY         0.25118
  13        4PZ         0.41665
  14 2   H  1S          0.27532
  15        2S          0.46706
  16        3S          0.08428
  17 3   H  1S          0.25713
  18        2S          0.47248
  19        3S          0.09421
  20 4   C  1S          1.10457
  21        2S          0.88581
  22        2PX         0.21755
  23        2PY         0.22315
  24        2PZ         0.16431
  25        3S          0.78583
  26        3PX         0.54338
  27        3PY         0.54382
  28        3PZ         0.41606
  29        4S          0.56342
  30        4PX         0.22918
  31        4PY         0.23624
  32        4PZ         0.42148
  33 5   H  1S          0.26368
  34        2S          0.47306
  35        3S          0.09445
  36 6   H  1S          0.25590
  37        2S          0.47442
  38        3S          0.09652
          Condensed to atoms (all electrons):
               1          2          3          4          5          6
     1  C    5.135684   0.380817   0.376864   0.554206  -0.050667  -0.040217
     2  H    0.380817   0.524402  -0.034076  -0.042420   0.007121  -0.009192
     3  H    0.376864  -0.034076   0.519548  -0.034437  -0.009304   0.005229
     4  C    0.554206  -0.042420  -0.034437   5.096980   0.382055   0.378404
     5  H   -0.050667   0.007121  -0.009304   0.382055   0.531219  -0.029227
     6  H   -0.040217  -0.009192   0.005229   0.378404  -0.029227   0.521851
 Mulliken charges:
               1
     1  C   -0.356688
     2  H    0.173347
     3  H    0.176177
     4  C   -0.334789
     5  H    0.168802
     6  H    0.173152
 Sum of Mulliken charges =  -0.00000
 Mulliken charges with hydrogens summed into heavy atoms:
               1
     1  C   -0.007164
     4  C    0.007164
 Electronic spatial extent (au):  <R**2>=             98.0441
 Charge=             -0.0000 electrons
 Dipole moment (field-independent basis, Debye):
    X=             -0.0784    Y=             -0.1509    Z=             -0.7342  Tot=              0.7536
 Quadrupole moment (field-independent basis, Debye-Ang):
   XX=            -12.3543   YY=            -12.9108   ZZ=            -15.7136
   XY=             -0.5363   XZ=             -0.1444   YZ=             -0.4803
 Traceless Quadrupole moment (field-independent basis, Debye-Ang):
   XX=              1.3053   YY=              0.7487   ZZ=             -2.0540
   XY=             -0.5363   XZ=             -0.1444   YZ=             -0.4803
 Octapole moment (field-independent basis, Debye-Ang**2):
  XXX=             -8.2550  YYY=            -15.6939  ZZZ=              1.9144  XYY=             -3.5432
  XXY=             -5.5065  XXZ=             -0.6082  XZZ=             -3.5322  YZZ=             -6.2677
  YYZ=             -0.6510  XYZ=             -0.3075
 Hexadecapole moment (field-independent basis, Debye-Ang**3):
 XXXX=            -49.9574 YYYY=            -58.8802 ZZZZ=            -19.2259 XXXY=            -14.4621
 XXXZ=             -0.9888 YYYX=            -15.5880 YYYZ=             -1.2516 ZZZX=             -0.2659
 ZZZY=              0.4634 XXYY=            -21.4634 XXZZ=            -13.1347 YYZZ=            -14.4001
 XXYZ=             -0.3740 YYXZ=             -0.4902 ZZXY=             -5.1472
 N-N= 3.222295788927D+01 E-N=-2.459261614861D+02  KE= 7.789981915134D+01
 Orbital energies and kinetic energies (alpha):
                                 1                 2
   1         O               -10.302969         15.982731
   2         O               -10.302139         15.985124
   3         O                -0.857206          1.484327
   4         O                -0.662621          1.274128
   5         O                -0.556917          0.910639
   6         O                -0.490043          1.237459
   7         O                -0.438248          1.033828
   8         O                -0.350966          1.041674
   9         V                 0.057230          1.201918
  10         V                 0.130265          0.635522
  11         V                 0.155454          0.646066
  12         V                 0.171094          0.673688
  13         V                 0.237521          0.615293
  14         V                 0.349977          0.930547
  15         V                 0.382873          0.790902
  16         V                 0.395947          0.931115
  17         V                 0.471562          1.237634
  18         V                 0.488295          1.342702
  19         V                 0.500019          1.365495
  20         V                 0.585294          1.657277
  21         V                 0.649075          1.722945
  22         V                 0.656324          1.593333
  23         V                 0.713108          1.293045
  24         V                 0.754181          2.231747
  25         V                 0.766180          2.543800
  26         V                 0.920717          3.122143
  27         V                 2.236808          3.930970
  28         V                 2.299748          4.184835
  29         V                 2.317684          4.042658
  30         V                 2.345125          4.321444
  31         V                 2.666890          6.272814
  32         V                 2.798246          6.258129
  33         V                 2.889395          6.231659
  34         V                 2.943307          6.224124
  35         V                 3.080138          6.790308
  36         V                 3.237664          6.449541
  37         V                23.344933         60.084492
  38         V                23.663440         60.176673
 Total kinetic energy from orbitals= 7.789981915134D+01
 Calling FoFJK, ICntrl=  10005127 FMM=F ISym2X=0 I1Cent= 0 IOpClX= 0 NMat=1 NMatS=1 NMatT=0.
 -------------------------------------------------------------------
 Center     Atomic                   Forces (Hartrees/Bohr)
 Number     Number              X              Y              Z
 -------------------------------------------------------------------
      1        6          -0.121754890   -0.087979734    0.000912063
      2        1          -0.004498689    0.004533959   -0.007988295
      3        1           0.034918398   -0.008942616    0.007898094
      4        6           0.093309544    0.083150970   -0.007777121
      5        1           0.021480016   -0.012726508   -0.001208625
      6        1          -0.023454379    0.021963929    0.008163885
 -------------------------------------------------------------------
 Cartesian Forces:  Max     0.121754890 RMS     0.047979739

 GradGradGradGradGradGradGradGradGradGradGradGradGradGradGradGradGradGrad
 Berny optimization.
 Search for a local minimum.
 Step number   1 out of a maximum of    2
 All quantities printed in internal units (Hartrees-Bohrs-Radians)
 Second derivative matrix not updated -- first step.
 The second derivative matrix:
                          X1        Y1        Z1        X2        Y2
           X1           0.69290
           Y1           0.08168   0.71448
           Z1           0.06243   0.04535   0.15119
           X2          -0.12022   0.06326  -0.00089   0.09501
           Y2           0.06723  -0.31591  -0.03595  -0.07491   0.31334
           Z2           0.00229  -0.04571  -0.05107  -0.00257   0.03760
           X3          -0.26768   0.03836  -0.04644   0.00541   0.00166
           Y3           0.03131  -0.10337   0.00120   0.03164   0.00855
           Z3          -0.05621   0.00432  -0.05538   0.00688   0.00088
           X4          -0.31680  -0.17066  -0.02549   0.01992   0.00576
           Y4          -0.16867  -0.30632  -0.02153  -0.02010  -0.00572
           Z4          -0.00798  -0.00353  -0.06104  -0.00341  -0.00255
           X5           0.01782  -0.01857   0.00676  -0.00007   0.00016
           Y5           0.00703  -0.00746   0.00506   0.00006  -0.00012
           Z5          -0.00010  -0.00039   0.00821   0.00029  -0.00065
           X6          -0.00602   0.00592   0.00362  -0.00004   0.00010
           Y6          -0.01857   0.01859   0.00586   0.00006  -0.00014
           Z6          -0.00043  -0.00005   0.00809  -0.00030   0.00067
                          Z2        X3        Y3        Z3        X4
           Z2           0.02907
           X3          -0.00005   0.26615
           Y3           0.00917  -0.04420   0.07540
           Z3           0.00997   0.05006  -0.00522   0.03329
           X4           0.00273  -0.00347  -0.01904  -0.00310   0.67510
           Y4          -0.00351   0.00374   0.01971   0.00246   0.05770
           Z4           0.01224  -0.00353  -0.00518   0.01190  -0.02493
           X5          -0.00147  -0.00026   0.00018   0.00146  -0.11926
           Y5           0.00115   0.00020  -0.00014  -0.00114   0.07031
           Z5           0.00596   0.00105  -0.00071  -0.00592  -0.01742
           X6          -0.00092  -0.00016   0.00011   0.00091  -0.25550
           Y6           0.00131   0.00023  -0.00016  -0.00130   0.05593
           Z6          -0.00617  -0.00108   0.00074   0.00614   0.06821
                          Y4        Z4        X5        Y5        Z5
           Y4           0.65636
           Z4          -0.05651   0.15051
           X5           0.07075  -0.01105   0.09616
           Y5          -0.25700   0.06794  -0.07932   0.25769
           Z5           0.08465  -0.06087   0.01789  -0.07060   0.04238
           X6           0.05659   0.05090   0.00561   0.00172  -0.00171
           Y6          -0.10704  -0.00018   0.02680   0.00704  -0.01230
           Z6          -0.00556  -0.05275  -0.01359  -0.00241   0.01024
                          X6        Y6        Z6
           X6           0.25611
           Y6          -0.06445   0.08171
           Z6          -0.05281   0.00660   0.03446
 ITU=  0
     Eigenvalues ---    0.02584   0.03945   0.05249   0.10750   0.11814
     Eigenvalues ---    0.16226   0.17925   0.28319   0.46177   0.65280
     Eigenvalues ---    0.88486   1.29577
 Quadratic step=5.961D-01 exceeds max=3.000D-01 adjusted using Lamda=-7.498D-02.
 Angle between NR and scaled steps=  22.89 degrees.
 Angle between quadratic step and forces=  48.36 degrees.
 Linear search not attempted -- first point.
 B after Tr=    -0.008975   -0.003782    0.008600
         Rot=    0.999999    0.001279   -0.000969    0.000135 Ang=   0.18 deg.
 Variable       Old X    -DE/DX   Delta X   Delta X   Delta X     New X
                                 (Linear)    (Quad)   (Total)
    X1       -0.50550  -0.12175   0.00000  -0.10279  -0.11189  -0.61739
    Y1       -0.15255  -0.08798   0.00000  -0.08771  -0.09142  -0.24397
    Z1       -0.06831   0.00091   0.00000   0.03387   0.04427  -0.02404
    X2        0.09650  -0.00450   0.00000  -0.07214  -0.08245   0.01405
    Y2       -2.12011   0.00453   0.00000  -0.04304  -0.04783  -2.16794
    Z2       -0.31051  -0.00799   0.00000  -0.08074  -0.06665  -0.37716
    X3       -2.59214   0.03492   0.00000   0.02650   0.01669  -2.57545
    Y3        0.29628  -0.00894   0.00000  -0.06745  -0.07172   0.22455
    Z3       -0.49121   0.00790   0.00000   0.02648   0.03947  -0.45174
    X4        1.36104   0.09331   0.00000   0.06406   0.05561   1.41664
    Y4        1.67848   0.08315   0.00000   0.06846   0.06436   1.74284
    Z4        0.04049  -0.00778   0.00000  -0.00917  -0.00780   0.03270
    X5        0.60483   0.02148   0.00000   0.14218   0.13308   0.73791
    Y5        3.58837  -0.01273   0.00000   0.02531   0.01987   3.60824
    Z5       -0.51472  -0.00121   0.00000  -0.04693  -0.04902  -0.56375
    X6        3.38659  -0.02345   0.00000  -0.00167  -0.01104   3.37555
    Y6        1.03200   0.02196   0.00000   0.13235   0.12673   1.15873
    Z6       -0.39807   0.00816   0.00000   0.04067   0.03973  -0.35833
         Item               Value     Threshold  Converged?
 Maximum Force            0.121755     0.000450     NO 
 RMS     Force            0.047980     0.000300     NO 
 Maximum Displacement     0.133081     0.001800     NO 
 RMS     Displacement     0.070281     0.001200     NO 
 Predicted change in Energy=-2.366791D-02
 GradGradGradGradGradGradGradGradGradGradGradGradGradGradGradGradGradGrad

 Unable to Open any file for archive entry.
 1\1\GINC-BHD0001\Force\RwB97XD TD-FC\6-311G\C2H4\BWEIGHT\05-Jan-2023\0
 \\# WB97XD/6-311G SCF=XQC TD=(singlets,nstates=2,root=1) FORCE nosym p
 op=full guess=read\\MD Step 999\\0,1\C,-0.26749684,-0.08072639,-0.0361
 4803\H,0.05106432,-1.12191401,-0.16431557\H,-1.37170355,0.156782,-0.25
 99358\C,0.72022969,0.88821521,0.02142758\H,0.32006224,1.89888203,-0.27
 237982\H,1.79210441,0.54610851,-0.21064827\\Version=ES64L-G16RevC.01\H
 F=-78.5335654\RMSD=1.388e-09\RMSF=4.798e-02\Dipole=-0.0500147,-0.05065
 62,-0.3653679\PG=C01 [X(C2H4)]\\@
 The archive entry for this job was punched.


 ORIGINALITY CONSISTS NOT IN SAYING WHAT NO ONE HAS EVER SAID BEFORE, 
 BUT IN SAYING WHAT YOU THINK YOUR SELF.

                                    -- JAMES F. STEPHEN
 Job cpu time:       0 days  0 hours  0 minutes 31.3 seconds.
 Elapsed time:       0 days  0 hours  0 minutes 31.6 seconds.
 File lengths (MBytes):  RWF=    272 Int=      0 D2E=      0 Chk=     32 Scr=     32
 Normal termination of Gaussian 16 at Thu Jan  5 17:57:09 2023.
