6
MD Step 0
C  -0.33763715 -0.58748864 0.00000000
H  0.19552659 -1.51519357 0.00000000
H  -1.40763715 -0.58748864 0.00000000
C  0.33763715 0.58748865 0.00000000
H  -0.19552659 1.51519357 0.00000000
H  1.40763715 0.58748865 0.00000000
6
MD Step 1
C  -0.33800514 -0.58783606 -0.00039448
H  0.19788672 -1.51299246 0.00235080
H  -1.40542029 -0.58520705 0.00235002
C  0.33721618 0.58704681 -0.00039457
H  -0.19318446 1.51769460 0.00235111
H  1.41011926 0.58990963 0.00235033
6
MD Step 2
C  -0.33831765 -0.58808756 -0.00078966
H  0.20027430 -1.51109567 0.00470583
H  -1.40351927 -0.58307020 0.00470435
C  0.33674701 0.58651246 -0.00078982
H  -0.19085432 1.52046741 0.00470632
H  1.41281505 0.59246733 0.00470466
6
MD Step 3
C  -0.33856861 -0.58823975 -0.00118296
H  0.20267258 -1.50952896 0.00704948
H  -1.40199411 -0.58110054 0.00704765
C  0.33623730 0.58589223 -0.00118306
H  -0.18854432 1.52346627 0.00704969
H  1.41564571 0.59513633 0.00704679
6
MD Step 4
C  -0.33875656 -0.58829421 -0.00157561
H  0.20508446 -1.50828797 0.00938908
H  -1.40087239 -0.57929665 0.00938771
C  0.33569117 0.58518986 -0.00157542
H  -0.18623753 1.52666295 0.00938796
H  1.41855268 0.59791321 0.00938307
6
MD Step 5
C  -0.33887771 -0.58825044 -0.00196569
H  0.20749063 -1.50738016 0.01171297
H  -1.40019009 -0.57767513 0.01171343
C  0.33511610 0.58441317 -0.00196478
H  -0.18393439 1.53000567 0.01170871
H  1.42145733 0.60077466 0.01170055
6
MD Step 6
C  -0.33893676 -0.58811656 -0.00235881
H  0.20991361 -1.50676112 0.01405435
H  -1.39992654 -0.57620669 0.01405870
C  0.33451209 0.58356322 -0.00235654
H  -0.18158924 1.53348403 0.01404420
H  1.42432666 0.60374149 0.01403095
6
MD Step 7
C  -0.33892935 -0.58789166 -0.00275055
H  0.21231354 -1.50643976 0.01638674
H  -1.40010935 -0.57492080 0.01639784
C  0.33388921 0.58265177 -0.00274605
H  -0.17921536 1.53702516 0.01636692
H  1.42706962 0.60677407 0.01634612
6
MD Step 8
C  -0.33885256 -0.58757627 -0.00313692
H  0.21465068 -1.50641648 0.01868619
H  -1.40075142 -0.57384337 0.01870771
C  0.33325698 0.58169074 -0.00312909
H  -0.17682334 1.54055726 0.01865176
H  1.42960118 0.60983470 0.01862028
6
MD Step 9
C  -0.33871177 -0.58717898 -0.00352112
H  0.21692620 -1.50664337 0.02097159
H  -1.40181036 -0.57295633 0.02100793
C  0.33261755 0.58068523 -0.00350862
H  -0.17438127 1.54405120 0.02091641
H  1.43188432 0.61292825 0.02087062
6
MD Step 10
C  -0.33850849 -0.58670436 -0.00390147
H  0.21911093 -1.50709701 0.02323286
H  -1.40326151 -0.57226951 0.02328907
C  0.33197768 0.57964552 -0.00388274
H  -0.17188699 1.54744954 0.02314961
H  1.43385881 0.61603032 0.02308535
6
MD Step 11
C  -0.33824473 -0.58615721 -0.00427582
H  0.22117205 -1.50775309 0.02545714
H  -1.40507260 -0.57179434 0.02553884
C  0.33134431 0.57858254 -0.00424912
H  -0.16934232 1.55069378 0.02533740
H  1.43546844 0.61911365 0.02525004
6
MD Step 12
C  -0.33792218 -0.58554168 -0.00464073
H  0.22306901 -1.50859195 0.02762413
H  -1.40720957 -0.57154850 0.02773738
C  0.33072528 0.57750848 -0.00460420
H  -0.16675814 1.55372072 0.02745845
H  1.43665714 0.62214358 0.02734297
6
MD Step 13
C  -0.33754675 -0.58486588 -0.00499619
H  0.22478190 -1.50957162 0.02973389
H  -1.40960994 -0.57152806 0.02988487
C  0.33012460 0.57643206 -0.00494788
H  -0.16412698 1.55649118 0.02951193
H  1.43739763 0.62510612 0.02936315
6
MD Step 14
C  -0.33712557 -0.58413882 -0.00534267
H  0.22629463 -1.51064609 0.03178958
H  -1.41220203 -0.57172475 0.03198427
C  0.32954533 0.57536129 -0.00528058
H  -0.16144055 1.55897340 0.03150018
H  1.43767439 0.62799069 0.03131299
6
MD Step 15
C  -0.33666267 -0.58336612 -0.00567698
H  0.22757070 -1.51179112 0.03377256
H  -1.41493179 -0.57215082 0.03401674
C  0.32899374 0.57430754 -0.00559915
H  -0.15871476 1.56111875 0.03340406
H  1.43745901 0.63076544 0.03317334
6
MD Step 16
C  -0.33616150 -0.58255257 -0.00599483
H  0.22856933 -1.51298923 0.03565810
H  -1.41774863 -0.57282323 0.03595733
C  0.32847667 0.57328280 -0.00589951
H  -0.15597419 1.56287817 0.03519865
H  1.43672623 0.63339309 0.03491919
6
MD Step 17
C  -0.33563680 -0.58171404 -0.00630308
H  0.22931747 -1.51415890 0.03748727
H  -1.42053536 -0.57369225 0.03784551
C  0.32798935 0.57228760 -0.00618846
H  -0.15318081 1.56427417 0.03692448
H  1.43552587 0.63590276 0.03659234
6
MD Step 18
C  -0.33509352 -0.58085642 -0.00659857
H  0.22978557 -1.51528007 0.03924192
H  -1.42323535 -0.57476596 0.03966236
C  0.32753652 0.57133181 -0.00646308
H  -0.15035833 1.56527634 0.03856358
H  1.43385752 0.63826524 0.03817518
6
MD Step 19
C  -0.33453867 -0.57998749 -0.00688018
H  0.22995913 -1.51632350 0.04091620
H  -1.42578264 -0.57603914 0.04140082
C  0.32712033 0.57042268 -0.00672252
H  -0.14752110 1.56587286 0.04011031
H  1.43174177 0.64046438 0.03966286
6
MD Step 20
C  -0.33397130 -0.57910687 -0.00713877
H  0.22977985 -1.51731036 0.04245718
H  -1.42816238 -0.57755227 0.04300792
C  0.32675031 0.56957458 -0.00695829
H  -0.14473299 1.56601167 0.04151278
H  1.42916112 0.64243808 0.04100317
6
MD Step 21
C  -0.33339986 -0.57822352 -0.00737498
H  0.22924989 -1.51820836 0.04386943
H  -1.43030711 -0.57928771 0.04448676
C  0.32642578 0.56879156 -0.00717138
H  -0.14200368 1.56570489 0.04277621
H  1.42616435 0.64418272 0.04220245
6
MD Step 22
C  -0.33283665 -0.57735016 -0.00759375
H  0.22839967 -1.51896454 0.04518263
H  -1.43213037 -0.58120203 0.04586459
C  0.32614128 0.56807267 -0.00736686
H  -0.13932077 1.56499648 0.04393084
H  1.42283370 0.64572091 0.04329299
6
MD Step 23
C  -0.33229234 -0.57649784 -0.00779887
H  0.22725607 -1.51953765 0.04641951
H  -1.43356011 -0.58325812 0.04716170
C  0.32589202 0.56741734 -0.00754867
H  -0.13668142 1.56392989 0.04500014
H  1.41925183 0.64706939 0.04430043
6
MD Step 24
C  -0.33176674 -0.57566656 -0.00798338
H  0.22578724 -1.51995372 0.04754024
H  -1.43459503 -0.58548026 0.04833813
C  0.32568327 0.56683457 -0.00771071
H  -0.13414692 1.56249256 0.04594611
H  1.41544557 0.64818371 0.04518682
6
MD Step 25
C  -0.33126879 -0.57486549 -0.00815043
H  0.22402300 -1.52018567 0.04856366
H  -1.43518420 -0.58783423 0.04941042
C  0.32551001 0.56632279 -0.00785634
H  -0.13172277 1.56073608 0.04678869
H  1.41150574 0.64907894 0.04597433
6
MD Step 26
C  -0.33079743 -0.57409369 -0.00829342
H  0.22194054 -1.52026770 0.04945225
H  -1.43534196 -0.59034134 0.05034121
C  0.32537630 0.56588897 -0.00797991
H  -0.12947195 1.55866159 0.04749247
H  1.40747173 0.64971518 0.04662752
6
MD Step 27
C  -0.33036011 -0.57335875 -0.00841535
H  0.21957524 -1.52018419 0.05022383
H  -1.43503687 -0.59296790 0.05114624
C  0.32527658 0.56553005 -0.00808465
H  -0.12740436 1.55633024 0.04807665
H  1.40344155 0.65010883 0.04716777
6
MD Step 28
C  -0.32995677 -0.57266067 -0.00851210
H  0.21692470 -1.51996550 0.05085508
H  -1.43428786 -0.59572082 0.05180214
C  0.32521192 0.56524906 -0.00816725
H  -0.12557157 1.55376677 0.04852003
H  1.39947446 0.65023648 0.04757426
6
MD Step 29
C  -0.32959141 -0.57200355 -0.00858459
H  0.21401837 -1.51961793 0.05135182
H  -1.43309431 -0.59857822 0.05231359
C  0.32517834 0.56504341 -0.00822903
H  -0.12399709 1.55102853 0.04883020
H  1.39565932 0.65010483 0.04785596
6
MD Step 30
C  -0.32926951 -0.57139301 -0.00863612
H  0.21090159 -1.51913924 0.05173323
H  -1.43145174 -0.60150514 0.05269814
C  0.32516954 0.56490768 -0.00827344
H  -0.12269141 1.54818886 0.04902792
H  1.39209699 0.64973489 0.04803551
6
MD Step 31
C  -0.32899429 -0.57083243 -0.00866849
H  0.20761338 -1.51854035 0.05200967
H  -1.42937405 -0.60447563 0.05296511
C  0.32518076 0.56483733 -0.00830246
H  -0.12167324 1.54531390 0.04912523
H  1.38887603 0.64913980 0.04812632
6
MD Step 32
C  -0.32876149 -0.57031775 -0.00867647
H  0.20415492 -1.51787624 0.05215134
H  -1.42692458 -0.60750403 0.05308587
C  0.32521420 0.56483411 -0.00831170
H  -0.12099995 1.54243010 0.04909441
H  1.38603924 0.64829339 0.04809988
6
MD Step 33
C  -0.32856901 -0.56984719 -0.00865789
H  0.20054660 -1.51718782 0.05214603
H  -1.42415782 -0.61058769 0.05304881
C  0.32526937 0.56489647 -0.00829954
H  -0.12070981 1.53958071 0.04892497
H  1.38363963 0.64718779 0.04794544
6
MD Step 34
C  -0.32841203 -0.56941640 -0.00860852
H  0.19679835 -1.51653048 0.05196971
H  -1.42114788 -0.61373619 0.05283143
C  0.32534812 0.56502461 -0.00826245
H  -0.12085048 1.53679530 0.04859450
H  1.38170965 0.64580410 0.04763936
6
MD Step 35
C  -0.32829391 -0.56902941 -0.00853353
H  0.19297391 -1.51590843 0.05165157
H  -1.41792263 -0.61690668 0.05246214
C  0.32544379 0.56520971 -0.00820523
H  -0.12141388 1.53415351 0.04813319
H  1.38032463 0.64417726 0.04721269
6
MD Step 36
C  -0.32821520 -0.56868764 -0.00843588
H  0.18912465 -1.51533989 0.05120794
H  -1.41452894 -0.62006967 0.05195738
C  0.32555241 0.56544510 -0.00813056
H  -0.12240093 1.53171770 0.04755828
H  1.37953505 0.64233006 0.04668262
6
MD Step 37
C  -0.32817498 -0.56839128 -0.00831765
H  0.18529677 -1.51484865 0.05065005
H  -1.41102428 -0.62320137 0.05132898
C  0.32567148 0.56572513 -0.00804025
H  -0.12381318 1.52953922 0.04688167
H  1.37937253 0.64028077 0.04606047
6
MD Step 38
C  -0.32816797 -0.56813638 -0.00817685
H  0.18151315 -1.51448086 0.04996635
H  -1.40749325 -0.62630151 0.05056737
C  0.32580298 0.56604822 -0.00793247
H  -0.12566987 1.52763951 0.04609226
H  1.37983123 0.63802542 0.04533322
6
MD Step 39
C  -0.32819665 -0.56792708 -0.00802038
H  0.17784487 -1.51423193 0.04919473
H  -1.40397391 -0.62932109 0.04971043
C  0.32594125 0.56640489 -0.00781308
H  -0.12793547 1.52608141 0.04522806
H  1.38093992 0.63561008 0.04453883
6
MD Step 40
C  -0.32825411 -0.56775839 -0.00784559
H  0.17430789 -1.51414880 0.04831954
H  -1.40055965 -0.63226550 0.04874494
C  0.32609024 0.56679510 -0.00767945
H  -0.13062195 1.52486511 0.04427320
H  1.38265845 0.63302780 0.04365911
6
MD Step 41
C  -0.32833169 -0.56762384 -0.00764825
H  0.17090736 -1.51428403 0.04731657
H  -1.39735236 -0.63514958 0.04764953
C  0.32625593 0.56722079 -0.00752756
H  -0.13374392 1.52397278 0.04320278
H  1.38492374 0.63026368 0.04266645
6
MD Step 42
C  -0.32842609 -0.56752256 -0.00743001
H  0.16767848 -1.51465324 0.04619441
H  -1.39441847 -0.63795586 0.04643444
C  0.32643918 0.56767885 -0.00735852
H  -0.13727704 1.52341020 0.04202461
H  1.38769321 0.62733652 0.04156713
6
MD Step 43
C  -0.32853859 -0.56745833 -0.00719743
H  0.16468014 -1.51524030 0.04498840
H  -1.39179303 -0.64064038 0.04513578
C  0.32663665 0.56816215 -0.00717759
H  -0.14116396 1.52320099 0.04077356
H  1.39094035 0.62429296 0.04039546
6
MD Step 44
C  -0.32865644 -0.56742119 -0.00694204
H  0.16188468 -1.51610722 0.04365116
H  -1.38958867 -0.64324335 0.04370947
C  0.32685916 0.56867806 -0.00697705
H  -0.14542500 1.52327634 0.03940038
H  1.39454535 0.62109732 0.03909922
6
MD Step 45
C  -0.32878629 -0.56742038 -0.00667564
H  0.15937308 -1.51719703 0.04224742
H  -1.38779665 -0.64569198 0.04222025
C  0.32709870 0.56921533 -0.00676683
H  -0.14996198 1.52367269 0.03796978
H  1.39849489 0.61782769 0.03774344
6
MD Step 46
C  -0.32892354 -0.56745399 -0.00639783
H  0.15715413 -1.51851526 0.04077412
H  -1.38646768 -0.64798257 0.04066664
C  0.32735866 0.56977460 -0.00654616
H  -0.15474040 1.52435052 0.03647754
H  1.40270120 0.61449478 0.03632266
6
MD Step 47
C  -0.32905962 -0.56751606 -0.00610348
H  0.15520660 -1.52008741 0.03920263
H  -1.38566805 -0.65013794 0.03902188
C  0.32764659 0.57036123 -0.00631027
H  -0.15974775 1.52523804 0.03489324
H  1.40704686 0.61108423 0.03480497
6
MD Step 48
C  -0.32919420 -0.56760860 -0.00579564
H  0.15355019 -1.52188730 0.03754934
H  -1.38540643 -0.65213552 0.03730298
C  0.32796222 0.57097304 -0.00606156
H  -0.16492258 1.52630426 0.03323260
H  1.41145919 0.60762785 0.03320582
6
MD Step 49
C  -0.32932489 -0.56773122 -0.00547444
H  0.15218433 -1.52389902 0.03581479
H  -1.38569497 -0.65396916 0.03551109
C  0.32830757 0.57161067 -0.00579994
H  -0.17021720 1.52749855 0.03149531
H  1.41585023 0.60414209 0.03152454
6
MD Step 50
C  -0.32944694 -0.56788090 -0.00513685
H  0.15108688 -1.52611879 0.03398234
H  -1.38655033 -0.65565070 0.03363002
C  0.32868716 0.57227770 -0.00552263
H  -0.17560002 1.52875059 0.02966341
H  1.42011707 0.60062647 0.02974287
6
MD Step 51
C  -0.32956315 -0.56806155 -0.00478704
H  0.15027167 -1.52849768 0.03207498
H  -1.38793578 -0.65715182 0.03168244
C  0.32909831 0.57297081 -0.00523322
H  -0.18099847 1.53002960 0.02776000
H  1.42420166 0.59712095 0.02788427
6
MD Step 52
C  -0.32967001 -0.56827045 -0.00442182
H  0.14970822 -1.53102353 0.03007548
H  -1.38984314 -0.65848575 0.02965091
C  0.32954461 0.57369340 -0.00492893
H  -0.18638133 1.53126427 0.02576684
H  1.42801048 0.59362497 0.02593068
6
MD Step 53
C  -0.32976957 -0.56850983 -0.00404321
H  0.14939166 -1.53365168 0.02799535
H  -1.39222344 -0.65963693 0.02754622
C  0.33002426 0.57444365 -0.00461162
H  -0.19168922 1.53241410 0.02369548
H  1.43148614 0.59016696 0.02389415
6
MD Step 54
C  -0.32986561 -0.56878307 -0.00365440
H  0.14932096 -1.53632817 0.02585280
H  -1.39501072 -0.66058359 0.02538575
C  0.33053376 0.57521825 -0.00428424
H  -0.19685775 1.53344805 0.02156456
H  1.43458576 0.58678197 0.02179394
6
MD Step 55
C  -0.32996248 -0.56909364 -0.00325877
H  0.14949359 -1.53899662 0.02366707
H  -1.39812973 -0.66130376 0.02318775
C  0.33106894 0.57601334 -0.00394995
H  -0.20182399 1.53433948 0.01939395
H  1.43727556 0.58350556 0.01965055
6
MD Step 56
C  -0.33005651 -0.56943668 -0.00285102
H  0.14985652 -1.54164913 0.02140946
H  -1.40154784 -0.66182568 0.02092264
C  0.33163317 0.57683291 -0.00360421
H  -0.20657732 1.53501693 0.01715389
H  1.43948106 0.58032413 0.01743478
6
MD Step 57
C  -0.33015395 -0.56981661 -0.00243598
H  0.15041188 -1.54422098 0.01910741
H  -1.40517039 -0.66212125 0.01861685
C  0.33221987 0.57767083 -0.00325154
H  -0.21105336 1.53547100 0.01487276
H  1.44119437 0.57728008 0.01517563
6
MD Step 58
C  -0.33025813 -0.57023455 -0.00201533
H  0.15114298 -1.54666663 0.01677082
H  -1.40891786 -0.66218162 0.01627939
C  0.33282491 0.57852349 -0.00289361
H  -0.21520978 1.53567977 0.01256085
H  1.44239888 0.57439713 0.01288397
6
MD Step 59
C  -0.33036663 -0.57068564 -0.00158483
H  0.15199935 -1.54897605 0.01437687
H  -1.41274330 -0.66203300 0.01388659
C  0.33344926 0.57939247 -0.00252681
H  -0.21904241 1.53559353 0.01019444
H  1.44305371 0.57166471 0.01053660
6
MD Step 60
C  -0.33048804 -0.57117547 -0.00115178
H  0.15299503 -1.55107673 0.01196673
H  -1.41653508 -0.66163747 0.01147895
C  0.33408263 0.58026779 -0.00215789
H  -0.22248631 1.53523400 0.00781602
H  1.44319315 0.56913587 0.00817642
6
MD Step 61
C  -0.33062260 -0.57170117 -0.00071507
H  0.15409702 -1.55294725 0.00953485
H  -1.42023170 -0.66100661 0.00905035
C  0.33472223 0.58114705 -0.00178599
H  -0.22552948 1.53458144 0.00541967
H  1.44281295 0.56681500 0.00579787
6
MD Step 62
C  -0.33077005 -0.57225913 -0.00027339
H  0.15527157 -1.55457155 0.00707432
H  -1.42377680 -0.66015501 0.00659347
C  0.33536512 0.58202763 -0.00141001
H  -0.22816652 1.53362112 0.00299791
H  1.44191672 0.56470373 0.00339375
6
MD Step 63
C  -0.33093551 -0.57285083 0.00016868
H  0.15651933 -1.55590417 0.00461142
H  -1.42708506 -0.65906493 0.00413435
C  0.33600246 0.58290071 -0.00103424
H  -0.23036348 1.53237861 0.00057744
H  1.44055120 0.56283576 0.00099083
6
MD Step 64
C  -0.33112002 -0.57347359 0.00061028
H  0.15782078 -1.55692603 0.00215115
H  -1.43009880 -0.65774193 0.00167794
C  0.33662869 0.58376073 -0.00065944
H  -0.23211350 1.53086431 -0.00183710
H  1.43875011 0.56122176 -0.00140624
6
MD Step 65
C  -0.33132024 -0.57412029 0.00105470
H  0.15913465 -1.55764650 -0.00032450
H  -1.43279054 -0.65621670 -0.00079380
C  0.33724189 0.58460567 -0.00028263
H  -0.23343870 1.52907155 -0.00426499
H  1.43653201 0.55984755 -0.00381676
6
MD Step 66
C  -0.33154113 -0.57479191 0.00149616
H  0.16047277 -1.55802832 -0.00278268
H  -1.43508830 -0.65446937 -0.00324776
C  0.33783138 0.58542441 0.00009093
H  -0.23431463 1.52705174 -0.00667329
H  1.43397534 0.55874876 -0.00620811
6
MD Step 67
C  -0.33178427 -0.57548604 0.00193191
H  0.16183175 -1.55805681 -0.00520757
H  -1.43694539 -0.65249884 -0.00566777
C  0.33838923 0.58620844 0.00045878
H  -0.23473945 1.52484499 -0.00904672
H  1.43114819 0.55794223 -0.00856543
6
MD Step 68
C  -0.33204441 -0.57619356 0.00236568
H  0.16317307 -1.55776008 -0.00762032
H  -1.43836102 -0.65034291 -0.00807467
C  0.33891371 0.58695533 0.00082455
H  -0.23475402 1.52245957 -0.01140809
H  1.42808708 0.55740586 -0.01091188
6
MD Step 69
C  -0.33232238 -0.57691138 0.00279453
H  0.16449890 -1.55713269 -0.01000395
H  -1.43930415 -0.64800164 -0.01045097
C  0.33939670 0.58765590 0.00118566
H  -0.23436518 1.51994784 -0.01374126
H  1.42487262 0.55715452 -0.01323193
6
MD Step 70
C  -0.33261452 -0.57763202 0.00321963
H  0.16578979 -1.55619826 -0.01236526
H  -1.43977635 -0.64550021 -0.01280301
C  0.33983418 0.58830487 0.00154347
H  -0.23360844 1.51734290 -0.01605454
H  1.42156525 0.55717760 -0.01553447
6
MD Step 71
C  -0.33291845 -0.57834943 0.00364043
H  0.16703878 -1.55497490 -0.01470101
H  -1.43977748 -0.64285435 -0.01512701
C  0.34022067 0.58889519 0.00189770
H  -0.23251314 1.51469232 -0.01834613
H  1.41823839 0.55747327 -0.01781835
6
MD Step 72
C  -0.33323830 -0.57906410 0.00404940
H  0.16828173 -1.55344446 -0.01696770
H  -1.43927514 -0.64003958 -0.01737864
C  0.34054421 0.58941296 0.00224141
H  -0.23107141 1.51208788 -0.02057329
H  1.41500739 0.55807885 -0.02004185
6
MD Step 73
C  -0.33356718 -0.57976587 0.00444972
H  0.16949452 -1.55165567 -0.01918385
H  -1.43830835 -0.63709483 -0.01957606
C  0.34080377 0.58985492 0.00257799
H  -0.22934110 1.50956109 -0.02275658
H  1.41192356 0.55896802 -0.02222599
6
MD Step 74
C  -0.33390396 -0.58045055 0.00483842
H  0.17069142 -1.54962470 -0.02133205
H  -1.43688820 -0.63402300 -0.02170127
C  0.34099280 0.59021194 0.00290484
H  -0.22734591 1.50718126 -0.02488000
H  1.40907180 0.56014947 -0.02435553
6
MD Step 75
C  -0.33424843 -0.58111518 0.00521125
H  0.17189628 -1.54736350 -0.02338739
H  -1.43502643 -0.63081969 -0.02372870
C  0.34110423 0.59047395 0.00321804
H  -0.22510342 1.50502550 -0.02692000
H  1.40653963 0.56163835 -0.02640765
6
MD Step 76
C  -0.33459436 -0.58175120 0.00556967
H  0.17310150 -1.54492049 -0.02535832
H  -1.43277648 -0.62751430 -0.02566664
C  0.34113737 0.59063699 0.00351930
H  -0.22266540 1.50313616 -0.02888674
H  1.40437367 0.56341533 -0.02839274
6
MD Step 77
C  -0.33493156 -0.58234654 0.00591875
H  0.17427940 -1.54236809 -0.02727495
H  -1.43022095 -0.62415810 -0.02754562
C  0.34109609 0.59070137 0.00381396
H  -0.22010511 1.50153135 -0.03081228
H  1.40258995 0.56543848 -0.03034237
6
MD Step 78
C  -0.33525503 -0.58289473 0.00625821
H  0.17543560 -1.53974795 -0.02913561
H  -1.42741651 -0.62076994 -0.02936411
C  0.34097979 0.59066269 0.00410194
H  -0.21746247 1.50025761 -0.03269623
H  1.40122693 0.56769705 -0.03225593
6
MD Step 79
C  -0.33555840 -0.58338843 0.00658898
H  0.17656938 -1.53710951 -0.03094592
H  -1.42443228 -0.61737561 -0.03112822
C  0.34079006 0.59051864 0.00438439
H  -0.21478260 1.49934910 -0.03454541
H  1.40030492 0.57017227 -0.03413954
6
MD Step 80
C  -0.33583749 -0.58382296 0.00690985
H  0.17769377 -1.53448878 -0.03269844
H  -1.42132814 -0.61398715 -0.03283097
C  0.34052722 0.59026564 0.00466014
H  -0.21209442 1.49884682 -0.03635314
H  1.39984580 0.57285786 -0.03598583
6
MD Step 81
C  -0.33608823 -0.58419426 0.00721948
H  0.17882275 -1.53191993 -0.03438498
H  -1.41816604 -0.61061522 -0.03446476
C  0.34019242 0.58990108 0.00492782
H  -0.20942229 1.49878487 -0.03811165
H  1.39985992 0.57574758 -0.03778616
6
MD Step 82
C  -0.33630428 -0.58449656 0.00751885
H  0.17995611 -1.52944940 -0.03601131
H  -1.41502349 -0.60728384 -0.03603657
C  0.33979004 0.58942591 0.00518838
H  -0.20680012 1.49917456 -0.03982688
H  1.40033108 0.57882049 -0.03954496
6
MD Step 83
C  -0.33648181 -0.58472708 0.00780674
H  0.18110664 -1.52710734 -0.03756958
H  -1.41196423 -0.60400254 -0.03753953
C  0.33932303 0.58884003 0.00544033
H  -0.20424315 1.50003128 -0.04149058
H  1.40124466 0.58206854 -0.04125269
6
MD Step 84
C  -0.33661440 -0.58488089 0.00808468
H  0.18226889 -1.52493795 -0.03906907
H  -1.40906763 -0.60079732 -0.03898472
C  0.33879801 0.58814764 0.00568510
H  -0.20177855 1.50134294 -0.04311134
H  1.40255731 0.58546565 -0.04291590
6
MD Step 85
C  -0.33670055 -0.58495840 0.00834994
H  0.18346270 -1.52295460 -0.04049234
H  -1.40638279 -0.59766645 -0.04035560
C  0.33821775 0.58734976 0.00591932
H  -0.19940127 1.50311390 -0.04467030
H  1.40424227 0.58901166 -0.04451463
6
MD Step 86
C  -0.33673398 -0.58495563 0.00860478
H  0.18467481 -1.52119775 -0.04185320
H  -1.40398531 -0.59463886 -0.04166826
C  0.33759087 0.58645411 0.00614509
H  -0.19713236 1.50530658 -0.04617963
H  1.40623220 0.59267408 -0.04605875
6
MD Step 87
C  -0.33671380 -0.58487419 0.00884699
H  0.18591783 -1.51967485 -0.04313749
H  -1.40191599 -0.59171456 -0.04290978
C  0.33692172 0.58546503 0.00635949
H  -0.19495984 1.50790151 -0.04762290
H  1.40848050 0.59644750 -0.04753064
6
MD Step 88
C  -0.33664396 -0.58472076 0.00907061
H  0.18722659 -1.51836364 -0.04430646
H  -1.40018305 -0.58886822 -0.04404126
C  0.33621091 0.58438401 0.00655503
H  -0.19284271 1.51089444 -0.04895866
H  1.41095933 0.60035007 -0.04888917
6
MD Step 89
C  -0.33651404 -0.58448778 0.00928362
H  0.18854373 -1.51732686 -0.04541123
H  -1.39887613 -0.58616393 -0.04511785
C  0.33547444 0.58322891 0.00674043
H  -0.19082593 1.51418254 -0.05023516
H  1.41354619 0.60430894 -0.05017886
6
MD Step 90
C  -0.33632744 -0.58418151 0.00948211
H  0.18988595 -1.51654497 -0.04642624
H  -1.39799746 -0.58358830 -0.04611429
C  0.33471557 0.58200575 0.00691053
H  -0.18887475 1.51773269 -0.05142363
H  1.41619341 0.60832702 -0.05137101
6
MD Step 91
C  -0.33608548 -0.58380607 0.00966490
H  0.19124951 -1.51601121 -0.04734388
H  -1.39755623 -0.58114530 -0.04702390
C  0.33394063 0.58072451 0.00706341
H  -0.18697010 1.52148808 -0.05251310
H  1.41883488 0.61238842 -0.05245420
6
MD Step 92
C  -0.33579101 -0.58336700 0.00983028
H  0.19263195 -1.51571019 -0.04815295
H  -1.39754679 -0.57883472 -0.04783593
C  0.33315537 0.57939534 0.00719650
H  -0.18508785 1.52539128 -0.05348899
H  1.42140909 0.61648009 -0.05341380
6
MD Step 93
C  -0.33544872 -0.58287149 0.00997575
H  0.19403396 -1.51561672 -0.04883696
H  -1.39794716 -0.57665058 -0.04853367
C  0.33236455 0.57802813 0.00730626
H  -0.18319800 1.52938733 -0.05433156
H  1.42386220 0.62059357 -0.05423077
6
MD Step 94
C  -0.33505693 -0.58232013 0.01010533
H  0.19541107 -1.51574490 -0.04942298
H  -1.39876827 -0.57462965 -0.04914600
C  0.33158013 0.57664049 0.00739719
H  -0.18131384 1.53337678 -0.05506433
H  1.42610070 0.62467651 -0.05492717
6
MD Step 95
C  -0.33462134 -0.58172065 0.01021716
H  0.19675607 -1.51606625 -0.04989919
H  -1.39997185 -0.57276939 -0.04966045
C  0.33080729 0.57524375 0.00746670
H  -0.17941092 1.53729940 -0.05567255
H  1.42807507 0.62871517 -0.05548919
6
MD Step 96
C  -0.33414317 -0.58107600 0.01031412
H  0.19802889 -1.51658084 -0.05028576
H  -1.40154202 -0.57109825 -0.05009788
C  0.33005628 0.57385463 0.00751819
H  -0.17749777 1.54106518 -0.05617327
H  1.42971044 0.63266401 -0.05593332
6
MD Step 97
C  -0.33362738 -0.58039260 0.01039636
H  0.19920666 -1.51726805 -0.05058485
H  -1.40343637 -0.56962601 -0.05045992
C  0.32933396 0.57248668 0.00755179
H  -0.17556705 1.54460541 -0.05656612
H  1.43095729 0.63649579 -0.05625977
6
MD Step 98
C  -0.33308096 -0.57967865 0.01046279
H  0.20027459 -1.51809675 -0.05079027
H  -1.40559691 -0.56835328 -0.05073913
C  0.32864535 0.57115177 0.00756620
H  -0.17360549 1.54786432 -0.05684294
H  1.43178270 0.64019221 -0.05646159
6
MD Step 99
C  -0.33251284 -0.57894406 0.01051102
H  0.20122667 -1.51902575 -0.05088720
H  -1.40795148 -0.56727125 -0.05091880
C  0.32799353 0.56985986 0.00755859
H  -0.17159399 1.55080025 -0.05698763
H  1.43217103 0.64374437 -0.05652438
6
MD Step 100
C  -0.33193402 -0.57820070 0.01053715
H  0.20206812 -1.52000266 -0.05085020
H  -1.41041375 -0.56635969 -0.05097087
C  0.32737927 0.56861856 0.00752423
H  -0.16950591 1.55338846 -0.05697430
H  1.43212605 0.64715497 -0.05642460
6
MD Step 101
C  -0.33135206 -0.57745672 0.01054054
H  0.20278330 -1.52099717 -0.05067609
H  -1.41291790 -0.56561925 -0.05089055
C  0.32680655 0.56743841 0.00746259
H  -0.16733944 1.55558922 -0.05679926
H  1.43163847 0.65040577 -0.05615989
6
MD Step 102
C  -0.33077497 -0.57672064 0.01052023
H  0.20336065 -1.52197719 -0.05035924
H  -1.41539568 -0.56504713 -0.05067028
C  0.32627833 0.56632867 0.00737270
H  -0.16509339 1.55737286 -0.05645694
H  1.43071050 0.65348241 -0.05572624
6
MD Step 103
C  -0.33020418 -0.57599411 0.01048105
H  0.20375095 -1.52295130 -0.04993413
H  -1.41781988 -0.56467854 -0.05034437
C  0.32580367 0.56530422 0.00726114
H  -0.16280868 1.55867840 -0.05598088
H  1.42931423 0.65633246 -0.05515705
6
MD Step 104
C  -0.32964599 -0.57528369 0.01042336
H  0.20393770 -1.52389923 -0.04940452
H  -1.42013504 -0.56451729 -0.04991510
C  0.32538576 0.56437376 0.00712884
H  -0.16049920 1.55948382 -0.05537530
H  1.42746167 0.65893583 -0.05445768
6
MD Step 105
C  -0.32910980 -0.57459900 0.01034461
H  0.20392707 -1.52478246 -0.04875367
H  -1.42226885 -0.56454594 -0.04936355
C  0.32502364 0.56354142 0.00697303
H  -0.15816189 1.55979616 -0.05462519
H  1.42519457 0.66129471 -0.05361510
6
MD Step 106
C  -0.32860311 -0.57394766 0.01024361
H  0.20371876 -1.52557404 -0.04797429
H  -1.42416278 -0.56475495 -0.04868073
C  0.32471716 0.56281162 0.00679271
H  -0.15580566 1.55962225 -0.05372502
H  1.42255477 0.66340417 -0.05262522
6
MD Step 107
C  -0.32813580 -0.57333973 0.01011669
H  0.20333277 -1.52623264 -0.04704148
H  -1.42574674 -0.56511647 -0.04783959
C  0.32446252 0.56218460 0.00658368
H  -0.15342516 1.55899514 -0.05265289
H  1.41961005 0.66527882 -0.05146816
6
MD Step 108
C  -0.32770833 -0.57277553 0.00996813
H  0.20273815 -1.52677389 -0.04598531
H  -1.42701125 -0.56565482 -0.04687003
C  0.32426432 0.56166817 0.00635190
H  -0.15107071 1.55790303 -0.05143968
H  1.41638265 0.66688137 -0.05017494
6
MD Step 109
C  -0.32732793 -0.57226234 0.00979564
H  0.20195206 -1.52717200 -0.04479027
H  -1.42790899 -0.56634881 -0.04575513
C  0.32411886 0.56126131 0.00609497
H  -0.14875077 1.55638759 -0.05007305
H  1.41294704 0.66822182 -0.04873458
6
MD Step 110
C  -0.32699838 -0.57180384 0.00959951
H  0.20097782 -1.52742167 -0.04345821
H  -1.42841722 -0.56719305 -0.04449606
C  0.32402462 0.56096444 0.00581369
H  -0.14649274 1.55448195 -0.04855750
H  1.40936753 0.66929539 -0.04715237
6
MD Step 111
C  -0.32671943 -0.57139959 0.00938304
H  0.19980154 -1.52754143 -0.04201179
H  -1.42854144 -0.56820112 -0.04311546
C  0.32398292 0.56077996 0.00551266
H  -0.14434581 1.55220716 -0.04691748
H  1.40569406 0.67007919 -0.04545283
6
MD Step 112
C  -0.32649529 -0.57105372 0.00914491
H  0.19844416 -1.52752184 -0.04044154
H  -1.42826341 -0.56935443 -0.04160328
C  0.32398909 0.56070368 0.00519061
H  -0.14232955 1.54962326 -0.04514700
H  1.40201277 0.67058429 -0.04363067
6
MD Step 113
C  -0.32632413 -0.57076415 0.00888862
H  0.19689717 -1.52738916 -0.03877102
H  -1.42760532 -0.57066540 -0.03998340
C  0.32404347 0.56073548 0.00485229
H  -0.14049649 1.54676502 -0.04327154
H  1.39838113 0.67079147 -0.04171117
6
MD Step 114
C  -0.32620943 -0.57053429 0.00861225
H  0.19519180 -1.52713626 -0.03698639
H  -1.42656040 -0.57210930 -0.03824176
C  0.32413970 0.56086792 0.00449562
H  -0.13886357 1.54370986 -0.04128106
H  1.39489516 0.67072051 -0.03968456
6
MD Step 115
C  -0.32614779 -0.57036054 0.00831949
H  0.19332457 -1.52679636 -0.03511180
H  -1.42516711 -0.57369742 -0.03640311
C  0.32427746 0.56109866 0.00412534
H  -0.13748458 1.54050303 -0.03920167
H  1.39161402 0.67035567 -0.03757646
6
MD Step 116
C  -0.32613593 -0.57023948 0.00801333
H  0.19129951 -1.52640036 -0.03316631
H  -1.42346629 -0.57543535 -0.03448713
C  0.32445535 0.56142354 0.00374524
H  -0.13640778 1.53719865 -0.03705453
H  1.38860042 0.66968812 -0.03540740
6
MD Step 117
C  -0.32617169 -0.57016891 0.00769510
H  0.18913365 -1.52597071 -0.03115796
H  -1.42149474 -0.57731723 -0.03250246
C  0.32467001 0.56183579 0.00335705
H  -0.13566960 1.53386407 -0.03485011
H  1.38592475 0.66872161 -0.03318721
6
MD Step 118
C  -0.32625370 -0.57014758 0.00736480
H  0.18685478 -1.52552289 -0.02908579
H  -1.41928670 -0.57932785 -0.03044879
C  0.32491656 0.56232653 0.00296090
H  -0.13529574 1.53057640 -0.03259000
H  1.38366109 0.66747025 -0.03091679
6
MD Step 119
C  -0.32638296 -0.57017678 0.00701969
H  0.18451024 -1.52505593 -0.02693051
H  -1.41686423 -0.58143367 -0.02830739
C  0.32518720 0.56288344 0.00255357
H  -0.13529141 1.52742977 -0.03025802
H  1.38189414 0.66596754 -0.02857926
6
MD Step 120
C  -0.32654948 -0.57024671 0.00666676
H  0.18208503 -1.52463312 -0.02473712
H  -1.41431816 -0.58366340 -0.02612446
C  0.32548519 0.56350450 0.00214317
H  -0.13572074 1.52445237 -0.02789933
H  1.38063597 0.66418447 -0.02621846
6
MD Step 121
C  -0.32675591 -0.57036066 0.00630065
H  0.17964481 -1.52423865 -0.02246972
H  -1.41166361 -0.58596650 -0.02386472
C  0.32580058 0.56417446 0.00172349
H  -0.13656464 1.52174718 -0.02548091
H  1.37996712 0.66217292 -0.02380063
6
MD Step 122
C  -0.32699217 -0.57050911 0.00592767
H  0.17718075 -1.52393113 -0.02016802
H  -1.40899387 -0.58836614 -0.02156898
C  0.32613657 0.56489065 0.00130153
H  -0.13787254 1.51933622 -0.02304230
H  1.37988100 0.65991068 -0.02136408
6
MD Step 123
C  -0.32725524 -0.57068988 0.00554705
H  0.17472877 -1.52372369 -0.01782636
H  -1.40635935 -0.59084096 -0.01923240
C  0.32648921 0.56564337 0.00087630
H  -0.13964354 1.51727791 -0.02057882
H  1.38040209 0.65742108 -0.01890323
6
MD Step 124
C  -0.32754218 -0.57090107 0.00515771
H  0.17232604 -1.52362627 -0.01543723
H  -1.40380925 -0.59336764 -0.01684820
C  0.32685478 0.56642317 0.00044645
H  -0.14186818 1.51562274 -0.01808354
H  1.38154253 0.65472991 -0.01641040
6
MD Step 125
C  -0.32785265 -0.57114349 0.00475594
H  0.17002515 -1.52363058 -0.01297658
H  -1.40137599 -0.59590666 -0.01439293
C  0.32722730 0.56721861 0.00000775
H  -0.14451355 1.51442642 -0.01553306
H  1.38331602 0.65187982 -0.01386167