6
MD Step 0
C  -0.33763715 -0.58748864 0.00000000
H  0.19552659 -1.51519357 0.00000000
H  -1.40763715 -0.58748864 0.00000000
C  0.33763715 0.58748865 0.00000000
H  -0.19552659 1.51519357 0.00000000
H  1.40763715 0.58748865 0.00000000
6
MD Step 1
C  -0.33800582 -0.58783592 -0.00039388
H  0.19788892 -1.51298827 0.00234623
H  -1.40542203 -0.58520763 0.00234973
C  0.33721634 0.58704611 -0.00039481
H  -0.19318566 1.51769261 0.00234930
H  1.41012616 0.58991473 0.00235279
6
MD Step 2
C  -0.33832075 -0.58808902 -0.00079022
H  0.20028907 -1.51107697 0.00470705
H  -1.40351234 -0.58306098 0.00471413
C  0.33674561 0.58650932 -0.00079204
H  -0.19084635 1.52047382 0.00471308
H  1.41283906 0.59248787 0.00471995
6
MD Step 3
C  -0.33857230 -0.58824099 -0.00118286
H  0.20268918 -1.50950673 0.00704574
H  -1.40198950 -0.58109234 0.00705673
C  0.33623619 0.58588848 -0.00118545
H  -0.18853795 1.52347022 0.00705423
H  1.41567551 0.59516146 0.00706410
6
MD Step 4
C  -0.33876136 -0.58829575 -0.00157538
H  0.20510606 -1.50825929 0.00938355
H  -1.40086712 -0.57928636 0.00939921
C  0.33568986 0.58518499 -0.00157849
H  -0.18622964 1.52666754 0.00939344
H  1.41859076 0.59794597 0.00940552
6
MD Step 5
C  -0.33888499 -0.58825364 -0.00196673
H  0.20752557 -1.50733705 0.01171397
H  -1.40017604 -0.57765450 0.01173564
C  0.33511326 0.58440582 -0.00196993
H  -0.18391667 1.53001914 0.01172342
H  1.42151117 0.60082320 0.01173639
6
MD Step 6
C  -0.33893699 -0.58811190 -0.00235164
H  0.20990547 -1.50676048 0.01400544
H  -1.39996062 -0.57623228 0.01403519
C  0.33451729 0.58356290 -0.00235428
H  -0.18161815 1.53344976 0.01401169
H  1.42433867 0.60374912 0.01402362
6
MD Step 7
C  -0.33892272 -0.58787930 -0.00273531
H  0.21226310 -1.50648088 0.01628876
H  -1.40019003 -0.57499174 0.01632936
C  0.33390231 0.58265834 -0.00273652
H  -0.17929017 1.53694422 0.01628800
H  1.42704035 0.60674153 0.01629636
6
MD Step 8
C  -0.33883854 -0.58755558 -0.00311294
H  0.21455389 -1.50650312 0.01853520
H  -1.40088083 -0.57396345 0.01859023
C  0.33327861 0.58170481 -0.00311162
H  -0.17694815 1.54042640 0.01852251
H  1.42952729 0.60975814 0.01852410
6
MD Step 9
C  -0.33868434 -0.58714382 -0.00348215
H  0.21674577 -1.50681213 0.02073043
H  -1.40202267 -0.57316237 0.02080423
C  0.33265381 0.58071293 -0.00347698
H  -0.17459340 1.54383438 0.02069976
H  1.43173018 0.61277077 0.02069080
6
MD Step 10
C  -0.33846891 -0.58665576 -0.00384841
H  0.21885197 -1.50734141 0.02290688
H  -1.40354649 -0.57255560 0.02300427
C  0.33202742 0.57968575 -0.00383784
H  -0.17218138 1.54715398 0.02285101
H  1.43363285 0.61579788 0.02282732
6
MD Step 11
C  -0.33819058 -0.58609247 -0.00420571
H  0.22081688 -1.50808888 0.02502891
H  -1.40544114 -0.57217707 0.02515532
C  0.33141007 0.57863793 -0.00418806
H  -0.16973669 1.55030464 0.02493963
H  1.43515769 0.61878978 0.02489649
6
MD Step 12
C  -0.33785845 -0.58546545 -0.00455794
H  0.22264328 -1.50899089 0.02711966
H  -1.40762737 -0.57200081 0.02728060
C  0.33080220 0.57757429 -0.00453135
H  -0.16722692 1.55326731 0.02698770
H  1.43629355 0.62175560 0.02692028
6
MD Step 13
C  -0.33747278 -0.58477710 -0.00489930
H  0.22427705 -1.51003933 0.02914492
H  -1.41007600 -0.57205686 0.02934624
C  0.33021346 0.57650922 -0.00486191
H  -0.16467873 1.55596912 0.02896029
H  1.43697992 0.62464741 0.02886340
6
MD Step 14
C  -0.33704312 -0.58403885 -0.00523266
H  0.22571625 -1.51117375 0.03112197
H  -1.41270041 -0.57232265 0.03136913
C  0.32964448 0.57544827 -0.00518251
H  -0.16206975 1.55839289 0.03087389
H  1.43721629 0.62746905 0.03074253
6
MD Step 15
C  -0.33657757 -0.58326042 -0.00555890
H  0.22694859 -1.51234547 0.03305638
H  -1.41542201 -0.57278607 0.03335430
C  0.32909740 0.57439873 -0.00549404
H  -0.15939172 1.56051454 0.03273348
H  1.43699906 0.63021309 0.03256296
6
MD Step 16
C  -0.33608068 -0.58244773 -0.00587491
H  0.22794012 -1.51353032 0.03493021
H  -1.41818400 -0.57345727 0.03528339
C  0.32857789 0.57337145 -0.00579350
H  -0.15666238 1.56229174 0.03452084
H  1.43630968 0.63284913 0.03430662
6
MD Step 17
C  -0.33555778 -0.58160731 -0.00617812
H  0.22866241 -1.51470258 0.03672884
H  -1.42092615 -0.57434193 0.03714113
C  0.32809061 0.57237627 -0.00607850
H  -0.15389892 1.56369118 0.03622126
H  1.43514168 0.63535065 0.03595907
6
MD Step 18
C  -0.33501741 -0.58074872 -0.00646910
H  0.22910802 -1.51582044 0.03845618
H  -1.42357116 -0.57542615 0.03893028
C  0.32763661 0.57141944 -0.00634977
H  -0.15110296 1.56470414 0.03783859
H  1.43351597 0.63771042 0.03752494
6
MD Step 19
C  -0.33446608 -0.57987931 -0.00674633
H  0.22926025 -1.51685730 0.04010400
H  -1.42605685 -0.57670707 0.04064155
C  0.32721850 0.57050860 -0.00660605
H  -0.14829102 1.56531610 0.03936489
H  1.43145001 0.63990991 0.03899696
6
MD Step 20
C  -0.33390593 -0.57900193 -0.00700398
H  0.22908014 -1.51781546 0.04163867
H  -1.42835072 -0.57820603 0.04224079
C  0.32684265 0.56965499 -0.00684200
H  -0.14550766 1.56549373 0.04076726
H  1.42894449 0.64190615 0.04034239
6
MD Step 21
C  -0.33334177 -0.57812196 -0.00723912
H  0.22854917 -1.51868396 0.04304382
H  -1.43040809 -0.57992627 0.04371076
C  0.32651198 0.56886620 -0.00705516
H  -0.14278310 1.56522768 0.04203019
H  1.42602597 0.64367449 0.04154628
6
MD Step 22
C  -0.33278552 -0.57725186 -0.00745645
H  0.22769649 -1.51941173 0.04434768
H  -1.43214584 -0.58182589 0.04507746
C  0.32622139 0.56814160 -0.00725037
H  -0.14010614 1.56455979 0.04318243
H  1.42277379 0.64523590 0.04263927
6
MD Step 23
C  -0.33225229 -0.57640724 -0.00766448
H  0.22657655 -1.51993064 0.04560055
H  -1.43346638 -0.58384060 0.04638786
C  0.32596160 0.56747613 -0.00743602
H  -0.13744644 1.56356015 0.04427458
H  1.41929635 0.64663437 0.04367497
6
MD Step 24
C  -0.33173821 -0.57558447 -0.00785264
H  0.22513656 -1.52028845 0.04674140
H  -1.43439168 -0.58601591 0.04758153
C  0.32574157 0.56688243 -0.00760253
H  -0.13488604 1.56219415 0.04524760
H  1.41559733 0.64780397 0.04459373
6
MD Step 25
C  -0.33124636 -0.57478694 -0.00801814
H  0.22337240 -1.52049282 0.04775473
H  -1.43490701 -0.58835180 0.04864218
C  0.32556221 0.56636475 -0.00774775
H  -0.13246407 1.56047833 0.04608751
H  1.41173127 0.64872529 0.04538239
6
MD Step 26
C  -0.33078249 -0.57402060 -0.00816161
H  0.22130277 -1.52053706 0.04864469
H  -1.43498690 -0.59082850 0.04957245
C  0.32542073 0.56592324 -0.00787268
H  -0.13020215 1.55845439 0.04679986
H  1.40777718 0.64939965 0.04604803
6
MD Step 27
C  -0.33035012 -0.57328918 -0.00828204
H  0.21894034 -1.52042889 0.04940609
H  -1.43462421 -0.59343525 0.05036622
C  0.32531556 0.56555875 -0.00797687
H  -0.12813265 1.55615984 0.04738114
H  1.40380844 0.64982027 0.04658826
6
MD Step 28
C  -0.32995464 -0.57259822 -0.00838116
H  0.21631621 -1.52016572 0.05004926
H  -1.43380574 -0.59614590 0.05103227
C  0.32524227 0.56526881 -0.00806235
H  -0.12627379 1.55365204 0.04784318
H  1.39991604 0.64999696 0.04701664
6
MD Step 29
C  -0.32959714 -0.57194892 -0.00845693
H  0.21344287 -1.51977142 0.05056286
H  -1.43254924 -0.59895575 0.05155889
C  0.32519989 0.56505381 -0.00812768
H  -0.12466581 1.55097046 0.04817656
H  1.39616998 0.64991903 0.04732442
6
MD Step 30
C  -0.32928027 -0.57134408 -0.00850978
H  0.21034940 -1.51926061 0.05094960
H  -1.43086787 -0.60184640 0.05194799
C  0.32518502 0.56491115 -0.00817367
H  -0.12333530 1.54817124 0.04838570
H  1.39265298 0.64959078 0.04751716
6
MD Step 31
C  -0.32900443 -0.57078426 -0.00853858
H  0.20705834 -1.51866111 0.05120323
H  -1.42879286 -0.60480857 0.05219316
C  0.32519579 0.56483914 -0.00819967
H  -0.12231731 1.54530335 0.04846616
H  1.38943577 0.64900853 0.04759090
6
MD Step 32
C  -0.32877106 -0.57027114 -0.00854412
H  0.20360506 -1.51799388 0.05132837
H  -1.42635351 -0.60782259 0.05229854
C  0.32522866 0.56483385 -0.00820675
H  -0.12163514 1.54242716 0.04842418
H  1.38659495 0.64818028 0.04755266
6
MD Step 33
C  -0.32857662 -0.56980150 -0.00852273
H  0.20000142 -1.51730844 0.05130424
H  -1.42361281 -0.61089441 0.05224442
C  0.32528460 0.56489518 -0.00819190
H  -0.12133561 1.53957717 0.04824072
H  1.38417488 0.64708952 0.04738269
6
MD Step 34
C  -0.32842250 -0.56937718 -0.00847676
H  0.19629427 -1.51662320 0.05114402
H  -1.42060757 -0.61399676 0.05204366
C  0.32535920 0.56501714 -0.00815746
H  -0.12142959 1.53681993 0.04793026
H  1.38224522 0.64575435 0.04709594
6
MD Step 35
C  -0.32830781 -0.56899793 -0.00840691
H  0.19252195 -1.51596794 0.05085144
H  -1.41739102 -0.61711230 0.05170036
C  0.32545012 0.56519521 -0.00810418
H  -0.12193435 1.53420946 0.04749768
H  1.38085584 0.64418413 0.04669711
6
MD Step 36
C  -0.32822869 -0.56866069 -0.00831136
H  0.18870924 -1.51538755 0.05041626
H  -1.41403648 -0.62023818 0.05120574
C  0.32555783 0.56542718 -0.00803061
H  -0.12287735 1.53178139 0.04693377
H  1.38003068 0.64237491 0.04617567
6
MD Step 37
C  -0.32819320 -0.56837461 -0.00820177
H  0.18495564 -1.51485231 0.04990335
H  -1.41054732 -0.62329735 0.05062278
C  0.32567081 0.56569844 -0.00794696
H  -0.12420701 1.52964063 0.04630390
H  1.37985557 0.64039838 0.04559875
6
MD Step 38
C  -0.32819211 -0.56813176 -0.00807197
H  0.18126036 -1.51443211 0.04927761
H  -1.40703147 -0.62631328 0.04991924
C  0.32579500 0.56601139 -0.00784770
H  -0.12596628 1.52778495 0.04557342
H  1.38030136 0.63822677 0.04492898
6
MD Step 39
C  -0.32821881 -0.56792711 -0.00791914
H  0.17764004 -1.51417686 0.04852262
H  -1.40358098 -0.62929162 0.04908103
C  0.32593384 0.56636570 -0.00773016
H  -0.12817411 1.52622273 0.04472601
H  1.38134283 0.63585155 0.04414779
6
MD Step 40
C  -0.32827268 -0.56776189 -0.00774721
H  0.17414733 -1.51409630 0.04765978
H  -1.40025095 -0.63220087 0.04813040
C  0.32608496 0.56675507 -0.00759755
H  -0.13080598 1.52499166 0.04378287
H  1.38297848 0.63330270 0.04327553
6
MD Step 41
C  -0.32835111 -0.56763557 -0.00755828
H  0.17082228 -1.51420732 0.04670013
H  -1.39710616 -0.63502055 0.04707985
C  0.32624830 0.56717546 -0.00745142
H  -0.13384166 1.52410996 0.04275464
H  1.38518269 0.63060056 0.04232145
6
MD Step 42
C  -0.32845093 -0.56754726 -0.00735405
H  0.16769980 -1.51452532 0.04565226
H  -1.39421162 -0.63773329 0.04593962
C  0.32642463 0.56762371 -0.00729288
H  -0.13725723 1.52358393 0.04164931
H  1.38791453 0.62776380 0.04129204
6
MD Step 43
C  -0.32856718 -0.56749453 -0.00713438
H  0.16480149 -1.51507126 0.04451469
H  -1.39163848 -0.64033257 0.04471018
C  0.32661675 0.56809890 -0.00712142
H  -0.14103292 1.52340036 0.04046449
H  1.39111134 0.62480175 0.04018318
6
MD Step 44
C  -0.32869485 -0.56747495 -0.00689895
H  0.16214432 -1.51586189 0.04328489
H  -1.38945307 -0.64281354 0.04339093
C  0.32682789 0.56860082 -0.00693636
H  -0.14514432 1.52353607 0.03919656
H  1.39469978 0.62172352 0.03898960
6
MD Step 45
C  -0.32883206 -0.56748927 -0.00665052
H  0.15975869 -1.51689081 0.04197762
H  -1.38769649 -0.64515437 0.04199795
C  0.32705845 0.56912670 -0.00673977
H  -0.14954427 1.52397711 0.03785940
H  1.39861647 0.61855646 0.03772417
6
MD Step 46
C  -0.32897568 -0.56753696 -0.00639018
H  0.15766144 -1.51815510 0.04059825
H  -1.38641010 -0.64734321 0.04053803
C  0.32731036 0.56967578 -0.00653223
H  -0.15419032 1.52469277 0.03645739
H  1.40278297 0.61531936 0.03639025
6
MD Step 47
C  -0.32912278 -0.56761755 -0.00611875
H  0.15586377 -1.51964720 0.03915078
H  -1.38562622 -0.64937004 0.03901634
C  0.32758569 0.57024781 -0.00631414
H  -0.15903739 1.52564465 0.03499355
H  1.40711589 0.61203039 0.03499001
6
MD Step 48
C  -0.32926751 -0.56772753 -0.00583340
H  0.15435241 -1.52137378 0.03761931
H  -1.38538573 -0.65124554 0.03741824
C  0.32788959 0.57084617 -0.00608276
H  -0.16405744 1.52676920 0.03345053
H  1.41151014 0.60868831 0.03350518
6
MD Step 49
C  -0.32941286 -0.56787176 -0.00553995
H  0.15315798 -1.52328725 0.03603573
H  -1.38566853 -0.65293207 0.03577580
C  0.32821882 0.57146614 -0.00584300
H  -0.16917139 1.52804782 0.03186025
H  1.41591009 0.60534076 0.03196775
6
MD Step 50
C  -0.32955139 -0.56804454 -0.00523258
H  0.15224245 -1.52539966 0.03436803
H  -1.38650694 -0.65445761 0.03405779
C  0.32858053 0.57211397 -0.00558966
H  -0.17436385 1.52939459 0.03018895
H  1.42019714 0.60197124 0.03034336
6
MD Step 51
C  -0.32969104 -0.56825479 -0.00492093
H  0.15164956 -1.52763195 0.03266918
H  -1.38783417 -0.65576376 0.03231663
C  0.32896707 0.57278122 -0.00533108
H  -0.17953204 1.53080917 0.02849073
H  1.42434356 0.59864948 0.02868674
6
MD Step 52
C  -0.32981880 -0.56849050 -0.00459200
H  0.15129389 -1.53002754 0.03086788
H  -1.38969822 -0.65691975 0.03048139
C  0.32939124 0.57348066 -0.00505585
H  -0.18470049 1.53216485 0.02669150
H  1.42819967 0.59531960 0.02692336
6
MD Step 53
C  -0.32994612 -0.56876308 -0.00425777
H  0.15122565 -1.53248650 0.02903044
H  -1.39199542 -0.65785457 0.02861745
C  0.32984210 0.57420109 -0.00477458
H  -0.18975411 1.53347674 0.02485953
H  1.43176333 0.59206495 0.02512232
6
MD Step 54
C  -0.33006640 -0.56906580 -0.00391077
H  0.15138401 -1.53501549 0.02711620
H  -1.39472133 -0.65860749 0.02668365
C  0.33032623 0.57494942 -0.00448078
H  -0.19468914 1.53465336 0.02295258
H  1.43493025 0.58886034 0.02324163
6
MD Step 55
C  -0.33018429 -0.56940242 -0.00355486
H  0.15176860 -1.53755620 0.02514678
H  -1.39779944 -0.65915475 0.02470069
C  0.33083914 0.57572142 -0.00417798
H  -0.19944056 1.53567026 0.02099302
H  1.43766823 0.58574331 0.02130431
6
MD Step 56
C  -0.33029617 -0.56976813 -0.00318487
H  0.15232687 -1.54010025 0.02309425
H  -1.40119689 -0.65952439 0.02263979
C  0.33138414 0.57652099 -0.00386177
H  -0.20399735 1.53645669 0.01895193
H  1.43990310 0.58270064 0.01928196
6
MD Step 57
C  -0.33040910 -0.57016809 -0.00280647
H  0.15306540 -1.54257818 0.02099079
H  -1.40481422 -0.65968391 0.02053209
C  0.33195388 0.57734117 -0.00353743
H  -0.20829063 1.53700821 0.01686264
H  1.44163173 0.57977928 0.01720857
6
MD Step 58
C  -0.33053047 -0.57060739 -0.00242560
H  0.15399101 -1.54492042 0.01886983
H  -1.40854762 -0.65960068 0.01841008
C  0.33254030 0.57817428 -0.00321045
H  -0.21225431 1.53732711 0.01475990
H  1.44286172 0.57702663 0.01511951
6
MD Step 59
C  -0.33065416 -0.57107749 -0.00203416
H  0.15503120 -1.54713872 0.01668700
H  -1.41237163 -0.65932323 0.01622854
C  0.33314799 0.57902558 -0.00287376
H  -0.21590645 1.53734202 0.01259789
H  1.44353032 0.57441025 0.01296951
6
MD Step 60
C  -0.33078440 -0.57157967 -0.00163490
H  0.15617416 -1.54918612 0.01445816
H  -1.41619972 -0.65883982 0.01400258
C  0.33377093 0.57988942 -0.00253002
H  -0.21920828 1.53704914 0.01039304
H  1.44364624 0.57195756 0.01077549
6
MD Step 61
C  -0.33092422 -0.57211374 -0.00122951
H  0.15740238 -1.55102482 0.01219335
H  -1.41995313 -0.65814613 0.01174157
C  0.33440363 0.58076066 -0.00218093
H  -0.22213204 1.53644517 0.00815566
H  1.44322202 0.56968886 0.00854821
6
MD Step 62
C  -0.33107644 -0.57267904 -0.00081971
H  0.15869901 -1.55262072 0.00990268
H  -1.42355636 -0.65723923 0.00945515
C  0.33504022 0.58163364 -0.00182818
H  -0.22465507 1.53553339 0.00589610
H  1.44227992 0.56762327 0.00629833
6
MD Step 63
C  -0.33124185 -0.57327272 -0.00040549
H  0.16003833 -1.55395393 0.00758649
H  -1.42694856 -0.65612774 0.00714330
C  0.33567610 0.58250393 -0.00147186
H  -0.22677002 1.53431371 0.00361448
H  1.44084161 0.56576859 0.00402623
6
MD Step 64
C  -0.33142211 -0.57389265 0.00001188
H  0.16140320 -1.55500178 0.00525240
H  -1.43006713 -0.65481433 0.00481345
C  0.33630512 0.58336540 -0.00111322
H  -0.22846748 1.53279997 0.00131825
H  1.43894524 0.56413855 0.00173949
6
MD Step 65
C  -0.33162390 -0.57454148 0.00042553
H  0.16280975 -1.55571454 0.00293947
H  -1.43282418 -0.65327103 0.00250464
C  0.33691560 0.58420611 -0.00075861
H  -0.22971133 1.53104446 -0.00095287
H  1.43666967 0.56277710 -0.00052221
6
MD Step 66
C  -0.33184359 -0.57521170 0.00083868
H  0.16421840 -1.55610566 0.00062973
H  -1.43519741 -0.65152949 0.00019897
C  0.33750526 0.58502356 -0.00040503
H  -0.23052890 1.52904768 -0.00321800
H  1.43404328 0.56166904 -0.00277806
6
MD Step 67
C  -0.33208222 -0.57590032 0.00124931
H  0.16562153 -1.55616365 -0.00166513
H  -1.43714238 -0.64959241 -0.00209164
C  0.33806671 0.58580985 -0.00005431
H  -0.23092244 1.52684630 -0.00546587
H  1.43113185 0.56082752 -0.00501705
6
MD Step 68
C  -0.33233516 -0.57659880 0.00166068
H  0.16698337 -1.55591273 -0.00396350
H  -1.43865343 -0.64749427 -0.00438531
C  0.33859757 0.58656193 0.00029670
H  -0.23092980 1.52445223 -0.00771618
H  1.42797690 0.56023384 -0.00725918
6
MD Step 69
C  -0.33259950 -0.57730030 0.00207387
H  0.16828274 -1.55536973 -0.00627153
H  -1.43972076 -0.64525806 -0.00668780
C  0.33909337 0.58727447 0.00064917
H  -0.23058115 1.52189522 -0.00997626
H  1.42463800 0.55988016 -0.00951219
6
MD Step 70
C  -0.33287841 -0.57800409 0.00248330
H  0.16953930 -1.55451762 -0.00855717
H  -1.44030413 -0.64286881 -0.00896656
C  0.33954331 0.58793542 0.00099802
H  -0.22987234 1.51924869 -0.01221457
H  1.42121806 0.55979572 -0.01174515
6
MD Step 71
C  -0.33317423 -0.57870869 0.00288385
H  0.17077242 -1.55334678 -0.01079103
H  -1.44037469 -0.64031496 -0.01119157
C  0.33993724 0.58853314 0.00133862
H  -0.22880592 1.51658756 -0.01440241
H  1.41781991 0.56000571 -0.01393008
6
MD Step 72
C  -0.33347897 -0.57940266 0.00328040
H  0.17194608 -1.55191036 -0.01300122
H  -1.43997074 -0.63764395 -0.01339055
C  0.34027504 0.58906581 0.00167589
H  -0.22744619 1.51393183 -0.01656987
H  1.41448866 0.56047600 -0.01609758
6
MD Step 73
C  -0.33379241 -0.58008242 0.00366959
H  0.17307446 -1.55021756 -0.01516831
H  -1.43909102 -0.63485550 -0.01554349
C  0.34054903 0.58952364 0.00200685
H  -0.22581218 1.51135213 -0.01869872
H  1.41131677 0.56121917 -0.01823014
6
MD Step 74
C  -0.33411908 -0.58074938 0.00404293
H  0.17420426 -1.54825106 -0.01724278
H  -1.43771247 -0.63191920 -0.01760004
C  0.34074702 0.58989191 0.00232354
H  -0.22389466 1.50895076 -0.02074022
H  1.40842412 0.56227686 -0.02027997
6
MD Step 75
C  -0.33445239 -0.58139427 0.00440270
H  0.17532132 -1.54606043 -0.01923794
H  -1.43588429 -0.62886850 -0.01957318
C  0.34086819 0.59016698 0.00262844
H  -0.22174920 1.50676665 -0.02270946
H  1.40586126 0.56362649 -0.02226261
6
MD Step 76
C  -0.33477831 -0.58200086 0.00475823
H  0.17637177 -1.54374008 -0.02120865
H  -1.43370579 -0.62577893 -0.02151807
C  0.34091949 0.59035269 0.00293101
H  -0.21947376 1.50479557 -0.02466361
H  1.40362928 0.56520272 -0.02423493
6
MD Step 77
C  -0.33510353 -0.58257380 0.00509799
H  0.17742698 -1.54126241 -0.02308673
H  -1.43115916 -0.62260155 -0.02336558
C  0.34088807 0.59043262 0.00322002
H  -0.21704176 1.50315506 -0.02653505
H  1.40184523 0.56706307 -0.02613031
6
MD Step 78
C  -0.33541826 -0.58310195 0.00542656
H  0.17846425 -1.53869738 -0.02489924
H  -1.42832959 -0.61938341 -0.02514317
C  0.34077806 0.59040719 0.00350023
H  -0.21452129 1.50186269 -0.02835250
H  1.40051905 0.56916860 -0.02797695
6
MD Step 79
C  -0.33572070 -0.58358253 0.00574043
H  0.17951029 -1.53606737 -0.02662515
H  -1.42525972 -0.61612265 -0.02682961
C  0.34058656 0.59026957 0.00376821
H  -0.21192967 1.50097915 -0.03009575
H  1.39969734 0.57152793 -0.02975473
6
MD Step 80
C  -0.33599545 -0.58399986 0.00604931
H  0.18051310 -1.53347461 -0.02832269
H  -1.42207700 -0.61289688 -0.02848476
C  0.34032500 0.59002732 0.00403403
H  -0.20936088 1.50047868 -0.03182450
H  1.39933378 0.57406940 -0.03152147
6
MD Step 81
C  -0.33624299 -0.58435449 0.00634739
H  0.18151467 -1.53092629 -0.02995663
H  -1.41881774 -0.60968882 -0.03007331
C  0.33999007 0.58967327 0.00429168
H  -0.20681096 1.50042188 -0.03350367
H  1.39946379 0.57681450 -0.03324192
6
MD Step 82
C  -0.33645720 -0.58464098 0.00663539
H  0.18251750 -1.52846754 -0.03153105
H  -1.41555981 -0.60652010 -0.03160032
C  0.33958602 0.58920811 0.00454183
H  -0.20431097 1.50082097 -0.03513757
H  1.40007019 0.57974458 -0.03491911
6
MD Step 83
C  -0.33663017 -0.58485260 0.00691587
H  0.18351195 -1.52615268 -0.03306160
H  -1.41239302 -0.60342322 -0.03308307
C  0.33911992 0.58863578 0.00478712
H  -0.20189859 1.50166685 -0.03674174
H  1.40111162 0.58282858 -0.03656667
6
MD Step 84
C  -0.33676559 -0.58499467 0.00718056
H  0.18455450 -1.52396555 -0.03449693
H  -1.40933837 -0.60036243 -0.03446987
C  0.33858836 0.58795023 0.00501837
H  -0.19953890 1.50300758 -0.03826377
H  1.40260262 0.58610188 -0.03813227
6
MD Step 85
C  -0.33685411 -0.58505994 0.00743407
H  0.18562078 -1.52196620 -0.03586507
H  -1.40649423 -0.59738109 -0.03579115
C  0.33800198 0.58716024 0.00524024
H  -0.19727129 1.50480078 -0.03973080
H  1.40446671 0.58951925 -0.03964050
6
MD Step 86
C  -0.33689626 -0.58505137 0.00767204
H  0.18674049 -1.52015446 -0.03713832
H  -1.40389848 -0.59446577 -0.03701969
C  0.33736267 0.58626656 0.00544749
H  -0.19507396 1.50704957 -0.04111340
H  1.40667419 0.59309036 -0.04106135
6
MD Step 87
C  -0.33688292 -0.58496260 0.00789977
H  0.18788063 -1.51858646 -0.03834961
H  -1.40164390 -0.59166319 -0.03819136
C  0.33668299 0.58528154 0.00564557
H  -0.19298095 1.50968610 -0.04244270
H  1.40912657 0.59676309 -0.04242303
6
MD Step 88
C  -0.33681633 -0.58479881 0.00811258
H  0.18906896 -1.51724992 -0.03946883
H  -1.39975198 -0.58895604 -0.03927643
C  0.33596526 0.58420818 0.00582865
H  -0.19095874 1.51269655 -0.04368610
H  1.41178319 0.60054744 -0.04369275
6
MD Step 89
C  -0.33669184 -0.58455839 0.00831297
H  0.19028508 -1.51617318 -0.04051158
H  -1.39828090 -0.58637213 -0.04029274
C  0.33521971 0.58305838 0.00599904
H  -0.18901578 1.51601295 -0.04485659
H  1.41455360 0.60440661 -0.04488147
6
MD Step 90
C  -0.33651138 -0.58424632 0.00849815
H  0.19153980 -1.51534532 -0.04145965
H  -1.39724437 -0.58390479 -0.04122274
C  0.33445104 0.58183941 0.00615298
H  -0.18712376 1.51959424 -0.04593307
H  1.41737942 0.60833667 -0.04596782
6
MD Step 91
C  -0.33627510 -0.58386572 0.00866786
H  0.19282517 -1.51476643 -0.04231113
H  -1.39666121 -0.58156301 -0.04206555
C  0.33366674 0.58056223 0.00628959
H  -0.18526843 1.52337746 -0.04691058
H  1.42018578 0.61231653 -0.04694619
6
MD Step 92
C  -0.33597919 -0.58341558 0.00882635
H  0.19410121 -1.51446114 -0.04309376
H  -1.39656809 -0.57938478 -0.04285133
C  0.33287924 0.57924349 0.00641345
H  -0.18346374 1.52726596 -0.04781371
H  1.42286975 0.61629467 -0.04783913
6
MD Step 93
C  -0.33563128 -0.58290614 0.00896833
H  0.19538779 -1.51438681 -0.04377302
H  -1.39692691 -0.57734534 -0.04354455
C  0.33209034 0.57789003 0.00651781
H  -0.18166111 1.53122297 -0.04860506
H  1.42539410 0.62028127 -0.04861065
6
MD Step 94
C  -0.33523222 -0.58234056 0.00909556
H  0.19665642 -1.51454279 -0.04436089
H  -1.39773434 -0.57546570 -0.04415808
C  0.33130949 0.57651684 0.00660445
H  -0.17985848 1.53516446 -0.04929366
H  1.42767973 0.62423966 -0.04926918
6
MD Step 95
C  -0.33478276 -0.58172159 0.00921073
H  0.19787062 -1.51493075 -0.04487580
H  -1.39898211 -0.57377254 -0.04471131
C  0.33054691 0.57514020 0.00667641
H  -0.17806100 1.53900073 -0.04989501
H  1.42964704 0.62812661 -0.04982950
6
MD Step 96
C  -0.33428966 -0.58105767 0.00931187
H  0.19902296 -1.51551827 -0.04530569
H  -1.40062074 -0.57226151 -0.04519134
C  0.32980737 0.57377132 0.00673122
H  -0.17624511 1.54267477 -0.05039475
H  1.43125401 0.63192944 -0.05027814
6
MD Step 97
C  -0.33376501 -0.58036238 0.00939293
H  0.20013275 -1.51624244 -0.04561068
H  -1.40256398 -0.57090005 -0.04555565
C  0.32909057 0.57241665 0.00676132
H  -0.17436188 1.54616055 -0.05075164
H  1.43249390 0.63566344 -0.05057652
6
MD Step 98
C  -0.33320923 -0.57963717 0.00945888
H  0.20114493 -1.51711232 -0.04582551
H  -1.40479263 -0.56972858 -0.04583976
C  0.32840830 0.57109474 0.00677299
H  -0.17243837 1.54936256 -0.05099807
H  1.43329410 0.63927017 -0.05075610
6
MD Step 99
C  -0.33263314 -0.57889378 0.00950583
H  0.20206392 -1.51807596 -0.04592506
H  -1.40722215 -0.56872753 -0.04601625
C  0.32776183 0.56981372 0.00676155
H  -0.17044532 1.55225025 -0.05110819
H  1.43365018 0.64275152 -0.05079306
6
MD Step 100
C  -0.33204741 -0.57814362 0.00953035
H  0.20289183 -1.51908358 -0.04588713
H  -1.40976709 -0.56787933 -0.04606060
C  0.32715240 0.56858163 0.00672291
H  -0.16835934 1.55479648 -0.05105954
H  1.43356376 0.64610737 -0.05066701
6
MD Step 101
C  -0.33145766 -0.57739277 0.00953374
H  0.20359997 -1.52011718 -0.04572170
H  -1.41237215 -0.56719715 -0.04598173
C  0.32658607 0.56741109 0.00665898
H  -0.16619163 1.55694938 -0.05086149
H  1.43301377 0.64930685 -0.05038797
6
MD Step 102
C  -0.33086905 -0.57664671 0.00951775
H  0.20415808 -1.52116228 -0.04544183
H  -1.41498474 -0.56669605 -0.04579173
C  0.32606884 0.56631434 0.00657230
H  -0.16395944 1.55866171 -0.05052671
H  1.43198551 0.65231739 -0.04996923
6
MD Step 103
C  -0.33028944 -0.57591357 0.00948174
H  0.20455419 -1.52218895 -0.04504395
H  -1.41753680 -0.56637370 -0.04548523
C  0.32560325 0.56529991 0.00646238
H  -0.16166688 1.55991085 -0.05005224
H  1.43049030 0.65512453 -0.04940925
6
MD Step 104
C  -0.32971916 -0.57519363 0.00943165
H  0.20473351 -1.52321352 -0.04457008
H  -1.42000745 -0.56627102 -0.04510432
C  0.32519876 0.56438264 0.00633725
H  -0.15936548 1.56063808 -0.04947932
H  1.42850459 0.65767057 -0.04874889
6
MD Step 105
C  -0.32917233 -0.57450127 0.00936084
H  0.20472912 -1.52416884 -0.04397567
H  -1.42229338 -0.56634313 -0.04460132
C  0.32484957 0.56356203 0.00618901
H  -0.15702544 1.56087874 -0.04876622
H  1.42609979 0.65998549 -0.04794924
6
MD Step 106
C  -0.32865333 -0.57384079 0.00927116
H  0.20451960 -1.52504706 -0.04327410
H  -1.42435310 -0.56660045 -0.04398866
C  0.32455883 0.56284578 0.00602047
H  -0.15467629 1.56062032 -0.04792735
H  1.42330000 0.66204409 -0.04702547
6
MD Step 107
C  -0.32816948 -0.57321948 0.00916140
H  0.20410706 -1.52582242 -0.04245787
H  -1.42613001 -0.56703181 -0.04325737
C  0.32432540 0.56223681 0.00583068
H  -0.15232995 1.55987994 -0.04695730
H  1.42015902 0.66384409 -0.04597351
6
MD Step 108
C  -0.32773022 -0.57264680 0.00902794
H  0.20351319 -1.52645573 -0.04150270
H  -1.42755746 -0.56760855 -0.04238140
C  0.32414458 0.56173396 0.00561562
H  -0.14998464 1.55870010 -0.04583498
H  1.41675557 0.66540198 -0.04477398
6
MD Step 109
C  -0.32733919 -0.57212625 0.00887193
H  0.20273108 -1.52694284 -0.04041654
H  -1.42860798 -0.56833232 -0.04136800
C  0.32401633 0.56133993 0.00537717
H  -0.14767228 1.55710046 -0.04457047
H  1.41314448 0.66670474 -0.04343769
6
MD Step 110
C  -0.32699596 -0.57165709 0.00869757
H  0.20173633 -1.52730366 -0.03922843
H  -1.42928253 -0.56922401 -0.04024618
C  0.32394346 0.56105945 0.00512109
H  -0.14544715 1.55508859 -0.04319398
H  1.40936697 0.66772090 -0.04199499
6
MD Step 111
C  -0.32670951 -0.57124835 0.00849990
H  0.20056975 -1.52749995 -0.03790445
H  -1.42952806 -0.57024243 -0.03898079
C  0.32391755 0.56088561 0.00484169
H  -0.14330440 1.55274178 -0.04167590
H  1.40553182 0.66848335 -0.04041757
6
MD Step 112
C  -0.32648056 -0.57090050 0.00828087
H  0.19922921 -1.52754303 -0.03645751
H  -1.42934607 -0.57139092 -0.03758467
C  0.32393746 0.56081778 0.00454174
H  -0.14128603 1.55009895 -0.04003142
H  1.40170659 0.66898105 -0.03872091
6
MD Step 113
C  -0.32630479 -0.57060889 0.00804634
H  0.19768966 -1.52747370 -0.03492698
H  -1.42877250 -0.57269752 -0.03609771
C  0.32400597 0.56085834 0.00422878
H  -0.13946058 1.54718002 -0.03830095
H  1.39793623 0.66917900 -0.03694503
6
MD Step 114
C  -0.32618617 -0.57037740 0.00779392
H  0.19598421 -1.52728115 -0.03329615
H  -1.42779622 -0.57413502 -0.03450301
C  0.32411605 0.56099934 0.00390022
H  -0.13784290 1.54406575 -0.03647140
H  1.39432246 0.66909963 -0.03507719
6
MD Step 115
C  -0.32612359 -0.57020478 0.00752523
H  0.19412236 -1.52698399 -0.03157506
H  -1.42644060 -0.57570141 -0.03281096
C  0.32426484 0.56123610 0.00355823
H  -0.13647380 1.54081562 -0.03455519
H  1.39094085 0.66874086 -0.03312959
6
MD Step 116
C  -0.32611065 -0.57008442 0.00724611
H  0.19208839 -1.52663137 -0.02980190
H  -1.42476454 -0.57742131 -0.03106054
C  0.32445401 0.56156755 0.00320995
H  -0.13542079 1.53746528 -0.03259151
H  1.38783758 0.66807466 -0.03114073
6
MD Step 117
C  -0.32614816 -0.57001718 0.00695507
H  0.18991690 -1.52622703 -0.02796611
H  -1.42278609 -0.57927125 -0.02924160
C  0.32467694 0.56198389 0.00285381
H  -0.13470277 1.53410046 -0.03057268
H  1.38510308 0.66712276 -0.02910253
6
MD Step 118
C  -0.32623767 -0.57000480 0.00664930
H  0.18765323 -1.52576816 -0.02604823
H  -1.42052142 -0.58121857 -0.02733518
C  0.32492562 0.56247321 0.00248662
H  -0.13432803 1.53081629 -0.02848230
H  1.38283065 0.66591707 -0.02699808
6
MD Step 119
C  -0.32637543 -0.57004376 0.00633031
H  0.18531597 -1.52528202 -0.02405754
H  -1.41802170 -0.58325812 -0.02535139
C  0.32519707 0.56302795 0.00211021
H  -0.13432988 1.52767848 -0.02633116
H  1.38107703 0.66446229 -0.02483729
6
MD Step 120
C  -0.32656023 -0.57013331 0.00599665
H  0.18294441 -1.52477804 -0.02198364
H  -1.41532482 -0.58536535 -0.02328064
C  0.32548534 0.56363712 0.00172289
H  -0.13471883 1.52476878 -0.02411090
H  1.37990768 0.66278342 -0.02261097
6
MD Step 121
C  -0.32678174 -0.57026354 0.00565499
H  0.18052649 -1.52431855 -0.01986897
H  -1.41252610 -0.58756710 -0.02116644
C  0.32579384 0.56429844 0.00133217
H  -0.13555227 1.52211191 -0.02186372
H  1.37932370 0.66085395 -0.02036013
6
MD Step 122
C  -0.32703938 -0.57043472 0.00530228
H  0.17811280 -1.52390407 -0.01769304
H  -1.40966256 -0.58982849 -0.01898908
C  0.32611590 0.56499957 0.00093451
H  -0.13682083 1.51978769 -0.01957065
H  1.37937475 0.65871030 -0.01806496
6
MD Step 123
C  -0.32732731 -0.57064195 0.00494010
H  0.17572425 -1.52356439 -0.01546532
H  -1.40680378 -0.59214398 -0.01675895
C  0.32645047 0.56573351 0.00053152
H  -0.13853830 1.51783776 -0.01724142
H  1.38006625 0.65635975 -0.01573427
6
MD Step 124
C  -0.32764083 -0.57088162 0.00456865
H  0.17338990 -1.52331969 -0.01318662
H  -1.40401227 -0.59449952 -0.01447761
C  0.32679562 0.56649243 0.00012330
H  -0.14070316 1.51630225 -0.01487697
H  1.38139701 0.65381864 -0.01336825
6
MD Step 125
C  -0.32797612 -0.57115122 0.00418710
H  0.17114447 -1.52318209 -0.01085114
H  -1.40134415 -0.59687462 -0.01213992
C  0.32714889 0.56726821 -0.00029124
H  -0.14330010 1.51521646 -0.01247152
H  1.38335707 0.65111034 -0.01096056
6