 Entering Gaussian System, Link 0=g16
 Initial command:
 /software/gaussian/g16-c01/avx2/g16/l1.exe "/gpfs/fs2/scratch/bweight/software/many_molecule_many_mode_NAMD/src/NAMD/TEST_NVT/TRAJ/traj-31/G16/GS_NEW/Gau-14579.inp" -scrdir="/gpfs/fs2/scratch/bweight/software/many_molecule_many_mode_NAMD/src/NAMD/TEST_NVT/TRAJ/traj-31/G16/GS_NEW/"
 Entering Link 1 = /software/gaussian/g16-c01/avx2/g16/l1.exe PID=     14580.
  
 Copyright (c) 1988-2019, Gaussian, Inc.  All Rights Reserved.
  
 This is part of the Gaussian(R) 16 program.  It is based on
 the Gaussian(R) 09 system (copyright 2009, Gaussian, Inc.),
 the Gaussian(R) 03 system (copyright 2003, Gaussian, Inc.),
 the Gaussian(R) 98 system (copyright 1998, Gaussian, Inc.),
 the Gaussian(R) 94 system (copyright 1995, Gaussian, Inc.),
 the Gaussian 92(TM) system (copyright 1992, Gaussian, Inc.),
 the Gaussian 90(TM) system (copyright 1990, Gaussian, Inc.),
 the Gaussian 88(TM) system (copyright 1988, Gaussian, Inc.),
 the Gaussian 86(TM) system (copyright 1986, Carnegie Mellon
 University), and the Gaussian 82(TM) system (copyright 1983,
 Carnegie Mellon University). Gaussian is a federally registered
 trademark of Gaussian, Inc.
  
 This software contains proprietary and confidential information,
 including trade secrets, belonging to Gaussian, Inc.
  
 This software is provided under written license and may be
 used, copied, transmitted, or stored only in accord with that
 written license.
  
 The following legend is applicable only to US Government
 contracts under FAR:
  
                    RESTRICTED RIGHTS LEGEND
  
 Use, reproduction and disclosure by the US Government is
 subject to restrictions as set forth in subparagraphs (a)
 and (c) of the Commercial Computer Software - Restricted
 Rights clause in FAR 52.227-19.
  
 Gaussian, Inc.
 340 Quinnipiac St., Bldg. 40, Wallingford CT 06492
  
  
 ---------------------------------------------------------------
 Warning -- This program may not be used in any manner that
 competes with the business of Gaussian, Inc. or will provide
 assistance to any competitor of Gaussian, Inc.  The licensee
 of this program is prohibited from giving any competitor of
 Gaussian, Inc. access to this program.  By using this program,
 the user acknowledges that Gaussian, Inc. is engaged in the
 business of creating and licensing software in the field of
 computational chemistry and represents and warrants to the
 licensee that it is not a competitor of Gaussian, Inc. and that
 it will not use this program in any manner prohibited above.
 ---------------------------------------------------------------
  

 Cite this work as:
 Gaussian 16, Revision C.01,
 M. J. Frisch, G. W. Trucks, H. B. Schlegel, G. E. Scuseria, 
 M. A. Robb, J. R. Cheeseman, G. Scalmani, V. Barone, 
 G. A. Petersson, H. Nakatsuji, X. Li, M. Caricato, A. V. Marenich, 
 J. Bloino, B. G. Janesko, R. Gomperts, B. Mennucci, H. P. Hratchian, 
 J. V. Ortiz, A. F. Izmaylov, J. L. Sonnenberg, D. Williams-Young, 
 F. Ding, F. Lipparini, F. Egidi, J. Goings, B. Peng, A. Petrone, 
 T. Henderson, D. Ranasinghe, V. G. Zakrzewski, J. Gao, N. Rega, 
 G. Zheng, W. Liang, M. Hada, M. Ehara, K. Toyota, R. Fukuda, 
 J. Hasegawa, M. Ishida, T. Nakajima, Y. Honda, O. Kitao, H. Nakai, 
 T. Vreven, K. Throssell, J. A. Montgomery, Jr., J. E. Peralta, 
 F. Ogliaro, M. J. Bearpark, J. J. Heyd, E. N. Brothers, K. N. Kudin, 
 V. N. Staroverov, T. A. Keith, R. Kobayashi, J. Normand, 
 K. Raghavachari, A. P. Rendell, J. C. Burant, S. S. Iyengar, 
 J. Tomasi, M. Cossi, J. M. Millam, M. Klene, C. Adamo, R. Cammi, 
 J. W. Ochterski, R. L. Martin, K. Morokuma, O. Farkas, 
 J. B. Foresman, and D. J. Fox, Gaussian, Inc., Wallingford CT, 2019.
 
 ******************************************
 Gaussian 16:  ES64L-G16RevC.01  3-Jul-2019
                11-Jan-2023 
 ******************************************
 %oldchk=../GS_OLD/geometry.chk
 %chk=geometry.chk
 %nprocshared=4
 Will use up to    4 processors via shared memory.
 %mem=5GB
 Copying data from "../GS_OLD/geometry.chk" to current chk file "geometry.chk"
 IOpt=  2 FromEx=T IUOpen= 4 IOptOp= 5 NList=   0 IFRang= 0 IUIn= 4 IUOut= 2.
 -------------------------------------------------------
 # WB97XD/6-311G SCF=XQC FORCE nosym pop=full guess=read
 -------------------------------------------------------
 1/10=7,30=1,38=1/1,3;
 2/12=2,15=1,17=6,18=5,40=1/2;
 3/5=4,6=6,11=2,25=1,30=1,71=1,74=-58,116=-2/1,2,3;
 4/5=1/1;
 5/5=2,8=3,13=1,38=6/2,8;
 6/7=3,28=1/1;
 7/29=1,30=1/1,2,3,16;
 1/10=7,30=1/3;
 99//99;
 -----------
 MD Step 999
 -----------
 Symbolic Z-matrix:
 Charge =  0 Multiplicity = 1
 C                    -0.33604  -0.5816    0.00555 
 H                     0.21935  -1.52673  -0.01555 
 H                    -1.421    -0.58613  -0.01627 
 C                     0.33313   0.57683   0.00432 
 H                    -0.15982   1.57133  -0.01846 
 H                     1.44593   0.64817  -0.0176 
 

 GradGradGradGradGradGradGradGradGradGradGradGradGradGradGradGradGradGrad
 Berny optimization.
 Initialization pass.
 Trust Radius=3.00D-01 FncErr=1.00D-07 GrdErr=1.00D-07 EigMax=2.50D+02 EigMin=1.00D-04
 Number of steps in this run=      2 maximum allowed number of steps=      2.
 GradGradGradGradGradGradGradGradGradGradGradGradGradGradGradGradGradGrad

                          Input orientation:                          
 ---------------------------------------------------------------------
 Center     Atomic      Atomic             Coordinates (Angstroms)
 Number     Number       Type             X           Y           Z
 ---------------------------------------------------------------------
      1          6           0       -0.336042   -0.581605    0.005545
      2          1           0        0.219351   -1.526731   -0.015545
      3          1           0       -1.420997   -0.586128   -0.016269
      4          6           0        0.333126    0.576827    0.004323
      5          1           0       -0.159817    1.571327   -0.018457
      6          1           0        1.445928    0.648169   -0.017605
 ---------------------------------------------------------------------
                    Distance matrix (angstroms):
                    1          2          3          4          5
     1  C    0.000000
     2  H    1.096435   0.000000
     3  H    1.085184   1.890893   0.000000
     4  C    1.337816   2.106726   2.104718   0.000000
     5  H    2.160266   3.121176   2.499038   1.110199   0.000000
     6  H    2.165248   2.496935   3.121338   1.115302   1.852199
                    6
     6  H    0.000000
 Symmetry turned off by external request.
 Stoichiometry    C2H4
 Framework group  C1[X(C2H4)]
 Deg. of freedom    12
 Full point group                 C1      NOp   1
 Rotational constants (GHZ):         143.0768493          29.6703566          24.5782427
 Standard basis: 6-311G (5D, 7F)
    38 basis functions,    72 primitive gaussians,    38 cartesian basis functions
     8 alpha electrons        8 beta electrons
       nuclear repulsion energy        33.0483709121 Hartrees.
 NAtoms=    6 NActive=    6 NUniq=    6 SFac= 1.00D+00 NAtFMM=   60 NAOKFM=F Big=F
 Integral buffers will be    131072 words long.
 Raffenetti 2 integral format.
 Two-electron integral symmetry is turned off.
 Nuclear repulsion after empirical dispersion term =       33.0475287520 Hartrees.
 One-electron integrals computed using PRISM.
 NBasis=    38 RedAO= T EigKep=  6.43D-03  NBF=    38
 NBsUse=    38 1.00D-06 EigRej= -1.00D+00 NBFU=    38
 Initial guess from the checkpoint file:  "geometry.chk"
 B after Tr=    -0.000208   -0.000421   -0.000357
         Rot=    1.000000   -0.000002    0.000001    0.000003 Ang=  -0.00 deg.
 Keep R1 ints in memory in canonical form, NReq=4036876.
 Requested convergence on RMS density matrix=1.00D-08 within  32 cycles.
 Requested convergence on MAX density matrix=1.00D-06.
 Requested convergence on             energy=1.00D-06.
 No special actions if energy rises.
 SCF Done:  E(RwB97XD) =  -78.5555356663     A.U. after    8 cycles
            NFock=  8  Conv=0.68D-08     -V/T= 2.0053
 QCSCF skips out because SCF is already converged.

 **********************************************************************

            Population analysis using the SCF Density.

 **********************************************************************

 Alpha  occ. eigenvalues --  -10.29112 -10.28798  -0.86374  -0.67172  -0.55910
 Alpha  occ. eigenvalues --   -0.50935  -0.43599  -0.35697
 Alpha virt. eigenvalues --    0.07995   0.14074   0.16430   0.16976   0.24061
 Alpha virt. eigenvalues --    0.37341   0.39272   0.39917   0.46310   0.48779
 Alpha virt. eigenvalues --    0.49367   0.59097   0.66516   0.69030   0.77182
 Alpha virt. eigenvalues --    0.77579   0.84380   0.95227   2.23170   2.28996
 Alpha virt. eigenvalues --    2.33262   2.40690   2.67100   2.81791   2.87777
 Alpha virt. eigenvalues --    2.95175   3.14043   3.31841  23.35132  23.70576
     Molecular Orbital Coefficients:
                           1         2         3         4         5
                           O         O         O         O         O
     Eigenvalues --   -10.29112 -10.28798  -0.86374  -0.67172  -0.55910
   1 1   C  1S          0.07970   0.55773  -0.08860   0.06652  -0.00041
   2        2S          0.06579   0.45900  -0.14005   0.10654  -0.00067
   3        2PX         0.00016  -0.00000   0.02606   0.03679   0.13842
   4        2PY         0.00028  -0.00000   0.04631   0.06025  -0.07502
   5        2PZ         0.00000  -0.00000  -0.00090   0.00132   0.00014
   6        3S          0.00120   0.01459   0.37568  -0.29071   0.00182
   7        3PX        -0.00062   0.00041   0.03452   0.05892   0.21693
   8        3PY        -0.00107   0.00073   0.06094   0.09757  -0.11838
   9        3PZ        -0.00001  -0.00002  -0.00150   0.00236   0.00021
  10        4S          0.00385  -0.01455   0.19210  -0.22575   0.00144
  11        4PX         0.00155  -0.00149   0.00488   0.02369   0.11225
  12        4PY         0.00267  -0.00256   0.00845   0.04019  -0.06191
  13        4PZ         0.00000   0.00006  -0.00052   0.00118   0.00010
  14 2   H  1S         -0.00004  -0.00006   0.05283  -0.08734   0.10373
  15        2S         -0.00030   0.00009   0.05405  -0.10534   0.13139
  16        3S          0.00076   0.00172  -0.00178  -0.01519   0.04252
  17 3   H  1S         -0.00005  -0.00007   0.05404  -0.09092  -0.10610
  18        2S         -0.00030   0.00007   0.05487  -0.10872  -0.13334
  19        3S          0.00079   0.00175  -0.00177  -0.01603  -0.04312
  20 4   C  1S          0.55774  -0.07989  -0.08666  -0.06859   0.00004
  21        2S          0.45905  -0.06555  -0.13683  -0.11000   0.00008
  22        2PX        -0.00001  -0.00017  -0.02766   0.03779   0.11687
  23        2PY        -0.00002  -0.00029  -0.04723   0.06613  -0.07271
  24        2PZ        -0.00000   0.00000  -0.00071  -0.00140   0.00015
  25        3S          0.01415  -0.00292   0.36664   0.30063  -0.00023
  26        3PX        -0.00024   0.00072  -0.03460   0.06130   0.18305
  27        3PY        -0.00039   0.00124  -0.05904   0.10703  -0.11308
  28        3PZ        -0.00002  -0.00000  -0.00122  -0.00253   0.00022
  29        4S         -0.01255   0.00790   0.18869   0.23925  -0.00142
  30        4PX         0.00095  -0.00187  -0.00548   0.02670   0.10104
  31        4PY         0.00163  -0.00327  -0.00921   0.04578  -0.06188
  32        4PZ         0.00005  -0.00001  -0.00051  -0.00131   0.00012
  33 5   H  1S         -0.00005  -0.00004   0.04901   0.09293  -0.08846
  34        2S         -0.00001  -0.00031   0.05040   0.11141  -0.11190
  35        3S          0.00177   0.00022  -0.00114   0.01673  -0.03595
  36 6   H  1S         -0.00005  -0.00004   0.04837   0.09203   0.08429
  37        2S         -0.00001  -0.00032   0.05006   0.11062   0.10687
  38        3S          0.00175   0.00021  -0.00114   0.01641   0.03464
                           6         7         8         9        10
                           O         O         O         V         V
     Eigenvalues --    -0.50935  -0.43599  -0.35697   0.07995   0.14074
   1 1   C  1S         -0.00352   0.00014  -0.00068   0.00186  -0.03255
   2        2S         -0.00526   0.00025  -0.00111   0.00309  -0.05219
   3        2PX         0.09480  -0.10962  -0.00231   0.00099  -0.03173
   4        2PY         0.16787   0.06545  -0.00392   0.00163  -0.06389
   5        2PZ         0.00346   0.00000   0.17947  -0.18906  -0.00156
   6        3S          0.02016  -0.00054   0.00324  -0.00936   0.11312
   7        3PX         0.13770  -0.17496  -0.00327   0.00149  -0.03771
   8        3PY         0.24520   0.10476  -0.00553   0.00243  -0.07921
   9        3PZ         0.00549   0.00002   0.28869  -0.27809  -0.00251
  10        4S         -0.05311  -0.00305   0.00473  -0.01044   1.20386
  11        4PX         0.06937  -0.10931  -0.00267   0.00858  -0.19321
  12        4PY         0.12460   0.06607  -0.00454   0.01432  -0.37762
  13        4PZ         0.00312   0.00004   0.26706  -0.69575  -0.00913
  14 2   H  1S         -0.08024  -0.11425   0.00010   0.00290  -0.01628
  15        2S         -0.11110  -0.17638   0.00137   0.00457  -0.04610
  16        3S         -0.04156  -0.08158   0.00082   0.01208  -0.81398
  17 3   H  1S         -0.07948   0.11171   0.00006   0.00290  -0.01307
  18        2S         -0.10941   0.17171   0.00132   0.00462  -0.03885
  19        3S         -0.04061   0.07918   0.00080   0.01187  -0.76139
  20 4   C  1S         -0.00842  -0.00042  -0.00055  -0.00182  -0.03707
  21        2S         -0.01317  -0.00070  -0.00090  -0.00302  -0.05955
  22        2PX        -0.09836   0.12524   0.00227   0.00116   0.04056
  23        2PY        -0.16201  -0.07431   0.00416   0.00217   0.06273
  24        2PZ         0.00368   0.00015   0.17925   0.18962  -0.00219
  25        3S          0.04264   0.00205   0.00267   0.00903   0.13186
  26        3PX        -0.14554   0.20076   0.00317   0.00177   0.04945
  27        3PY        -0.23834  -0.11861   0.00585   0.00331   0.07442
  28        3PZ         0.00581   0.00023   0.28672   0.27782  -0.00331
  29        4S         -0.02987   0.00203   0.00450   0.01070   1.25799
  30        4PX        -0.07594   0.12928   0.00243   0.00889   0.26443
  31        4PY        -0.12331  -0.07570   0.00459   0.01610   0.42068
  32        4PZ         0.00337   0.00014   0.26726   0.69710  -0.01289
  33 5   H  1S         -0.07442  -0.12545   0.00016  -0.00276  -0.01330
  34        2S         -0.10191  -0.19627   0.00146  -0.00467  -0.03954
  35        3S         -0.03808  -0.09248   0.00081  -0.01234  -0.83899
  36 6   H  1S         -0.08018   0.12466   0.00011  -0.00276  -0.01620
  37        2S         -0.11010   0.19561   0.00139  -0.00465  -0.04739
  38        3S         -0.04128   0.09208   0.00076  -0.01236  -0.89242
                          11        12        13        14        15
                           V         V         V         V         V
     Eigenvalues --     0.16430   0.16976   0.24061   0.37341   0.39272
   1 1   C  1S         -0.00044  -0.04609   0.00003   0.00955   0.00072
   2        2S         -0.00073  -0.07511   0.00004   0.01301   0.00111
   3        2PX         0.09566  -0.02317   0.10030  -0.03577  -0.02311
   4        2PY        -0.05457  -0.03610  -0.05756  -0.06531   0.00976
   5        2PZ        -0.00007  -0.00460   0.00003  -0.00317  -0.00013
   6        3S          0.00189   0.17002   0.00015   0.03399  -0.00026
   7        3PX         0.13768  -0.01586   0.10603  -0.04447  -0.10426
   8        3PY        -0.07839  -0.02252  -0.06165  -0.08625   0.05117
   9        3PZ        -0.00010  -0.00638  -0.00001  -0.00647  -0.00025
  10        4S         -0.00224   1.45582  -0.01378  -2.58649  -0.14076
  11        4PX         0.57518  -0.13846   1.17143  -1.55589  -0.54066
  12        4PY        -0.32008  -0.20256  -0.66824  -2.71697   0.14907
  13        4PZ        -0.00035  -0.02998   0.00061  -0.02895  -0.00172
  14 2   H  1S         -0.03028  -0.02486   0.01392  -0.05858   0.07442
  15        2S         -0.08295  -0.01632  -0.02246  -0.66711   0.75344
  16        3S         -1.05873  -0.98570  -1.55212  -0.30629  -0.31249
  17 3   H  1S          0.02809  -0.02598  -0.01595  -0.05135  -0.07674
  18        2S          0.08066  -0.02309   0.01682  -0.60956  -0.77437
  19        3S          1.05662  -1.05638   1.57561  -0.37705   0.25024
  20 4   C  1S          0.00232   0.04192  -0.00003  -0.02001  -0.00028
  21        2S          0.00374   0.06825  -0.00006  -0.03289  -0.00035
  22        2PX         0.10165  -0.02563  -0.10028  -0.04087  -0.03168
  23        2PY        -0.06287  -0.03554   0.05752  -0.07279   0.01442
  24        2PZ         0.00027   0.00445  -0.00003   0.00231   0.00016
  25        3S         -0.00800  -0.15189   0.00021   0.04435  -0.00226
  26        3PX         0.14661  -0.02201  -0.11413  -0.09291  -0.10976
  27        3PY        -0.08883  -0.02503   0.06465  -0.16843   0.05744
  28        3PZ         0.00039   0.00614  -0.00002   0.00283   0.00028
  29        4S         -0.08670  -1.31296   0.00251   3.29964   0.15033
  30        4PX         0.53613  -0.12917  -1.11857  -1.16453  -0.52845
  31        4PY        -0.33563  -0.18429   0.64927  -2.04267   0.13172
  32        4PZ         0.00168   0.02879  -0.00061   0.02389   0.00136
  33 5   H  1S          0.03266   0.02444   0.00521   0.00935  -0.08237
  34        2S          0.06966   0.02150  -0.03586   0.05566  -0.81479
  35        3S          1.09823   0.89098  -1.50672   0.44591   0.49435
  36 6   H  1S         -0.03093   0.02664  -0.00443   0.00413   0.08682
  37        2S         -0.06804   0.02319   0.03587   0.00890   0.87450
  38        3S         -0.97934   0.95795   1.49967   0.46627  -0.46865
                          16        17        18        19        20
                           V         V         V         V         V
     Eigenvalues --     0.39917   0.46310   0.48779   0.49367   0.59097
   1 1   C  1S         -0.01826   0.01389  -0.04594  -0.00015  -0.00036
   2        2S         -0.03201   0.03127  -0.07652  -0.00007  -0.00065
   3        2PX         0.02717  -0.06153   0.00999   0.00077   0.00138
   4        2PY         0.04893  -0.10750   0.01287   0.00109   0.00211
   5        2PZ         0.00024  -0.00034   0.00321  -0.15169  -0.19263
   6        3S          0.07237  -0.33837   0.07953  -0.00669  -0.00053
   7        3PX         0.10353  -0.23890  -0.04209   0.00023   0.00464
   8        3PY         0.19068  -0.41535  -0.08136  -0.00042   0.00710
   9        3PZ        -0.00258  -0.00304   0.01460  -0.62789  -0.68538
  10        4S          2.70903   0.00730   3.13042   0.05651   0.04715
  11        4PX         0.26492   0.20496   0.82357   0.01857   0.01430
  12        4PY         0.47874   0.37787   1.42887   0.03335   0.02580
  13        4PZ        -0.00072   0.00214  -0.05892   0.68578   1.24139
  14 2   H  1S         -0.02718  -0.03186  -0.07676  -0.00170  -0.00112
  15        2S         -0.54344  -0.29828  -0.91793  -0.01593  -0.00823
  16        3S          0.31578   0.04638   0.64313   0.01966   0.01577
  17 3   H  1S         -0.03166  -0.03312  -0.07549  -0.00167  -0.00110
  18        2S         -0.58123  -0.31279  -0.89878  -0.01573  -0.00773
  19        3S          0.31668   0.04441   0.61690   0.01919   0.01546
  20 4   C  1S         -0.00082  -0.00448   0.05111   0.00201   0.00047
  21        2S         -0.00490   0.00004   0.08920   0.00365   0.00088
  22        2PX         0.00961   0.05379   0.02942   0.00004   0.00140
  23        2PY         0.01785   0.09288   0.05211  -0.00005   0.00266
  24        2PZ        -0.00261  -0.00127   0.00331  -0.15292   0.19225
  25        3S          0.07920  -0.27747  -0.24463  -0.01448  -0.00175
  26        3PX        -0.04071   0.23303   0.06432   0.00013   0.00490
  27        3PY        -0.06427   0.40457   0.11190  -0.00036   0.00927
  28        3PZ        -0.00733  -0.00505   0.01201  -0.63193   0.68200
  29        4S         -0.91432   0.85988  -3.06201  -0.07011  -0.04111
  30        4PX         1.27324  -0.37078   0.60679   0.00895   0.01495
  31        4PY         2.26288  -0.63049   1.04478   0.01551   0.02483
  32        4PZ        -0.02269  -0.01184   0.02435   0.69380  -1.23734
  33 5   H  1S         -0.04676  -0.06605   0.06218   0.00152   0.00107
  34        2S         -0.83536  -0.67044   0.77931   0.02275   0.00394
  35        3S         -0.19146   0.30042  -0.54981  -0.00615  -0.01549
  36 6   H  1S         -0.04202  -0.06538   0.06222   0.00153   0.00108
  37        2S         -0.77894  -0.66224   0.77853   0.02260   0.00407
  38        3S         -0.20827   0.30986  -0.55937  -0.00656  -0.01559
                          21        22        23        24        25
                           V         V         V         V         V
     Eigenvalues --     0.66516   0.69030   0.77182   0.77579   0.84380
   1 1   C  1S          0.00059  -0.00090   0.05235   0.07231   0.00118
   2        2S          0.00124  -0.00191   0.11045   0.15418   0.00269
   3        2PX        -0.12535   0.20279  -0.02365   0.11409  -0.00889
   4        2PY         0.07311  -0.12110  -0.04219   0.18617   0.01301
   5        2PZ        -0.00006   0.00010   0.00051   0.00327   0.00009
   6        3S         -0.01073   0.01927  -0.74694  -1.33607  -0.02723
   7        3PX        -0.59093   0.71680  -0.16694   0.44651  -0.22489
   8        3PY         0.34133  -0.42735  -0.29359   0.71920   0.16075
   9        3PZ        -0.00031   0.00040   0.00192   0.01142   0.00029
  10        4S          0.02154  -0.06085   0.73838   2.45063   0.00520
  11        4PX         1.07377  -0.80644   0.13106  -0.75237   4.52376
  12        4PY        -0.61711   0.49579   0.19614  -1.00973  -2.57746
  13        4PZ         0.00031   0.00065   0.00577  -0.03721   0.00274
  14 2   H  1S          0.02126  -0.06007   0.01087   0.03244  -0.02728
  15        2S          0.10599  -0.64785   0.08213   0.09250  -1.57391
  16        3S         -1.00582   1.14213  -0.10824  -1.10135  -1.23336
  17 3   H  1S         -0.02073   0.05922   0.01108   0.03312   0.03068
  18        2S         -0.11939   0.67427   0.09806   0.06077   1.61144
  19        3S          1.00050  -1.10161  -0.10948  -1.24139   1.23124
  20 4   C  1S          0.00084  -0.00069   0.08446   0.02987   0.00095
  21        2S          0.00170  -0.00139   0.17977   0.06285   0.00195
  22        2PX        -0.15756  -0.17919  -0.09732   0.05390   0.01096
  23        2PY         0.09082   0.10059  -0.17196   0.09895  -0.00040
  24        2PZ        -0.00007  -0.00013   0.00343  -0.00078  -0.00007
  25        3S         -0.01200   0.00606  -1.49927  -0.35363  -0.01064
  26        3PX        -0.70250  -0.59797  -0.35374   0.28362   0.24237
  27        3PY         0.40676   0.33244  -0.62844   0.51844  -0.10994
  28        3PZ        -0.00035  -0.00041   0.01213  -0.00299  -0.00012
  29        4S          0.00469   0.01497   2.69468   0.08262  -0.01859
  30        4PX         1.29504   0.69546   0.53375  -0.25458  -4.16128
  31        4PY        -0.74419  -0.38099   0.98736  -0.68537   2.38661
  32        4PZ         0.00069  -0.00029  -0.03526   0.01783  -0.00240
  33 5   H  1S         -0.02709  -0.05446   0.03477   0.00245  -0.02310
  34        2S         -0.16176  -0.54696   0.06885   0.07464  -1.40379
  35        3S          1.14017   0.93817  -1.13554   0.31259  -1.08937
  36 6   H  1S          0.02771   0.05407   0.03467   0.00300   0.02313
  37        2S          0.15975   0.52821   0.07059   0.01967   1.39716
  38        3S         -1.14338  -0.95029  -1.09794   0.24012   1.09839
                          26        27        28        29        30
                           V         V         V         V         V
     Eigenvalues --     0.95227   2.23170   2.28996   2.33262   2.40690
   1 1   C  1S          0.09583  -0.01023  -0.01456   0.00037  -0.00043
   2        2S          0.19915   0.00144  -0.01469   0.00076  -0.00054
   3        2PX        -0.09144  -0.07808  -0.13167   0.34450  -0.41051
   4        2PY        -0.15837  -0.14547  -0.23194  -0.19555   0.23188
   5        2PZ         0.00013  -0.00916  -0.01229   0.00010  -0.00044
   6        3S         -1.54291  -0.18643  -0.03555  -0.00090  -0.00402
   7        3PX        -0.23390   0.07339   0.20863  -0.41121   0.57270
   8        3PY        -0.39860   0.15029   0.37872   0.23555  -0.32487
   9        3PZ        -0.00168   0.00914   0.01533  -0.00004   0.00051
  10        4S          5.71437  -0.11104  -0.88652   0.00199  -0.01403
  11        4PX         1.19908   0.05456  -0.18892  -0.04708   0.98449
  12        4PY         1.99326   0.07119  -0.35781   0.01891  -0.54436
  13        4PZ        -0.01276   0.00210   0.00558  -0.00019   0.00103
  14 2   H  1S          0.01535  -0.71093  -0.79369  -0.69770   0.65998
  15        2S         -0.28750   1.01046   1.18860   1.07523  -1.47292
  16        3S         -0.09439  -0.30190  -0.47483  -0.46268   0.36915
  17 3   H  1S          0.01560  -0.70081  -0.79072   0.69367  -0.67877
  18        2S         -0.26142   0.99747   1.18911  -1.07254   1.51296
  19        3S         -0.07700  -0.27988  -0.45768   0.45422  -0.36086
  20 4   C  1S         -0.09391  -0.00999   0.01194   0.00027   0.00016
  21        2S         -0.19479   0.00077   0.01174   0.00031   0.00035
  22        2PX        -0.09255   0.13525  -0.12335   0.30712   0.41471
  23        2PY        -0.15985   0.23512  -0.20833  -0.17774  -0.23941
  24        2PZ         0.00022  -0.01003   0.01204   0.00024   0.00024
  25        3S          1.50583  -0.16950   0.01917   0.00089  -0.00073
  26        3PX        -0.22775  -0.17284   0.21215  -0.38629  -0.58157
  27        3PY        -0.39742  -0.29915   0.35400   0.22206   0.33670
  28        3PZ         0.00244   0.01087  -0.01541  -0.00028  -0.00034
  29        4S         -5.68732  -0.16128   0.88192   0.01015  -0.00496
  30        4PX         1.10882  -0.01614  -0.19865   0.11032  -0.85163
  31        4PY         1.98422  -0.02747  -0.32126  -0.06325   0.49899
  32        4PZ         0.00850   0.00303  -0.00423   0.00001  -0.00080
  33 5   H  1S         -0.01824  -0.78763   0.67848   0.71042   0.67893
  34        2S          0.29198   1.14254  -1.03509  -1.03126  -1.44391
  35        3S          0.05646  -0.36059   0.40622   0.51714   0.42707
  36 6   H  1S         -0.01808  -0.78257   0.69469  -0.69942  -0.67931
  37        2S          0.31178   1.13464  -1.05447   1.01360   1.44012
  38        3S          0.06732  -0.35787   0.42673  -0.51327  -0.43214
                          31        32        33        34        35
                           V         V         V         V         V
     Eigenvalues --     2.67100   2.81791   2.87777   2.95175   3.14043
   1 1   C  1S          0.00034   0.00174  -0.01338  -0.00000  -0.00967
   2        2S          0.00026   0.00502  -0.04426  -0.00027  -0.02963
   3        2PX         0.00343   0.04999  -0.47319  -0.72589   0.44756
   4        2PY         0.00518   0.08808  -0.85539   0.40737   0.78355
   5        2PZ        -0.92351  -0.93629  -0.09565  -0.00085   0.00446
   6        3S         -0.00100  -0.04157   0.38842   0.00434   0.24891
   7        3PX        -0.00243  -0.08670   0.83835   0.87510  -0.43068
   8        3PY        -0.00360  -0.15147   1.48863  -0.47759  -0.75313
   9        3PZ         0.93830   1.14464   0.12004   0.00115  -0.00576
  10        4S          0.00867   0.09665  -0.87773  -0.01297  -0.48595
  11        4PX        -0.00145   0.06964  -0.71661  -0.66473   0.21491
  12        4PY        -0.00214   0.12213  -1.27213   0.35205   0.37852
  13        4PZ        -0.33737  -0.62040  -0.07598  -0.00091   0.00343
  14 2   H  1S          0.00822  -0.01360   0.26173  -0.37272  -0.21512
  15        2S         -0.00936   0.00843  -0.21694   0.38341   0.16391
  16        3S         -0.00208   0.02832  -0.30109   0.27393   0.05860
  17 3   H  1S          0.00831  -0.01327   0.25294   0.37406  -0.21360
  18        2S         -0.00959   0.00753  -0.20170  -0.38053   0.16001
  19        3S         -0.00237   0.02844  -0.30118  -0.29087   0.06566
  20 4   C  1S          0.00035  -0.00171   0.01386   0.00040  -0.00712
  21        2S          0.00034  -0.00531   0.04852   0.00100  -0.02253
  22        2PX        -0.00504   0.04459  -0.41032  -0.80870  -0.50240
  23        2PY        -0.00940   0.07927  -0.72789   0.44781  -0.89388
  24        2PZ        -0.92603   0.93330   0.09808   0.00021   0.00906
  25        3S         -0.00193   0.04565  -0.43581  -0.00798   0.19523
  26        3PX         0.00528  -0.08129   0.77417   0.96244   0.53851
  27        3PY         0.00976  -0.14335   1.36258  -0.52451   0.96580
  28        3PZ         0.94179  -1.14172  -0.12353  -0.00029  -0.01140
  29        4S          0.01071  -0.09907   0.91264   0.02414  -0.37219
  30        4PX        -0.00062   0.06933  -0.71228  -0.70052  -0.32544
  31        4PY        -0.00158   0.12110  -1.24286   0.37604  -0.59412
  32        4PZ        -0.33921   0.61903   0.07879   0.00018   0.00894
  33 5   H  1S          0.00789   0.01910  -0.29618   0.42110  -0.26489
  34        2S         -0.00980  -0.01568   0.27135  -0.43429   0.21020
  35        3S         -0.00078  -0.02582   0.27840  -0.23853   0.12568
  36 6   H  1S          0.00795   0.01909  -0.29211  -0.43149  -0.25160
  37        2S         -0.01004  -0.01603   0.27080   0.44339   0.19690
  38        3S         -0.00063  -0.02504   0.26864   0.24317   0.11785
                          36        37        38
                           V         V         V
     Eigenvalues --     3.31841  23.35132  23.70576
   1 1   C  1S         -0.00037  -1.41135  -1.45487
   2        2S         -0.00056   1.50512   1.57326
   3        2PX         0.78973  -0.00659   0.01209
   4        2PY        -0.43947  -0.01078   0.02119
   5        2PZ         0.00066  -0.00037  -0.00017
   6        3S          0.00018  -0.29518  -0.40024
   7        3PX        -1.12819   0.02431  -0.05571
   8        3PY         0.62496   0.04035  -0.09688
   9        3PZ        -0.00101   0.00106   0.00051
  10        4S         -0.00646   0.27220   0.76993
  11        4PX         1.98379  -0.02648   0.13358
  12        4PY        -1.10002  -0.04485   0.22963
  13        4PZ         0.00173  -0.00176  -0.00209
  14 2   H  1S          0.56474   0.01325   0.00731
  15        2S         -0.88087   0.00759  -0.01490
  16        3S         -0.46644  -0.08431  -0.03974
  17 3   H  1S         -0.57603   0.01488   0.00835
  18        2S          0.89681   0.00738  -0.01485
  19        3S          0.49095  -0.08644  -0.03971
  20 4   C  1S         -0.00006  -1.45006   1.41610
  21        2S         -0.00038   1.54655  -1.53148
  22        2PX        -0.70643   0.00602   0.01266
  23        2PY         0.40319   0.01061   0.02167
  24        2PZ        -0.00052  -0.00037   0.00009
  25        3S          0.00515  -0.30352   0.38998
  26        3PX         1.00458  -0.02217  -0.05664
  27        3PY        -0.58172  -0.03890  -0.09758
  28        3PZ         0.00078   0.00107  -0.00022
  29        4S         -0.02299   0.28068  -0.75946
  30        4PX        -1.77325   0.02308   0.13105
  31        4PY         1.03800   0.04144   0.22760
  32        4PZ        -0.00138  -0.00174   0.00149
  33 5   H  1S          0.47938   0.01244  -0.00391
  34        2S         -0.75168   0.00861   0.01307
  35        3S         -0.42217  -0.08235   0.03667
  36 6   H  1S         -0.47774   0.01167  -0.00334
  37        2S          0.74987   0.00934   0.01308
  38        3S          0.41553  -0.08127   0.03661
     Density Matrix:
                           1         2         3         4         5
   1 1   C  1S          0.65940
   2        2S          0.56151   0.49201
   3        2PX        -0.00051  -0.00068   0.08441
   4        2PY        -0.00124  -0.00172   0.00357   0.08776
   5        2PZ         0.00006   0.00009  -0.00008  -0.00019   0.06445
   6        3S         -0.08893  -0.15384   0.00263   0.00616  -0.00014
   7        3PX         0.00088   0.00135   0.13067   0.00110  -0.00006
   8        3PY         0.00123   0.00189   0.00113   0.13124  -0.00017
   9        3PZ         0.00012   0.00020  -0.00015  -0.00030   0.10367
  10        4S         -0.07932  -0.11421  -0.01562  -0.02789   0.00039
  11        4PX         0.00026   0.00159   0.07021  -0.00453  -0.00039
  12        4PY         0.00062   0.00301  -0.00458   0.06543  -0.00069
  13        4PZ        -0.00007  -0.00018  -0.00057  -0.00096   0.09589
  14 2   H  1S         -0.02061  -0.03282   0.03488  -0.06309  -0.00082
  15        2S         -0.02291  -0.03664   0.04904  -0.08780  -0.00062
  16        3S          0.00056  -0.00073   0.02056  -0.03301  -0.00002
  17 3   H  1S         -0.02109  -0.03355  -0.07281  -0.00209  -0.00090
  18        2S         -0.02323  -0.03709  -0.10045  -0.00228  -0.00071
  19        3S          0.00060  -0.00069  -0.03827   0.00110  -0.00005
  20 4   C  1S          0.00608   0.00980  -0.01087  -0.01886  -0.00028
  21        2S          0.00976   0.01526  -0.01739  -0.03019  -0.00046
  22        2PX         0.01037   0.01658  -0.01243  -0.03219   0.00032
  23        2PY         0.01802   0.02881  -0.03217  -0.04965   0.00061
  24        2PZ        -0.00033  -0.00054  -0.00026  -0.00041   0.06436
  25        3S         -0.02628  -0.03991   0.04880   0.08479   0.00139
  26        3PX         0.01598   0.02476  -0.01824  -0.04589   0.00041
  27        3PY         0.02775   0.04302  -0.04572  -0.07120   0.00080
  28        3PZ        -0.00056  -0.00090  -0.00046  -0.00072   0.10295
  29        4S          0.00541   0.00403   0.02091   0.03671   0.00170
  30        4PX         0.00308   0.00636  -0.01310  -0.02104   0.00046
  31        4PY         0.00523   0.01088  -0.02105  -0.03740   0.00091
  32        4PZ        -0.00048  -0.00077  -0.00072  -0.00117   0.09595
  33 5   H  1S          0.00418   0.00686  -0.00170  -0.01240  -0.00033
  34        2S          0.00629   0.01045   0.00355  -0.02504  -0.00001
  35        3S          0.00322   0.00472   0.00427  -0.01759   0.00006
  36 6   H  1S          0.00415   0.00681  -0.00991  -0.00768  -0.00033
  37        2S          0.00622   0.01036  -0.02343  -0.00944  -0.00003
  38        3S          0.00318   0.00467  -0.01728  -0.00514   0.00004
                           6         7         8         9        10
   6        3S          0.45256
   7        3PX        -0.00179   0.20261
   8        3PY        -0.00162  -0.00475   0.19676
   9        3PZ        -0.00040  -0.00012  -0.00027   0.16675
  10        4S          0.27307  -0.02632  -0.04775   0.00051   0.18190
  11        4PX        -0.00684   0.10920  -0.01022  -0.00064  -0.01517
  12        4PY        -0.01239  -0.01032   0.09852  -0.00111  -0.02866
  13        4PZ         0.00078  -0.00076  -0.00127   0.15424   0.00146
  14 2   H  1S          0.08774   0.05624  -0.09845  -0.00135   0.06926
  15        2S          0.09806   0.07944  -0.13653  -0.00104   0.08159
  16        3S          0.00612   0.03363  -0.05073  -0.00003   0.01118
  17 3   H  1S          0.08976  -0.11399  -0.00161  -0.00147   0.06927
  18        2S          0.09937  -0.15710  -0.00065  -0.00116   0.08037
  19        3S          0.00617  -0.05961   0.00353  -0.00007   0.01023
  20 4   C  1S         -0.02657  -0.01698  -0.02947  -0.00048   0.00518
  21        2S         -0.04020  -0.02638  -0.04583  -0.00078   0.00393
  22        2PX        -0.04642  -0.01768  -0.04569   0.00055  -0.01764
  23        2PY        -0.08063  -0.04566  -0.07070   0.00104  -0.03050
  24        2PZ         0.00160  -0.00036  -0.00054   0.10353   0.00167
  25        3S          0.10237   0.07163   0.12468   0.00233   0.00081
  26        3PX        -0.06702  -0.02610  -0.06494   0.00071  -0.02620
  27        3PY        -0.11641  -0.06470  -0.10134   0.00139  -0.04528
  28        3PZ         0.00265  -0.00064  -0.00097   0.16560   0.00277
  29        4S          0.00168   0.03166   0.05579   0.00283  -0.03266
  30        4PX        -0.02251  -0.01957  -0.02957   0.00076  -0.00651
  31        4PY        -0.03871  -0.02959  -0.05393   0.00151  -0.01067
  32        4PZ         0.00225  -0.00101  -0.00162   0.15434   0.00256
  33 5   H  1S         -0.02039  -0.00064  -0.01773  -0.00048  -0.01471
  34        2S         -0.03122   0.00866  -0.03674   0.00004  -0.01922
  35        3S         -0.01213   0.00816  -0.02643   0.00011  -0.00347
  36 6   H  1S         -0.02022  -0.01495  -0.00930  -0.00049  -0.01497
  37        2S         -0.03097  -0.03592  -0.01064   0.00002  -0.01988
  38        3S         -0.01202  -0.02671  -0.00610   0.00009  -0.00391
                          11        12        13        14        15
  11        4PX         0.05992
  12        4PY        -0.00903   0.05089
  13        4PZ        -0.00093  -0.00157   0.14267
  14 2   H  1S          0.03351  -0.05407  -0.00070   0.08134
  15        2S          0.04817  -0.07483  -0.00026   0.10950   0.14947
  16        3S          0.02087  -0.02766   0.00015   0.03660   0.05220
  17 3   H  1S         -0.06305   0.00170  -0.00075  -0.01319  -0.02463
  18        2S         -0.08728   0.00411  -0.00030  -0.02455  -0.04246
  19        3S         -0.03341   0.00435   0.00014  -0.01791  -0.02705
  20 4   C  1S         -0.00319  -0.00575  -0.00043   0.00424   0.00676
  21        2S         -0.00658  -0.01174  -0.00069   0.00702   0.01128
  22        2PX        -0.01328  -0.01988   0.00075   0.00189  -0.00256
  23        2PY        -0.01990  -0.03671   0.00140   0.01135   0.02408
  24        2PZ        -0.00052  -0.00083   0.09576  -0.00039  -0.00012
  25        3S          0.02328   0.04135   0.00202  -0.02114  -0.03396
  26        3PX        -0.02044  -0.02810   0.00102   0.00109  -0.00702
  27        3PY        -0.02806  -0.05353   0.00192   0.01696   0.03617
  28        3PZ        -0.00085  -0.00138   0.15318  -0.00057  -0.00013
  29        4S          0.00818   0.01527   0.00259  -0.01782  -0.02444
  30        4PX        -0.01491  -0.01231   0.00093  -0.00164  -0.00839
  31        4PY        -0.01238  -0.02956   0.00178   0.01528   0.02721
  32        4PZ        -0.00103  -0.00170   0.14277  -0.00032   0.00019
  33 5   H  1S          0.00212  -0.01587  -0.00024   0.01120   0.02326
  34        2S          0.00941  -0.02768   0.00032   0.02385   0.04445
  35        3S          0.00765  -0.01593   0.00022   0.01674   0.02799
  36 6   H  1S         -0.01462  -0.00573  -0.00025  -0.00910  -0.01817
  37        2S         -0.02833  -0.00509   0.00030  -0.01889  -0.03434
  38        3S         -0.01731  -0.00111   0.00021  -0.01022  -0.01779
                          16        17        18        19        20
  16        3S          0.02086
  17 3   H  1S         -0.01807   0.08248
  18        2S         -0.02715   0.10975   0.14814
  19        3S         -0.01271   0.03602   0.05087   0.02008
  20 4   C  1S          0.00374   0.00430   0.00674   0.00372   0.65948
  21        2S          0.00552   0.00710   0.01123   0.00546   0.56156
  22        2PX        -0.00337   0.00896   0.02212   0.01663   0.00118
  23        2PY         0.01757   0.00745   0.00977   0.00571   0.00192
  24        2PZ         0.00002  -0.00038  -0.00009   0.00005   0.00005
  25        3S         -0.01432  -0.02131  -0.03370  -0.01404  -0.08926
  26        3PX        -0.00683   0.01426   0.03486   0.02599  -0.00050
  27        3PY         0.02652   0.00953   0.01184   0.00712  -0.00099
  28        3PZ         0.00005  -0.00056  -0.00008   0.00009   0.00012
  29        4S         -0.00590  -0.01761  -0.02368  -0.00545  -0.08029
  30        4PX        -0.00698   0.01407   0.02767   0.01709  -0.00018
  31        4PY         0.01598   0.00650   0.00654   0.00193  -0.00022
  32        4PZ         0.00019  -0.00032   0.00021   0.00021  -0.00003
  33 5   H  1S          0.01613  -0.00903  -0.01803  -0.00935  -0.01994
  34        2S          0.02742  -0.01872  -0.03395  -0.01690  -0.02211
  35        3S          0.01470  -0.01015  -0.01760  -0.00898   0.00056
  36 6   H  1S         -0.00948   0.01120   0.02317   0.01586  -0.01980
  37        2S         -0.01722   0.02382   0.04421   0.02698  -0.02212
  38        3S         -0.00914   0.01668   0.02772   0.01443   0.00048
                          21        22        23        24        25
  21        2S          0.49204
  22        2PX         0.00170   0.08244
  23        2PY         0.00275   0.00389   0.08735
  24        2PZ         0.00008   0.00010   0.00014   0.06429
  25        3S         -0.15423  -0.00547  -0.00893  -0.00009   0.45368
  26        3PX        -0.00075   0.12827   0.00211   0.00006  -0.00018
  27        3PY        -0.00150   0.00213   0.13108   0.00006   0.00031
  28        3PZ         0.00020   0.00014   0.00022   0.10284  -0.00039
  29        4S         -0.11605   0.01372   0.02344   0.00046   0.27930
  30        4PX        -0.00142   0.07327  -0.00523   0.00031   0.00609
  31        4PY        -0.00229  -0.00517   0.06717   0.00058   0.01006
  32        4PZ        -0.00010   0.00054   0.00097   0.09584   0.00056
  33 5   H  1S         -0.03178  -0.03314   0.06328  -0.00088   0.08499
  34        2S         -0.03534  -0.04963   0.08845  -0.00070   0.09451
  35        3S         -0.00065  -0.02274   0.03364  -0.00007   0.00566
  36 6   H  1S         -0.03157   0.07098   0.00280  -0.00081   0.08444
  37        2S         -0.03536   0.10123   0.00098  -0.00060   0.09459
  38        3S         -0.00076   0.04059  -0.00306  -0.00004   0.00593
                          26        27        28        29        30
  26        3PX         0.19992
  27        3PY        -0.00240   0.19728
  28        3PZ         0.00007   0.00008   0.16450
  29        4S          0.02531   0.04309   0.00056   0.18797
  30        4PX         0.11467  -0.01093   0.00049   0.01545   0.06689
  31        4PY        -0.01088   0.10166   0.00093   0.02561  -0.01077
  32        4PZ         0.00069   0.00124   0.15330   0.00138   0.00078
  33 5   H  1S         -0.05309   0.09935  -0.00146   0.06715  -0.03458
  34        2S         -0.07993   0.13836  -0.00117   0.07795  -0.05248
  35        3S         -0.03707   0.05195  -0.00012   0.00954  -0.02448
  36 6   H  1S          0.11219   0.00357  -0.00136   0.06735   0.06583
  37        2S          0.15982  -0.00031  -0.00103   0.07890   0.09426
  38        3S          0.06376  -0.00634  -0.00006   0.01013   0.03797
                          31        32        33        34        35
  31        4PY         0.05396
  32        4PZ         0.00148   0.14288
  33 5   H  1S          0.05590  -0.00076   0.08028
  34        2S          0.07798  -0.00033   0.10986   0.15277
  35        3S          0.02941   0.00010   0.03823   0.05572   0.02316
  36 6   H  1S         -0.00200  -0.00072  -0.01241  -0.02607  -0.02004
  37        2S         -0.00647  -0.00026  -0.02613  -0.04856  -0.03189
  38        3S         -0.00651   0.00012  -0.02015  -0.03194  -0.01582
                          36        37        38
  36 6   H  1S          0.07977
  37        2S          0.10964   0.15310
  38        3S          0.03833   0.05603   0.02331
    Full Mulliken population analysis:
                           1         2         3         4         5
   1 1   C  1S          0.65940
   2        2S          0.49326   0.49201
   3        2PX         0.00000   0.00000   0.08441
   4        2PY         0.00000   0.00000   0.00000   0.08776
   5        2PZ         0.00000   0.00000   0.00000   0.00000   0.06445
   6        3S         -0.02927  -0.06443   0.00000   0.00000   0.00000
   7        3PX         0.00000   0.00000   0.08221   0.00000   0.00000
   8        3PY         0.00000   0.00000   0.00000   0.08257   0.00000
   9        3PZ         0.00000   0.00000   0.00000   0.00000   0.06522
  10        4S         -0.01220  -0.02137   0.00000   0.00000   0.00000
  11        4PX         0.00000   0.00000   0.01546   0.00000   0.00000
  12        4PY         0.00000   0.00000   0.00000   0.01441   0.00000
  13        4PZ         0.00000   0.00000   0.00000   0.00000   0.02112
  14 2   H  1S         -0.00023  -0.00033   0.00183   0.00563   0.00000
  15        2S         -0.00167  -0.00320   0.00433   0.01319   0.00000
  16        3S          0.00004  -0.00007   0.00070   0.00190   0.00000
  17 3   H  1S         -0.00026  -0.00037   0.00792   0.00000   0.00000
  18        2S         -0.00174  -0.00333   0.01774   0.00000   0.00000
  19        3S          0.00005  -0.00007   0.00255  -0.00000   0.00000
  20 4   C  1S          0.00000   0.00000  -0.00002  -0.00006   0.00000
  21        2S          0.00000  -0.00000  -0.00002  -0.00005   0.00000
  22        2PX        -0.00002  -0.00002   0.00011   0.00086   0.00000
  23        2PY        -0.00006  -0.00005   0.00086   0.00197   0.00000
  24        2PZ        -0.00000  -0.00000  -0.00000  -0.00000   0.00042
  25        3S         -0.00059  -0.00100   0.00255   0.00767  -0.00000
  26        3PX        -0.00054  -0.00099   0.00019   0.00555   0.00000
  27        3PY        -0.00163  -0.00298   0.00553   0.01069   0.00000
  28        3PZ        -0.00000  -0.00000  -0.00000  -0.00000   0.00612
  29        4S          0.00034   0.00031   0.00095   0.00289  -0.00000
  30        4PX        -0.00018  -0.00045  -0.00071   0.00146   0.00000
  31        4PY        -0.00053  -0.00134   0.00146   0.00097   0.00000
  32        4PZ        -0.00000  -0.00000  -0.00000  -0.00000   0.00903
  33 5   H  1S          0.00000   0.00000  -0.00000  -0.00000   0.00000
  34        2S          0.00001   0.00002   0.00000  -0.00031   0.00000
  35        3S          0.00007   0.00013   0.00001  -0.00070  -0.00000
  36 6   H  1S          0.00000   0.00000  -0.00000  -0.00000   0.00000
  37        2S          0.00001   0.00002  -0.00023  -0.00007   0.00000
  38        3S          0.00007   0.00013  -0.00057  -0.00012  -0.00000
                           6         7         8         9        10
   6        3S          0.45256
   7        3PX         0.00000   0.20261
   8        3PY         0.00000   0.00000   0.19676
   9        3PZ         0.00000   0.00000   0.00000   0.16675
  10        4S          0.21155   0.00000   0.00000   0.00000   0.18190
  11        4PX         0.00000   0.07136   0.00000   0.00000   0.00000
  12        4PY         0.00000   0.00000   0.06438   0.00000   0.00000
  13        4PZ         0.00000   0.00000   0.00000   0.10079   0.00000
  14 2   H  1S          0.01614   0.01087   0.03237   0.00001   0.01833
  15        2S          0.04130   0.01966   0.05751   0.00001   0.04705
  16        3S          0.00282   0.00396   0.01018   0.00000   0.00844
  17 3   H  1S          0.01702   0.04436   0.00000   0.00001   0.01854
  18        2S          0.04257   0.07727   0.00000   0.00001   0.04675
  19        3S          0.00287   0.01383  -0.00000   0.00000   0.00776
  20 4   C  1S         -0.00060  -0.00057  -0.00173   0.00000   0.00033
  21        2S         -0.00100  -0.00106  -0.00318   0.00000   0.00030
  22        2PX         0.00242   0.00019   0.00553   0.00000   0.00080
  23        2PY         0.00729   0.00552   0.01061   0.00000   0.00240
  24        2PZ         0.00000  -0.00000  -0.00000   0.00615   0.00000
  25        3S          0.02184   0.01343   0.04048  -0.00000   0.00031
  26        3PX         0.01257  -0.00126   0.01854   0.00000   0.00404
  27        3PY         0.03780   0.01847   0.02847   0.00000   0.01209
  28        3PZ         0.00000  -0.00000  -0.00000   0.03533   0.00000
  29        4S          0.00064   0.00488   0.01489  -0.00000  -0.02051
  30        4PX         0.00633  -0.00402   0.00585   0.00000   0.00197
  31        4PY         0.01883   0.00586   0.00125   0.00000   0.00560
  32        4PZ         0.00000  -0.00000  -0.00000   0.04933   0.00000
  33 5   H  1S         -0.00005  -0.00000  -0.00018   0.00000  -0.00078
  34        2S         -0.00118   0.00006  -0.00317  -0.00000  -0.00319
  35        3S         -0.00196   0.00011  -0.00423  -0.00000  -0.00124
  36 6   H  1S         -0.00005  -0.00012  -0.00005   0.00000  -0.00078
  37        2S         -0.00116  -0.00253  -0.00052  -0.00000  -0.00328
  38        3S         -0.00193  -0.00352  -0.00055  -0.00000  -0.00139
                          11        12        13        14        15
  11        4PX         0.05992
  12        4PY         0.00000   0.05089
  13        4PZ         0.00000   0.00000   0.14267
  14 2   H  1S          0.00636   0.01745   0.00001   0.08134
  15        2S          0.01538   0.04065   0.00000   0.07735   0.14947
  16        3S          0.00522   0.01178  -0.00000   0.01368   0.04118
  17 3   H  1S          0.02363  -0.00000   0.00001  -0.00001  -0.00065
  18        2S          0.05491  -0.00001   0.00000  -0.00064  -0.00530
  19        3S          0.01641  -0.00001  -0.00000  -0.00199  -0.00787
  20 4   C  1S         -0.00019  -0.00058   0.00000   0.00000   0.00002
  21        2S         -0.00047  -0.00144   0.00000   0.00000   0.00003
  22        2PX        -0.00072   0.00138   0.00000  -0.00000   0.00000
  23        2PY         0.00138   0.00095   0.00000  -0.00000  -0.00036
  24        2PZ        -0.00000  -0.00000   0.00901   0.00000   0.00000
  25        3S          0.00654   0.02012  -0.00000  -0.00007  -0.00151
  26        3PX        -0.00420   0.00556   0.00000  -0.00000   0.00004
  27        3PY         0.00556   0.00124   0.00000  -0.00023  -0.00358
  28        3PZ        -0.00000  -0.00000   0.04896   0.00000   0.00000
  29        4S          0.00248   0.00801  -0.00000  -0.00105  -0.00441
  30        4PX        -0.00718   0.00311   0.00000   0.00001   0.00017
  31        4PY         0.00313  -0.00561   0.00000  -0.00244  -0.01028
  32        4PZ        -0.00000  -0.00000   0.08966   0.00000  -0.00000
  33 5   H  1S          0.00003  -0.00233   0.00000   0.00000   0.00000
  34        2S          0.00027  -0.00986  -0.00000   0.00000   0.00015
  35        3S          0.00029  -0.00733  -0.00000   0.00023   0.00146
  36 6   H  1S         -0.00176  -0.00048   0.00000  -0.00000  -0.00004
  37        2S         -0.00829  -0.00103  -0.00000  -0.00004  -0.00091
  38        3S         -0.00656  -0.00029  -0.00000  -0.00046  -0.00247
                          16        17        18        19        20
  16        3S          0.02086
  17 3   H  1S         -0.00201   0.08248
  18        2S         -0.00790   0.07753   0.14814
  19        3S         -0.00660   0.01346   0.04013   0.02008
  20 4   C  1S          0.00009   0.00000   0.00002   0.00009   0.65948
  21        2S          0.00016   0.00000   0.00003   0.00016   0.49330
  22        2PX         0.00001  -0.00000  -0.00028  -0.00059   0.00000
  23        2PY        -0.00074  -0.00000  -0.00008  -0.00013   0.00000
  24        2PZ        -0.00000   0.00000   0.00000  -0.00000   0.00000
  25        3S         -0.00248  -0.00007  -0.00151  -0.00244  -0.02938
  26        3PX         0.00006  -0.00016  -0.00289  -0.00364   0.00000
  27        3PY        -0.00445  -0.00007  -0.00065  -0.00066   0.00000
  28        3PZ        -0.00000   0.00000   0.00000  -0.00000   0.00000
  29        4S         -0.00222  -0.00104  -0.00428  -0.00206  -0.01234
  30        4PX         0.00018  -0.00188  -0.00875  -0.00674   0.00000
  31        4PY        -0.00755  -0.00057  -0.00137  -0.00050   0.00000
  32        4PZ        -0.00000   0.00000  -0.00000  -0.00000   0.00000
  33 5   H  1S          0.00022  -0.00000  -0.00004  -0.00042  -0.00021
  34        2S          0.00143  -0.00004  -0.00090  -0.00234  -0.00156
  35        3S          0.00246  -0.00046  -0.00243  -0.00286   0.00004
  36 6   H  1S         -0.00043   0.00000   0.00000   0.00022  -0.00020
  37        2S         -0.00239   0.00000   0.00015   0.00141  -0.00155
  38        3S         -0.00291   0.00023   0.00144   0.00242   0.00004
                          21        22        23        24        25
  21        2S          0.49204
  22        2PX         0.00000   0.08244
  23        2PY         0.00000   0.00000   0.08735
  24        2PZ         0.00000   0.00000   0.00000   0.06429
  25        3S         -0.06459   0.00000   0.00000   0.00000   0.45368
  26        3PX         0.00000   0.08070   0.00000   0.00000   0.00000
  27        3PY         0.00000   0.00000   0.08246   0.00000   0.00000
  28        3PZ         0.00000   0.00000   0.00000   0.06470   0.00000
  29        4S         -0.02172   0.00000   0.00000   0.00000   0.21637
  30        4PX         0.00000   0.01614   0.00000   0.00000   0.00000
  31        4PY         0.00000   0.00000   0.01479   0.00000   0.00000
  32        4PZ         0.00000   0.00000   0.00000   0.02111   0.00000
  33 5   H  1S         -0.00029   0.00143   0.00552   0.00000   0.01505
  34        2S         -0.00299   0.00378   0.01358   0.00000   0.03898
  35        3S         -0.00006   0.00068   0.00201   0.00000   0.00259
  36 6   H  1S         -0.00028   0.00675   0.00002   0.00000   0.01474
  37        2S         -0.00295   0.01720   0.00001   0.00000   0.03870
  38        3S         -0.00007   0.00271  -0.00001   0.00000   0.00270
                          26        27        28        29        30
  26        3PX         0.19992
  27        3PY         0.00000   0.19728
  28        3PZ         0.00000   0.00000   0.16450
  29        4S          0.00000   0.00000   0.00000   0.18797
  30        4PX         0.07493   0.00000   0.00000   0.00000   0.06689
  31        4PY         0.00000   0.06643   0.00000   0.00000   0.00000
  32        4PZ         0.00000   0.00000   0.10018   0.00000   0.00000
  33 5   H  1S          0.00876   0.03309   0.00001   0.01752   0.00574
  34        2S          0.01719   0.06004   0.00001   0.04446   0.01471
  35        3S          0.00384   0.01087   0.00000   0.00716   0.00540
  36 6   H  1S          0.04122   0.00008   0.00001   0.01748   0.02453
  37        2S          0.07699  -0.00001   0.00001   0.04482   0.05939
  38        3S          0.01487  -0.00009   0.00000   0.00758   0.01886
                          31        32        33        34        35
  31        4PY         0.05396
  32        4PZ         0.00000   0.14288
  33 5   H  1S          0.01872   0.00001   0.08028
  34        2S          0.04409   0.00000   0.07760   0.15277
  35        3S          0.01308  -0.00000   0.01428   0.04396   0.02316
  36 6   H  1S         -0.00005   0.00001  -0.00001  -0.00078  -0.00234
  37        2S         -0.00026   0.00000  -0.00078  -0.00660  -0.00966
  38        3S         -0.00021  -0.00000  -0.00236  -0.00968  -0.00843
                          36        37        38
  36 6   H  1S          0.07977
  37        2S          0.07745   0.15310
  38        3S          0.01432   0.04421   0.02331
     Gross orbital populations:
                           1
   1 1   C  1S          1.10435
   2        2S          0.88586
   3        2PX         0.22725
   4        2PY         0.23620
   5        2PZ         0.16636
   6        3S          0.79292
   7        3PX         0.56156
   8        3PY         0.55577
   9        3PZ         0.42361
  10        4S          0.50340
  11        4PX         0.25895
  12        4PY         0.21095
  13        4PZ         0.41221
  14 2   H  1S          0.27410
  15        2S          0.46671
  16        3S          0.08563
  17 3   H  1S          0.27760
  18        2S          0.46459
  19        3S          0.08252
  20 4   C  1S          1.10442
  21        2S          0.88584
  22        2PX         0.22149
  23        2PY         0.23529
  24        2PZ         0.16568
  25        3S          0.79211
  26        3PX         0.55131
  27        3PY         0.55574
  28        3PZ         0.41982
  29        4S          0.50912
  30        4PX         0.27577
  31        4PY         0.21746
  32        4PZ         0.41219
  33 5   H  1S          0.27082
  34        2S          0.47052
  35        3S          0.09013
  36 6   H  1S          0.26923
  37        2S          0.47123
  38        3S          0.09127
          Condensed to atoms (all electrons):
               1          2          3          4          5          6
     1  C    5.032169   0.387587   0.388423   0.601776  -0.035521  -0.035041
     2  H    0.387587   0.516087  -0.032973  -0.040575   0.005960  -0.009652
     3  H    0.388423  -0.032973   0.512937  -0.040065  -0.009483   0.005871
     4  C    0.601776  -0.040575  -0.040065   5.058808   0.383258   0.383055
     5  H   -0.035521   0.005960  -0.009483   0.383258   0.527898  -0.040638
     6  H   -0.035041  -0.009652   0.005871   0.383055  -0.040638   0.528134
 Mulliken charges:
               1
     1  C   -0.339394
     2  H    0.173565
     3  H    0.175290
     4  C   -0.346257
     5  H    0.168526
     6  H    0.168271
 Sum of Mulliken charges =   0.00000
 Mulliken charges with hydrogens summed into heavy atoms:
               1
     1  C    0.009460
     4  C   -0.009460
 Electronic spatial extent (au):  <R**2>=             83.8032
 Charge=              0.0000 electrons
 Dipole moment (field-independent basis, Debye):
    X=              0.0030    Y=              0.0175    Z=             -0.0726  Tot=              0.0747
 Quadrupole moment (field-independent basis, Debye-Ang):
   XX=            -12.2049   YY=            -12.2189   ZZ=            -15.6793
   XY=              0.0162   XZ=             -0.0004   YZ=             -0.0030
 Traceless Quadrupole moment (field-independent basis, Debye-Ang):
   XX=              1.1628   YY=              1.1488   ZZ=             -2.3116
   XY=              0.0162   XZ=             -0.0004   YZ=             -0.0030
 Octapole moment (field-independent basis, Debye-Ang**2):
  XXX=             -0.3640  YYY=             -0.0743  ZZZ=             -0.0759  XYY=              0.1863
  XXY=             -0.0484  XXZ=             -0.1056  XZZ=             -0.0994  YZZ=             -0.1041
  YYZ=             -0.1370  XYZ=             -0.0268
 Hexadecapole moment (field-independent basis, Debye-Ang**3):
 XXXX=            -34.3150 YYYY=            -55.2870 ZZZZ=            -17.8155 XXXY=             -7.2312
 XXXZ=              0.0119 YYYX=            -10.7121 YYYZ=              0.0157 ZZZX=              0.0163
 ZZZY=              0.0312 XXYY=            -16.2201 XXZZ=             -9.9395 YYZZ=            -13.6732
 XXYZ=              0.0065 YYXZ=              0.0006 ZZXY=             -3.2044
 N-N= 3.304752875195D+01 E-N=-2.477990594404D+02  KE= 7.814395617308D+01
 Orbital energies and kinetic energies (alpha):
                                 1                 2
   1         O               -10.291121         15.979064
   2         O               -10.287983         15.979525
   3         O                -0.863739          1.539236
   4         O                -0.671722          1.269976
   5         O                -0.559096          0.941333
   6         O                -0.509353          1.282954
   7         O                -0.435987          1.041204
   8         O                -0.356973          1.038685
   9         V                 0.079952          1.181960
  10         V                 0.140744          0.590697
  11         V                 0.164301          0.597178
  12         V                 0.169758          0.681467
  13         V                 0.240608          0.584329
  14         V                 0.373414          0.850682
  15         V                 0.392716          0.932897
  16         V                 0.399173          0.782200
  17         V                 0.463103          1.195908
  18         V                 0.487790          1.417745
  19         V                 0.493672          1.301379
  20         V                 0.590969          1.652662
  21         V                 0.665156          1.571733
  22         V                 0.690304          2.145975
  23         V                 0.771821          2.431257
  24         V                 0.775790          2.308538
  25         V                 0.843799          1.086916
  26         V                 0.952268          3.426146
  27         V                 2.231698          3.924002
  28         V                 2.289964          4.027934
  29         V                 2.332617          4.303242
  30         V                 2.406901          4.516760
  31         V                 2.671002          6.300976
  32         V                 2.817906          6.306990
  33         V                 2.877765          6.136356
  34         V                 2.951749          6.226535
  35         V                 3.140433          6.821298
  36         V                 3.318412          6.401661
  37         V                23.351324         60.074205
  38         V                23.705760         60.203949
 Total kinetic energy from orbitals= 7.814395617308D+01
 Calling FoFJK, ICntrl=      2127 FMM=F ISym2X=0 I1Cent= 0 IOpClX= 0 NMat=1 NMatS=1 NMatT=0.
 -------------------------------------------------------------------
 Center     Atomic                   Forces (Hartrees/Bohr)
 Number     Number              X              Y              Z
 -------------------------------------------------------------------
      1        6           0.013448079    0.009063083   -0.002885389
      2        1          -0.009327073    0.005256912    0.001456907
      3        1           0.002198605   -0.004763867    0.001333922
      4        6           0.009465317    0.012937182   -0.003284794
      5        1           0.003109147   -0.016544286    0.001671915
      6        1          -0.018894075   -0.005949024    0.001707439
 -------------------------------------------------------------------
 Cartesian Forces:  Max     0.018894075 RMS     0.008713323

 GradGradGradGradGradGradGradGradGradGradGradGradGradGradGradGradGradGrad
 Berny optimization.
 Search for a local minimum.
 Step number   1 out of a maximum of    2
 All quantities printed in internal units (Hartrees-Bohrs-Radians)
 Second derivative matrix not updated -- first step.
 The second derivative matrix:
                          X1        Y1        Z1        X2        Y2
           X1           0.76136
           Y1           0.09720   0.85951
           Z1           0.00423   0.00650   0.17123
           X2          -0.16548   0.09701   0.00154   0.14283
           Y2           0.10297  -0.28363  -0.00547  -0.11628   0.27234
           Z2           0.00244  -0.00688  -0.05489  -0.00222   0.00566
           X3          -0.35357  -0.00099  -0.00598  -0.00016  -0.00009
           Y3          -0.00686  -0.11052  -0.00145   0.03244   0.01904
           Z3          -0.00765  -0.00140  -0.05617   0.00112   0.00042
           X4          -0.26740  -0.17874  -0.00055   0.02281   0.01339
           Y4          -0.17896  -0.47365  -0.00090  -0.01317  -0.00774
           Z4           0.00097   0.00175  -0.09454  -0.00044  -0.00061
           X5           0.02341  -0.01352   0.00046  -0.00000   0.00000
           Y5           0.01159  -0.00670   0.00063   0.00000  -0.00000
           Z5          -0.00038   0.00024   0.01748   0.00019  -0.00010
           X6           0.00167  -0.00097   0.00029  -0.00000   0.00000
           Y6          -0.02595   0.01499   0.00070   0.00000  -0.00000
           Z6           0.00039  -0.00021   0.01689  -0.00018   0.00010
                          Z2        X3        Y3        Z3        X4
           Z2           0.02851
           X3          -0.00022   0.35362
           Y3           0.00120   0.00114   0.07605
           Z3           0.01058   0.00652   0.00097   0.02938
           X4           0.00038   0.00012  -0.02672  -0.00037   0.70725
           Y4          -0.00020  -0.00007   0.01544   0.00023   0.12419
           Z4           0.01577  -0.00032  -0.00072   0.01625  -0.00383
           X5          -0.00019  -0.00000   0.00000   0.00019  -0.14389
           Y5           0.00012   0.00000  -0.00000  -0.00012   0.09011
           Z5           0.00924   0.00019  -0.00012  -0.00940  -0.00227
           X6          -0.00019  -0.00000   0.00000   0.00019  -0.31889
           Y6           0.00010   0.00000  -0.00000  -0.00010  -0.02223
           Z6          -0.00920  -0.00019   0.00012   0.00936   0.00664
                          Y4        Z4        X5        Y5        Z5
           Y4           0.85502
           Z4          -0.00727   0.17580
           X5           0.08186  -0.00149   0.12258
           Y5          -0.28506   0.00542  -0.10068   0.27575
           Z5           0.00673  -0.05690   0.00201  -0.00579   0.02941
           X6          -0.01385   0.00511  -0.00209  -0.00103   0.00026
           Y6          -0.10401   0.00142   0.03233   0.01600  -0.00096
           Z6           0.00140  -0.05638  -0.00099  -0.00026   0.01016
                          X6        Y6        Z6
           X6           0.31932
           Y6           0.01584   0.07302
           Z6          -0.00567  -0.00115   0.02916
 ITU=  0
     Eigenvalues ---    0.03723   0.04369   0.09314   0.09935   0.13488
     Eigenvalues ---    0.17385   0.26444   0.28873   0.52626   0.69522
     Eigenvalues ---    0.97252   1.56225
 Angle between quadratic step and forces=  32.25 degrees.
 Linear search not attempted -- first point.
 B after Tr=     0.006814    0.008218   -0.007443
         Rot=    1.000000   -0.000025    0.000014   -0.000112 Ang=  -0.01 deg.
 Variable       Old X    -DE/DX   Delta X   Delta X   Delta X     New X
                                 (Linear)    (Quad)   (Total)
    X1       -0.63503   0.01345   0.00000   0.02101   0.02807  -0.60696
    Y1       -1.09907   0.00906   0.00000   0.02447   0.03255  -1.06653
    Z1        0.01048  -0.00289   0.00000  -0.01572  -0.02323  -0.01275
    X2        0.41451  -0.00933   0.00000  -0.03636  -0.02890   0.38561
    Y2       -2.88510   0.00526   0.00000   0.02157   0.02988  -2.85523
    Z2       -0.02938   0.00146   0.00000   0.01938   0.01181  -0.01757
    X3       -2.68530   0.00220   0.00000   0.02672   0.03379  -2.65151
    Y3       -1.10762  -0.00476   0.00000  -0.01589  -0.00826  -1.11588
    Z3       -0.03074   0.00133   0.00000   0.01886   0.01129  -0.01945
    X4        0.62952   0.00947   0.00000   0.00717   0.01374   0.64326
    Y4        1.09005   0.01294   0.00000   0.00957   0.01793   1.10798
    Z4        0.00817  -0.00328   0.00000  -0.01508  -0.02246  -0.01429
    X5       -0.30201   0.00311   0.00000  -0.00985  -0.00369  -0.30570
    Y5        2.96938  -0.01654   0.00000  -0.05372  -0.04557   2.92381
    Z5       -0.03488   0.00167   0.00000   0.01888   0.01157  -0.02330
    X6        2.73241  -0.01889   0.00000  -0.04955  -0.04300   2.68941
    Y6        1.22486  -0.00595   0.00000  -0.03534  -0.02652   1.19834
    Z6       -0.03327   0.00171   0.00000   0.01832   0.01101  -0.02226
         Item               Value     Threshold  Converged?
 Maximum Force            0.018894     0.000450     NO 
 RMS     Force            0.008713     0.000300     NO 
 Maximum Displacement     0.045570     0.001800     NO 
 RMS     Displacement     0.025280     0.001200     NO 
 Predicted change in Energy=-1.749322D-03
 GradGradGradGradGradGradGradGradGradGradGradGradGradGradGradGradGradGrad

 Unable to Open any file for archive entry.
 1\1\GINC-BHD0006\Force\RwB97XD\6-311G\C2H4\BWEIGHT\11-Jan-2023\0\\# WB
 97XD/6-311G SCF=XQC FORCE nosym pop=full guess=read\\MD Step 999\\0,1\
 C,-0.33604202,-0.5816046,0.0055451\H,0.21935055,-1.52673052,-0.0155454
 7\H,-1.42099704,-0.58612764,-0.01626874\C,0.33312611,0.57682748,0.0043
 227\H,-0.15981748,1.57132746,-0.01845683\H,1.4459285,0.64816881,-0.017
 60456\\Version=ES64L-G16RevC.01\HF=-78.5555357\RMSD=6.825e-09\RMSF=8.7
 13e-03\Dipole=0.0011712,0.0069042,-0.0285513\Quadrupole=0.8645106,0.85
 41099,-1.7186206,0.0120287,-0.0003003,-0.0022676\PG=C01 [X(C2H4)]\\@
 The archive entry for this job was punched.


 IN THE LONG RUN, DIGGING FOR TRUTH HAS ALWAYS PROVED NOT ONLY 
 MORE INTERESTING BUT MORE PROFITABLE THAN DIGGING FOR GOLD.

                             -- GEORGE R. HARRISON
 Job cpu time:       0 days  0 hours  0 minutes 52.5 seconds.
 Elapsed time:       0 days  0 hours  0 minutes 19.0 seconds.
 File lengths (MBytes):  RWF=    272 Int=      0 D2E=      0 Chk=     32 Scr=     32
 Normal termination of Gaussian 16 at Wed Jan 11 18:38:41 2023.
