6
MD Step 0
C  -0.33763715 -0.58748864 0.00000000
H  0.19552659 -1.51519357 0.00000000
H  -1.40763715 -0.58748864 0.00000000
C  0.33763715 0.58748865 0.00000000
H  -0.19552659 1.51519357 0.00000000
H  1.40763715 0.58748865 0.00000000
6
MD Step 1
C  -0.33800608 -0.58783637 -0.00039487
H  0.19789098 -1.51298617 0.00235207
H  -1.40541703 -0.58520482 0.00235356
C  0.33721647 0.58704640 -0.00039501
H  -0.19318869 1.51769533 0.00235254
H  1.41012372 0.58990887 0.00235402
6
MD Step 2
C  -0.33832377 -0.58809241 -0.00079469
H  0.20030815 -1.51105785 0.00473366
H  -1.40348751 -0.58304044 0.00473672
C  0.33674335 0.58650741 -0.00079495
H  -0.19083743 1.52049414 0.00473448
H  1.41284918 0.59249113 0.00473736
6
MD Step 3
C  -0.33858224 -0.58825150 -0.00119502
H  0.20275030 -1.50944575 0.00711811
H  -1.40192043 -0.58102914 0.00712309
C  0.33622735 0.58588017 -0.00119527
H  -0.18849194 1.52353288 0.00711880
H  1.41572298 0.59519883 0.00712269
6
MD Step 4
C  -0.33877674 -0.58831197 -0.00159388
H  0.20520133 -1.50816496 0.00949367
H  -1.40076346 -0.57918869 0.00950136
C  0.33567586 0.58517170 -0.00159388
H  -0.18615428 1.52676388 0.00949316
H  1.41866654 0.59800934 0.00949728
6
MD Step 5
C  -0.33890076 -0.58827063 -0.00198672
H  0.20762620 -1.50723905 0.01183291
H  -1.40006922 -0.57755160 0.01184471
C  0.33509906 0.58439249 -0.00198603
H  -0.18384056 1.53011925 0.01182935
H  1.42158470 0.60088344 0.01183236
6
MD Step 6
C  -0.33895814 -0.58813475 -0.00237830
H  0.21004250 -1.50662869 0.01416409
H  -1.39982232 -0.57609357 0.01418211
C  0.33449781 0.58354445 -0.00237627
H  -0.18151003 1.53358348 0.01415469
H  1.42443928 0.60383694 0.01415468
6
MD Step 7
C  -0.33894756 -0.58790646 -0.00276722
H  0.21242820 -1.50632478 0.01647863
H  -1.40003205 -0.57482612 0.01650575
C  0.33387913 0.58263633 -0.00276297
H  -0.17915810 1.53710175 0.01645952
H  1.42715750 0.60684815 0.01645396
6
MD Step 8
C  -0.33886828 -0.58758841 -0.00315161
H  0.21475618 -1.50631489 0.01876524
H  -1.40069797 -0.57376246 0.01880514
C  0.33325038 0.58167789 -0.00314402
H  -0.17678272 1.54061513 0.01873143
H  1.42966756 0.60989214 0.01871712
6
MD Step 9
C  -0.33871626 -0.58717976 -0.00352519
H  0.21697116 -1.50660733 0.02098640
H  -1.40183348 -0.57294084 0.02104360
C  0.33262313 0.58068368 -0.00351295
H  -0.17440836 1.54403829 0.02093176
H  1.43187656 0.61291744 0.02090485
6
MD Step 10
C  -0.33849534 -0.58668734 -0.00388848
H  0.21905697 -1.50716499 0.02314514
H  -1.40339895 -0.57235775 0.02322481
C  0.33200181 0.57966168 -0.00387006
H  -0.17201981 1.54732760 0.02306242
H  1.43373892 0.61591309 0.02301855
6
MD Step 11
C  -0.33821224 -0.58612049 -0.00424379
H  0.22100728 -1.50793612 0.02525523
H  -1.40533279 -0.57199771 0.02536292
C  0.33138872 0.57861822 -0.00421749
H  -0.16959243 1.55045220 0.02513611
H  1.43522724 0.61887892 0.02507057
6
MD Step 12
C  -0.33787031 -0.58548496 -0.00458916
H  0.22279016 -1.50889143 0.02730510
H  -1.40758936 -0.57186930 0.02744667
C  0.33079002 0.57756391 -0.00455317
H  -0.16712846 1.55335875 0.02714032
H  1.43629651 0.62178955 0.02704812
6
MD Step 13
C  -0.33747321 -0.58478647 -0.00492207
H  0.22437086 -1.51000281 0.02928004
H  -1.41011829 -0.57198291 0.02946154
C  0.33021203 0.57650976 -0.00487455
H  -0.16463522 1.55599444 0.02905965
H  1.43690700 0.62461680 0.02893554
6
MD Step 14
C  -0.33703462 -0.58404050 -0.00524941
H  0.22577118 -1.51118543 0.03122122
H  -1.41280729 -0.57229199 0.03144800
C  0.32965123 0.57545728 -0.00518839
H  -0.16206664 1.55836664 0.03093439
H  1.43708349 0.62738868 0.03077361
6
MD Step 15
C  -0.33655909 -0.58325312 -0.00556833
H  0.22695667 -1.51241226 0.03311206
H  -1.41559835 -0.57280631 0.03338917
C  0.32911338 0.57441737 -0.00549192
H  -0.15943656 1.56042976 0.03274756
H  1.43680148 0.63007592 0.03254545
6
MD Step 16
C  -0.33605660 -0.58243567 -0.00588114
H  0.22792527 -1.51362673 0.03496667
H  -1.41840127 -0.57350396 0.03529817
C  0.32859870 0.57339543 -0.00578743
H  -0.15673098 1.56217402 0.03451280
H  1.43607555 0.63268035 0.03426537
6
MD Step 17
C  -0.33552508 -0.58158717 -0.00617764
H  0.22860373 -1.51484757 0.03672548
H  -1.42119973 -0.57443516 0.03711556
C  0.32811930 0.57240878 -0.00606517
H  -0.15401176 1.56352177 0.03617090
H  1.43485526 0.63513087 0.03587368
6
MD Step 18
C  -0.33497784 -0.58072194 -0.00646318
H  0.22901261 -1.51600462 0.03842053
H  -1.42388734 -0.57555791 0.03887162
C  0.32767145 0.57145888 -0.00633045
H  -0.15125268 1.56449282 0.03775362
H  1.43319049 0.63744852 0.03740351
6
MD Step 19
C  -0.33441445 -0.57984033 -0.00672908
H  0.22909329 -1.51711281 0.04000152
H  -1.42644298 -0.57691092 0.04051599
C  0.32726475 0.57056034 -0.00657518
H  -0.14851199 1.56503126 0.03921145
H  1.43105773 0.63957307 0.03880505
6
MD Step 20
C  -0.33384834 -0.57895652 -0.00698099
H  0.22887389 -1.51810697 0.04150217
H  -1.42876593 -0.57844845 0.04208014
C  0.32689415 0.56971308 -0.00680502
H  -0.14576755 1.56517145 0.04057819
H  1.42852589 0.64152902 0.04011393
6
MD Step 21
C  -0.33327846 -0.57806997 -0.00720988
H  0.22830046 -1.51901132 0.04287048
H  -1.43084647 -0.58020887 0.04351214
C  0.32656851 0.56893057 -0.00701171
H  -0.14308488 1.56486904 0.04180316
H  1.42558684 0.64325647 0.04127914
6
MD Step 22
C  -0.33271676 -0.57719317 -0.00742049
H  0.22740229 -1.51977448 0.04413480
H  -1.43260112 -0.58215005 0.04483804
C  0.32628265 0.56821212 -0.00720012
H  -0.14045269 1.56416630 0.04291525
H  1.42232055 0.64477668 0.04233152
6
MD Step 23
C  -0.33217344 -0.57633678 -0.00761620
H  0.22620421 -1.52035782 0.04531552
H  -1.43396177 -0.58423707 0.04607605
C  0.32603225 0.56755758 -0.00737382
H  -0.13787014 1.56310400 0.04393566
H  1.41880631 0.64610409 0.04329423
6
MD Step 24
C  -0.33165480 -0.57550744 -0.00779694
H  0.22471430 -1.52074800 0.04641279
H  -1.43488909 -0.58645460 0.04722472
C  0.32581596 0.56696935 -0.00753311
H  -0.13535878 1.56170881 0.04486572
H  1.41510933 0.64723399 0.04417008
6
MD Step 25
C  -0.33115966 -0.57470426 -0.00795549
H  0.22290296 -1.52097813 0.04738536
H  -1.43539403 -0.58882796 0.04824303
C  0.32563897 0.56645593 -0.00767171
H  -0.13298313 1.55997195 0.04566613
H  1.41125889 0.64812152 0.04491960
6
MD Step 26
C  -0.33070201 -0.57394157 -0.00810112
H  0.22083867 -1.52099188 0.04828735
H  -1.43540187 -0.59128778 0.04918157
C  0.32549014 0.56600915 -0.00779862
H  -0.13071536 1.55798477 0.04639170
H  1.40738335 0.64881782 0.04560107
6
MD Step 27
C  -0.33028145 -0.57321919 -0.00822887
H  0.21851132 -1.52082027 0.04909050
H  -1.43492982 -0.59384623 0.05001199
C  0.32537186 0.56563378 -0.00790965
H  -0.12861049 1.55576140 0.04701610
H  1.40353176 0.64929301 0.04618848
6
MD Step 28
C  -0.32989663 -0.57253594 -0.00833354
H  0.21591250 -1.52050099 0.04976518
H  -1.43400637 -0.59651686 0.05070490
C  0.32528659 0.56533408 -0.00800043
H  -0.12672592 1.55331868 0.04751172
H  1.39975316 0.64951681 0.04665427
6
MD Step 29
C  -0.32954922 -0.57189371 -0.00841384
H  0.21305929 -1.52005412 0.05030448
H  -1.43264689 -0.59929080 0.05125296
C  0.32523279 0.56510980 -0.00807025
H  -0.12509725 1.55069953 0.04787343
H  1.39611944 0.64948262 0.04699404
6
MD Step 30
C  -0.32924540 -0.57129895 -0.00847411
H  0.21000316 -1.51947272 0.05073342
H  -1.43084436 -0.60212773 0.05167946
C  0.32520354 0.56495477 -0.00812342
H  -0.12372871 1.54798133 0.04812758
H  1.39273286 0.64921660 0.04723611
6
MD Step 31
C  -0.32898919 -0.57075597 -0.00851722
H  0.20678953 -1.51876276 0.05106859
H  -1.42860975 -0.60499606 0.05199971
C  0.32519339 0.56486366 -0.00816287
H  -0.12263246 1.54523449 0.04829217
H  1.38968362 0.64873737 0.04739998
6
MD Step 32
C  -0.32877604 -0.57026052 -0.00853788
H  0.20341948 -1.51798079 0.05127981
H  -1.42600995 -0.60791101 0.05218490
C  0.32520493 0.56483849 -0.00818414
H  -0.12186576 1.54248319 0.04833893
H  1.38700966 0.64801765 0.04745643
6
MD Step 33
C  -0.32861078 -0.56981793 -0.00854157
H  0.19995671 -1.51712587 0.05139824
H  -1.42305959 -0.61082753 0.05226487
C  0.32523079 0.56487078 -0.00819239
H  -0.12142354 1.53981179 0.04830013
H  1.38480250 0.64709198 0.04743917
6
MD Step 34
C  -0.32849434 -0.56942973 -0.00853054
H  0.19644759 -1.51621876 0.05143624
H  -1.41980053 -0.61371986 0.05225172
C  0.32526714 0.56495494 -0.00818974
H  -0.12131694 1.53728364 0.04818924
H  1.38312533 0.64597669 0.04736211
6
MD Step 35
C  -0.32841835 -0.56908831 -0.00849797
H  0.19288831 -1.51533364 0.05135493
H  -1.41633367 -0.61661399 0.05210907
C  0.32531928 0.56509392 -0.00817018
H  -0.12160485 1.53490740 0.04796869
H  1.38197884 0.64463745 0.04718546
6
MD Step 36
C  -0.32837764 -0.56878947 -0.00844117
H  0.18929882 -1.51452261 0.05113894
H  -1.41274289 -0.61951329 0.05182331
C  0.32538908 0.56528675 -0.00813139
H  -0.12231924 1.53271054 0.04762388
H  1.38137513 0.64306391 0.04689303
6
MD Step 37
C  -0.32837497 -0.56853720 -0.00836655
H  0.18574957 -1.51378732 0.05082377
H  -1.40906621 -0.62237111 0.05142957
C  0.32547042 0.56552408 -0.00807895
H  -0.12343728 1.53076576 0.04719068
H  1.38136455 0.64129719 0.04652103
6
MD Step 38
C  -0.32840496 -0.56832759 -0.00827250
H  0.18226528 -1.51317408 0.05039975
H  -1.40539082 -0.62518659 0.05092011
C  0.32556535 0.56580435 -0.00801125
H  -0.12497625 1.52909382 0.04665963
H  1.38193868 0.63933385 0.04605819
6
MD Step 39
C  -0.32846490 -0.56815962 -0.00816070
H  0.17888789 -1.51270924 0.04987572
H  -1.40178772 -0.62794115 0.05030514
C  0.32567333 0.56612325 -0.00792959
H  -0.12692974 1.52772633 0.04603951
H  1.38309393 0.63718959 0.04551199
6
MD Step 40
C  -0.32855193 -0.56803239 -0.00803310
H  0.17565875 -1.51241553 0.04926175
H  -1.39832743 -0.63061566 0.04959620
C  0.32579418 0.56647662 -0.00783535
H  -0.12928446 1.52668777 0.04534009
H  1.38481450 0.63488205 0.04489085
6
MD Step 41
C  -0.32865953 -0.56794155 -0.00788801
H  0.17259656 -1.51233282 0.04854759
H  -1.39509981 -0.63321214 0.04878539
C  0.32593157 0.56686421 -0.00772669
H  -0.13204172 1.52597337 0.04455045
H  1.38705139 0.63240921 0.04418169
6
MD Step 42
C  -0.32878119 -0.56788297 -0.00772386
H  0.16971787 -1.51249599 0.04772375
H  -1.39219074 -0.63573246 0.04786561
C  0.32608937 0.56728608 -0.00760185
H  -0.13519621 1.52557026 0.04366022
H  1.38974495 0.62977070 0.04337202
6
MD Step 43
C  -0.32891548 -0.56785767 -0.00754441
H  0.16706543 -1.51290518 0.04681023
H  -1.38965096 -0.63814929 0.04685814
C  0.32626672 0.56773775 -0.00746370
H  -0.13870730 1.52548668 0.04268867
H  1.39285560 0.62699669 0.04248010
6
MD Step 44
C  -0.32905182 -0.56785765 -0.00734348
H  0.16462315 -1.51361023 0.04577209
H  -1.38757923 -0.64049120 0.04573095
C  0.32647212 0.56822448 -0.00730646
H  -0.14258427 1.52566720 0.04159925
H  1.39628018 0.62406315 0.04146687
6
MD Step 45
C  -0.32919385 -0.56788900 -0.00712960
H  0.16245254 -1.51457253 0.04465577
H  -1.38598253 -0.64270474 0.04453090
C  0.32670033 0.56873802 -0.00713718
H  -0.14674921 1.52613124 0.04043817
H  1.39999209 0.62102901 0.04037849
6
MD Step 46
C  -0.32932962 -0.56794225 -0.00689426
H  0.16051639 -1.51584192 0.04341377
H  -1.38495194 -0.64483189 0.04321306
C  0.32696181 0.56928647 -0.00694810
H  -0.15121476 1.52679652 0.03915589
H  1.40386518 0.61785959 0.03916323
6
MD Step 47
C  -0.32946404 -0.56802442 -0.00664612
H  0.15886856 -1.51736546 0.04209357
H  -1.38446967 -0.64681840 0.04182502
C  0.32725079 0.56986190 -0.00674655
H  -0.15589348 1.52767146 0.03779996
H  1.40786779 0.61461696 0.03786887
6
MD Step 48
C  -0.32959572 -0.56813601 -0.00638647
H  0.15751755 -1.51912484 0.04070202
H  -1.38454599 -0.64865146 0.04037434
C  0.32756804 0.57046349 -0.00653345
H  -0.16073599 1.52871885 0.03637658
H  1.41192633 0.61132309 0.03650118
6
MD Step 49
C  -0.32972444 -0.56827835 -0.00611714
H  0.15647057 -1.52109263 0.03924902
H  -1.38517483 -0.65031535 0.03887129
C  0.32791349 0.57108996 -0.00631024
H  -0.16568740 1.52990115 0.03489528
H  1.41597109 0.60800369 0.03506952
6
MD Step 50
C  -0.32984739 -0.56844989 -0.00583650
H  0.15571141 -1.52325523 0.03772546
H  -1.38635620 -0.65181406 0.03730703
C  0.32828984 0.57174329 -0.00607539
H  -0.17071069 1.53115926 0.03334621
H  1.41991525 0.60466581 0.03356383
6
MD Step 51
C  -0.32996101 -0.56864790 -0.00554141
H  0.15521174 -1.52560232 0.03611418
H  -1.38808534 -0.65316017 0.03566449
C  0.32870073 0.57242675 -0.00582614
H  -0.17577640 1.53242497 0.03171133
H  1.42366757 0.60130868 0.03196598
6
MD Step 52
C  -0.33006991 -0.56887719 -0.00523653
H  0.15498316 -1.52807542 0.03444126
H  -1.39030112 -0.65432252 0.03396903
C  0.32914199 0.57313600 -0.00556663
H  -0.18081116 1.53367441 0.03001733
H  1.42718621 0.59797549 0.03030323
6
MD Step 53
C  -0.33017338 -0.56913692 -0.00492041
H  0.15499982 -1.53064719 0.03269893
H  -1.39296591 -0.65530503 0.03221227
C  0.32961467 0.57387225 -0.00529569
H  -0.18577709 1.53485063 0.02825618
H  1.43040082 0.59467523 0.02856792
6
MD Step 54
C  -0.33027287 -0.56942787 -0.00459328
H  0.15524282 -1.53327809 0.03088911
H  -1.39602282 -0.65610247 0.03039528
C  0.33011764 0.57463474 -0.00501369
H  -0.19062809 1.53590887 0.02642994
H  1.43325783 0.59142650 0.02676264
6
MD Step 55
C  -0.33037224 -0.56975274 -0.00425751
H  0.15570258 -1.53591538 0.02902537
H  -1.39939546 -0.65669853 0.02853055
C  0.33064735 0.57542034 -0.00472292
H  -0.19530852 1.53681941 0.02455279
H  1.43572312 0.58825932 0.02490227
6
MD Step 56
C  -0.33047432 -0.57011282 -0.00391412
H  0.15636047 -1.53851321 0.02711414
H  -1.40300913 -0.65708523 0.02662348
C  0.33120094 0.57622671 -0.00442453
H  -0.19977296 1.53754919 0.02263162
H  1.43776318 0.58519595 0.02299435
6
MD Step 57
C  -0.33058436 -0.57051134 -0.00356657
H  0.15720971 -1.54101301 0.02517496
H  -1.40677231 -0.65724236 0.02469246
C  0.33177288 0.57704886 -0.00412177
H  -0.20396598 1.53808296 0.02068696
H  1.43936609 0.58227117 0.02106017
6
MD Step 58
C  -0.33069789 -0.57094172 -0.00320817
H  0.15818610 -1.54341469 0.02317143
H  -1.41064893 -0.65720831 0.02270028
C  0.33236666 0.57789096 -0.00380894
H  -0.20789328 1.53835340 0.01868150
H  1.44047103 0.57946226 0.01906283
6
MD Step 59
C  -0.33081757 -0.57140397 -0.00283969
H  0.15926685 -1.54567816 0.02110861
H  -1.41456054 -0.65698046 0.02065108
C  0.33297832 0.57874955 -0.00348699
H  -0.21152245 1.53834100 0.01662071
H  1.44106849 0.57678747 0.01700841
6
MD Step 60
C  -0.33095042 -0.57190216 -0.00246670
H  0.16045581 -1.54773933 0.01901793
H  -1.41840334 -0.65653064 0.01857534
C  0.33359906 0.57961617 -0.00316108
H  -0.21479872 1.53805896 0.01453727
H  1.44118495 0.57429065 0.01493025
6
MD Step 61
C  -0.33109457 -0.57243137 -0.00208576
H  0.16170677 -1.54958855 0.01688086
H  -1.42212757 -0.65588327 0.01645392
C  0.33422811 0.58049046 -0.00282836
H  -0.21772316 1.53747562 0.01241223
H  1.44080457 0.57196388 0.01280977
6
MD Step 62
C  -0.33125384 -0.57299208 -0.00169970
H  0.16300956 -1.55118476 0.01471378
H  -1.42565247 -0.65502870 0.01430259
C  0.33485849 0.58136560 -0.00249156
H  -0.22026620 1.53660101 0.01026248
H  1.43995593 0.56983326 0.01066431
6
MD Step 63
C  -0.33143186 -0.57358440 -0.00131158
H  0.16435631 -1.55249026 0.01253420
H  -1.42890172 -0.65395761 0.01213841
C  0.33548273 0.58223415 -0.00215357
H  -0.22240218 1.53545260 0.00810604
H  1.43867727 0.56792464 0.00851221
6
MD Step 64
C  -0.33162832 -0.57420448 -0.00092085
H  0.16572021 -1.55349286 0.01033947
H  -1.43182634 -0.65268285 0.00995846
C  0.33609652 0.58309169 -0.00181401
H  -0.22413121 1.53403345 0.00594000
H  1.43699418 0.56624201 0.00635072
6
MD Step 65
C  -0.33184187 -0.57484733 -0.00052635
H  0.16707273 -1.55418899 0.00812346
H  -1.43438819 -0.65122222 0.00775654
C  0.33669592 0.58393404 -0.00147189
H  -0.22546205 1.53234930 0.00375779
H  1.43493645 0.56478436 0.00417334
6
MD Step 66
C  -0.33207113 -0.57550790 -0.00012742
H  0.16839004 -1.55457753 0.00588282
H  -1.43655414 -0.64959207 0.00552933
C  0.33727638 0.58475619 -0.00112668
H  -0.22640577 1.53041473 0.00155554
H  1.43254392 0.56355199 0.00197610
6
MD Step 67
C  -0.33232129 -0.57618757 0.00026936
H  0.16969145 -1.55462139 0.00365489
H  -1.43825796 -0.64776850 0.00331417
C  0.33782639 0.58554585 -0.00078436
H  -0.22693705 1.52829151 -0.00062903
H  1.42990457 0.56258477 -0.00020331
6
MD Step 68
C  -0.33258474 -0.57687511 0.00067008
H  0.17092648 -1.55436136 0.00140548
H  -1.43951463 -0.64580156 0.00107719
C  0.33834649 0.58630273 -0.00043931
H  -0.22710813 1.52597428 -0.00283162
H  1.42703909 0.56184885 -0.00240093
6
MD Step 69
C  -0.33286285 -0.57756821 0.00107110
H  0.17210234 -1.55378779 -0.00084470
H  -1.44029210 -0.64368642 -0.00116065
C  0.33882800 0.58701694 -0.00009477
H  -0.22692004 1.52351854 -0.00503191
H  1.42402891 0.56136430 -0.00459675
6
MD Step 70
C  -0.33315361 -0.57826130 0.00147181
H  0.17321147 -1.55291339 -0.00309209
H  -1.44058437 -0.64143648 -0.00339539
C  0.33926527 0.58768140 0.00024883
H  -0.22639549 1.52096706 -0.00722721
H  1.42094166 0.56113250 -0.00678850
6
MD Step 71
C  -0.33345263 -0.57894657 0.00187359
H  0.17423727 -1.55176722 -0.00534452
H  -1.44040571 -0.63907739 -0.00563449
C  0.33965481 0.58829092 0.00059295
H  -0.22557260 1.51835508 -0.00942660
H  1.41783564 0.56114196 -0.00898577
6
MD Step 72
C  -0.33375383 -0.57961473 0.00227914
H  0.17515793 -1.55039049 -0.00761748
H  -1.43978656 -0.63664308 -0.00789304
C  0.33999474 0.58884162 0.00094037
H  -0.22450066 1.51571341 -0.01164715
H  1.41476239 0.56137221 -0.01120609
6
MD Step 73
C  -0.33406382 -0.58026921 0.00267789
H  0.17603080 -1.54875125 -0.00985013
H  -1.43868822 -0.63409038 -0.01010964
C  0.34027071 0.58931673 0.00128128
H  -0.22315442 1.51315259 -0.01382827
H  1.41185039 0.56187848 -0.01338957
6
MD Step 74
C  -0.33437879 -0.58090342 0.00306950
H  0.17685632 -1.54688090 -0.01204051
H  -1.43714005 -0.63143614 -0.01228189
C  0.34047887 0.58970976 0.00161562
H  -0.22157040 1.51072483 -0.01596943
H  1.40916538 0.56265554 -0.01553621
6
MD Step 75
C  -0.33469220 -0.58150838 0.00345603
H  0.17762325 -1.54482812 -0.01420052
H  -1.43519354 -0.62871135 -0.01442139
C  0.34061838 0.59001690 0.00194561
H  -0.21980038 1.50846847 -0.01808423
H  1.40675415 0.56368320 -0.01765999
6
MD Step 76
C  -0.33500236 -0.58208024 0.00383438
H  0.17835243 -1.54261414 -0.01631208
H  -1.43287747 -0.62591670 -0.01650966
C  0.34068413 0.59022972 0.00226849
H  -0.21786641 1.50645102 -0.02015580
H  1.40468735 0.56497045 -0.01974452
6
MD Step 77
C  -0.33530047 -0.58260855 0.00420829
H  0.17902620 -1.54030268 -0.01839717
H  -1.43026805 -0.62309320 -0.01856877
C  0.34067857 0.59034717 0.00258821
H  -0.21583060 1.50469718 -0.02220792
H  1.40298685 0.56648518 -0.02181349
6
MD Step 78
C  -0.33558721 -0.58309267 0.00457186
H  0.17968536 -1.53790156 -0.02042096
H  -1.42739019 -0.62022421 -0.02056347
C  0.34059549 0.59035927 0.00289912
H  -0.21369654 1.50328527 -0.02420669
H  1.40172250 0.56825156 -0.02383337
6
MD Step 79
C  -0.33585944 -0.58352864 0.00492289
H  0.18035014 -1.53544117 -0.02237023
H  -1.42429609 -0.61731454 -0.02248046
C  0.34043330 0.59026055 0.00319916
H  -0.21148745 1.50226669 -0.02613991
H  1.40093122 0.57027134 -0.02579195
6
MD Step 80
C  -0.33610986 -0.58390887 0.00526318
H  0.18101759 -1.53297602 -0.02425557
H  -1.42106666 -0.61439265 -0.02433083
C  0.34019537 0.59005058 0.00349024
H  -0.20924764 1.50166230 -0.02801933
H  1.40061358 0.57252157 -0.02770031
6
MD Step 81
C  -0.33633310 -0.58422822 0.00559260
H  0.18169674 -1.53054824 -0.02607597
H  -1.41777431 -0.61147471 -0.02611410
C  0.33988413 0.58972801 0.00377228
H  -0.20700598 1.50149701 -0.02984465
H  1.40076936 0.57499019 -0.02955745
6
MD Step 82
C  -0.33652511 -0.58448335 0.00590983
H  0.18240368 -1.52819117 -0.02782325
H  -1.41448603 -0.60856909 -0.02782265
C  0.33950169 0.58929152 0.00404387
H  -0.20477982 1.50179435 -0.03160800
H  1.40139311 0.57767162 -0.03135465
6
MD Step 83
C  -0.33668390 -0.58467344 0.00621176
H  0.18316517 -1.52592466 -0.02947802
H  -1.41125788 -0.60567216 -0.02943744
C  0.33904918 0.58873910 0.00430155
H  -0.20257043 1.50257966 -0.03328975
H  1.40247841 0.58057067 -0.03307176
6
MD Step 84
C  -0.33679558 -0.58478636 0.00650699
H  0.18393514 -1.52383773 -0.03109252
H  -1.40821691 -0.60285184 -0.03101340
C  0.33854054 0.58808226 0.00455428
H  -0.20044615 1.50379612 -0.03494231
H  1.40393496 0.58361932 -0.03475826
6
MD Step 85
C  -0.33685777 -0.58482173 0.00679345
H  0.18473137 -1.52194993 -0.03265386
H  -1.40542078 -0.60010960 -0.03253866
C  0.33797941 0.58732281 0.00479964
H  -0.19840470 1.50544251 -0.03655184
H  1.40572857 0.58681408 -0.03639916
6
MD Step 86
C  -0.33687495 -0.58478635 0.00706309
H  0.18560720 -1.52023878 -0.03411172
H  -1.40288407 -0.59740847 -0.03396249
C  0.33736368 0.58645754 0.00502848
H  -0.19640126 1.50754528 -0.03806636
H  1.40785434 0.59018803 -0.03794286
6
MD Step 87
C  -0.33683552 -0.58467130 0.00732373
H  0.18651501 -1.51877632 -0.03551448
H  -1.40071420 -0.59481015 -0.03533657
C  0.33670831 0.58550130 0.00524902
H  -0.19448551 1.51002194 -0.03953303
H  1.41020055 0.59367416 -0.03943322
6
MD Step 88
C  -0.33674143 -0.58448125 0.00757110
H  0.18748026 -1.51755349 -0.03683504
H  -1.39893396 -0.59229969 -0.03663425
C  0.33601590 0.58445742 0.00545610
H  -0.19262721 1.51285701 -0.04092259
H  1.41272640 0.59728013 -0.04084072
6
MD Step 89
C  -0.33659218 -0.58421858 0.00780404
H  0.18850644 -1.51657524 -0.03806565
H  -1.39757574 -0.58988100 -0.03784886
C  0.33529253 0.58333367 0.00564793
H  -0.19081205 1.51600766 -0.04222504
H  1.41536807 0.60099317 -0.04215445
6
MD Step 90
C  -0.33638646 -0.58388479 0.00802298
H  0.18958403 -1.51585140 -0.03920887
H  -1.39667144 -0.58756770 -0.03898431
C  0.33454618 0.58214059 0.00582451
H  -0.18903321 1.51941390 -0.04344045
H  1.41804956 0.60478913 -0.04337347
6
MD Step 91
C  -0.33612012 -0.58347848 0.00823191
H  0.19067800 -1.51540920 -0.04029011
H  -1.39626400 -0.58539572 -0.04006823
C  0.33378869 0.58089349 0.00599000
H  -0.18730466 1.52298759 -0.04459165
H  1.42067198 0.60862012 -0.04451863
6
MD Step 92
C  -0.33579187 -0.58300092 0.00843301
H  0.19176150 -1.51525942 -0.04132396
H  -1.39637268 -0.58338950 -0.04111686
C  0.33303005 0.57960658 0.00614666
H  -0.18562834 1.52664767 -0.04569049
H  1.42314946 0.61244833 -0.04560046
6
MD Step 93
C  -0.33540843 -0.58246114 0.00862212
H  0.19284622 -1.51536637 -0.04228389
H  -1.39696230 -0.58153169 -0.04210306
C  0.33227314 0.57828771 0.00628934
H  -0.18396473 1.53035217 -0.04670782
H  1.42544104 0.61627659 -0.04659070
6
MD Step 94
C  -0.33497816 -0.58186955 0.00879452
H  0.19394554 -1.51568573 -0.04313944
H  -1.39798161 -0.57980059 -0.04299512
C  0.33152001 0.57694450 0.00641218
H  -0.18227086 1.53406219 -0.04761088
H  1.42751430 0.62011115 -0.04745804
6
MD Step 95
C  -0.33450084 -0.58122768 0.00895410
H  0.19501448 -1.51622580 -0.04391699
H  -1.39942516 -0.57823047 -0.04382065
C  0.33078201 0.57559429 0.00651970
H  -0.18056110 1.53768272 -0.04842348
H  1.42928552 0.62390128 -0.04822515
6
MD Step 96
C  -0.33398463 -0.58054522 0.00909790
H  0.19605150 -1.51694635 -0.04459785
H  -1.40123240 -0.57681019 -0.04455966
C  0.33006260 0.57424696 0.00660829
H  -0.17880665 1.54116568 -0.04912509
H  1.43072254 0.62764116 -0.04887278
6
MD Step 97
C  -0.33343402 -0.57982790 0.00922691
H  0.19702799 -1.51783043 -0.04518966
H  -1.40336045 -0.57555402 -0.04521947
C  0.32936932 0.57291666 0.00667918
H  -0.17700674 1.54444007 -0.04972143
H  1.43177433 0.63129896 -0.04940686
6
MD Step 98
C  -0.33285599 -0.57908371 0.00934044
H  0.19792597 -1.51884770 -0.04568886
H  -1.40574829 -0.57446441 -0.04579530
C  0.32870740 0.57161539 0.00673163
H  -0.17515192 1.54745039 -0.05020760
H  1.43240898 0.63485440 -0.04982349
6
MD Step 99
C  -0.33225099 -0.57831380 0.00944406
H  0.19868534 -1.52000832 -0.04613441
H  -1.40837165 -0.57358486 -0.04632673
C  0.32808873 0.57036174 0.00677279
H  -0.17327722 1.55010449 -0.05062061
H  1.43256124 0.63824571 -0.05015875
6
MD Step 100
C  -0.33163244 -0.57753229 0.00953201
H  0.19932218 -1.52124562 -0.04648891
H  -1.41112631 -0.57288257 -0.04677328
C  0.32751184 0.56916104 0.00679586
H  -0.17134540 1.55239229 -0.05092318
H  1.43225081 0.64148795 -0.05037807
6
MD Step 101
C  -0.33100695 -0.57674622 0.00960480
H  0.19981128 -1.52253484 -0.04675762
H  -1.41394838 -0.57236572 -0.04713898
C  0.32698183 0.56802493 0.00680198
H  -0.16936409 1.55426856 -0.05112001
H  1.43146468 0.64455509 -0.05048698
6
MD Step 102
C  -0.33039065 -0.57597223 0.00965445
H  0.20018611 -1.52379453 -0.04688790
H  -1.41671672 -0.57198463 -0.04736750
C  0.32649352 0.56695469 0.00678166
H  -0.16728732 1.55575269 -0.05116003
H  1.43025624 0.64747976 -0.05043775
6
MD Step 103
C  -0.32979292 -0.57522008 0.00967897
H  0.20044235 -1.52498419 -0.04686717
H  -1.41935219 -0.57172810 -0.04744416
C  0.32604780 0.56595725 0.00673283
H  -0.16511148 1.55683227 -0.05103165
H  1.42864821 0.65025627 -0.05022046
6
MD Step 104
C  -0.32921719 -0.57449342 0.00968146
H  0.20054347 -1.52609976 -0.04671777
H  -1.42181411 -0.57161812 -0.04739066
C  0.32565083 0.56504425 0.00665987
H  -0.16287003 1.55746857 -0.05075735
H  1.42663763 0.65284591 -0.04985797
6
MD Step 105
C  -0.32866996 -0.57379895 0.00966198
H  0.20047609 -1.52711890 -0.04644121
H  -1.42404594 -0.57165515 -0.04720710
C  0.32530457 0.56422276 0.00656340
H  -0.16057896 1.55765181 -0.05033977
H  1.42425082 0.65523239 -0.04935407
6
MD Step 106
C  -0.32815717 -0.57314287 0.00962069
H  0.20022928 -1.52802243 -0.04603938
H  -1.42599720 -0.57183901 -0.04689409
C  0.32501040 0.56349873 0.00644413
H  -0.15825742 1.55738042 -0.04978223
H  1.42152235 0.65740096 -0.04871318
6
MD Step 107
C  -0.32768315 -0.57252966 0.00955881
H  0.19978823 -1.52880102 -0.04552110
H  -1.42763071 -0.57217519 -0.04645947
C  0.32477011 0.56287791 0.00630404
H  -0.15593398 1.55665469 -0.04909506
H  1.41848830 0.65933201 -0.04794655
6
MD Step 108
C  -0.32724693 -0.57195833 0.00948181
H  0.19911247 -1.52947722 -0.04492446
H  -1.42894492 -0.57269647 -0.04594135
C  0.32458968 0.56236951 0.00615051
H  -0.15366801 1.55545501 -0.04831674
H  1.41516427 0.66097936 -0.04709266
6
MD Step 109
C  -0.32685650 -0.57143710 0.00938655
H  0.19822302 -1.53001885 -0.04422842
H  -1.42988704 -0.57337694 -0.04531717
C  0.32446445 0.56197169 0.00598015
H  -0.15146376 1.55382844 -0.04742935
H  1.41163158 0.66235743 -0.04613516
6
MD Step 110
C  -0.32651614 -0.57097029 0.00927268
H  0.19712537 -1.53041591 -0.04343101
H  -1.43043063 -0.57420816 -0.04458419
C  0.32439224 0.56168432 0.00579308
H  -0.14934595 1.55181173 -0.04643337
H  1.40795975 0.66346423 -0.04507546
6
MD Step 111
C  -0.32623297 -0.57056519 0.00913667
H  0.19585016 -1.53064040 -0.04250806
H  -1.43053557 -0.57515919 -0.04371709
C  0.32436652 0.56150232 0.00558534
H  -0.14731959 1.54947120 -0.04530836
H  1.40424565 0.66432187 -0.04389440
6
MD Step 112
C  -0.32600386 -0.57021853 0.00898363
H  0.19437329 -1.53072586 -0.04149430
H  -1.43022812 -0.57625535 -0.04275100
C  0.32439008 0.56142884 0.00536370
H  -0.14544805 1.54682283 -0.04409019
H  1.40053276 0.66489658 -0.04262769
6
MD Step 113
C  -0.32583384 -0.56993542 0.00881059
H  0.19272820 -1.53065544 -0.04036926
H  -1.42948867 -0.57746752 -0.04166488
C  0.32445596 0.56145682 0.00512489
H  -0.14374217 1.54394316 -0.04276208
H  1.39692150 0.66521114 -0.04125933
6
MD Step 114
C  -0.32572045 -0.56971331 0.00862072
H  0.19091031 -1.53045681 -0.03915422
H  -1.42834705 -0.57880624 -0.04048044
C  0.32456382 0.56158478 0.00487318
H  -0.14225360 1.54087363 -0.04134704
H  1.39347280 0.66524925 -0.03981208
6
MD Step 115
C  -0.32567144 -0.56956017 0.00840715
H  0.18898506 -1.53009434 -0.03780230
H  -1.42677448 -0.58021522 -0.03915028
C  0.32470163 0.56179911 0.00460054
H  -0.14096786 1.53772688 -0.03980293
H  1.39031357 0.66506362 -0.03824444
6
MD Step 116
C  -0.32568122 -0.56947033 0.00817455
H  0.18694395 -1.52961210 -0.03634433
H  -1.42482732 -0.58171313 -0.03770615
C  0.32487029 0.56209798 0.00431283
H  -0.13994504 1.53454254 -0.03816182
H  1.38749154 0.66463187 -0.03658772
6
MD Step 117
C  -0.32574854 -0.56944268 0.00792296
H  0.18481202 -1.52902635 -0.03477962
H  -1.42253909 -0.58328757 -0.03614796
C  0.32506543 0.56247366 0.00401022
H  -0.13921321 1.53139279 -0.03642546
H  1.38508029 0.66396416 -0.03484310
6
MD Step 118
C  -0.32586793 -0.56947189 0.00765562
H  0.18259520 -1.52837707 -0.03312894
H  -1.41997211 -0.58494658 -0.03449753
C  0.32528641 0.56292139 0.00369665
H  -0.13881907 1.52832890 -0.03461586
H  1.38312541 0.66305072 -0.03303156
6
MD Step 119
C  -0.32603984 -0.56955884 0.00736963
H  0.18034133 -1.52766643 -0.03137241
H  -1.41715550 -0.58665826 -0.03273563
C  0.32552602 0.56342938 0.00336874
H  -0.13876674 1.52544046 -0.03271569
H  1.38170363 0.66192301 -0.03113504
6
MD Step 120
C  -0.32625981 -0.56969952 0.00706612
H  0.17807365 -1.52692423 -0.02951637
H  -1.41415074 -0.58841616 -0.03086971
C  0.32578182 0.56399000 0.00302774
H  -0.13908213 1.52278782 -0.03073256
H  1.38085497 0.66058742 -0.02916002
6
MD Step 121
C  -0.32652107 -0.56988775 0.00674782
H  0.17580576 -1.52619194 -0.02757784
H  -1.41103533 -0.59022413 -0.02891803
C  0.32605362 0.56459740 0.00267667
H  -0.13979691 1.52041559 -0.02868400
H  1.38059659 0.65904050 -0.02712267
6
MD Step 122
C  -0.32681855 -0.57011928 0.00641545
H  0.17356516 -1.52549814 -0.02556022
H  -1.40787758 -0.59207278 -0.02688512
C  0.32633945 0.56524377 0.00231610
H  -0.14092415 1.51837475 -0.02657411
H  1.38094561 0.65729282 -0.02502593
6
MD Step 123
C  -0.32713922 -0.57038189 0.00607686
H  0.17133328 -1.52491693 -0.02351335
H  -1.40479442 -0.59399820 -0.02482240
C  0.32664560 0.56592935 0.00195471
H  -0.14251637 1.51666215 -0.02445165
H  1.38185954 0.65530957 -0.02291695
6
MD Step 124
C  -0.32748736 -0.57068112 0.00572327
H  0.16919700 -1.52441545 -0.02138005
H  -1.40179733 -0.59593141 -0.02267316
C  0.32696091 0.56663728 0.00158235
H  -0.14451457 1.51537070 -0.02226102
H  1.38338808 0.65316266 -0.02073971
6
MD Step 125
C  -0.32785006 -0.57100518 0.00536209
H  0.16713942 -1.52406166 -0.01920672
H  -1.39900024 -0.59790548 -0.02048516
C  0.32729206 0.56736851 0.00120698
H  -0.14695448 1.51448006 -0.02004729
H  1.38546444 0.65082170 -0.01853806
6