6
MD Step 0
C  -0.33763715 -0.58748864 0.00000000
H  0.19552659 -1.51519357 0.00000000
H  -1.40763715 -0.58748864 0.00000000
C  0.33763715 0.58748865 0.00000000
H  -0.19552659 1.51519357 0.00000000
H  1.40763715 0.58748865 0.00000000
6
MD Step 1
C  -0.33800582 -0.58783587 -0.00039460
H  0.19788904 -1.51298620 0.00235192
H  -1.40541843 -0.58520808 0.00234865
C  0.33721659 0.58704664 -0.00039402
H  -0.19318827 1.51769124 0.00234997
H  1.41012212 0.58990753 0.00234671
6
MD Step 2
C  -0.33831581 -0.58808398 -0.00078673
H  0.20025997 -1.51110222 0.00468907
H  -1.40353459 -0.58309124 0.00468262
C  0.33675101 0.58651530 -0.00078554
H  -0.19088092 1.52044174 0.00468506
H  1.41280172 0.59244414 0.00467844
6
MD Step 3
C  -0.33857010 -0.58823861 -0.00118278
H  0.20267627 -1.50951370 0.00704948
H  -1.40199164 -0.58110690 0.00704020
C  0.33623906 0.58589225 -0.00118086
H  -0.18855906 1.52345313 0.00704294
H  1.41565115 0.59512679 0.00703263
6
MD Step 4
C  -0.33876025 -0.58829437 -0.00157706
H  0.20509953 -1.50825782 0.00939911
H  -1.40085892 -0.57929503 0.00938782
C  0.33569181 0.58518818 -0.00157418
H  -0.18624712 1.52665574 0.00938903
H  1.41857008 0.59791065 0.00937427
6
MD Step 5
C  -0.33888491 -0.58825322 -0.00197010
H  0.20752519 -1.50732751 0.01174102
H  -1.40015800 -0.57765755 0.01172912
C  0.33511429 0.58440844 -0.00196584
H  -0.18393075 1.53001243 0.01172559
H  1.42149433 0.60078708 0.01170514
6
MD Step 6
C  -0.33894205 -0.58811654 -0.00236083
H  0.20993591 -1.50671844 0.01406850
H  -1.39990858 -0.57620514 0.01405811
C  0.33451324 0.58356082 -0.00235456
H  -0.18160418 1.53347276 0.01404499
H  1.42435062 0.60373695 0.01401704
6
MD Step 7
C  -0.33892662 -0.58788276 -0.00274410
H  0.21228757 -1.50644370 0.01635082
H  -1.40014218 -0.57497144 0.01634489
C  0.33389940 0.58265777 -0.00273497
H  -0.17928492 1.53695979 0.01631550
H  1.42704393 0.60671643 0.01627757
6
MD Step 8
C  -0.33884265 -0.58755927 -0.00312278
H  0.21458118 -1.50646252 0.01860485
H  -1.40082964 -0.57394139 0.01860705
C  0.33327538 0.58170430 -0.00310971
H  -0.17694282 1.54044302 0.01855283
H  1.42953109 0.60972889 0.01850187
6
MD Step 9
C  -0.33868819 -0.58714730 -0.00349264
H  0.21677369 -1.50677087 0.02080524
H  -1.40197172 -0.57314099 0.02082007
C  0.33265064 0.58071286 -0.00347434
H  -0.17459017 1.54384956 0.02073053
H  1.43173180 0.61273517 0.02066288
6
MD Step 10
C  -0.33846729 -0.58665386 -0.00385438
H  0.21885008 -1.50733046 0.02295614
H  -1.40352753 -0.57256553 0.02298870
C  0.33202944 0.57969126 -0.00382936
H  -0.17221063 1.54713699 0.02285167
H  1.43360173 0.61572552 0.02276318
6
MD Step 11
C  -0.33818914 -0.58609083 -0.00421284
H  0.22081902 -1.50807467 0.02508629
H  -1.40542086 -0.57218459 0.02514199
C  0.33141156 0.57864331 -0.00417941
H  -0.16976457 1.55028937 0.02494385
H  1.43512818 0.61871473 0.02483018
6
MD Step 12
C  -0.33785675 -0.58546366 -0.00456582
H  0.22264721 -1.50897596 0.02718265
H  -1.40760857 -0.57200829 0.02726721
C  0.33080349 0.57757990 -0.00452216
H  -0.16725562 1.55325154 0.02699310
H  1.43626391 0.62167586 0.02684963
6
MD Step 13
C  -0.33746967 -0.58477401 -0.00490676
H  0.22427606 -1.51003062 0.02920658
H  -1.41006585 -0.57207107 0.02932608
C  0.33021563 0.57651614 -0.00485107
H  -0.16471486 1.55594622 0.02896009
H  1.43694397 0.62455655 0.02878178
6
MD Step 14
C  -0.33703606 -0.58403190 -0.00523712
H  0.22569522 -1.51118653 0.03116693
H  -1.41271429 -0.57235873 0.03132719
C  0.32965002 0.57545900 -0.00516752
H  -0.16212830 1.55834791 0.03085294
H  1.43715960 0.62735231 0.03063491
6
MD Step 15
C  -0.33655893 -0.58324192 -0.00555256
H  0.22686171 -1.51242550 0.03303849
H  -1.41550537 -0.57288969 0.03324526
C  0.32911391 0.57442085 -0.00546732
H  -0.15951826 1.56040210 0.03264612
H  1.43687698 0.63002515 0.03238335
6
MD Step 16
C  -0.33605301 -0.58242016 -0.00586017
H  0.22780170 -1.51366274 0.03486363
H  -1.41832070 -0.57361383 0.03512135
C  0.32860277 0.57340241 -0.00575748
H  -0.15684252 1.56212719 0.03438138
H  1.43613884 0.63260516 0.03406988
6
MD Step 17
C  -0.33551966 -0.58156909 -0.00615325
H  0.22846238 -1.51489646 0.03660329
H  -1.42112331 -0.57456096 0.03691616
C  0.32812526 0.57241752 -0.00603158
H  -0.15414256 1.56346603 0.03601983
H  1.43491538 0.63504175 0.03565551
6
MD Step 18
C  -0.33496906 -0.58069988 -0.00643392
H  0.22884554 -1.51607522 0.03827063
H  -1.42382545 -0.57570772 0.03864152
C  0.32768081 0.57147080 -0.00629188
H  -0.15141081 1.56441967 0.03757461
H  1.43323779 0.63733723 0.03715434
6
MD Step 19
C  -0.33440714 -0.57981928 -0.00670001
H  0.22893054 -1.51717592 0.03985346
H  -1.42636785 -0.57705494 0.04028430
C  0.32727258 0.57057050 -0.00653651
H  -0.14866771 1.56497020 0.03903391
H  1.43112063 0.63946944 0.03855515
6
MD Step 20
C  -0.33384477 -0.57893890 -0.00695456
H  0.22873032 -1.51814865 0.04137028
H  -1.42866517 -0.57857203 0.04186112
C  0.32689813 0.56971908 -0.00676864
H  -0.14590617 1.56513664 0.04041646
H  1.42861739 0.64144764 0.03987817
6
MD Step 21
C  -0.33328280 -0.57806014 -0.00719056
H  0.22820256 -1.51900616 0.04278079
H  -1.43069661 -0.58028588 0.04333137
C  0.32656439 0.56892813 -0.00698190
H  -0.14318009 1.56488592 0.04168309
H  1.42573094 0.64322343 0.04108423
6
MD Step 22
C  -0.33273119 -0.57719354 -0.00741080
H  0.22736513 -1.51970889 0.04410182
H  -1.43239102 -0.58216595 0.04470988
C  0.32626819 0.56819894 -0.00717925
H  -0.14048950 1.56424833 0.04285125
H  1.42252874 0.64480638 0.04219250
6
MD Step 23
C  -0.33219229 -0.57634183 -0.00761059
H  0.22619608 -1.52026528 0.04530677
H  -1.43372809 -0.58422411 0.04596942
C  0.32601320 0.56753925 -0.00735665
H  -0.13787998 1.56321731 0.04389566
H  1.41904215 0.64616382 0.04317821
6
MD Step 24
C  -0.33166991 -0.57550919 -0.00778730
H  0.22468888 -1.52067678 0.04638106
H  -1.43468345 -0.58645969 0.04709458
C  0.32580058 0.56695396 -0.00751207
H  -0.13538753 1.56180456 0.04480318
H  1.41532121 0.64727627 0.04402894
6
MD Step 25
C  -0.33117635 -0.57470829 -0.00794772
H  0.22289454 -1.52089581 0.04736460
H  -1.43518699 -0.58881766 0.04812233
C  0.32562191 0.56643808 -0.00765224
H  -0.13299653 1.56008194 0.04561449
H  1.41147590 0.64817964 0.04478823
6
MD Step 26
C  -0.33071129 -0.57393900 -0.00808615
H  0.22079551 -1.52095197 0.04822497
H  -1.43524981 -0.59131434 0.04902021
C  0.32548053 0.56599781 -0.00777232
H  -0.13076460 1.55805481 0.04629910
H  1.40754877 0.64883895 0.04542576
6
MD Step 27
C  -0.33027956 -0.57320638 -0.00820302
H  0.21841255 -1.52084502 0.04896506
H  -1.43485721 -0.59393094 0.04978983
C  0.32537356 0.56563271 -0.00787312
H  -0.12871605 1.55576859 0.04686143
H  1.40362074 0.64925547 0.04594739
6
MD Step 28
C  -0.32988398 -0.57251342 -0.00829734
H  0.21576156 -1.52058780 0.04957976
H  -1.43401189 -0.59665649 0.05042530
C  0.32529920 0.56534287 -0.00795421
H  -0.12688417 1.55326510 0.04729813
H  1.39976683 0.64942362 0.04635079
6
MD Step 29
C  -0.32952893 -0.57186469 -0.00837065
H  0.21287531 -1.52018416 0.05007806
H  -1.43271204 -0.59946622 0.05093429
C  0.32525313 0.56512535 -0.00801737
H  -0.12528903 1.55060372 0.04761974
H  1.39607637 0.64935291 0.04664805
6
MD Step 30
C  -0.32921357 -0.57125950 -0.00841970
H  0.20976223 -1.51966965 0.05044177
H  -1.43099238 -0.60236238 0.05129889
C  0.32523553 0.56498105 -0.00806010
H  -0.12397767 1.54781945 0.04781008
H  1.39261023 0.64902674 0.04682309
6
MD Step 31
C  -0.32894319 -0.57070338 -0.00844863
H  0.20647474 -1.51904262 0.05069460
H  -1.42885524 -0.60530610 0.05154116
C  0.32523962 0.56490338 -0.00808647
H  -0.12295538 1.54499057 0.04789421
H  1.38946768 0.64847113 0.04690282
6
MD Step 32
C  -0.32871198 -0.57019075 -0.00845062
H  0.20300529 -1.51836743 0.05079782
H  -1.42637413 -0.60832072 0.05162415
C  0.32526925 0.56489567 -0.00809069
H  -0.12228809 1.54213375 0.04783548
H  1.38668059 0.64765074 0.04684927
6
MD Step 33
C  -0.32852698 -0.56972910 -0.00843331
H  0.19942975 -1.51763002 0.05079492
H  -1.42354910 -0.61134854 0.05158933
C  0.32531471 0.56494721 -0.00807988
H  -0.12195881 1.53934686 0.04767843
H  1.38435573 0.64661290 0.04670906
6
MD Step 34
C  -0.32838662 -0.56931735 -0.00839604
H  0.19577805 -1.51686649 0.05068191
H  -1.42043573 -0.61437954 0.05143322
C  0.32537468 0.56505498 -0.00805363
H  -0.12199516 1.53667838 0.04742040
H  1.38254329 0.64535825 0.04647927
6
MD Step 35
C  -0.32828657 -0.56895185 -0.00833602
H  0.19206904 -1.51612706 0.05044276
H  -1.41710911 -0.61741636 0.05114117
C  0.32545033 0.56521789 -0.00800956
H  -0.12243368 1.53416137 0.04704663
H  1.38127042 0.64387598 0.04614393
6
MD Step 36
C  -0.32822505 -0.56863173 -0.00825392
H  0.18834138 -1.51544384 0.05008102
H  -1.41363121 -0.62044289 0.05071751
C  0.32554011 0.56543164 -0.00794834
H  -0.12328783 1.53184379 0.04656146
H  1.38057158 0.64217534 0.04570669
6
MD Step 37
C  -0.32820283 -0.56835889 -0.00815379
H  0.18465226 -1.51483062 0.04961894
H  -1.41005058 -0.62342502 0.05018460
C  0.32563987 0.56568890 -0.00787347
H  -0.12454810 1.52978652 0.04598766
H  1.38048671 0.64028486 0.04519021
6
MD Step 38
C  -0.32821197 -0.56812677 -0.00803104
H  0.18100985 -1.51434931 0.04903029
H  -1.40646848 -0.62637787 0.04951882
C  0.32575428 0.56599075 -0.00778081
H  -0.12624842 1.52799494 0.04529933
H  1.38099298 0.63818516 0.04456607
6
MD Step 39
C  -0.32825469 -0.56793923 -0.00789243
H  0.17748428 -1.51399707 0.04835216
H  -1.40292531 -0.62925396 0.04875718
C  0.32587793 0.56632798 -0.00767604
H  -0.12835423 1.52653000 0.04453357
H  1.38211687 0.63592076 0.04387139
6
MD Step 40
C  -0.32831566 -0.56778285 -0.00772640
H  0.17404182 -1.51387115 0.04751942
H  -1.39956495 -0.63210896 0.04783892
C  0.32602314 0.56670900 -0.00754877
H  -0.13092739 1.52534161 0.04362470
H  1.38376816 0.63343456 0.04303634
6
MD Step 41
C  -0.32839854 -0.56766342 -0.00754186
H  0.17076050 -1.51395088 0.04658111
H  -1.39641522 -0.63488465 0.04681309
C  0.32618351 0.56712342 -0.00740652
H  -0.13390973 1.52448555 0.04262148
H  1.38595889 0.63078463 0.04210966
6
MD Step 42
C  -0.32849883 -0.56757870 -0.00733914
H  0.16766745 -1.51425970 0.04553815
H  -1.39354929 -0.63757165 0.04568240
C  0.32636106 0.56756941 -0.00724916
H  -0.13728530 1.52396030 0.04152407
H  1.38864081 0.62798174 0.04108991
6
MD Step 43
C  -0.32860848 -0.56752316 -0.00711480
H  0.16476582 -1.51483690 0.04437083
H  -1.39105624 -0.64018196 0.04442954
C  0.32656158 0.56804913 -0.00707332
H  -0.14105305 1.52373457 0.04031162
H  1.39173434 0.62501681 0.03995405
6
MD Step 44
C  -0.32872180 -0.56749364 -0.00686768
H  0.16206778 -1.51570343 0.04307209
H  -1.38900530 -0.64271528 0.04304938
C  0.32678885 0.56856302 -0.00687763
H  -0.14519370 1.52378146 0.03897586
H  1.39516430 0.62189449 0.03869222
6
MD Step 45
C  -0.32884103 -0.56749485 -0.00660466
H  0.15962630 -1.51682896 0.04167959
H  -1.38741151 -0.64512639 0.04158012
C  0.32703913 0.56910431 -0.00666780
H  -0.14963769 1.52411158 0.03755398
H  1.39889445 0.61866544 0.03734129
6
MD Step 46
C  -0.32896754 -0.56753053 -0.00633127
H  0.15748262 -1.51818452 0.04022337
H  -1.38628747 -0.64737801 0.04005246
C  0.32730988 0.56966782 -0.00644833
H  -0.15431833 1.52472088 0.03607563
H  1.40287588 0.61537365 0.03593061
6
MD Step 47
C  -0.32909319 -0.56759494 -0.00604249
H  0.15561517 -1.51979380 0.03867534
H  -1.38569384 -0.64949227 0.03844000
C  0.32760824 0.57025862 -0.00621458
H  -0.15922384 1.52554026 0.03451113
H  1.40699714 0.61200531 0.03442912
6
MD Step 48
C  -0.32921905 -0.56769117 -0.00574242
H  0.15404877 -1.52162327 0.03705793
H  -1.38562807 -0.65144035 0.03676555
C  0.32793259 0.57087332 -0.00596993
H  -0.16428802 1.52654687 0.03288251
H  1.41119679 0.60859821 0.03285872
6
MD Step 49
C  -0.32934480 -0.56782068 -0.00543304
H  0.15279225 -1.52364543 0.03538191
H  -1.38608700 -0.65320563 0.03504026
C  0.32828293 0.57151063 -0.00571596
H  -0.16945403 1.52770242 0.03120010
H  1.41540198 0.60517903 0.03122955
6
MD Step 50
C  -0.32946768 -0.56798215 -0.00511312
H  0.15183237 -1.52584552 0.03364034
H  -1.38707312 -0.65478994 0.03325746
C  0.32866192 0.57217233 -0.00545145
H  -0.17468147 1.52894816 0.02945616
H  1.41952368 0.60175695 0.02953373
6
MD Step 51
C  -0.32958059 -0.56816965 -0.00477620
H  0.15112311 -1.52823318 0.03179772
H  -1.38860566 -0.65622482 0.03138191
C  0.32907655 0.57286504 -0.00517066
H  -0.17995857 1.53019515 0.02761358
H  1.42344727 0.59831251 0.02773389
6
MD Step 52
C  -0.32968752 -0.56838765 -0.00442672
H  0.15067570 -1.53075250 0.02987899
H  -1.39063015 -0.65748057 0.02943792
C  0.32952314 0.57358479 -0.00487758
H  -0.18521212 1.53141628 0.02569763
H  1.42712527 0.59488752 0.02585580
6
MD Step 53
C  -0.32979380 -0.56864145 -0.00406994
H  0.15050259 -1.53333982 0.02791350
H  -1.39307670 -0.65852344 0.02745409
C  0.32999676 0.57432662 -0.00457692
H  -0.19036533 1.53259042 0.02373843
H  1.43052102 0.59152828 0.02393019
6
MD Step 54
C  -0.32989657 -0.56892788 -0.00370205
H  0.15056299 -1.53598007 0.02588075
H  -1.39591712 -0.65937153 0.02540927
C  0.33050035 0.57509381 -0.00426544
H  -0.19539414 1.53364784 0.02171468
H  1.43355364 0.58823034 0.02193613
6
MD Step 55
C  -0.32999785 -0.56924806 -0.00332398
H  0.15083996 -1.53863038 0.02378629
H  -1.39908899 -0.66001719 0.02330813
C  0.33103199 0.57588483 -0.00394408
H  -0.20025030 1.53454856 0.01963206
H  1.43617656 0.58501517 0.01987987
6
MD Step 56
C  -0.33009862 -0.56960169 -0.00293522
H  0.15130693 -1.54125523 0.02162806
H  -1.40253161 -0.66046164 0.02114770
C  0.33159052 0.57669902 -0.00361260
H  -0.20489647 1.53524889 0.01748841
H  1.43834371 0.58189594 0.01775980
6
MD Step 57
C  -0.33020601 -0.56999401 -0.00254151
H  0.15197070 -1.54378445 0.01943851
H  -1.40614487 -0.66067188 0.01895948
C  0.33216847 0.57752934 -0.00327632
H  -0.20926352 1.53574500 0.01531734
H  1.44005304 0.57892000 0.01561016
6
MD Step 58
C  -0.33032127 -0.57042415 -0.00214246
H  0.15280263 -1.54618406 0.01721599
H  -1.40986144 -0.66065121 0.01674097
C  0.33276367 0.57837417 -0.00293506
H  -0.21332124 1.53600340 0.01311718
H  1.44127628 0.57609923 0.01342980
6
MD Step 59
C  -0.33044299 -0.57088832 -0.00173498
H  0.15375850 -1.54843752 0.01494402
H  -1.41362875 -0.66041963 0.01447490
C  0.33337605 0.57923395 -0.00258624
H  -0.21705905 1.53598094 0.01087081
H  1.44197885 0.57342941 0.01120208
6
MD Step 60
C  -0.33057986 -0.57139225 -0.00132659
H  0.15485362 -1.55047107 0.01266507
H  -1.41733532 -0.65993824 0.01220311
C  0.33399515 0.58009850 -0.00223680
H  -0.22041074 1.53570055 0.00862207
H  1.44219566 0.57096483 0.00897123
6
MD Step 61
C  -0.33073063 -0.57193174 -0.00091483
H  0.15604732 -1.55227127 0.01036596
H  -1.42092928 -0.65922677 0.00991186
C  0.33461955 0.58096676 -0.00188466
H  -0.22337198 1.53513445 0.00635717
H  1.44191352 0.56870213 0.00672379
6
MD Step 62
C  -0.33089909 -0.57250724 -0.00050271
H  0.15733061 -1.55379760 0.00806417
H  -1.42433172 -0.65827524 0.00761826
C  0.33524231 0.58183191 -0.00153270
H  -0.22591223 1.53429233 0.00409382
H  1.44115937 0.56666758 0.00447770
6
MD Step 63
C  -0.33109109 -0.57312108 -0.00009585
H  0.15871007 -1.55499952 0.00579153
H  -1.42745453 -0.65706055 0.00535392
C  0.33585380 0.58268423 -0.00118608
H  -0.22799144 1.53320476 0.00186453
H  1.43998334 0.56490053 0.00226556
6
MD Step 64
C  -0.33129737 -0.57376059 0.00031530
H  0.16010771 -1.55591794 0.00349479
H  -1.43030261 -0.65564825 0.00306540
C  0.33645848 0.58352823 -0.00083614
H  -0.22966175 1.53182197 -0.00038604
H  1.43835671 0.56335274 0.00003213
6
MD Step 65
C  -0.33152485 -0.57442887 0.00072317
H  0.16154424 -1.55650106 0.00121689
H  -1.43278978 -0.65400706 0.00079572
C  0.33704438 0.58435148 -0.00048980
H  -0.23088243 1.53019837 -0.00261428
H  1.43635709 0.56207170 -0.00217913
6
MD Step 66
C  -0.33176574 -0.57511450 0.00113483
H  0.16295873 -1.55678621 -0.00108196
H  -1.43492126 -0.65219153 -0.00149487
C  0.33761329 0.58515539 -0.00014049
H  -0.23170231 1.52831049 -0.00486177
H  1.43398526 0.56101980 -0.00440989
6
MD Step 67
C  -0.33202273 -0.57581628 0.00154619
H  0.16435594 -1.55675173 -0.00337840
H  -1.43664558 -0.65019300 -0.00378277
C  0.33815624 0.58593021 0.00020807
H  -0.23211108 1.52620515 -0.00710536
H  1.43131368 0.56022174 -0.00663732
6
MD Step 68
C  -0.33229267 -0.57652727 0.00195868
H  0.16571117 -1.55641281 -0.00568043
H  -1.43795089 -0.64803582 -0.00607567
C  0.33866943 0.58667129 0.00055736
H  -0.23213530 1.52390316 -0.00935419
H  1.42838931 0.55966906 -0.00887091
6
MD Step 69
C  -0.33257725 -0.57724529 0.00236837
H  0.16703267 -1.55575874 -0.00796557
H  -1.43880239 -0.64571431 -0.00835069
C  0.33914398 0.58736853 0.00090386
H  -0.23177531 1.52146164 -0.01158638
H  1.42529568 0.55938260 -0.01108928
6
MD Step 70
C  -0.33287449 -0.57796463 0.00277466
H  0.16831192 -1.55480287 -0.01023032
H  -1.43919276 -0.64324293 -0.01060389
C  0.33957427 0.58801494 0.00124718
H  -0.23105517 1.51892338 -0.01379955
H  1.42210124 0.55936267 -0.01329061
6
MD Step 71
C  -0.33318374 -0.57868101 0.00317517
H  0.16955304 -1.55355292 -0.01246099
H  -1.43911264 -0.64062647 -0.01282106
C  0.33995316 0.58860169 0.00158531
H  -0.22999258 1.51634573 -0.01598109
H  1.41888761 0.55961845 -0.01546291
6
MD Step 72
C  -0.33350663 -0.57939252 0.00356486
H  0.17077815 -1.55200536 -0.01462839
H  -1.43854545 -0.63785461 -0.01497237
C  0.34027123 0.58911736 0.00191365
H  -0.22859303 1.51380514 -0.01810267
H  1.41575323 0.56017343 -0.01757865
6
MD Step 73
C  -0.33383296 -0.58008582 0.00395022
H  0.17194442 -1.55022841 -0.01677023
H  -1.43755072 -0.63498532 -0.01709539
C  0.34053076 0.58956199 0.00223874
H  -0.22693267 1.51131286 -0.02020419
H  1.41272785 0.56098249 -0.01967800
6
MD Step 74
C  -0.33416374 -0.58075886 0.00432611
H  0.17307918 -1.54822562 -0.01885666
H  -1.43612754 -0.63200837 -0.01915964
C  0.34072316 0.58992437 0.00255588
H  -0.22502150 1.50895002 -0.02225686
H  1.40990756 0.56206742 -0.02173290
6
MD Step 75
C  -0.33449552 -0.58140552 0.00469158
H  0.17418756 -1.54602806 -0.02088199
H  -1.43430711 -0.62893816 -0.02115908
C  0.34084455 0.59019769 0.00286439
H  -0.22289540 1.50677375 -0.02425648
H  1.40735973 0.56342467 -0.02373961
6
MD Step 76
C  -0.33483052 -0.58202561 0.00503976
H  0.17531153 -1.54363440 -0.02280575
H  -1.43209301 -0.62575394 -0.02305250
C  0.34088594 0.59036970 0.00315770
H  -0.22055573 1.50487529 -0.02616351
H  1.40518060 0.56508467 -0.02565940
6
MD Step 77
C  -0.33515915 -0.58260770 0.00537524
H  0.17642706 -1.54111351 -0.02465493
H  -1.42956416 -0.62250310 -0.02486715
C  0.34085056 0.59044017 0.00344058
H  -0.21807160 1.50327544 -0.02800670
H  1.40338970 0.56700921 -0.02752074
6
MD Step 78
C  -0.33547158 -0.58314050 0.00570263
H  0.17751101 -1.53853612 -0.02645699
H  -1.42680618 -0.61923325 -0.02663108
C  0.34074264 0.59040968 0.00371790
H  -0.21551137 1.50199088 -0.02981513
H  1.40199641 0.56915874 -0.02935204
6
MD Step 79
C  -0.33576486 -0.58362007 0.00601960
H  0.17858282 -1.53593167 -0.02819797
H  -1.42386779 -0.61594974 -0.02833037
C  0.34056032 0.59027259 0.00398743
H  -0.21289957 1.50107514 -0.03157569
H  1.40104165 0.57153466 -0.03114003
6
MD Step 80
C  -0.33603091 -0.58403784 0.00632885
H  0.17963231 -1.53335963 -0.02989404
H  -1.42083183 -0.61268773 -0.02998209
C  0.34030775 0.59002933 0.00425206
H  -0.21028812 1.50054519 -0.03330554
H  1.40052462 0.57410742 -0.03290077
6
MD Step 81
C  -0.33626859 -0.58439263 0.00662634
H  0.18069032 -1.53083733 -0.03152064
H  -1.41774258 -0.60944070 -0.03156179
C  0.33998314 0.58967449 0.00450760
H  -0.20768430 1.50045157 -0.03498035
H  1.40047383 0.57688769 -0.03460960
6
MD Step 82
C  -0.33647120 -0.58467825 0.00691357
H  0.18175390 -1.52841401 -0.03308669
H  -1.41467934 -0.60623516 -0.03307955
C  0.33959123 0.58920953 0.00475557
H  -0.20512474 1.50080252 -0.03660929
H  1.40087185 0.57985176 -0.03627429
6
MD Step 83
C  -0.33663561 -0.58489252 0.00718879
H  0.18283938 -1.52611632 -0.03458121
H  -1.41170114 -0.60307681 -0.03452514
C  0.33913423 0.58863379 0.00499395
H  -0.20262118 1.50161691 -0.03818104
H  1.40170939 0.58299515 -0.03788253
6
MD Step 84
C  -0.33675586 -0.58503093 0.00745329
H  0.18394340 -1.52398636 -0.03601179
H  -1.40888396 -0.59998929 -0.03590769
C  0.33861827 0.58795111 0.00522389
H  -0.20019892 1.50288484 -0.03970259
H  1.40294705 0.58629388 -0.03943957
6
MD Step 85
C  -0.33683054 -0.58509389 0.00770439
H  0.18508563 -1.52203776 -0.03736154
H  -1.40627573 -0.59697082 -0.03721114
C  0.33804603 0.58716255 0.00544217
H  -0.19785341 1.50461076 -0.04115581
H  1.40455978 0.58974764 -0.04092633
6
MD Step 86
C  -0.33685916 -0.58508307 0.00793909
H  0.18628643 -1.52027733 -0.03861106
H  -1.40391710 -0.59401640 -0.03841677
C  0.33742038 0.58627012 0.00564502
H  -0.19557246 1.50679122 -0.04251967
H  1.40651566 0.59335764 -0.04232107
6
MD Step 87
C  -0.33683305 -0.58499229 0.00816263
H  0.18751200 -1.51875950 -0.03979305
H  -1.40189489 -0.59117259 -0.03956011
C  0.33675345 0.58528599 0.00583784
H  -0.19339114 1.50936048 -0.04382505
H  1.40872248 0.59707184 -0.04365186
6
MD Step 88
C  -0.33675316 -0.58482517 0.00837187
H  0.18877913 -1.51748039 -0.04088720
H  -1.40023466 -0.58843206 -0.04062155
C  0.33604884 0.58421468 0.00601661
H  -0.19128712 1.51229674 -0.04504925
H  1.41113535 0.60089028 -0.04489550
6
MD Step 89
C  -0.33661890 -0.58458386 0.00856590
H  0.19008800 -1.51644508 -0.04188741
H  -1.39896710 -0.58580106 -0.04159617
C  0.33531282 0.58306429 0.00617974
H  -0.18924848 1.51555566 -0.04618353
H  1.41369088 0.60479777 -0.04604231
6
MD Step 90
C  -0.33643088 -0.58427181 0.00874345
H  0.19143851 -1.51565112 -0.04278531
H  -1.39811063 -0.58328294 -0.04247656
C  0.33455145 0.58184362 0.00632524
H  -0.18725797 1.51908806 -0.04721668
H  1.41632537 0.60878041 -0.04708045
6
MD Step 91
C  -0.33619255 -0.58389523 0.00890150
H  0.19283960 -1.51507939 -0.04356099
H  -1.39766159 -0.58086902 -0.04324297
C  0.33376900 0.58056049 0.00644901
H  -0.18528462 1.52285046 -0.04812586
H  1.41898565 0.61283491 -0.04798729
6
MD Step 92
C  -0.33590476 -0.58345768 0.00904021
H  0.19427712 -1.51472677 -0.04421536
H  -1.39762659 -0.57857085 -0.04389716
C  0.33297325 0.57922700 0.00655070
H  -0.18331669 1.52677421 -0.04890896
H  1.42159818 0.61693630 -0.04876027
6
MD Step 93
C  -0.33556435 -0.58295848 0.00916424
H  0.19570531 -1.51461515 -0.04477900
H  -1.39803106 -0.57642900 -0.04447176
C  0.33217690 0.57786084 0.00663541
H  -0.18137125 1.53075831 -0.04959331
H  1.42406200 0.62102940 -0.04942502
6
MD Step 94
C  -0.33517282 -0.58240141 0.00927478
H  0.19709868 -1.51473979 -0.04526025
H  -1.39886709 -0.57446121 -0.04497588
C  0.33138878 0.57647639 0.00670427
H  -0.17944328 1.53472300 -0.05018426
H  1.42630244 0.62508080 -0.04998640
6
MD Step 95
C  -0.33473729 -0.58179569 0.00936868
H  0.19845851 -1.51506362 -0.04563903
H  -1.40008765 -0.57265625 -0.04538848
C  0.33061267 0.57508348 0.00675327
H  -0.17750041 1.53861740 -0.05065921
H  1.42827863 0.62908536 -0.05042299
6
MD Step 96
C  -0.33426500 -0.58115036 0.00944355
H  0.19978070 -1.51555048 -0.04589945
H  -1.40164056 -0.57100650 -0.04569248
C  0.32985279 0.57369275 0.00677916
H  -0.17551589 1.54238833 -0.05100016
H  1.42995170 0.63303373 -0.05071814
6
MD Step 97
C  -0.33375261 -0.58046351 0.00950697
H  0.20099271 -1.51622936 -0.04609393
H  -1.40353346 -0.56957106 -0.04594232
C  0.32912445 0.57232601 0.00679141
H  -0.17353213 1.54591809 -0.05125649
H  1.43122216 0.63684894 -0.05091913
6
MD Step 98
C  -0.33321675 -0.57975317 0.00954924
H  0.20213777 -1.51701087 -0.04615794
H  -1.40565039 -0.56829259 -0.04606957
C  0.32842292 0.57098541 0.00677798
H  -0.17147861 1.54920946 -0.05136324
H  1.43211465 0.64057090 -0.05096486
6
MD Step 99
C  -0.33266283 -0.57902581 0.00957118
H  0.20318928 -1.51787448 -0.04609758
H  -1.40794072 -0.56718270 -0.04607942
C  0.32775485 0.56968433 0.00673988
H  -0.16935699 1.55220055 -0.05132520
H  1.43259201 0.64417004 -0.05086084
6
MD Step 100
C  -0.33208917 -0.57828048 0.00958019
H  0.20407630 -1.51884385 -0.04596447
H  -1.41039542 -0.56629669 -0.04602454
C  0.32713402 0.56844306 0.00668662
H  -0.16721627 1.55479088 -0.05119176
H  1.43258099 0.64757266 -0.05065512
6
MD Step 101
C  -0.33150513 -0.57752725 0.00957402
H  0.20479406 -1.51987727 -0.04574455
H  -1.41293765 -0.56562407 -0.04588886
C  0.32656260 0.56727028 0.00661571
H  -0.16504387 1.55695214 -0.05094870
H  1.43208284 0.65077161 -0.05033519
6
MD Step 102
C  -0.33092141 -0.57677738 0.00954938
H  0.20534645 -1.52092613 -0.04541646
H  -1.41548247 -0.56514607 -0.04564867
C  0.32604088 0.56617257 0.00652332
H  -0.16282319 1.55867100 -0.05057528
H  1.43111576 0.65376850 -0.04988232
6
MD Step 103
C  -0.33034620 -0.57603950 0.00950517
H  0.20572449 -1.52195758 -0.04497380
H  -1.41796062 -0.56485739 -0.04529583
C  0.32557100 0.56515799 0.00640848
H  -0.16055526 1.55992758 -0.05006572
H  1.42969280 0.65655181 -0.04929215
6
MD Step 104
C  -0.32978599 -0.57532037 0.00944176
H  0.20591196 -1.52294972 -0.04441975
H  -1.42031474 -0.56476093 -0.04483211
C  0.32515602 0.56423507 0.00627199
H  -0.15825349 1.56070110 -0.04942393
H  1.42782713 0.65910234 -0.04856968
6
MD Step 105
C  -0.32924434 -0.57462368 0.00936184
H  0.20587884 -1.52389887 -0.04377411
H  -1.42250730 -0.56487436 -0.04427664
C  0.32480103 0.56341384 0.00611782
H  -0.15595019 1.56096337 -0.04866997
H  1.42552526 0.66138662 -0.04773541
6
MD Step 106
C  -0.32873561 -0.57396416 0.00925820
H  0.20566596 -1.52473588 -0.04298762
H  -1.42443719 -0.56514692 -0.04357721
C  0.32449880 0.56269182 0.00593725
H  -0.15361349 1.56076288 -0.04775816
H  1.42287065 0.66344144 -0.04674639
6
MD Step 107
C  -0.32825920 -0.57334111 0.00913663
H  0.20522868 -1.52548251 -0.04210073
H  -1.42609749 -0.56561390 -0.04277428
C  0.32425638 0.56207981 0.00573805
H  -0.15130124 1.56006912 -0.04672908
H  1.41986774 0.66521728 -0.04564306
6
MD Step 108
C  -0.32782088 -0.57276035 0.00899678
H  0.20456751 -1.52612163 -0.04111129
H  -1.42744550 -0.56626784 -0.04186458
C  0.32407292 0.56158029 0.00552023
H  -0.14903239 1.55890236 -0.04558274
H  1.41657123 0.66670906 -0.04442650
6
MD Step 109
C  -0.32742534 -0.57222654 0.00883876
H  0.20368302 -1.52664245 -0.04002033
H  -1.42844835 -0.56710318 -0.04084826
C  0.32394732 0.56119485 0.00528440
H  -0.14683125 1.55728860 -0.04432245
H  1.41304080 0.66791091 -0.04310088
6
MD Step 110
C  -0.32707718 -0.57174422 0.00866222
H  0.20258232 -1.52703415 -0.03882552
H  -1.42907708 -0.56810986 -0.03972218
C  0.32387720 0.56092312 0.00503056
H  -0.14472093 1.55526578 -0.04294849
H  1.40934669 0.66882279 -0.04166736
6
MD Step 111
C  -0.32677852 -0.57131540 0.00846849
H  0.20126487 -1.52730028 -0.03753561
H  -1.42932125 -0.56928751 -0.03849471
C  0.32386135 0.56076512 0.00476073
H  -0.14273703 1.55286912 -0.04147195
H  1.40555452 0.66943607 -0.04013748
6
MD Step 112
C  -0.32652924 -0.57093969 0.00826031
H  0.19972357 -1.52745746 -0.03616925
H  -1.42918785 -0.57064414 -0.03718447
C  0.32389957 0.56072109 0.00447874
H  -0.14092606 1.55013193 -0.03991329
H  1.40172555 0.66973481 -0.03853187
6
MD Step 113
C  -0.32633891 -0.57062677 0.00803091
H  0.19801834 -1.52746212 -0.03468021
H  -1.42862789 -0.57212393 -0.03574428
C  0.32398025 0.56077943 0.00417669
H  -0.13927281 1.54715789 -0.03823128
H  1.39798822 0.66976929 -0.03681032
6
MD Step 114
C  -0.32620404 -0.57037284 0.00778487
H  0.19613670 -1.52734921 -0.03309875
H  -1.42767597 -0.57374442 -0.03420486
C  0.32410419 0.56093979 0.00386041
H  -0.13783669 1.54398175 -0.03645766
H  1.39439793 0.66951643 -0.03500424
6
MD Step 115
C  -0.32612330 -0.57017639 0.00752411
H  0.19408678 -1.52713918 -0.03143709
H  -1.42635699 -0.57550479 -0.03257874
C  0.32426882 0.56119775 0.00353247
H  -0.13665958 1.54066083 -0.03460684
H  1.39102780 0.66897287 -0.03312781
6
MD Step 116
C  -0.32609548 -0.57003612 0.00724975
H  0.19188459 -1.52685017 -0.02970205
H  -1.42469825 -0.57739831 -0.03087310
C  0.32447050 0.56154711 0.00319441
H  -0.13577759 1.53726136 -0.03268801
H  1.38795456 0.66814239 -0.03118985
6
MD Step 117
C  -0.32611752 -0.56994888 0.00696405
H  0.18954135 -1.52650992 -0.02790757
H  -1.42274142 -0.57942450 -0.02910249
C  0.32470667 0.56198199 0.00284901
H  -0.13523245 1.53384485 -0.03071700
H  1.38524423 0.66702332 -0.02920561
6
MD Step 118
C  -0.32618771 -0.56991304 0.00666733
H  0.18708250 -1.52613618 -0.02605525
H  -1.42052276 -0.58157027 -0.02726911
C  0.32497278 0.56249389 0.00249679
H  -0.13505186 1.53048562 -0.02869748
H  1.38296928 0.66562765 -0.02717811
6
MD Step 119
C  -0.32631048 -0.56993339 0.00635353
H  0.18457652 -1.52570729 -0.02410469
H  -1.41804353 -0.58378119 -0.02533299
C  0.32525741 0.56306705 0.00213085
H  -0.13521985 1.52729797 -0.02659255
H  1.38123535 0.66400998 -0.02506989
6
MD Step 120
C  -0.32648118 -0.57000557 0.00602459
H  0.18204167 -1.52525453 -0.02206773
H  -1.41536284 -0.58605347 -0.02330684
C  0.32555828 0.56369409 0.00175339
H  -0.13576754 1.52434167 -0.02441513
H  1.38008603 0.66217417 -0.02289291
6
MD Step 121
C  -0.32669463 -0.57012490 0.00568236
H  0.17949754 -1.52480983 -0.01995571
H  -1.41254487 -0.58838280 -0.02120289
C  0.32587352 0.56436759 0.00136649
H  -0.13672109 1.52167167 -0.02217741
H  1.37955271 0.66012520 -0.02065832
6
MD Step 122
C  -0.32694209 -0.57028325 0.00533165
H  0.17694571 -1.52442392 -0.01779860
H  -1.40967660 -0.59078305 -0.01905208
C  0.32620492 0.56508348 0.00097539
H  -0.13811951 1.51931756 -0.01990928
H  1.37963452 0.65785010 -0.01839494
6
MD Step 123
C  -0.32721759 -0.57047553 0.00497427
H  0.17440676 -1.52412822 -0.01560716
H  -1.40682877 -0.59324926 -0.01686601
C  0.32655159 0.56583494 0.00058192
H  -0.13997701 1.51731934 -0.01762173
H  1.38033514 0.65535549 -0.01611283
6
MD Step 124
C  -0.32751570 -0.57069732 0.00461124
H  0.17190557 -1.52394823 -0.01338725
H  -1.40406847 -0.59577169 -0.01465128
C  0.32691238 0.56661496 0.00018703
H  -0.14229631 1.51571197 -0.01532067
H  1.38164840 0.65265336 -0.01381715
6
MD Step 125
C  -0.32783239 -0.57094580 0.00424206
H  0.16947564 -1.52389809 -0.01113509
H  -1.40145292 -0.59833113 -0.01240476
C  0.32728503 0.56741564 -0.00021003
H  -0.14506351 1.51452890 -0.01300237
H  1.38356307 0.64976581 -0.01150358