 Entering Gaussian System, Link 0=g16
 Initial command:
 /software/gaussian/g16-c01/avx2/g16/l1.exe "/gpfs/fs2/scratch/bweight/software/many_molecule_many_mode_NAMD/src/NAMD/TEST_NVT/TRAJ/traj-43/G16/GS_NEW/Gau-23281.inp" -scrdir="/gpfs/fs2/scratch/bweight/software/many_molecule_many_mode_NAMD/src/NAMD/TEST_NVT/TRAJ/traj-43/G16/GS_NEW/"
 Entering Link 1 = /software/gaussian/g16-c01/avx2/g16/l1.exe PID=     23282.
  
 Copyright (c) 1988-2019, Gaussian, Inc.  All Rights Reserved.
  
 This is part of the Gaussian(R) 16 program.  It is based on
 the Gaussian(R) 09 system (copyright 2009, Gaussian, Inc.),
 the Gaussian(R) 03 system (copyright 2003, Gaussian, Inc.),
 the Gaussian(R) 98 system (copyright 1998, Gaussian, Inc.),
 the Gaussian(R) 94 system (copyright 1995, Gaussian, Inc.),
 the Gaussian 92(TM) system (copyright 1992, Gaussian, Inc.),
 the Gaussian 90(TM) system (copyright 1990, Gaussian, Inc.),
 the Gaussian 88(TM) system (copyright 1988, Gaussian, Inc.),
 the Gaussian 86(TM) system (copyright 1986, Carnegie Mellon
 University), and the Gaussian 82(TM) system (copyright 1983,
 Carnegie Mellon University). Gaussian is a federally registered
 trademark of Gaussian, Inc.
  
 This software contains proprietary and confidential information,
 including trade secrets, belonging to Gaussian, Inc.
  
 This software is provided under written license and may be
 used, copied, transmitted, or stored only in accord with that
 written license.
  
 The following legend is applicable only to US Government
 contracts under FAR:
  
                    RESTRICTED RIGHTS LEGEND
  
 Use, reproduction and disclosure by the US Government is
 subject to restrictions as set forth in subparagraphs (a)
 and (c) of the Commercial Computer Software - Restricted
 Rights clause in FAR 52.227-19.
  
 Gaussian, Inc.
 340 Quinnipiac St., Bldg. 40, Wallingford CT 06492
  
  
 ---------------------------------------------------------------
 Warning -- This program may not be used in any manner that
 competes with the business of Gaussian, Inc. or will provide
 assistance to any competitor of Gaussian, Inc.  The licensee
 of this program is prohibited from giving any competitor of
 Gaussian, Inc. access to this program.  By using this program,
 the user acknowledges that Gaussian, Inc. is engaged in the
 business of creating and licensing software in the field of
 computational chemistry and represents and warrants to the
 licensee that it is not a competitor of Gaussian, Inc. and that
 it will not use this program in any manner prohibited above.
 ---------------------------------------------------------------
  

 Cite this work as:
 Gaussian 16, Revision C.01,
 M. J. Frisch, G. W. Trucks, H. B. Schlegel, G. E. Scuseria, 
 M. A. Robb, J. R. Cheeseman, G. Scalmani, V. Barone, 
 G. A. Petersson, H. Nakatsuji, X. Li, M. Caricato, A. V. Marenich, 
 J. Bloino, B. G. Janesko, R. Gomperts, B. Mennucci, H. P. Hratchian, 
 J. V. Ortiz, A. F. Izmaylov, J. L. Sonnenberg, D. Williams-Young, 
 F. Ding, F. Lipparini, F. Egidi, J. Goings, B. Peng, A. Petrone, 
 T. Henderson, D. Ranasinghe, V. G. Zakrzewski, J. Gao, N. Rega, 
 G. Zheng, W. Liang, M. Hada, M. Ehara, K. Toyota, R. Fukuda, 
 J. Hasegawa, M. Ishida, T. Nakajima, Y. Honda, O. Kitao, H. Nakai, 
 T. Vreven, K. Throssell, J. A. Montgomery, Jr., J. E. Peralta, 
 F. Ogliaro, M. J. Bearpark, J. J. Heyd, E. N. Brothers, K. N. Kudin, 
 V. N. Staroverov, T. A. Keith, R. Kobayashi, J. Normand, 
 K. Raghavachari, A. P. Rendell, J. C. Burant, S. S. Iyengar, 
 J. Tomasi, M. Cossi, J. M. Millam, M. Klene, C. Adamo, R. Cammi, 
 J. W. Ochterski, R. L. Martin, K. Morokuma, O. Farkas, 
 J. B. Foresman, and D. J. Fox, Gaussian, Inc., Wallingford CT, 2019.
 
 ******************************************
 Gaussian 16:  ES64L-G16RevC.01  3-Jul-2019
                11-Jan-2023 
 ******************************************
 %oldchk=../GS_OLD/geometry.chk
 %chk=geometry.chk
 %nprocshared=4
 Will use up to    4 processors via shared memory.
 %mem=5GB
 Copying data from "../GS_OLD/geometry.chk" to current chk file "geometry.chk"
 IOpt=  2 FromEx=T IUOpen= 4 IOptOp= 5 NList=   0 IFRang= 0 IUIn= 4 IUOut= 2.
 -------------------------------------------------------
 # WB97XD/6-311G SCF=XQC FORCE nosym pop=full guess=read
 -------------------------------------------------------
 1/10=7,30=1,38=1/1,3;
 2/12=2,15=1,17=6,18=5,40=1/2;
 3/5=4,6=6,11=2,25=1,30=1,71=1,74=-58,116=-2/1,2,3;
 4/5=1/1;
 5/5=2,8=3,13=1,38=6/2,8;
 6/7=3,28=1/1;
 7/29=1,30=1/1,2,3,16;
 1/10=7,30=1/3;
 99//99;
 -----------
 MD Step 999
 -----------
 Symbolic Z-matrix:
 Charge =  0 Multiplicity = 1
 C                    -0.33613  -0.58133   0.00589 
 H                     0.21271  -1.5261   -0.02061 
 H                    -1.41618  -0.59133  -0.02114 
 C                     0.3322    0.57626   0.00459 
 H                    -0.16327   1.56953  -0.02366 
 H                     1.45017   0.64494  -0.02286 
 

 GradGradGradGradGradGradGradGradGradGradGradGradGradGradGradGradGradGrad
 Berny optimization.
 Initialization pass.
 Trust Radius=3.00D-01 FncErr=1.00D-07 GrdErr=1.00D-07 EigMax=2.50D+02 EigMin=1.00D-04
 Number of steps in this run=      2 maximum allowed number of steps=      2.
 GradGradGradGradGradGradGradGradGradGradGradGradGradGradGradGradGradGrad

                          Input orientation:                          
 ---------------------------------------------------------------------
 Center     Atomic      Atomic             Coordinates (Angstroms)
 Number     Number       Type             X           Y           Z
 ---------------------------------------------------------------------
      1          6           0       -0.336126   -0.581327    0.005894
      2          1           0        0.212713   -1.526103   -0.020608
      3          1           0       -1.416178   -0.591333   -0.021139
      4          6           0        0.332200    0.576260    0.004590
      5          1           0       -0.163268    1.569527   -0.023655
      6          1           0        1.450174    0.644940   -0.022861
 ---------------------------------------------------------------------
                    Distance matrix (angstroms):
                    1          2          3          4          5
     1  C    0.000000
     2  H    1.092944   0.000000
     3  H    1.080437   1.878053   0.000000
     4  C    1.336663   2.105907   2.102561   0.000000
     5  H    2.157991   3.118380   2.497820   1.110344   0.000000
     6  H    2.166893   2.498948   3.121594   1.120419   1.859585
                    6
     6  H    0.000000
 Symmetry turned off by external request.
 Stoichiometry    C2H4
 Framework group  C1[X(C2H4)]
 Deg. of freedom    12
 Full point group                 C1      NOp   1
 Rotational constants (GHZ):         143.4676890          29.6977558          24.6107631
 Standard basis: 6-311G (5D, 7F)
    38 basis functions,    72 primitive gaussians,    38 cartesian basis functions
     8 alpha electrons        8 beta electrons
       nuclear repulsion energy        33.0727987505 Hartrees.
 NAtoms=    6 NActive=    6 NUniq=    6 SFac= 1.00D+00 NAtFMM=   60 NAOKFM=F Big=F
 Integral buffers will be    131072 words long.
 Raffenetti 2 integral format.
 Two-electron integral symmetry is turned off.
 Nuclear repulsion after empirical dispersion term =       33.0719584028 Hartrees.
 One-electron integrals computed using PRISM.
 NBasis=    38 RedAO= T EigKep=  6.40D-03  NBF=    38
 NBsUse=    38 1.00D-06 EigRej= -1.00D+00 NBFU=    38
 Initial guess from the checkpoint file:  "geometry.chk"
 B after Tr=    -0.000159   -0.000252   -0.000368
         Rot=    1.000000    0.000001    0.000000    0.000005 Ang=   0.00 deg.
 Keep R1 ints in memory in canonical form, NReq=4036876.
 Requested convergence on RMS density matrix=1.00D-08 within  32 cycles.
 Requested convergence on MAX density matrix=1.00D-06.
 Requested convergence on             energy=1.00D-06.
 No special actions if energy rises.
 SCF Done:  E(RwB97XD) =  -78.5554982866     A.U. after    8 cycles
            NFock=  8  Conv=0.51D-08     -V/T= 2.0052
 QCSCF skips out because SCF is already converged.

 **********************************************************************

            Population analysis using the SCF Density.

 **********************************************************************

 Alpha  occ. eigenvalues --  -10.29153 -10.28695  -0.86406  -0.67193  -0.55919
 Alpha  occ. eigenvalues --   -0.50988  -0.43585  -0.35716
 Alpha virt. eigenvalues --    0.08012   0.14087   0.16439   0.16994   0.24072
 Alpha virt. eigenvalues --    0.37528   0.39240   0.39857   0.46282   0.48850
 Alpha virt. eigenvalues --    0.49358   0.59113   0.66497   0.69109   0.77148
 Alpha virt. eigenvalues --    0.77693   0.84247   0.95326   2.23170   2.28950
 Alpha virt. eigenvalues --    2.33353   2.40721   2.67134   2.81765   2.87822
 Alpha virt. eigenvalues --    2.95111   3.14121   3.31811  23.35160  23.70699
     Molecular Orbital Coefficients:
                           1         2         3         4         5
                           O         O         O         O         O
     Eigenvalues --   -10.29153 -10.28695  -0.86406  -0.67193  -0.55919
   1 1   C  1S          0.05472   0.56072  -0.08887   0.06622  -0.00040
   2        2S          0.04523   0.46148  -0.14047   0.10607  -0.00065
   3        2PX         0.00016   0.00000   0.02577   0.03781   0.13951
   4        2PY         0.00028   0.00001   0.04610   0.06202  -0.07410
   5        2PZ         0.00000  -0.00001  -0.00112   0.00170   0.00018
   6        3S          0.00055   0.01467   0.37668  -0.28936   0.00179
   7        3PX        -0.00065   0.00037   0.03403   0.06031   0.21822
   8        3PY        -0.00110   0.00067   0.06046   0.10008  -0.11690
   9        3PZ        -0.00001  -0.00003  -0.00187   0.00301   0.00026
  10        4S          0.00452  -0.01441   0.19194  -0.22478   0.00116
  11        4PX         0.00163  -0.00141   0.00463   0.02404   0.11261
  12        4PY         0.00279  -0.00243   0.00832   0.04117  -0.06116
  13        4PZ        -0.00000   0.00007  -0.00065   0.00150   0.00013
  14 2   H  1S         -0.00004  -0.00007   0.05319  -0.08813   0.10340
  15        2S         -0.00031   0.00008   0.05424  -0.10568   0.13064
  16        3S          0.00069   0.00176  -0.00168  -0.01531   0.04235
  17 3   H  1S         -0.00005  -0.00008   0.05464  -0.09187  -0.10696
  18        2S         -0.00031   0.00006   0.05514  -0.10922  -0.13405
  19        3S          0.00071   0.00180  -0.00172  -0.01626  -0.04338
  20 4   C  1S          0.56075  -0.05491  -0.08646  -0.06888  -0.00018
  21        2S          0.46152  -0.04499  -0.13651  -0.11045  -0.00028
  22        2PX        -0.00001  -0.00016  -0.02810   0.03620   0.11610
  23        2PY        -0.00001  -0.00029  -0.04747   0.06490  -0.07349
  24        2PZ        -0.00000   0.00000  -0.00088  -0.00170   0.00019
  25        3S          0.01426  -0.00229   0.36577   0.30181   0.00075
  26        3PX        -0.00028   0.00071  -0.03521   0.05914   0.18209
  27        3PY        -0.00045   0.00123  -0.05941   0.10534  -0.11414
  28        3PZ        -0.00003  -0.00001  -0.00152  -0.00310   0.00029
  29        4S         -0.01290   0.00733   0.18838   0.23978  -0.00054
  30        4PX         0.00105  -0.00182  -0.00556   0.02601   0.10065
  31        4PY         0.00179  -0.00320  -0.00935   0.04496  -0.06222
  32        4PZ         0.00006  -0.00001  -0.00064  -0.00161   0.00015
  33 5   H  1S         -0.00005  -0.00005   0.04888   0.09288  -0.08852
  34        2S          0.00000  -0.00031   0.05025   0.11151  -0.11200
  35        3S          0.00176   0.00030  -0.00118   0.01675  -0.03592
  36 6   H  1S         -0.00004  -0.00004   0.04766   0.09064   0.08375
  37        2S          0.00000  -0.00032   0.04952   0.10945   0.10650
  38        3S          0.00172   0.00028  -0.00122   0.01613   0.03451
                           6         7         8         9        10
                           O         O         O         V         V
     Eigenvalues --    -0.50988  -0.43585  -0.35716   0.08012   0.14087
   1 1   C  1S         -0.00414   0.00022  -0.00084   0.00229  -0.03147
   2        2S         -0.00628   0.00039  -0.00137   0.00380  -0.05043
   3        2PX         0.09343  -0.11005  -0.00286   0.00119  -0.03037
   4        2PY         0.16807   0.06517  -0.00493   0.00202  -0.06337
   5        2PZ         0.00435   0.00002   0.17942  -0.18887  -0.00169
   6        3S          0.02289  -0.00093   0.00401  -0.01154   0.10870
   7        3PX         0.13549  -0.17515  -0.00404   0.00180  -0.03594
   8        3PY         0.24559   0.10424  -0.00696   0.00304  -0.07901
   9        3PZ         0.00688   0.00007   0.28879  -0.27810  -0.00276
  10        4S         -0.04912  -0.00336   0.00579  -0.01225   1.17982
  11        4PX         0.06828  -0.10917  -0.00329   0.01053  -0.18727
  12        4PY         0.12493   0.06570  -0.00570   0.01783  -0.37826
  13        4PZ         0.00390   0.00008   0.26693  -0.69607  -0.01021
  14 2   H  1S         -0.08068  -0.11432   0.00014   0.00358  -0.01534
  15        2S         -0.11111  -0.17621   0.00176   0.00559  -0.04564
  16        3S         -0.04152  -0.08152   0.00105   0.01459  -0.80716
  17 3   H  1S         -0.07808   0.11200   0.00007   0.00358  -0.01119
  18        2S         -0.10682   0.17176   0.00165   0.00565  -0.03535
  19        3S         -0.03955   0.07928   0.00100   0.01433  -0.73777
  20 4   C  1S         -0.00782  -0.00048  -0.00069  -0.00230  -0.03796
  21        2S         -0.01220  -0.00080  -0.00113  -0.00381  -0.06100
  22        2PX        -0.09876   0.12534   0.00283   0.00150   0.04253
  23        2PY        -0.16251  -0.07371   0.00517   0.00270   0.06275
  24        2PZ         0.00456   0.00018   0.17930   0.18958  -0.00297
  25        3S          0.03994   0.00227   0.00335   0.01138   0.13537
  26        3PX        -0.14615   0.20139   0.00394   0.00227   0.05214
  27        3PY        -0.23870  -0.11767   0.00725   0.00411   0.07395
  28        3PZ         0.00722   0.00026   0.28670   0.27766  -0.00447
  29        4S         -0.03413   0.00326   0.00569   0.01391   1.27949
  30        4PX        -0.07625   0.12977   0.00304   0.01131   0.27161
  31        4PY        -0.12300  -0.07494   0.00568   0.02015   0.41910
  32        4PZ         0.00418   0.00015   0.26691   0.69758  -0.01717
  33 5   H  1S         -0.07512  -0.12501   0.00021  -0.00347  -0.01377
  34        2S         -0.10303  -0.19571   0.00183  -0.00589  -0.03966
  35        3S         -0.03838  -0.09223   0.00102  -0.01573  -0.84429
  36 6   H  1S         -0.08074   0.12493   0.00013  -0.00346  -0.01783
  37        2S         -0.11121   0.19658   0.00170  -0.00587  -0.04959
  38        3S         -0.04164   0.09272   0.00093  -0.01593  -0.91535
                          11        12        13        14        15
                           V         V         V         V         V
     Eigenvalues --     0.16439   0.16994   0.24072   0.37528   0.39240
   1 1   C  1S          0.00113  -0.04644   0.00005   0.01053   0.00141
   2        2S          0.00182  -0.07568   0.00007   0.01464   0.00231
   3        2PX         0.09553  -0.02067   0.10071  -0.03616  -0.02339
   4        2PY        -0.05248  -0.03873  -0.05771  -0.06615   0.00814
   5        2PZ         0.00008  -0.00573   0.00000  -0.00396  -0.00016
   6        3S         -0.00382   0.17069   0.00022   0.03244  -0.00237
   7        3PX         0.13707  -0.01200   0.10640  -0.04669  -0.10718
   8        3PY        -0.07638  -0.02574  -0.06202  -0.09065   0.04462
   9        3PZ         0.00011  -0.00795  -0.00005  -0.00799  -0.00011
  10        4S         -0.05463   1.48248  -0.01793  -2.71418  -0.24335
  11        4PX         0.57480  -0.12556   1.17470  -1.58901  -0.55845
  12        4PY        -0.30683  -0.22096  -0.67025  -2.77382   0.14194
  13        4PZ         0.00060  -0.03756   0.00054  -0.03672  -0.00197
  14 2   H  1S         -0.02963  -0.02493   0.01398  -0.05554   0.07596
  15        2S         -0.08230  -0.01674  -0.02139  -0.64085   0.78014
  16        3S         -1.01928  -1.03526  -1.56556  -0.33925  -0.31927
  17 3   H  1S          0.02888  -0.02453  -0.01617  -0.04808  -0.07520
  18        2S          0.08142  -0.02003   0.01567  -0.58178  -0.74893
  19        3S          1.08952  -1.04272   1.59374  -0.41440   0.23165
  20 4   C  1S          0.00151   0.04133  -0.00009  -0.02018  -0.00002
  21        2S          0.00241   0.06730  -0.00017  -0.03309   0.00020
  22        2PX         0.10291  -0.02271  -0.09976  -0.04183  -0.03248
  23        2PY        -0.06279  -0.03601   0.05720  -0.07445   0.01333
  24        2PZ         0.00019   0.00549  -0.00002   0.00300   0.00036
  25        3S         -0.00489  -0.15000   0.00034   0.04315  -0.00552
  26        3PX         0.14826  -0.01806  -0.11352  -0.09370  -0.10886
  27        3PY        -0.08914  -0.02588   0.06385  -0.16963   0.05888
  28        3PZ         0.00026   0.00758   0.00001   0.00384   0.00078
  29        4S         -0.06814  -1.28737   0.01234   3.38603   0.18264
  30        4PX         0.54182  -0.11068  -1.11579  -1.22170  -0.56245
  31        4PY        -0.33769  -0.18418   0.64834  -2.14774   0.04028
  32        4PZ         0.00121   0.03558  -0.00063   0.03060   0.00275
  33 5   H  1S          0.03188   0.02526   0.00561   0.01170  -0.07957
  34        2S          0.06876   0.02345  -0.03566   0.08830  -0.77019
  35        3S          1.08953   0.90303  -1.50024   0.45799   0.49846
  36 6   H  1S         -0.03190   0.02607  -0.00409   0.00656   0.08915
  37        2S         -0.06922   0.02165   0.03746   0.04088   0.90881
  38        3S         -0.99833   0.91159   1.48111   0.47150  -0.47557
                          16        17        18        19        20
                           V         V         V         V         V
     Eigenvalues --     0.39857   0.46282   0.48850   0.49358   0.59113
   1 1   C  1S         -0.01727   0.01498  -0.04550  -0.00020  -0.00045
   2        2S         -0.03053   0.03304  -0.07562  -0.00010  -0.00081
   3        2PX         0.02418  -0.06211   0.00922   0.00094   0.00173
   4        2PY         0.04589  -0.10787   0.01047   0.00136   0.00266
   5        2PZ         0.00013  -0.00048   0.00409  -0.15135  -0.19277
   6        3S          0.07324  -0.33994   0.07016  -0.00855  -0.00076
   7        3PX         0.09543  -0.23912  -0.04544   0.00015   0.00577
   8        3PY         0.18709  -0.41356  -0.08921  -0.00057   0.00896
   9        3PZ        -0.00359  -0.00403   0.01838  -0.62705  -0.68621
  10        4S          2.54815  -0.09237   3.17735   0.07374   0.05971
  11        4PX         0.15361   0.16409   0.81197   0.02365   0.01833
  12        4PY         0.33515   0.31707   1.40842   0.04215   0.03190
  13        4PZ        -0.00223   0.00335  -0.07444   0.68415   1.24244
  14 2   H  1S         -0.02517  -0.03013  -0.07815  -0.00218  -0.00142
  15        2S         -0.52892  -0.27853  -0.94411  -0.02090  -0.01066
  16        3S          0.26887   0.02379   0.63632   0.02482   0.01964
  17 3   H  1S         -0.03628  -0.03245  -0.07620  -0.00213  -0.00136
  18        2S         -0.63476  -0.30567  -0.91844  -0.02047  -0.00959
  19        3S          0.29273   0.02491   0.60286   0.02400   0.01927
  20 4   C  1S         -0.00229  -0.00565   0.05105   0.00253   0.00060
  21        2S         -0.00730  -0.00195   0.08929   0.00460   0.00112
  22        2PX         0.00640   0.05324   0.02946   0.00006   0.00170
  23        2PY         0.01505   0.09153   0.05373   0.00003   0.00329
  24        2PZ        -0.00314  -0.00156   0.00417  -0.15304   0.19220
  25        3S          0.08225  -0.27254  -0.25203  -0.01835  -0.00230
  26        3PX        -0.04999   0.23080   0.06637   0.00022   0.00600
  27        3PY        -0.06922   0.40147   0.11823  -0.00014   0.01149
  28        3PZ        -0.00900  -0.00621   0.01506  -0.63221   0.68159
  29        4S         -0.72622   0.95330  -3.01648  -0.08850  -0.05175
  30        4PX         1.17257  -0.41161   0.61456   0.01201   0.01865
  31        4PY         2.14679  -0.68663   1.04922   0.02033   0.03153
  32        4PZ        -0.02661  -0.01507   0.02985   0.69530  -1.23725
  33 5   H  1S         -0.05125  -0.06742   0.06049   0.00188   0.00133
  34        2S         -0.87562  -0.68407   0.75371   0.02817   0.00485
  35        3S         -0.13883   0.31813  -0.54314  -0.00782  -0.01932
  36 6   H  1S         -0.03955  -0.06612   0.06078   0.00191   0.00136
  37        2S         -0.74566  -0.66647   0.75351   0.02806   0.00532
  38        3S         -0.18137   0.33423  -0.56291  -0.00887  -0.01966
                          21        22        23        24        25
                           V         V         V         V         V
     Eigenvalues --     0.66497   0.69109   0.77148   0.77693   0.84247
   1 1   C  1S          0.00087  -0.00065   0.05044   0.07408   0.00102
   2        2S          0.00179  -0.00142   0.10635   0.15791   0.00234
   3        2PX        -0.11603   0.20780  -0.02737   0.11378  -0.00747
   4        2PY         0.06739  -0.12488  -0.04653   0.18451   0.01372
   5        2PZ        -0.00001   0.00011   0.00053   0.00415   0.00015
   6        3S         -0.01367   0.01747  -0.71011  -1.36110  -0.02563
   7        3PX        -0.56028   0.74333  -0.18220   0.44521  -0.21343
   8        3PY         0.32201  -0.44632  -0.31126   0.71136   0.16143
   9        3PZ        -0.00017   0.00045   0.00201   0.01450   0.00056
  10        4S          0.01712  -0.07248   0.64840   2.48567  -0.00539
  11        4PX         1.06497  -0.85380   0.17634  -0.76859   4.49967
  12        4PY        -0.61336   0.52341   0.20145  -0.99919  -2.57269
  13        4PZ         0.00018   0.00117   0.00869  -0.04639   0.00247
  14 2   H  1S          0.01848  -0.06072   0.01022   0.03232  -0.02708
  15        2S          0.06925  -0.65273   0.07661   0.10425  -1.56398
  16        3S         -0.96745   1.19203  -0.08937  -1.10386  -1.23617
  17 3   H  1S         -0.01768   0.06010   0.01019   0.03299   0.03064
  18        2S         -0.07936   0.68680   0.10760   0.06659   1.60541
  19        3S          0.96090  -1.15054  -0.06593  -1.26106   1.23154
  20 4   C  1S          0.00104  -0.00048   0.08352   0.03176   0.00062
  21        2S          0.00214  -0.00091   0.17776   0.06696   0.00121
  22        2PX        -0.16576  -0.17252  -0.09669   0.05062   0.01308
  23        2PY         0.09467   0.09533  -0.17523   0.09365   0.00067
  24        2PZ        -0.00008  -0.00014   0.00425  -0.00085  -0.00014
  25        3S         -0.01635   0.00028  -1.48875  -0.38992  -0.00415
  26        3PX        -0.72735  -0.56665  -0.35313   0.27133   0.25416
  27        3PY         0.41850   0.30960  -0.64627   0.49983  -0.10644
  28        3PZ        -0.00039  -0.00048   0.01505  -0.00322  -0.00041
  29        4S          0.01805   0.04112   2.70603   0.15401  -0.00505
  30        4PX         1.29716   0.63889   0.50028  -0.22177  -4.17857
  31        4PY        -0.74232  -0.34206   1.01505  -0.66128   2.38785
  32        4PZ         0.00054  -0.00087  -0.04452   0.02086  -0.00236
  33 5   H  1S         -0.02970  -0.05295   0.03503   0.00311  -0.02325
  34        2S         -0.19811  -0.54235   0.05891   0.08049  -1.41246
  35        3S          1.16998   0.87686  -1.15974   0.28592  -1.08856
  36 6   H  1S          0.03038   0.05282   0.03454   0.00373   0.02266
  37        2S          0.18767   0.51182   0.06560   0.01702   1.39510
  38        3S         -1.17514  -0.89822  -1.07720   0.20425   1.09889
                          26        27        28        29        30
                           V         V         V         V         V
     Eigenvalues --     0.95326   2.23170   2.28950   2.33353   2.40721
   1 1   C  1S          0.09573  -0.01085  -0.01477  -0.00042  -0.00050
   2        2S          0.19895   0.00039  -0.01548  -0.00088  -0.00063
   3        2PX        -0.09169  -0.08090  -0.13052  -0.33633  -0.41498
   4        2PY        -0.15893  -0.15218  -0.23128   0.19030   0.23451
   5        2PZ         0.00013  -0.01165  -0.01512  -0.00001  -0.00053
   6        3S         -1.53956  -0.18388  -0.03016   0.00131  -0.00447
   7        3PX        -0.23649   0.07615   0.20573   0.39731   0.57717
   8        3PY        -0.40224   0.15796   0.37725  -0.22681  -0.32820
   9        3PZ        -0.00221   0.01157   0.01884  -0.00009   0.00058
  10        4S          5.71726  -0.13271  -0.89801  -0.00387  -0.01787
  11        4PX         1.20720   0.05476  -0.18524   0.02954   0.98422
  12        4PY         1.99013   0.07266  -0.35419  -0.00977  -0.54255
  13        4PZ        -0.01546   0.00310   0.00714   0.00023   0.00123
  14 2   H  1S          0.01505  -0.72191  -0.78420   0.68476   0.67262
  15        2S         -0.29087   1.02989   1.17795  -1.04595  -1.48973
  16        3S         -0.09424  -0.30450  -0.46822   0.45495   0.37698
  17 3   H  1S          0.01542  -0.71293  -0.77635  -0.68200  -0.69485
  18        2S         -0.25893   1.01752   1.17123   1.04528   1.53623
  19        3S         -0.07353  -0.28169  -0.44625  -0.44736  -0.36792
  20 4   C  1S         -0.09402  -0.00959   0.01186  -0.00043   0.00029
  21        2S         -0.19505   0.00141   0.01136  -0.00063   0.00053
  22        2PX        -0.09291   0.13180  -0.12533  -0.31454   0.41081
  23        2PY        -0.16044   0.22982  -0.21225   0.18159  -0.23674
  24        2PZ         0.00025  -0.01222   0.01522  -0.00023   0.00027
  25        3S          1.50742  -0.17094   0.02200  -0.00021   0.00012
  26        3PX        -0.22858  -0.17019   0.21682   0.39925  -0.57685
  27        3PY        -0.40108  -0.29172   0.35895  -0.22751   0.33276
  28        3PZ         0.00297   0.01327  -0.01947   0.00023  -0.00036
  29        4S         -5.68720  -0.14470   0.87999  -0.01166   0.00260
  30        4PX         1.10447  -0.01148  -0.20347  -0.09593  -0.84944
  31        4PY         1.99477  -0.03047  -0.32289   0.05215   0.50126
  32        4PZ         0.01086   0.00341  -0.00534   0.00010  -0.00105
  33 5   H  1S         -0.01832  -0.77855   0.69082  -0.72176   0.66507
  34        2S          0.28815   1.12821  -1.05258   1.05693  -1.42537
  35        3S          0.05296  -0.35546   0.41175  -0.52314   0.41666
  36 6   H  1S         -0.01826  -0.77160   0.70700   0.71427  -0.66387
  37        2S          0.31373   1.11488  -1.07041  -1.04267   1.41486
  38        3S          0.06483  -0.35657   0.43584   0.52330  -0.42556
                          31        32        33        34        35
                           V         V         V         V         V
     Eigenvalues --     2.67134   2.81765   2.87822   2.95111   3.14121
   1 1   C  1S          0.00043   0.00213  -0.01308   0.00008  -0.00962
   2        2S          0.00034   0.00623  -0.04400  -0.00006  -0.02941
   3        2PX         0.00418   0.06157  -0.46848  -0.72786   0.45553
   4        2PY         0.00673   0.10882  -0.84407   0.41258   0.79060
   5        2PZ        -0.92209  -0.93502  -0.11901  -0.00057   0.00611
   6        3S         -0.00131  -0.05179   0.38883   0.00254   0.24695
   7        3PX        -0.00290  -0.10732   0.83498   0.87905  -0.44508
   8        3PY        -0.00473  -0.18781   1.47837  -0.48633  -0.76831
   9        3PZ         0.93631   1.14286   0.14950   0.00084  -0.00791
  10        4S          0.01087   0.11987  -0.87379  -0.00846  -0.47919
  11        4PX        -0.00192   0.08648  -0.71633  -0.66088   0.23205
  12        4PY        -0.00270   0.15199  -1.27155   0.35578   0.39248
  13        4PZ        -0.33641  -0.61889  -0.09483  -0.00072   0.00490
  14 2   H  1S          0.01014  -0.01727   0.26393  -0.37321  -0.21667
  15        2S         -0.01157   0.01100  -0.22095   0.37934   0.16294
  16        3S         -0.00268   0.03520  -0.30120   0.27812   0.06297
  17 3   H  1S          0.01026  -0.01670   0.25501   0.37212  -0.21986
  18        2S         -0.01183   0.00956  -0.20363  -0.37403   0.16585
  19        3S         -0.00309   0.03558  -0.30424  -0.29396   0.07380
  20 4   C  1S          0.00043  -0.00213   0.01391   0.00051  -0.00707
  21        2S          0.00042  -0.00661   0.04850   0.00111  -0.02278
  22        2PX        -0.00633   0.05578  -0.41653  -0.80508  -0.49938
  23        2PY        -0.01151   0.09897  -0.73305   0.44727  -0.88599
  24        2PZ        -0.92744   0.92906   0.12148   0.00010   0.01072
  25        3S         -0.00239   0.05682  -0.43571  -0.00795   0.19912
  26        3PX         0.00668  -0.10127   0.77910   0.95431   0.53072
  27        3PY         0.01195  -0.17862   1.36742  -0.52507   0.95012
  28        3PZ         0.94341  -1.13703  -0.15300  -0.00008  -0.01343
  29        4S          0.01341  -0.12372   0.91667   0.02425  -0.38182
  30        4PX        -0.00092   0.08615  -0.71453  -0.69798  -0.31959
  31        4PY        -0.00193   0.15054  -1.24302   0.38093  -0.57578
  32        4PZ        -0.34016   0.61643   0.09765  -0.00001   0.01048
  33 5   H  1S          0.00990   0.02349  -0.29431   0.42101  -0.26064
  34        2S         -0.01226  -0.01908   0.26766  -0.43686   0.20536
  35        3S         -0.00102  -0.03230   0.27934  -0.23884   0.12086
  36 6   H  1S          0.00999   0.02367  -0.29358  -0.43076  -0.24820
  37        2S         -0.01262  -0.01993   0.27283   0.44625   0.19553
  38        3S         -0.00064  -0.03077   0.26625   0.23801   0.11278
                          36        37        38
                           V         V         V
     Eigenvalues --     3.31811  23.35160  23.70699
   1 1   C  1S         -0.00036  -1.40763  -1.45849
   2        2S         -0.00048   1.50112   1.57719
   3        2PX         0.78700  -0.00672   0.01196
   4        2PY        -0.43980  -0.01096   0.02104
   5        2PZ         0.00071  -0.00048  -0.00021
   6        3S         -0.00107  -0.29406  -0.40130
   7        3PX        -1.12796   0.02492  -0.05559
   8        3PY         0.62479   0.04128  -0.09691
   9        3PZ        -0.00112   0.00134   0.00062
  10        4S         -0.00463   0.26925   0.77264
  11        4PX         1.98106  -0.02787   0.13343
  12        4PY        -1.09583  -0.04696   0.22955
  13        4PZ         0.00190  -0.00222  -0.00257
  14 2   H  1S          0.56409   0.01375   0.00768
  15        2S         -0.87652   0.00742  -0.01532
  16        3S         -0.46935  -0.08458  -0.03996
  17 3   H  1S         -0.57533   0.01559   0.00891
  18        2S          0.89282   0.00699  -0.01530
  19        3S          0.49648  -0.08694  -0.04006
  20 4   C  1S          0.00012  -1.45367   1.41241
  21        2S         -0.00014   1.55045  -1.52758
  22        2PX        -0.70692   0.00572   0.01274
  23        2PY         0.40791   0.01037   0.02167
  24        2PZ        -0.00067  -0.00046   0.00011
  25        3S          0.00457  -0.30464   0.38957
  26        3PX         1.00447  -0.02133  -0.05699
  27        3PY        -0.58844  -0.03818  -0.09796
  28        3PZ         0.00102   0.00131  -0.00029
  29        4S         -0.01693   0.28406  -0.75968
  30        4PX        -1.77032   0.02160   0.13162
  31        4PY         1.04442   0.03974   0.22846
  32        4PZ        -0.00171  -0.00216   0.00189
  33 5   H  1S          0.48261   0.01241  -0.00391
  34        2S         -0.75535   0.00852   0.01302
  35        3S         -0.42265  -0.08253   0.03647
  36 6   H  1S         -0.47572   0.01094  -0.00280
  37        2S          0.74727   0.00958   0.01274
  38        3S          0.40944  -0.08059   0.03606
     Density Matrix:
                           1         2         3         4         5
   1 1   C  1S          0.65940
   2        2S          0.56154   0.49207
   3        2PX        -0.00048  -0.00064   0.08481
   4        2PY        -0.00123  -0.00171   0.00348   0.08796
   5        2PZ         0.00008   0.00012  -0.00010  -0.00022   0.06443
   6        3S         -0.08897  -0.15392   0.00249   0.00610  -0.00019
   7        3PX         0.00092   0.00141   0.13109   0.00103  -0.00007
   8        3PY         0.00126   0.00193   0.00105   0.13152  -0.00020
   9        3PZ         0.00015   0.00026  -0.00018  -0.00036   0.10370
  10        4S         -0.07916  -0.11390  -0.01525  -0.02736   0.00046
  11        4PX         0.00026   0.00156   0.07028  -0.00453  -0.00048
  12        4PY         0.00061   0.00299  -0.00461   0.06555  -0.00086
  13        4PZ        -0.00009  -0.00022  -0.00070  -0.00120   0.09582
  14 2   H  1S         -0.02067  -0.03292   0.03501  -0.06337  -0.00104
  15        2S         -0.02284  -0.03653   0.04927  -0.08780  -0.00078
  16        3S          0.00059  -0.00069   0.02075  -0.03292  -0.00002
  17 3   H  1S         -0.02120  -0.03371  -0.07322  -0.00216  -0.00112
  18        2S         -0.02317  -0.03699  -0.10059  -0.00213  -0.00087
  19        3S          0.00064  -0.00063  -0.03827   0.00128  -0.00005
  20 4   C  1S          0.00610   0.00983  -0.01088  -0.01886  -0.00036
  21        2S          0.00979   0.01531  -0.01741  -0.03018  -0.00058
  22        2PX         0.01038   0.01660  -0.01238  -0.03220   0.00039
  23        2PY         0.01807   0.02890  -0.03222  -0.04972   0.00074
  24        2PZ        -0.00041  -0.00066  -0.00033  -0.00053   0.06437
  25        3S         -0.02639  -0.04007   0.04883   0.08474   0.00175
  26        3PX         0.01600   0.02481  -0.01820  -0.04581   0.00050
  27        3PY         0.02784   0.04316  -0.04569  -0.07114   0.00097
  28        3PZ        -0.00069  -0.00112  -0.00058  -0.00093   0.10293
  29        4S          0.00536   0.00396   0.02055   0.03608   0.00214
  30        4PX         0.00311   0.00641  -0.01307  -0.02095   0.00057
  31        4PY         0.00525   0.01093  -0.02096  -0.03723   0.00112
  32        4PZ        -0.00059  -0.00095  -0.00089  -0.00149   0.09581
  33 5   H  1S          0.00419   0.00688  -0.00168  -0.01240  -0.00041
  34        2S          0.00634   0.01053   0.00359  -0.02509  -0.00002
  35        3S          0.00326   0.00477   0.00431  -0.01764   0.00007
  36 6   H  1S          0.00414   0.00680  -0.00991  -0.00763  -0.00042
  37        2S          0.00625   0.01041  -0.02352  -0.00942  -0.00005
  38        3S          0.00322   0.00473  -0.01741  -0.00515   0.00005
                           6         7         8         9        10
   6        3S          0.45276
   7        3PX        -0.00197   0.20294
   8        3PY        -0.00177  -0.00474   0.19714
   9        3PZ        -0.00052  -0.00014  -0.00031   0.16692
  10        4S          0.27208  -0.02574  -0.04699   0.00060   0.18011
  11        4PX        -0.00675   0.10913  -0.01014  -0.00079  -0.01472
  12        4PY        -0.01229  -0.01028   0.09868  -0.00138  -0.02814
  13        4PZ         0.00096  -0.00094  -0.00159   0.15424   0.00178
  14 2   H  1S          0.08796   0.05630  -0.09885  -0.00172   0.06898
  15        2S          0.09775   0.07956  -0.13647  -0.00131   0.08075
  16        3S          0.00606   0.03382  -0.05057  -0.00004   0.01093
  17 3   H  1S          0.09016  -0.11444  -0.00178  -0.00183   0.06895
  18        2S          0.09908  -0.15705  -0.00053  -0.00142   0.07931
  19        3S          0.00606  -0.05951   0.00377  -0.00007   0.00987
  20 4   C  1S         -0.02663  -0.01698  -0.02945  -0.00061   0.00519
  21        2S         -0.04030  -0.02638  -0.04577  -0.00098   0.00391
  22        2PX        -0.04645  -0.01757  -0.04571   0.00067  -0.01790
  23        2PY        -0.08085  -0.04573  -0.07083   0.00127  -0.03104
  24        2PZ         0.00197  -0.00046  -0.00071   0.10361   0.00205
  25        3S          0.10270   0.07161   0.12447   0.00293   0.00103
  26        3PX        -0.06712  -0.02597  -0.06484   0.00088  -0.02666
  27        3PY        -0.11674  -0.06468  -0.10129   0.00168  -0.04614
  28        3PZ         0.00327  -0.00080  -0.00126   0.16568   0.00341
  29        4S          0.00183   0.03109   0.05478   0.00356  -0.03241
  30        4PX        -0.02264  -0.01946  -0.02944   0.00095  -0.00688
  31        4PY        -0.03883  -0.02950  -0.05371   0.00185  -0.01119
  32        4PZ         0.00278  -0.00125  -0.00206   0.15421   0.00316
  33 5   H  1S         -0.02045  -0.00067  -0.01777  -0.00060  -0.01497
  34        2S         -0.03142   0.00861  -0.03685   0.00004  -0.01963
  35        3S         -0.01228   0.00816  -0.02649   0.00013  -0.00366
  36 6   H  1S         -0.02018  -0.01492  -0.00929  -0.00061  -0.01516
  37        2S         -0.03111  -0.03596  -0.01067   0.00001  -0.02032
  38        3S         -0.01219  -0.02685  -0.00613   0.00010  -0.00415
                          11        12        13        14        15
  11        4PX         0.05975
  12        4PY        -0.00895   0.05095
  13        4PZ        -0.00115  -0.00196   0.14254
  14 2   H  1S          0.03349  -0.05420  -0.00088   0.08173
  15        2S          0.04813  -0.07472  -0.00031   0.10963   0.14915
  16        3S          0.02091  -0.02757   0.00019   0.03662   0.05208
  17 3   H  1S         -0.06312   0.00164  -0.00093  -0.01312  -0.02472
  18        2S         -0.08703   0.00418  -0.00036  -0.02464  -0.04274
  19        3S         -0.03329   0.00446   0.00018  -0.01803  -0.02723
  20 4   C  1S         -0.00313  -0.00570  -0.00054   0.00424   0.00668
  21        2S         -0.00649  -0.01168  -0.00086   0.00701   0.01116
  22        2PX        -0.01324  -0.01993   0.00093   0.00192  -0.00258
  23        2PY        -0.02000  -0.03680   0.00172   0.01139   0.02404
  24        2PZ        -0.00064  -0.00106   0.09575  -0.00048  -0.00013
  25        3S          0.02305   0.04118   0.00253  -0.02109  -0.03359
  26        3PX        -0.02043  -0.02809   0.00127   0.00102  -0.00723
  27        3PY        -0.02815  -0.05355   0.00235   0.01693   0.03601
  28        3PZ        -0.00106  -0.00174   0.15311  -0.00070  -0.00012
  29        4S          0.00768   0.01467   0.00325  -0.01757  -0.02392
  30        4PX        -0.01489  -0.01228   0.00116  -0.00173  -0.00858
  31        4PY        -0.01240  -0.02946   0.00219   0.01520   0.02699
  32        4PZ        -0.00127  -0.00214   0.14252  -0.00039   0.00027
  33 5   H  1S          0.00202  -0.01591  -0.00030   0.01123   0.02329
  34        2S          0.00925  -0.02776   0.00038   0.02390   0.04449
  35        3S          0.00760  -0.01596   0.00027   0.01677   0.02798
  36 6   H  1S         -0.01464  -0.00575  -0.00031  -0.00912  -0.01819
  37        2S         -0.02841  -0.00516   0.00036  -0.01900  -0.03449
  38        3S         -0.01740  -0.00114   0.00025  -0.01032  -0.01795
                          16        17        18        19        20
  16        3S          0.02081
  17 3   H  1S         -0.01821   0.08302
  18        2S         -0.02732   0.10993   0.14771
  19        3S         -0.01280   0.03601   0.05068   0.02001
  20 4   C  1S          0.00369   0.00431   0.00671   0.00370   0.65948
  21        2S          0.00544   0.00712   0.01118   0.00542   0.56155
  22        2PX        -0.00341   0.00894   0.02203   0.01654   0.00126
  23        2PY         0.01747   0.00748   0.00970   0.00561   0.00193
  24        2PZ         0.00004  -0.00047  -0.00010   0.00007   0.00006
  25        3S         -0.01408  -0.02137  -0.03354  -0.01391  -0.08921
  26        3PX        -0.00696   0.01427   0.03479   0.02590  -0.00043
  27        3PY         0.02633   0.00949   0.01164   0.00693  -0.00100
  28        3PZ         0.00008  -0.00069  -0.00007   0.00012   0.00015
  29        4S         -0.00570  -0.01729  -0.02302  -0.00516  -0.08035
  30        4PX        -0.00708   0.01406   0.02760   0.01705  -0.00022
  31        4PY         0.01582   0.00645   0.00638   0.00182  -0.00020
  32        4PZ         0.00025  -0.00039   0.00028   0.00027  -0.00004
  33 5   H  1S          0.01611  -0.00906  -0.01806  -0.00939  -0.01997
  34        2S          0.02740  -0.01879  -0.03400  -0.01696  -0.02217
  35        3S          0.01468  -0.01019  -0.01764  -0.00901   0.00054
  36 6   H  1S         -0.00951   0.01123   0.02317   0.01582  -0.01965
  37        2S         -0.01731   0.02392   0.04429   0.02700  -0.02209
  38        3S         -0.00922   0.01679   0.02784   0.01449   0.00044
                          21        22        23        24        25
  21        2S          0.49201
  22        2PX         0.00182   0.08210
  23        2PY         0.00276   0.00395   0.08747
  24        2PZ         0.00010   0.00013   0.00018   0.06434
  25        3S         -0.15415  -0.00583  -0.00895  -0.00011   0.45339
  26        3PX        -0.00064   0.12792   0.00211   0.00008  -0.00053
  27        3PY        -0.00152   0.00216   0.13109   0.00008   0.00038
  28        3PZ         0.00025   0.00019   0.00028   0.10289  -0.00048
  29        4S         -0.11615   0.01423   0.02398   0.00058   0.27947
  30        4PX        -0.00151   0.07318  -0.00521   0.00040   0.00635
  31        4PY        -0.00229  -0.00512   0.06695   0.00073   0.01015
  32        4PZ        -0.00012   0.00067   0.00121   0.09576   0.00069
  33 5   H  1S         -0.03182  -0.03307   0.06327  -0.00109   0.08512
  34        2S         -0.03543  -0.04946   0.08852  -0.00086   0.09479
  35        3S         -0.00068  -0.02260   0.03365  -0.00009   0.00577
  36 6   H  1S         -0.03134   0.07060   0.00276  -0.00101   0.08382
  37        2S         -0.03533   0.10113   0.00103  -0.00076   0.09447
  38        3S         -0.00082   0.04072  -0.00299  -0.00005   0.00604
                          26        27        28        29        30
  26        3PX         0.19965
  27        3PY        -0.00249   0.19707
  28        3PZ         0.00010   0.00011   0.16453
  29        4S          0.02625   0.04390   0.00072   0.18883
  30        4PX         0.11470  -0.01094   0.00062   0.01630   0.06701
  31        4PY        -0.01087   0.10122   0.00116   0.02599  -0.01072
  32        4PZ         0.00085   0.00154   0.15312   0.00174   0.00097
  33 5   H  1S         -0.05308   0.09925  -0.00180   0.06737  -0.03452
  34        2S         -0.07983   0.13836  -0.00145   0.07830  -0.05237
  35        3S         -0.03694   0.05191  -0.00014   0.00962  -0.02442
  36 6   H  1S          0.11178   0.00346  -0.00169   0.06766   0.06578
  37        2S          0.15994  -0.00028  -0.00130   0.07992   0.09457
  38        3S          0.06409  -0.00626  -0.00009   0.01065   0.03822
                          31        32        33        34        35
  31        4PY         0.05354
  32        4PZ         0.00183   0.14253
  33 5   H  1S          0.05567  -0.00094   0.08025
  34        2S          0.07773  -0.00040   0.10987   0.15285
  35        3S          0.02928   0.00013   0.03818   0.05568   0.02311
  36 6   H  1S         -0.00202  -0.00090  -0.01243  -0.02602  -0.01994
  37        2S         -0.00642  -0.00035  -0.02612  -0.04849  -0.03182
  38        3S         -0.00646   0.00014  -0.02016  -0.03197  -0.01584
                          36        37        38
  36 6   H  1S          0.07926
  37        2S          0.10948   0.15357
  38        3S          0.03848   0.05648   0.02358
    Full Mulliken population analysis:
                           1         2         3         4         5
   1 1   C  1S          0.65940
   2        2S          0.49328   0.49207
   3        2PX         0.00000   0.00000   0.08481
   4        2PY         0.00000   0.00000   0.00000   0.08796
   5        2PZ         0.00000   0.00000   0.00000   0.00000   0.06443
   6        3S         -0.02929  -0.06446   0.00000   0.00000   0.00000
   7        3PX         0.00000   0.00000   0.08247   0.00000   0.00000
   8        3PY         0.00000   0.00000   0.00000   0.08274   0.00000
   9        3PZ         0.00000   0.00000   0.00000   0.00000   0.06524
  10        4S         -0.01217  -0.02132   0.00000   0.00000   0.00000
  11        4PX         0.00000   0.00000   0.01548   0.00000   0.00000
  12        4PY         0.00000   0.00000   0.00000   0.01444   0.00000
  13        4PZ         0.00000   0.00000   0.00000   0.00000   0.02110
  14 2   H  1S         -0.00024  -0.00034   0.00185   0.00576   0.00000
  15        2S         -0.00168  -0.00322   0.00433   0.01328   0.00000
  16        3S          0.00005  -0.00007   0.00069   0.00190   0.00000
  17 3   H  1S         -0.00026  -0.00038   0.00812   0.00000   0.00000
  18        2S         -0.00175  -0.00336   0.01786   0.00000   0.00000
  19        3S          0.00005  -0.00006   0.00255  -0.00000   0.00000
  20 4   C  1S          0.00000   0.00000  -0.00002  -0.00006   0.00000
  21        2S          0.00000  -0.00000  -0.00002  -0.00006   0.00000
  22        2PX        -0.00002  -0.00002   0.00011   0.00086   0.00000
  23        2PY        -0.00006  -0.00005   0.00086   0.00198   0.00000
  24        2PZ        -0.00000  -0.00000  -0.00000  -0.00000   0.00042
  25        3S         -0.00060  -0.00101   0.00256   0.00769  -0.00000
  26        3PX        -0.00054  -0.00100   0.00019   0.00556   0.00000
  27        3PY        -0.00164  -0.00301   0.00554   0.01070   0.00000
  28        3PZ        -0.00000  -0.00000  -0.00000  -0.00000   0.00614
  29        4S          0.00034   0.00030   0.00093   0.00284  -0.00000
  30        4PX        -0.00018  -0.00046  -0.00071   0.00145   0.00000
  31        4PY        -0.00053  -0.00135   0.00145   0.00096   0.00000
  32        4PZ        -0.00000  -0.00000  -0.00000  -0.00000   0.00903
  33 5   H  1S          0.00000   0.00000  -0.00000  -0.00000   0.00000
  34        2S          0.00001   0.00002   0.00000  -0.00031   0.00000
  35        3S          0.00008   0.00013   0.00001  -0.00070  -0.00000
  36 6   H  1S          0.00000   0.00000  -0.00000  -0.00000   0.00000
  37        2S          0.00001   0.00002  -0.00023  -0.00006   0.00000
  38        3S          0.00007   0.00013  -0.00057  -0.00012  -0.00000
                           6         7         8         9        10
   6        3S          0.45276
   7        3PX         0.00000   0.20294
   8        3PY         0.00000   0.00000   0.19714
   9        3PZ         0.00000   0.00000   0.00000   0.16692
  10        4S          0.21078   0.00000   0.00000   0.00000   0.18011
  11        4PX         0.00000   0.07131   0.00000   0.00000   0.00000
  12        4PY         0.00000   0.00000   0.06448   0.00000   0.00000
  13        4PZ         0.00000   0.00000   0.00000   0.10079   0.00000
  14 2   H  1S          0.01633   0.01085   0.03280   0.00002   0.01832
  15        2S          0.04139   0.01956   0.05777   0.00002   0.04669
  16        3S          0.00280   0.00395   0.01017   0.00000   0.00826
  17 3   H  1S          0.01731   0.04491   0.00001   0.00002   0.01854
  18        2S          0.04275   0.07745   0.00000   0.00002   0.04631
  19        3S          0.00282   0.01379  -0.00001   0.00000   0.00750
  20 4   C  1S         -0.00060  -0.00058  -0.00173   0.00000   0.00033
  21        2S         -0.00101  -0.00106  -0.00319   0.00000   0.00030
  22        2PX         0.00243   0.00018   0.00554   0.00000   0.00081
  23        2PY         0.00733   0.00555   0.01065   0.00000   0.00244
  24        2PZ         0.00000  -0.00000  -0.00000   0.00618   0.00000
  25        3S          0.02197   0.01345   0.04049  -0.00000   0.00039
  26        3PX         0.01261  -0.00127   0.01852   0.00000   0.00411
  27        3PY         0.03798   0.01848   0.02846   0.00000   0.01232
  28        3PZ         0.00000  -0.00000  -0.00000   0.03544   0.00000
  29        4S          0.00069   0.00479   0.01463  -0.00000  -0.02037
  30        4PX         0.00636  -0.00401   0.00582   0.00000   0.00208
  31        4PY         0.01890   0.00584   0.00122   0.00000   0.00587
  32        4PZ         0.00000  -0.00000  -0.00000   0.04935   0.00000
  33 5   H  1S         -0.00005  -0.00000  -0.00019   0.00000  -0.00079
  34        2S         -0.00120   0.00006  -0.00320  -0.00000  -0.00327
  35        3S         -0.00199   0.00011  -0.00425  -0.00000  -0.00131
  36 6   H  1S         -0.00005  -0.00012  -0.00005   0.00000  -0.00079
  37        2S         -0.00116  -0.00252  -0.00051  -0.00000  -0.00334
  38        3S         -0.00195  -0.00354  -0.00055  -0.00000  -0.00148
                          11        12        13        14        15
  11        4PX         0.05975
  12        4PY         0.00000   0.05095
  13        4PZ         0.00000   0.00000   0.14254
  14 2   H  1S          0.00630   0.01755   0.00001   0.08173
  15        2S          0.01522   0.04069   0.00000   0.07744   0.14915
  16        3S          0.00518   0.01175  -0.00000   0.01368   0.04109
  17 3   H  1S          0.02366  -0.00001   0.00001  -0.00001  -0.00068
  18        2S          0.05471  -0.00002   0.00001  -0.00068  -0.00549
  19        3S          0.01631  -0.00002  -0.00000  -0.00204  -0.00803
  20 4   C  1S         -0.00018  -0.00058   0.00000   0.00000   0.00002
  21        2S         -0.00046  -0.00144   0.00000   0.00000   0.00003
  22        2PX        -0.00072   0.00138   0.00000  -0.00000   0.00000
  23        2PY         0.00139   0.00095   0.00000  -0.00000  -0.00036
  24        2PZ        -0.00000  -0.00000   0.00902   0.00000   0.00000
  25        3S          0.00648   0.02004  -0.00000  -0.00007  -0.00150
  26        3PX        -0.00420   0.00556   0.00000  -0.00000   0.00004
  27        3PY         0.00557   0.00121   0.00000  -0.00023  -0.00357
  28        3PZ        -0.00000  -0.00000   0.04900   0.00000   0.00000
  29        4S          0.00232   0.00770  -0.00000  -0.00103  -0.00432
  30        4PX        -0.00719   0.00310   0.00000   0.00002   0.00018
  31        4PY         0.00313  -0.00562   0.00000  -0.00242  -0.01021
  32        4PZ        -0.00000  -0.00000   0.08957   0.00000  -0.00000
  33 5   H  1S          0.00002  -0.00234   0.00000   0.00000   0.00000
  34        2S          0.00027  -0.00992  -0.00000   0.00000   0.00016
  35        3S          0.00028  -0.00735  -0.00000   0.00023   0.00147
  36 6   H  1S         -0.00176  -0.00047   0.00000  -0.00000  -0.00004
  37        2S         -0.00831  -0.00104  -0.00000  -0.00004  -0.00091
  38        3S         -0.00660  -0.00030  -0.00000  -0.00047  -0.00248
                          16        17        18        19        20
  16        3S          0.02081
  17 3   H  1S         -0.00206   0.08302
  18        2S         -0.00806   0.07765   0.14771
  19        3S         -0.00670   0.01346   0.03998   0.02001
  20 4   C  1S          0.00009   0.00000   0.00002   0.00009   0.65948
  21        2S          0.00016   0.00000   0.00003   0.00016   0.49329
  22        2PX         0.00001  -0.00000  -0.00028  -0.00058   0.00000
  23        2PY        -0.00074  -0.00000  -0.00008  -0.00013   0.00000
  24        2PZ        -0.00000   0.00000   0.00000  -0.00000   0.00000
  25        3S         -0.00244  -0.00007  -0.00151  -0.00242  -0.02937
  26        3PX         0.00007  -0.00016  -0.00289  -0.00363   0.00000
  27        3PY        -0.00442  -0.00007  -0.00065  -0.00065   0.00000
  28        3PZ        -0.00000   0.00000   0.00000  -0.00000   0.00000
  29        4S         -0.00215  -0.00102  -0.00417  -0.00195  -0.01236
  30        4PX         0.00019  -0.00188  -0.00872  -0.00672   0.00000
  31        4PY        -0.00747  -0.00058  -0.00135  -0.00048   0.00000
  32        4PZ        -0.00000   0.00000  -0.00000  -0.00000   0.00000
  33 5   H  1S          0.00022  -0.00000  -0.00004  -0.00042  -0.00021
  34        2S          0.00143  -0.00004  -0.00090  -0.00235  -0.00157
  35        3S          0.00247  -0.00046  -0.00244  -0.00287   0.00004
  36 6   H  1S         -0.00043   0.00000   0.00000   0.00022  -0.00019
  37        2S         -0.00239   0.00000   0.00015   0.00141  -0.00153
  38        3S         -0.00293   0.00023   0.00145   0.00242   0.00003
                          21        22        23        24        25
  21        2S          0.49201
  22        2PX         0.00000   0.08210
  23        2PY         0.00000   0.00000   0.08747
  24        2PZ         0.00000   0.00000   0.00000   0.06434
  25        3S         -0.06456   0.00000   0.00000   0.00000   0.45339
  26        3PX         0.00000   0.08047   0.00000   0.00000   0.00000
  27        3PY         0.00000   0.00000   0.08247   0.00000   0.00000
  28        3PZ         0.00000   0.00000   0.00000   0.06473   0.00000
  29        4S         -0.02174   0.00000   0.00000   0.00000   0.21650
  30        4PX         0.00000   0.01612   0.00000   0.00000   0.00000
  31        4PY         0.00000   0.00000   0.01475   0.00000   0.00000
  32        4PZ         0.00000   0.00000   0.00000   0.02109   0.00000
  33 5   H  1S         -0.00029   0.00144   0.00551   0.00000   0.01507
  34        2S         -0.00300   0.00378   0.01357   0.00000   0.03908
  35        3S         -0.00006   0.00067   0.00201   0.00000   0.00263
  36 6   H  1S         -0.00027   0.00656   0.00002   0.00000   0.01443
  37        2S         -0.00292   0.01708   0.00001   0.00000   0.03835
  38        3S         -0.00008   0.00272  -0.00001   0.00000   0.00274
                          26        27        28        29        30
  26        3PX         0.19965
  27        3PY         0.00000   0.19707
  28        3PZ         0.00000   0.00000   0.16453
  29        4S          0.00000   0.00000   0.00000   0.18883
  30        4PX         0.07495   0.00000   0.00000   0.00000   0.06701
  31        4PY         0.00000   0.06614   0.00000   0.00000   0.00000
  32        4PZ         0.00000   0.00000   0.10006   0.00000   0.00000
  33 5   H  1S          0.00881   0.03301   0.00002   0.01758   0.00576
  34        2S          0.01726   0.05995   0.00002   0.04466   0.01475
  35        3S          0.00385   0.01084   0.00000   0.00721   0.00541
  36 6   H  1S          0.04068   0.00008   0.00002   0.01747   0.02450
  37        2S          0.07680  -0.00001   0.00002   0.04521   0.05962
  38        3S          0.01497  -0.00009   0.00000   0.00795   0.01903
                          31        32        33        34        35
  31        4PY         0.05354
  32        4PZ         0.00000   0.14253
  33 5   H  1S          0.01862   0.00001   0.08025
  34        2S          0.04389   0.00001   0.07761   0.15285
  35        3S          0.01301  -0.00000   0.01427   0.04393   0.02311
  36 6   H  1S         -0.00005   0.00001  -0.00001  -0.00076  -0.00231
  37        2S         -0.00025   0.00001  -0.00076  -0.00649  -0.00957
  38        3S         -0.00020  -0.00000  -0.00233  -0.00961  -0.00840
                          36        37        38
  36 6   H  1S          0.07926
  37        2S          0.07733   0.15357
  38        3S          0.01438   0.04456   0.02358
     Gross orbital populations:
                           1
   1 1   C  1S          1.10433
   2        2S          0.88586
   3        2PX         0.22828
   4        2PY         0.23680
   5        2PZ         0.16637
   6        3S          0.79346
   7        3PX         0.56258
   8        3PY         0.55676
   9        3PZ         0.42399
  10        4S          0.50034
  11        4PX         0.25796
  12        4PY         0.21070
  13        4PZ         0.41205
  14 2   H  1S          0.27532
  15        2S          0.46606
  16        3S          0.08510
  17 3   H  1S          0.27926
  18        2S          0.46369
  19        3S          0.08171
  20 4   C  1S          1.10443
  21        2S          0.88584
  22        2PX         0.22066
  23        2PY         0.23552
  24        2PZ         0.16580
  25        3S          0.79173
  26        3PX         0.55038
  27        3PY         0.55550
  28        3PZ         0.41995
  29        4S          0.51084
  30        4PX         0.27651
  31        4PY         0.21682
  32        4PZ         0.41165
  33 5   H  1S          0.27073
  34        2S          0.47068
  35        3S          0.09005
  36 6   H  1S          0.26764
  37        2S          0.47210
  38        3S          0.09255
          Condensed to atoms (all electrons):
               1          2          3          4          5          6
     1  C    5.031546   0.387941   0.388838   0.602363  -0.035895  -0.035307
     2  H    0.387941   0.516119  -0.033747  -0.040116   0.005982  -0.009696
     3  H    0.388838  -0.033747   0.512907  -0.039701  -0.009527   0.005887
     4  C    0.602363  -0.040116  -0.039701   5.057044   0.383333   0.382700
     5  H   -0.035895   0.005982  -0.009527   0.383333   0.527805  -0.040239
     6  H   -0.035307  -0.009696   0.005887   0.382700  -0.040239   0.528946
 Mulliken charges:
               1
     1  C   -0.339486
     2  H    0.173517
     3  H    0.175344
     4  C   -0.345625
     5  H    0.168541
     6  H    0.167709
 Sum of Mulliken charges =  -0.00000
 Mulliken charges with hydrogens summed into heavy atoms:
               1
     1  C    0.009375
     4  C   -0.009375
 Electronic spatial extent (au):  <R**2>=             83.7339
 Charge=             -0.0000 electrons
 Dipole moment (field-independent basis, Debye):
    X=             -0.0043    Y=              0.0114    Z=             -0.0904  Tot=              0.0912
 Quadrupole moment (field-independent basis, Debye-Ang):
   XX=            -12.2103   YY=            -12.2121   ZZ=            -15.6698
   XY=              0.0224   XZ=             -0.0008   YZ=             -0.0031
 Traceless Quadrupole moment (field-independent basis, Debye-Ang):
   XX=              1.1538   YY=              1.1520   ZZ=             -2.3057
   XY=              0.0224   XZ=             -0.0008   YZ=             -0.0031
 Octapole moment (field-independent basis, Debye-Ang**2):
  XXX=             -0.3390  YYY=             -0.0967  ZZZ=             -0.0519  XYY=              0.1335
  XXY=             -0.0547  XXZ=             -0.1202  XZZ=             -0.1082  YZZ=             -0.1077
  YYZ=             -0.1596  XYZ=             -0.0335
 Hexadecapole moment (field-independent basis, Debye-Ang**3):
 XXXX=            -34.3144 YYYY=            -55.1938 ZZZZ=            -17.8016 XXXY=             -7.2327
 XXXZ=              0.0127 YYYX=            -10.6984 YYYZ=              0.0176 ZZZX=              0.0202
 ZZZY=              0.0351 XXYY=            -16.2014 XXZZ=             -9.9327 YYZZ=            -13.6485
 XXYZ=              0.0067 YYXZ=              0.0013 ZZXY=             -3.2059
 N-N= 3.307195840281D+01 E-N=-2.478534463763D+02  KE= 7.815169759823D+01
 Orbital energies and kinetic energies (alpha):
                                 1                 2
   1         O               -10.291531         15.979502
   2         O               -10.286948         15.978804
   3         O                -0.864062          1.540595
   4         O                -0.671928          1.270381
   5         O                -0.559188          0.942740
   6         O                -0.509881          1.283350
   7         O                -0.435851          1.041373
   8         O                -0.357165          1.039103
   9         V                 0.080117          1.181701
  10         V                 0.140868          0.590582
  11         V                 0.164391          0.597184
  12         V                 0.169944          0.679398
  13         V                 0.240723          0.583802
  14         V                 0.375281          0.854023
  15         V                 0.392401          0.931758
  16         V                 0.398574          0.777681
  17         V                 0.462821          1.198240
  18         V                 0.488498          1.416036
  19         V                 0.493578          1.300831
  20         V                 0.591133          1.653456
  21         V                 0.664970          1.574993
  22         V                 0.691094          2.142287
  23         V                 0.771482          2.416751
  24         V                 0.776926          2.321623
  25         V                 0.842473          1.086037
  26         V                 0.953256          3.432497
  27         V                 2.231701          3.923576
  28         V                 2.289497          4.031105
  29         V                 2.333534          4.302074
  30         V                 2.407206          4.519355
  31         V                 2.671337          6.301383
  32         V                 2.817653          6.305945
  33         V                 2.878223          6.136113
  34         V                 2.951107          6.226762
  35         V                 3.141208          6.821916
  36         V                 3.318114          6.400396
  37         V                23.351605         60.073985
  38         V                23.706988         60.204736
 Total kinetic energy from orbitals= 7.815169759823D+01
 Calling FoFJK, ICntrl=      2127 FMM=F ISym2X=0 I1Cent= 0 IOpClX= 0 NMat=1 NMatS=1 NMatT=0.
 -------------------------------------------------------------------
 Center     Atomic                   Forces (Hartrees/Bohr)
 Number     Number              X              Y              Z
 -------------------------------------------------------------------
      1        6           0.014297023    0.008799448   -0.003506446
      2        1          -0.007427943    0.003707591    0.001792044
      3        1          -0.001132743   -0.003984709    0.001603253
      4        6           0.012398887    0.013515540   -0.004150694
      5        1           0.003667241   -0.016442898    0.002082418
      6        1          -0.021802465   -0.005594972    0.002179425
 -------------------------------------------------------------------
 Cartesian Forces:  Max     0.021802465 RMS     0.009247160

 GradGradGradGradGradGradGradGradGradGradGradGradGradGradGradGradGradGrad
 Berny optimization.
 Search for a local minimum.
 Step number   1 out of a maximum of    2
 All quantities printed in internal units (Hartrees-Bohrs-Radians)
 Second derivative matrix not updated -- first step.
 The second derivative matrix:
                          X1        Y1        Z1        X2        Y2
           X1           0.76800
           Y1           0.09869   0.86658
           Z1           0.00535   0.00835   0.17332
           X2          -0.16562   0.09761   0.00198   0.14300
           Y2           0.10397  -0.28780  -0.00696  -0.11712   0.27651
           Z2           0.00310  -0.00872  -0.05560  -0.00283   0.00722
           X3          -0.35910  -0.00225  -0.00755  -0.00034  -0.00019
           Y3          -0.00850  -0.11121  -0.00185   0.03277   0.01899
           Z3          -0.00965  -0.00178  -0.05699   0.00140   0.00051
           X4          -0.26829  -0.17961  -0.00071   0.02297   0.01333
           Y4          -0.17996  -0.47576  -0.00119  -0.01326  -0.00770
           Z4           0.00118   0.00212  -0.09498  -0.00055  -0.00077
           X5           0.02340  -0.01351   0.00057  -0.00001   0.00000
           Y5           0.01166  -0.00673   0.00078   0.00000  -0.00000
           Z5          -0.00048   0.00030   0.01747   0.00023  -0.00013
           X6           0.00160  -0.00092   0.00036  -0.00001   0.00000
           Y6          -0.02586   0.01493   0.00086   0.00000  -0.00000
           Z6           0.00049  -0.00027   0.01677  -0.00023   0.00012
                          Z2        X3        Y3        Z3        X4
           Z2           0.02896
           X3          -0.00028   0.35919
           Y3           0.00149   0.00259   0.07672
           Z3           0.01065   0.00824   0.00126   0.02991
           X4           0.00048   0.00026  -0.02687  -0.00047   0.70318
           Y4          -0.00026  -0.00015   0.01551   0.00029   0.12399
           Z4           0.01591  -0.00040  -0.00090   0.01651  -0.00463
           X5          -0.00024  -0.00001   0.00000   0.00024  -0.14441
           Y5           0.00015   0.00000  -0.00000  -0.00015   0.09032
           Z5           0.00933   0.00024  -0.00015  -0.00950  -0.00282
           X6          -0.00023  -0.00001   0.00000   0.00024  -0.31371
           Y6           0.00013   0.00000  -0.00000  -0.00013  -0.02117
           Z6          -0.00924  -0.00024   0.00015   0.00942   0.00815
                          Y4        Z4        X5        Y5        Z5
           Y4           0.85543
           Z4          -0.00891   0.17550
           X5           0.08236  -0.00185   0.12302
           Y5          -0.28431   0.00672  -0.10100   0.27505
           Z5           0.00835  -0.05691   0.00250  -0.00717   0.02951
           X6          -0.01298   0.00626  -0.00200  -0.00099   0.00032
           Y6          -0.10316   0.00174   0.03213   0.01600  -0.00120
           Z6           0.00172  -0.05603  -0.00123  -0.00033   0.01011
                          X6        Y6        Z6
           X6           0.31413
           Y6           0.01489   0.07224
           Z6          -0.00694  -0.00140   0.02898
 ITU=  0
     Eigenvalues ---    0.03751   0.04379   0.09270   0.10034   0.13521
     Eigenvalues ---    0.17391   0.26556   0.28932   0.52857   0.69499
     Eigenvalues ---    0.97688   1.56886
 Angle between quadratic step and forces=  34.44 degrees.
 Linear search not attempted -- first point.
 B after Tr=     0.007067    0.007675   -0.009245
         Rot=    1.000000   -0.000022    0.000011   -0.000104 Ang=  -0.01 deg.
 Variable       Old X    -DE/DX   Delta X   Delta X   Delta X     New X
                                 (Linear)    (Quad)   (Total)
    X1       -0.63519   0.01430   0.00000   0.02085   0.02814  -0.60704
    Y1       -1.09855   0.00880   0.00000   0.02250   0.03005  -1.06850
    Z1        0.01114  -0.00351   0.00000  -0.01939  -0.02869  -0.01756
    X2        0.40197  -0.00743   0.00000  -0.02664  -0.01898   0.38299
    Y2       -2.88392   0.00371   0.00000   0.01711   0.02486  -2.85905
    Z2       -0.03894   0.00179   0.00000   0.02401   0.01465  -0.02430
    X3       -2.67619  -0.00113   0.00000   0.01695   0.02425  -2.65194
    Y3       -1.11746  -0.00398   0.00000  -0.01091  -0.00378  -1.12124
    Z3       -0.03995   0.00160   0.00000   0.02330   0.01395  -0.02600
    X4        0.62777   0.01240   0.00000   0.00838   0.01522   0.64299
    Y4        1.08897   0.01352   0.00000   0.00929   0.01709   1.10607
    Z4        0.00867  -0.00415   0.00000  -0.01888  -0.02806  -0.01938
    X5       -0.30853   0.00367   0.00000  -0.00346   0.00300  -0.30553
    Y5        2.96598  -0.01644   0.00000  -0.05171  -0.04410   2.92188
    Z5       -0.04470   0.00208   0.00000   0.02356   0.01444  -0.03027
    X6        2.74043  -0.02180   0.00000  -0.05846  -0.05164   2.68879
    Y6        1.21876  -0.00559   0.00000  -0.03236  -0.02412   1.19464
    Z6       -0.04320   0.00218   0.00000   0.02285   0.01372  -0.02948
         Item               Value     Threshold  Converged?
 Maximum Force            0.021802     0.000450     NO 
 RMS     Force            0.009247     0.000300     NO 
 Maximum Displacement     0.051642     0.001800     NO 
 RMS     Displacement     0.025187     0.001200     NO 
 Predicted change in Energy=-1.815006D-03
 GradGradGradGradGradGradGradGradGradGradGradGradGradGradGradGradGradGrad

 Unable to Open any file for archive entry.
 1\1\GINC-BHD0009\Force\RwB97XD\6-311G\C2H4\BWEIGHT\11-Jan-2023\0\\# WB
 97XD/6-311G SCF=XQC FORCE nosym pop=full guess=read\\MD Step 999\\0,1\
 C,-0.33612568,-0.58132713,0.00589366\H,0.21271326,-1.52610266,-0.02060
 784\H,-1.41617844,-0.59133256,-0.02113902\C,0.33219959,0.57626036,0.00
 459014\H,-0.16326757,1.56952709,-0.02365528\H,1.45017449,0.64493986,-0
 .02286144\\Version=ES64L-G16RevC.01\HF=-78.5554983\RMSD=5.098e-09\RMSF
 =9.247e-03\Dipole=-0.0017108,0.0044841,-0.0355591\Quadrupole=0.8578111
 ,0.8564471,-1.7142581,0.0166868,-0.0005979,-0.0023293\PG=C01 [X(C2H4)]
 \\@
 The archive entry for this job was punched.


 BE CAREFUL NOT TO BECOME TOO GOOD OF A SONGBIRD OR 
 THEY'LL THROW YOU INTO A CAGE.

                                    -- SNOOPY TO WOODSTOCK
 Job cpu time:       0 days  0 hours  0 minutes 37.2 seconds.
 Elapsed time:       0 days  0 hours  0 minutes 14.0 seconds.
 File lengths (MBytes):  RWF=    272 Int=      0 D2E=      0 Chk=     32 Scr=     32
 Normal termination of Gaussian 16 at Wed Jan 11 18:39:34 2023.
