6
MD Step 0
C  -0.33763715 -0.58748864 0.00000000
H  0.19552659 -1.51519357 0.00000000
H  -1.40763715 -0.58748864 0.00000000
C  0.33763715 0.58748865 0.00000000
H  -0.19552659 1.51519357 0.00000000
H  1.40763715 0.58748865 0.00000000
6
MD Step 1
C  -0.33800518 -0.58783551 -0.00039446
H  0.19788570 -1.51299178 0.00234943
H  -1.40541910 -0.58521103 0.00235068
C  0.33721625 0.58704723 -0.00039434
H  -0.19318300 1.51768891 0.00234902
H  1.41011735 0.58990707 0.00235028
6
MD Step 2
C  -0.33831110 -0.58807983 -0.00078300
H  0.20023272 -1.51113388 0.00466353
H  -1.40355646 -0.58311770 0.00466612
C  0.33675379 0.58651994 -0.00078273
H  -0.19089101 1.52041661 0.00466259
H  1.41277172 0.59242266 0.00466500
6
MD Step 3
C  -0.33855254 -0.58822188 -0.00116665
H  0.20257257 -1.50962359 0.00694841
H  -1.40208664 -0.58120925 0.00695267
C  0.33625372 0.58590969 -0.00116611
H  -0.18863716 1.52335309 0.00694649
H  1.41554410 0.59503187 0.00694969
6
MD Step 4
C  -0.33873124 -0.58826638 -0.00154973
H  0.20492642 -1.50843773 0.00922974
H  -1.40101752 -0.57946571 0.00923643
C  0.33571697 0.58521709 -0.00154870
H  -0.18638635 1.52648910 0.00922582
H  1.41839556 0.59774985 0.00922906
6
MD Step 5
C  -0.33884304 -0.58821242 -0.00192986
H  0.20727215 -1.50758613 0.01149308
H  -1.40038653 -0.57790626 0.01150351
C  0.33515140 0.58445034 -0.00192792
H  -0.18414185 1.52977067 0.01148543
H  1.42124587 0.60055076 0.01148745
6
MD Step 6
C  -0.33888971 -0.58806513 -0.00230961
H  0.20961422 -1.50704196 0.01375359
H  -1.40018982 -0.57651947 0.01376975
C  0.33455996 0.58361346 -0.00230615
H  -0.18187613 1.53316997 0.01373958
H  1.42404512 0.60343762 0.01373858
6
MD Step 7
C  -0.33886681 -0.58782346 -0.00268434
H  0.21191144 -1.50681490 0.01598350
H  -1.40045464 -0.57533582 0.01600811
C  0.33395281 0.58271835 -0.00267855
H  -0.17960384 1.53661357 0.01595954
H  1.42670237 0.60636985 0.01595310
6
MD Step 8
C  -0.33877122 -0.58748765 -0.00304968
H  0.21412187 -1.50690686 0.01815667
H  -1.40119411 -0.57438309 0.01819323
C  0.33333971 0.58177715 -0.00304053
H  -0.17733779 1.54002837 0.01811811
H  1.42913207 0.60930804 0.01810316
6
MD Step 9
C  -0.33860820 -0.58706608 -0.00340854
H  0.21624487 -1.50727098 0.02029016
H  -1.40236539 -0.57364463 0.02034284
C  0.33272295 0.58079515 -0.00339478
H  -0.17504794 1.54338443 0.02023128
H  1.43129732 0.61225577 0.02020426
6
MD Step 10
C  -0.33838318 -0.58656713 -0.00376295
H  0.21827341 -1.50786080 0.02239606
H  -1.40391915 -0.57310768 0.02246951
C  0.33210537 0.57977875 -0.00374313
H  -0.17270998 1.54664763 0.02231005
H  1.43316225 0.61521143 0.02226700
6
MD Step 11
C  -0.33809862 -0.58599597 -0.00411099
H  0.22017628 -1.50864969 0.02446301
H  -1.40581942 -0.57278168 0.02456236
C  0.33149350 0.57873847 -0.00408353
H  -0.17032421 1.54976207 0.02434212
H  1.43467410 0.61814993 0.02427866
6
MD Step 12
C  -0.33776104 -0.58536154 -0.00445397
H  0.22194104 -1.50958930 0.02649875
H  -1.40800236 -0.57265585 0.02662930
C  0.33089031 0.57768167 -0.00441712
H  -0.16787342 1.55269353 0.02633426
H  1.43580647 0.62106529 0.02624588
6
MD Step 13
C  -0.33736790 -0.58466348 -0.00478327
H  0.22349712 -1.51068808 0.02845244
H  -1.41045573 -0.57277667 0.02861994
C  0.33030827 0.57662548 -0.00473535
H  -0.16540073 1.55535260 0.02823505
H  1.43648217 0.62389314 0.02811671
6
MD Step 14
C  -0.33693196 -0.58391641 -0.00510499
H  0.22486179 -1.51186648 0.03036041
H  -1.41307405 -0.57310234 0.03057004
C  0.32974476 0.57557226 -0.00504416
H  -0.16286459 1.55774130 0.03008000
H  1.43671981 0.62665665 0.02992708
6
MD Step 15
C  -0.33645538 -0.58312413 -0.00541400
H  0.22598756 -1.51311121 0.03219274
H  -1.41581454 -0.57365594 0.03244961
C  0.32920788 0.57453517 -0.00533856
H  -0.16029188 1.55980023 0.03183888
H  1.43648029 0.62931317 0.03164661
6
MD Step 16
C  -0.33594410 -0.58229398 -0.00570858
H  0.22684894 -1.51438965 0.03393974
H  -1.41861206 -0.57443905 0.03424852
C  0.32870187 0.57352363 -0.00561697
H  -0.15769188 1.56149561 0.03350179
H  1.43575368 0.63184092 0.03326560
6
MD Step 17
C  -0.33541186 -0.58144095 -0.00599467
H  0.22746768 -1.51562584 0.03563692
H  -1.42135607 -0.57540715 0.03600077
C  0.32822290 0.57253905 -0.00588528
H  -0.15503179 1.56284447 0.03510385
H  1.43458407 0.63426382 0.03482031
6
MD Step 18
C  -0.33485781 -0.58056514 -0.00626323
H  0.22778025 -1.51683420 0.03723164
H  -1.42402586 -0.57660224 0.03765377
C  0.32778150 0.57159704 -0.00613491
H  -0.15236911 1.56378196 0.03659297
H  1.43293618 0.63651858 0.03625831
6
MD Step 19
C  -0.33429938 -0.57968497 -0.00652395
H  0.22783570 -1.51792246 0.03878146
H  -1.42649373 -0.57795580 0.03926258
C  0.32736919 0.57069426 -0.00637543
H  -0.14965488 1.56435929 0.03802640
H  1.43089328 0.63865262 0.03763889
6
MD Step 20
C  -0.33373812 -0.57880274 -0.00677042
H  0.22759195 -1.51889638 0.04024937
H  -1.42873134 -0.57949235 0.04078971
C  0.32699291 0.56984247 -0.00660090
H  -0.14693678 1.56453967 0.03936791
H  1.42845231 0.64061978 0.03892599
6
MD Step 21
C  -0.33317529 -0.57792031 -0.00699617
H  0.22700996 -1.51976609 0.04159813
H  -1.43071624 -0.58123572 0.04219762
C  0.32665917 0.56905281 -0.00680546
H  -0.14426540 1.56429257 0.04058133
H  1.42561800 0.64237470 0.04008350
6
MD Step 22
C  -0.33262145 -0.57704889 -0.00720465
H  0.22611185 -1.52048829 0.04284862
H  -1.43237441 -0.58315132 0.04350524
C  0.32636419 0.56832592 -0.00699274
H  -0.14163651 1.56365185 0.04168810
H  1.42246080 0.64393091 0.04113453
6
MD Step 23
C  -0.33208456 -0.57619693 -0.00739707
H  0.22490995 -1.52103768 0.04400851
H  -1.43365240 -0.58521701 0.04471854
C  0.32610596 0.56766390 -0.00716423
H  -0.13906156 1.56264460 0.04269676
H  1.41904519 0.64528990 0.04208909
6
MD Step 24
C  -0.33157001 -0.57537025 -0.00757257
H  0.22340795 -1.52140613 0.04507331
H  -1.43451718 -0.58742223 0.04583180
C  0.32588405 0.56707004 -0.00731948
H  -0.13656636 1.56129188 0.04360401
H  1.41542972 0.64644206 0.04294502
6
MD Step 25
C  -0.33108421 -0.57457564 -0.00773193
H  0.22162241 -1.52158130 0.04604811
H  -1.43493502 -0.58974660 0.04684854
C  0.32569603 0.56654525 -0.00745962
H  -0.13416940 1.55962998 0.04441611
H  1.41168771 0.64738834 0.04371014
6
MD Step 26
C  -0.33062788 -0.57381410 -0.00787069
H  0.21954301 -1.52158643 0.04690758
H  -1.43491176 -0.59219964 0.04774317
C  0.32554426 0.56609469 -0.00758088
H  -0.13192104 1.55767028 0.04510944
H  1.40786644 0.64810046 0.04436120
6
MD Step 27
C  -0.33020477 -0.57308963 -0.00798827
H  0.21718486 -1.52142775 0.04764881
H  -1.43444018 -0.59476856 0.04851181
C  0.32542698 0.56571901 -0.00768315
H  -0.12985108 1.55545134 0.04568259
H  1.40403871 0.64857353 0.04489791
6
MD Step 28
C  -0.32982033 -0.57240796 -0.00808660
H  0.21458058 -1.52110221 0.04828338
H  -1.43350801 -0.59742618 0.04916464
C  0.32533979 0.56541568 -0.00776863
H  -0.12797603 1.55303045 0.04614854
H  1.40029366 0.64881817 0.04533482
6
MD Step 29
C  -0.32948128 -0.57177605 -0.00816980
H  0.21177777 -1.52059971 0.04883511
H  -1.43210046 -0.60013338 0.04972357
C  0.32527612 0.56517943 -0.00784142
H  -0.12630109 1.55048045 0.04653236
H  1.39673260 0.64885814 0.04569909
6
MD Step 30
C  -0.32918464 -0.57119111 -0.00823260
H  0.20877322 -1.51996848 0.04927406
H  -1.43026611 -0.60290459 0.05015939
C  0.32523837 0.56501334 -0.00789709
H  -0.12488466 1.54782312 0.04680604
H  1.39340145 0.64866446 0.04596235
6
MD Step 31
C  -0.32893243 -0.57065545 -0.00827586
H  0.20560080 -1.51922650 0.04960522
H  -1.42802813 -0.60572004 0.05047645
C  0.32522317 0.56491413 -0.00793673
H  -0.12375029 1.54511649 0.04697603
H  1.39037734 0.64824379 0.04613193
6
MD Step 32
C  -0.32872101 -0.57016571 -0.00829529
H  0.20226705 -1.51842506 0.04980406
H  -1.42544811 -0.60858967 0.05065114
C  0.32523225 0.56488298 -0.00795670
H  -0.12294971 1.54238969 0.04701949
H  1.38770288 0.64757414 0.04618443
6
MD Step 33
C  -0.32854501 -0.56971689 -0.00828550
H  0.19877433 -1.51762461 0.04984021
H  -1.42260159 -0.61152969 0.05065480
C  0.32526856 0.56492169 -0.00795250
H  -0.12253889 1.53966556 0.04690769
H  1.38540833 0.64662851 0.04608974
6
MD Step 34
C  -0.32841794 -0.56932314 -0.00826195
H  0.19524345 -1.51677079 0.04980115
H  -1.41945399 -0.61443974 0.05057112
C  0.32531556 0.56501211 -0.00793810
H  -0.12245487 1.53708272 0.04672852
H  1.38363340 0.64549817 0.04593947
6
MD Step 35
C  -0.32832909 -0.56897439 -0.00821520
H  0.19165547 -1.51595210 0.04963309
H  -1.41611895 -0.61736056 0.05034942
C  0.32538087 0.56515959 -0.00790515
H  -0.12277174 1.53463572 0.04642962
H  1.38236633 0.64413411 0.04567845
6
MD Step 36
C  -0.32827858 -0.56867163 -0.00814797
H  0.18806040 -1.51518950 0.04935122
H  -1.41264737 -0.62026495 0.05000514
C  0.32546103 0.56535796 -0.00785616
H  -0.12349159 1.53238349 0.04602685
H  1.38165265 0.64255667 0.04532238
6
MD Step 37
C  -0.32826709 -0.56841666 -0.00806427
H  0.18451503 -1.51449731 0.04897774
H  -1.40908813 -0.62311944 0.04956066
C  0.32555195 0.56559999 -0.00779462
H  -0.12460535 1.53038641 0.04554287
H  1.38153224 0.64079384 0.04489372
6
MD Step 38
C  -0.32829177 -0.56820796 -0.00796502
H  0.18105757 -1.51390726 0.04851691
H  -1.40551195 -0.62590918 0.04902134
C  0.32565313 0.56588169 -0.00772112
H  -0.12611694 1.52868016 0.04498225
H  1.38201340 0.63885621 0.04439604
6
MD Step 39
C  -0.32833741 -0.56803193 -0.00783844
H  0.17765432 -1.51352046 0.04790232
H  -1.40206285 -0.62869091 0.04832505
C  0.32577654 0.56621130 -0.00762514
H  -0.12809572 1.52722187 0.04427842
H  1.38301967 0.63668423 0.04375866
6
MD Step 40
C  -0.32840898 -0.56789533 -0.00769451
H  0.17439126 -1.51331344 0.04718922
H  -1.39876266 -0.63140008 0.04752662
C  0.32591412 0.56657693 -0.00751521
H  -0.13048396 1.52608270 0.04348651
H  1.38458420 0.63434096 0.04303717
6
MD Step 41
C  -0.32850340 -0.56779711 -0.00753494
H  0.17130545 -1.51330594 0.04638632
H  -1.39567850 -0.63401941 0.04663619
C  0.32606609 0.56697496 -0.00739250
H  -0.13326469 1.52527852 0.04261482
H  1.38668087 0.63184367 0.04223852
6
MD Step 42
C  -0.32861130 -0.56773012 -0.00735480
H  0.16839431 -1.51355044 0.04546555
H  -1.39291133 -0.63656923 0.04562853
C  0.32623922 0.56740844 -0.00725238
H  -0.13645198 1.52477929 0.04163433
H  1.38923477 0.62917355 0.04133114
6
MD Step 43
C  -0.32873532 -0.56769932 -0.00716190
H  0.16572289 -1.51402309 0.04446976
H  -1.39048541 -0.63899898 0.04454695
C  0.32642859 0.56786888 -0.00710136
H  -0.13998292 1.52461765 0.04058751
H  1.39223251 0.62638388 0.04035717
6
MD Step 44
C  -0.32887321 -0.56770482 -0.00695867
H  0.16332244 -1.51472479 0.04341166
H  -1.38844859 -0.64128889 0.04340559
C  0.32663454 0.56835333 -0.00694119
H  -0.14381922 1.52478740 0.03948638
H  1.39562142 0.62349860 0.03932758
6
MD Step 45
C  -0.32901773 -0.56774189 -0.00674206
H  0.16118960 -1.51568135 0.04227354
H  -1.38687136 -0.64345051 0.04218876
C  0.32686260 0.56886445 -0.00676881
H  -0.14794818 1.52524356 0.03831199
H  1.39931059 0.62051187 0.03822168
6
MD Step 46
C  -0.32916152 -0.56780557 -0.00650840
H  0.15931362 -1.51691552 0.04103455
H  -1.38581731 -0.64549902 0.04087744
C  0.32711877 0.56940577 -0.00658067
H  -0.15235574 1.52593095 0.03704207
H  1.40320086 0.61741555 0.03701575
6
MD Step 47
C  -0.32930060 -0.56789411 -0.00625705
H  0.15769622 -1.51842658 0.03969068
H  -1.38532116 -0.64743277 0.03946876
C  0.32740604 0.56997821 -0.00637593
H  -0.15700692 1.52680568 0.03567156
H  1.40720751 0.61421940 0.03570391
6
MD Step 48
C  -0.32943317 -0.56800764 -0.00598896
H  0.15634369 -1.52019826 0.03824686
H  -1.38539557 -0.64924120 0.03796829
C  0.32772556 0.57058131 -0.00615517
H  -0.16185454 1.52782843 0.03420467
H  1.41125434 0.61094306 0.03428999
6
MD Step 49
C  -0.32955400 -0.56814263 -0.00570072
H  0.15523393 -1.52223225 0.03668425
H  -1.38606378 -0.65093818 0.03635790
C  0.32808211 0.57121874 -0.00591529
H  -0.16687328 1.52893249 0.03262127
H  1.41524210 0.60758296 0.03275332
6
MD Step 50
C  -0.32967241 -0.56830945 -0.00540340
H  0.15442146 -1.52444315 0.03506419
H  -1.38725387 -0.65245595 0.03469822
C  0.32846655 0.57188038 -0.00566601
H  -0.17195465 1.53013066 0.03098387
H  1.41915614 0.60421716 0.03115718
6
MD Step 51
C  -0.32978646 -0.56850696 -0.00509559
H  0.15388716 -1.52681095 0.03337883
H  -1.38895172 -0.65379764 0.03298133
C  0.32888092 0.57256788 -0.00540602
H  -0.17705982 1.53136439 0.02928407
H  1.42291475 0.60085422 0.02949325
6
MD Step 52
C  -0.32989061 -0.56873013 -0.00477147
H  0.15358400 -1.52933611 0.03159629
H  -1.39115607 -0.65499143 0.03117525
C  0.32933088 0.57328687 -0.00513022
H  -0.18217463 1.53255074 0.02748879
H  1.42641642 0.59747856 0.02772842
6
MD Step 53
C  -0.32999011 -0.56898399 -0.00443587
H  0.15352129 -1.53195580 0.02974373
H  -1.39379470 -0.65600577 0.02930626
C  0.32981160 0.57403257 -0.00484300
H  -0.18722559 1.53366821 0.02562593
H  1.42962605 0.59413434 0.02589127
6
MD Step 54
C  -0.33008591 -0.56926895 -0.00408862
H  0.15367776 -1.53463287 0.02782079
H  -1.39681417 -0.65683786 0.02737321
C  0.33032241 0.57480464 -0.00454437
H  -0.19216893 1.53466957 0.02369511
H  1.43248726 0.59083774 0.02398191
6
MD Step 55
C  -0.33018398 -0.56958984 -0.00373445
H  0.15405701 -1.53730151 0.02585401
H  -1.40012638 -0.65745826 0.02540163
C  0.33085757 0.57559771 -0.00423869
H  -0.19693562 1.53553809 0.02172390
H  1.43497853 0.58763183 0.02202866
6
MD Step 56
C  -0.33028042 -0.56994147 -0.00336753
H  0.15460199 -1.53995494 0.02381174
H  -1.40369723 -0.65789812 0.02335905
C  0.33142072 0.57641605 -0.00392096
H  -0.20151904 1.53620149 0.01967975
H  1.43702649 0.58450018 0.01999939
6
MD Step 57
C  -0.33037864 -0.57032535 -0.00298951
H  0.15529610 -1.54254482 0.02170368
H  -1.40744675 -0.65814743 0.02125421
C  0.33200803 0.57725639 -0.00359286
H  -0.20587370 1.53663418 0.01757286
H  1.43860849 0.58146758 0.01790495
6
MD Step 58
C  -0.33048113 -0.57074180 -0.00260104
H  0.15611634 -1.54502974 0.01953409
H  -1.41129858 -0.65820298 0.01909047
C  0.33261614 0.57811591 -0.00325517
H  -0.20996354 1.53681012 0.01540779
H  1.43970503 0.57855247 0.01575049
6
MD Step 59
C  -0.33059229 -0.57119261 -0.00220483
H  0.15705081 -1.54735892 0.01731863
H  -1.41516464 -0.65805124 0.01688266
C  0.33323930 0.57898933 -0.00291055
H  -0.21374510 1.53672034 0.01320084
H  1.44031709 0.57578389 0.01355288
6
MD Step 60
C  -0.33071518 -0.57167806 -0.00180240
H  0.15808107 -1.54949124 0.01506647
H  -1.41896530 -0.65768687 0.01463921
C  0.33387249 0.57987206 -0.00256057
H  -0.21718613 1.53635496 0.01096147
H  1.44044772 0.57318317 0.01132205
6
MD Step 61
C  -0.33085696 -0.57220214 -0.00139982
H  0.15921461 -1.55136362 0.01281192
H  -1.42259868 -0.65708024 0.01239383
C  0.33450609 0.58075468 -0.00221084
H  -0.22023334 1.53573569 0.00872513
H  1.44013427 0.57079587 0.00909389
6
MD Step 62
C  -0.33101070 -0.57275488 -0.00098897
H  0.16037966 -1.55299798 0.01051000
H  -1.42604853 -0.65628449 0.01010121
C  0.33514355 0.58164099 -0.00185415
H  -0.22291945 1.53480940 0.00644533
H  1.43934126 0.56858598 0.00682210
6
MD Step 63
C  -0.33117907 -0.57333553 -0.00057201
H  0.16156387 -1.55436212 0.00817343
H  -1.42924541 -0.65529527 0.00777379
C  0.33577827 0.58252441 -0.00149259
H  -0.22522331 1.53358798 0.00413491
H  1.43810065 0.56657449 0.00451972
6
MD Step 64
C  -0.33136722 -0.57394565 -0.00015417
H  0.16277335 -1.55541156 0.00583174
H  -1.43210913 -0.65409253 0.00544094
C  0.33640058 0.58339506 -0.00113094
H  -0.22711175 1.53210665 0.00182393
H  1.43646978 0.56479795 0.00221688
6
MD Step 65
C  -0.33157139 -0.57457795 0.00026807
H  0.16396649 -1.55615682 0.00346546
H  -1.43461663 -0.65270763 0.00308320
C  0.33700888 0.58425111 -0.00076602
H  -0.22860670 1.53035694 -0.00050811
H  1.43446356 0.56324193 -0.00010696
6
MD Step 66
C  -0.33178882 -0.57522605 0.00069674
H  0.16511198 -1.55660522 0.00106338
H  -1.43674405 -0.65116482 0.00068950
C  0.33760001 0.58508893 -0.00039592
H  -0.22972677 1.52834484 -0.00287333
H  1.43211261 0.56189888 -0.00246411
6
MD Step 67
C  -0.33202216 -0.57588884 0.00112783
H  0.16621502 -1.55673467 -0.00135159
H  -1.43844069 -0.64945474 -0.00171703
C  0.33816492 0.58589875 -0.00002429
H  -0.23046085 1.52611690 -0.00524904
H  1.42948916 0.56079421 -0.00483213
6
MD Step 68
C  -0.33227312 -0.57656431 0.00155782
H  0.16728023 -1.55653123 -0.00375940
H  -1.43966707 -0.64757199 -0.00411599
C  0.33869507 0.58667102 0.00034573
H  -0.23080557 1.52372237 -0.00761560
H  1.42666834 0.55994901 -0.00719178
6
MD Step 69
C  -0.33253631 -0.57724347 0.00199003
H  0.16827558 -1.55602545 -0.00617871
H  -1.44043159 -0.64555158 -0.00652569
C  0.33918845 0.58740265 0.00071737
H  -0.23080152 1.52117627 -0.00999324
H  1.42369047 0.55934377 -0.00956376
6
MD Step 70
C  -0.33281979 -0.57793069 0.00241356
H  0.16925310 -1.55517094 -0.00854721
H  -1.44066927 -0.64334701 -0.00888322
C  0.33962959 0.58807655 0.00108058
H  -0.23041130 1.51858033 -0.01231952
H  1.42068171 0.55903927 -0.01188629
6
MD Step 71
C  -0.33311736 -0.57861638 0.00283160
H  0.17018623 -1.55400786 -0.01088311
H  -1.44040586 -0.64099441 -0.01120635
C  0.34001687 0.58868937 0.00143859
H  -0.22968309 1.51595851 -0.01461440
H  1.41768792 0.55901363 -0.01417990
6
MD Step 72
C  -0.33342535 -0.57929362 0.00324433
H  0.17106842 -1.55256353 -0.01318731
H  -1.43965852 -0.63851290 -0.01349549
C  0.34034613 0.58923484 0.00179180
H  -0.22865078 1.51335543 -0.01688022
H  1.41477273 0.55926114 -0.01644755
6
MD Step 73
C  -0.33373747 -0.57995311 0.00365416
H  0.17188222 -1.55088288 -0.01547394
H  -1.43846635 -0.63593545 -0.01576442
C  0.34061589 0.58970906 0.00214282
H  -0.22736448 1.51080466 -0.01913291
H  1.41198505 0.55976154 -0.01870563
6
MD Step 74
C  -0.33405347 -0.58059180 0.00405705
H  0.17265032 -1.54897652 -0.01771950
H  -1.43683853 -0.63325718 -0.01798910
C  0.34081892 0.59010195 0.00248803
H  -0.22583831 1.50837916 -0.02135016
H  1.40940927 0.56053132 -0.02093251
6
MD Step 75
C  -0.33436863 -0.58120244 0.00445317
H  0.17337285 -1.54688318 -0.01992512
H  -1.43481697 -0.63049820 -0.02017031
C  0.34095275 0.59040793 0.00282790
H  -0.22411264 1.50612732 -0.02353469
H  1.40710021 0.56156121 -0.02313131
6
MD Step 76
C  -0.33467242 -0.58177247 0.00484820
H  0.17401947 -1.54467675 -0.02212416
H  -1.43248339 -0.62771126 -0.02234166
C  0.34102111 0.59062738 0.00316833
H  -0.22226106 1.50406402 -0.02572202
H  1.40507387 0.56280859 -0.02533733
6
MD Step 77
C  -0.33496648 -0.58230166 0.00523549
H  0.17463424 -1.54235988 -0.02427760
H  -1.42985264 -0.62487561 -0.02446357
C  0.34101630 0.59074890 0.00350301
H  -0.22028375 1.50227518 -0.02787406
H  1.40341231 0.56430284 -0.02751302
6
MD Step 78
C  -0.33524387 -0.58278182 0.00561674
H  0.17521325 -1.53998601 -0.02639548
H  -1.42699485 -0.62201982 -0.02654639
C  0.34093973 0.59077012 0.00383389
H  -0.21822933 1.50079372 -0.03000247
H  1.40213890 0.56602328 -0.02966963
6
MD Step 79
C  -0.33550596 -0.58321333 0.00598540
H  0.17580292 -1.53755953 -0.02843871
H  -1.42393543 -0.61912245 -0.02855059
C  0.34078547 0.59068116 0.00415450
H  -0.21609486 1.49969724 -0.03206890
H  1.40131648 0.56799785 -0.03176912
6
MD Step 80
C  -0.33574385 -0.58358697 0.00634491
H  0.17639056 -1.53514485 -0.03042778
H  -1.42076406 -0.61622174 -0.03049760
C  0.34055854 0.59048320 0.00446848
H  -0.21393464 1.49899708 -0.03409513
H  1.40093615 0.57019393 -0.03383210
6
MD Step 81
C  -0.33596057 -0.58390582 0.00668711
H  0.17703387 -1.53273498 -0.03231320
H  -1.41750275 -0.61328479 -0.03233737
C  0.34025310 0.59016660 0.00476736
H  -0.21172886 1.49876768 -0.03603176
H  1.40104778 0.57264846 -0.03580944
6
MD Step 82
C  -0.33614537 -0.58415978 0.00701732
H  0.17770881 -1.53040342 -0.03412682
H  -1.41425752 -0.61036026 -0.03410348
C  0.33987795 0.58973671 0.00505661
H  -0.20953538 1.49899296 -0.03791131
H  1.40160654 0.57531586 -0.03773163
6
MD Step 83
C  -0.33629058 -0.58434231 0.00733801
H  0.17840773 -1.52820416 -0.03588348
H  -1.41111733 -0.60747899 -0.03581241
C  0.33943986 0.58919725 0.00533871
H  -0.20739029 1.49966470 -0.03974865
H  1.40257302 0.57816681 -0.03961160
6
MD Step 84
C  -0.33639440 -0.58445314 0.00764631
H  0.17915472 -1.52615492 -0.03756521
H  -1.40813618 -0.60463804 -0.03744698
C  0.33894080 0.58854769 0.00561036
H  -0.20529169 1.50079803 -0.04152506
H  1.40393020 0.58120407 -0.04142959
6
MD Step 85
C  -0.33645302 -0.58449039 0.00794168
H  0.17995808 -1.52428393 -0.03916825
H  -1.40537899 -0.60184815 -0.03900486
C  0.33838580 0.58779125 0.00587064
H  -0.20324700 1.50238372 -0.04323571
H  1.40563687 0.58441516 -0.04317914
6
MD Step 86
C  -0.33646767 -0.58445755 0.00821932
H  0.18085096 -1.52258818 -0.04066208
H  -1.40287878 -0.59909242 -0.04045594
C  0.33777595 0.58692798 0.00611380
H  -0.20123183 1.50442944 -0.04484832
H  1.40767010 0.58781340 -0.04482753
6
MD Step 87
C  -0.33643289 -0.58435173 0.00848129
H  0.18182138 -1.52110315 -0.04205908
H  -1.40070554 -0.59639658 -0.04181472
C  0.33712004 0.58596652 0.00634163
H  -0.19926021 1.50688997 -0.04637341
H  1.40995624 0.59136796 -0.04638313
6
MD Step 88
C  -0.33634422 -0.58417122 0.00872941
H  0.18285640 -1.51985771 -0.04337013
H  -1.39891980 -0.59378421 -0.04309420
C  0.33642699 0.58491651 0.00655558
H  -0.19734049 1.50971259 -0.04781953
H  1.41241756 0.59504837 -0.04785253
6
MD Step 89
C  -0.33619719 -0.58391439 0.00896613
H  0.18393568 -1.51888002 -0.04461081
H  -1.39757711 -0.59128303 -0.04431239
C  0.33570672 0.58378959 0.00675801
H  -0.19548217 1.51283188 -0.04919961
H  1.41496810 0.59881835 -0.04924644
6
MD Step 90
C  -0.33599796 -0.58359023 0.00918498
H  0.18509345 -1.51813509 -0.04573932
H  -1.39666441 -0.58886262 -0.04542701
C  0.33495967 0.58258876 0.00694087
H  -0.19363458 1.51623319 -0.05046880
H  1.41757786 0.60269801 -0.05052088
6
MD Step 91
C  -0.33574614 -0.58320111 0.00938637
H  0.18631696 -1.51762694 -0.04675812
H  -1.39620187 -0.58653650 -0.04644188
C  0.33419379 0.58132543 0.00710408
H  -0.19178928 1.51985192 -0.05162646
H  1.42017207 0.60666214 -0.05167422
6
MD Step 92
C  -0.33544224 -0.58275019 0.00957076
H  0.18759051 -1.51735486 -0.04767008
H  -1.39619840 -0.58431807 -0.04736096
C  0.33341708 0.58001184 0.00724766
H  -0.18993694 1.52361894 -0.05267227
H  1.42267678 0.61068420 -0.05270539
6
MD Step 93
C  -0.33508837 -0.58224202 0.00973800
H  0.18889952 -1.51730961 -0.04847445
H  -1.39664755 -0.58221672 -0.04818416
C  0.33263686 0.57866027 0.00737099
H  -0.18806418 1.52746610 -0.05360236
H  1.42502440 0.61474044 -0.05361028
6
MD Step 94
C  -0.33468457 -0.58167885 0.00989063
H  0.19020939 -1.51749537 -0.04918851
H  -1.39754925 -0.58025922 -0.04893002
C  0.33186332 0.57728642 0.00747685
H  -0.18617577 1.53130630 -0.05443083
H  1.42713363 0.61878862 -0.05440197
6
MD Step 95
C  -0.33423743 -0.58106923 0.01002608
H  0.19151715 -1.51787863 -0.04979590
H  -1.39885866 -0.57843833 -0.04958129
C  0.33110075 0.57590063 0.00756185
H  -0.18424403 1.53508644 -0.05513862
H  1.42896231 0.62281971 -0.05506251
6
MD Step 96
C  -0.33375020 -0.58041803 0.01014555
H  0.19279327 -1.51844752 -0.05030556
H  -1.40054616 -0.57677134 -0.05014705
C  0.33035739 0.57451752 0.00762737
H  -0.18226786 1.53873010 -0.05573200
H  1.43044957 0.62679935 -0.05559811
6
MD Step 97
C  -0.33323014 -0.57973394 0.01024723
H  0.19402707 -1.51916743 -0.05070649
H  -1.40255345 -0.57525512 -0.05061508
C  0.32963776 0.57314832 0.00767119
H  -0.18022844 1.54218384 -0.05619791
H  1.43156175 0.63071319 -0.05599691
6
MD Step 98
C  -0.33268647 -0.57902734 0.01032817
H  0.19521521 -1.51999377 -0.05097983
H  -1.40480738 -0.57387809 -0.05096453
C  0.32894470 0.57180267 0.00768965
H  -0.17810166 1.54540622 -0.05651603
H  1.43228085 0.63455501 -0.05624047
6
MD Step 99
C  -0.33212222 -0.57830215 0.01039130
H  0.19631448 -1.52092039 -0.05114696
H  -1.40726948 -0.57266764 -0.05121663
C  0.32828732 0.57049649 0.00768667
H  -0.17590564 1.54832118 -0.05670588
H  1.43255737 0.63827924 -0.05634819
6
MD Step 100
C  -0.33154757 -0.57756933 0.01043350
H  0.19732316 -1.52189933 -0.05118791
H  -1.40985650 -0.57160950 -0.05134903
C  0.32766730 0.56923827 0.00765857
H  -0.17362075 1.55089970 -0.05674699
H  1.43239156 0.64188220 -0.05630169
6
MD Step 101
C  -0.33096972 -0.57683663 0.01045453
H  0.19822111 -1.52290191 -0.05110229
H  -1.41250273 -0.57070783 -0.05135972
C  0.32708906 0.56803905 0.00760534
H  -0.17124962 1.55310021 -0.05663849
H  1.43177333 0.64534182 -0.05610141
6
MD Step 102
C  -0.33039330 -0.57610910 0.01045646
H  0.19897380 -1.52391571 -0.05090571
H  -1.41515796 -0.56998140 -0.05126336
C  0.32655909 0.56691163 0.00753002
H  -0.16881354 1.55487284 -0.05639541
H  1.43068617 0.64862151 -0.05576294
6
MD Step 103
C  -0.32982683 -0.57539558 0.01043788
H  0.19957225 -1.52490562 -0.05058981
H  -1.41774926 -0.56942441 -0.05104955
C  0.32607926 0.56586394 0.00743129
H  -0.16631342 1.55619937 -0.05600997
H  1.42914668 0.65170999 -0.05528021
6
MD Step 104
C  -0.32927882 -0.57470485 0.01039725
H  0.20001050 -1.52583722 -0.05014530
H  -1.42020528 -0.56902904 -0.05070696
C  0.32565054 0.56490267 0.00730771
H  -0.16375234 1.55707081 -0.05547394
H  1.42718179 0.65459859 -0.05464672
6
MD Step 105
C  -0.32875641 -0.57404423 0.01033406
H  0.20027867 -1.52668456 -0.04956939
H  -1.42246495 -0.56879275 -0.05023109
C  0.32527435 0.56403443 0.00715908
H  -0.16114269 1.55748033 -0.05478581
H  1.42482131 0.65727406 -0.05386247
6
MD Step 106
C  -0.32826253 -0.57341665 0.01025120
H  0.20034620 -1.52744759 -0.04888310
H  -1.42449555 -0.56873496 -0.04964222
C  0.32495533 0.56326850 0.00698964
H  -0.15852276 1.55740654 -0.05396727
H  1.42208075 0.65970170 -0.05294968
6
MD Step 107
C  -0.32780440 -0.57282942 0.01014735
H  0.20021458 -1.52809995 -0.04807787
H  -1.42624074 -0.56884516 -0.04893008
C  0.32469241 0.56260798 0.00679819
H  -0.15590481 1.55686592 -0.05301196
H  1.41901353 0.66187819 -0.05190365
6
MD Step 108
C  -0.32738331 -0.57228367 0.01002609
H  0.19985499 -1.52865161 -0.04717911
H  -1.42768387 -0.56914453 -0.04811969
C  0.32448947 0.56206017 0.00658986
H  -0.15333648 1.55585061 -0.05194626
H  1.41564837 0.66376902 -0.05075113
6
MD Step 109
C  -0.32701048 -0.57179074 0.00988154
H  0.19930632 -1.52905149 -0.04614671
H  -1.42875059 -0.56958950 -0.04716874
C  0.32433865 0.56162029 0.00635777
H  -0.15080419 1.55442563 -0.05073421
H  1.41208599 0.66540669 -0.04945843
6
MD Step 110
C  -0.32668902 -0.57135360 0.00971459
H  0.19856512 -1.52929752 -0.04498690
H  -1.42941974 -0.57018038 -0.04608278
C  0.32423915 0.56128973 0.00610352
H  -0.14834129 1.55261900 -0.04938440
H  1.40838860 0.66678034 -0.04803494
6
MD Step 111
C  -0.32642148 -0.57097464 0.00952603
H  0.19763210 -1.52939045 -0.04370501
H  -1.42967737 -0.57091561 -0.04486665
C  0.32418939 0.56106834 0.00582856
H  -0.14598199 1.55046753 -0.04790479
H  1.40462493 0.66788229 -0.04648927
6
MD Step 112
C  -0.32620603 -0.57065171 0.00932001
H  0.19648895 -1.52935689 -0.04232906
H  -1.42953995 -0.57181461 -0.04354852
C  0.32419097 0.56095832 0.00553844
H  -0.14378375 1.54799330 -0.04632503
H  1.40084619 0.66868481 -0.04485112
6
MD Step 113
C  -0.32604200 -0.57038386 0.00909900
H  0.19513196 -1.52921551 -0.04087543
H  -1.42902040 -0.57288443 -0.04214485
C  0.32424304 0.56095868 0.00523658
H  -0.14179366 1.54523668 -0.04466373
H  1.39711852 0.66917398 -0.04313921
6
MD Step 114
C  -0.32593221 -0.57017375 0.00886165
H  0.19358607 -1.52896277 -0.03933448
H  -1.42811384 -0.57410595 -0.04064575
C  0.32433992 0.56106295 0.00492169
H  -0.14003412 1.54226952 -0.04291466
H  1.39353564 0.66936375 -0.04134773
6
MD Step 115
C  -0.32587851 -0.57002307 0.00860681
H  0.19187771 -1.52859970 -0.03769797
H  -1.42682459 -0.57546050 -0.03904300
C  0.32447583 0.56126380 0.00459270
H  -0.13852877 1.53916725 -0.04107291
H  1.39019010 0.66926875 -0.03947187
6
MD Step 116
C  -0.32588267 -0.56993349 0.00833279
H  0.19003998 -1.52812644 -0.03595359
H  -1.42516094 -0.57692476 -0.03732445
C  0.32464411 0.56155226 0.00424777
H  -0.13729664 1.53601283 -0.03912959
H  1.38717633 0.66890943 -0.03750263
6
MD Step 117
C  -0.32594138 -0.56990155 0.00804187
H  0.18808186 -1.52757241 -0.03411593
H  -1.42316555 -0.57850088 -0.03550543
C  0.32484262 0.56192297 0.00388984
H  -0.13638138 1.53286493 -0.03710130
H  1.38455801 0.66828130 -0.03545593
6
MD Step 118
C  -0.32605207 -0.56992467 0.00773503
H  0.18602340 -1.52696065 -0.03219056
H  -1.42087960 -0.58018171 -0.03359226
C  0.32506775 0.56236852 0.00352017
H  -0.13581571 1.52979150 -0.03499579
H  1.38240114 0.66739012 -0.03333872
6
MD Step 119
C  -0.32621220 -0.57000044 0.00741261
H  0.18389064 -1.52631203 -0.03017872
H  -1.41834693 -0.58195544 -0.03158702
C  0.32531543 0.56288036 0.00313919
H  -0.13562521 1.52686343 -0.03281639
H  1.38076739 0.66624710 -0.03115339
6
MD Step 120
C  -0.32641647 -0.57012381 0.00707694
H  0.18169814 -1.52566185 -0.02809472
H  -1.41563045 -0.58382269 -0.02950507
C  0.32558412 0.56345190 0.00274955
H  -0.13584438 1.52413566 -0.03057865
H  1.37969503 0.66485154 -0.02891432
6
MD Step 121
C  -0.32665738 -0.57028765 0.00673194
H  0.17945132 -1.52505636 -0.02596307
H  -1.41280834 -0.58579369 -0.02737211
C  0.32587438 0.56407823 0.00235565
H  -0.13651309 1.52164825 -0.02830760
H  1.37920033 0.66319347 -0.02664521
6
MD Step 122
C  -0.32693258 -0.57049028 0.00637620
H  0.17719027 -1.52450807 -0.02377372
H  -1.40992857 -0.58784472 -0.02517903
C  0.32618149 0.56474897 0.00195574
H  -0.13763214 1.51946863 -0.02599460
H  1.37932046 0.66129787 -0.02433635
6
MD Step 123
C  -0.32723792 -0.57072836 0.00600968
H  0.17494640 -1.52403778 -0.02152548
H  -1.40705065 -0.58996054 -0.02292563
C  0.32650272 0.56545557 0.00154958
H  -0.13920487 1.51764736 -0.02363911
H  1.38006976 0.65918164 -0.02198613
6
MD Step 124
C  -0.32757069 -0.57100022 0.00563062
H  0.17276151 -1.52365465 -0.01920627
H  -1.40422503 -0.59211519 -0.02060069
C  0.32683406 0.56618829 0.00113496
H  -0.14121723 1.51623589 -0.02122970
H  1.38145845 0.65687298 -0.01958221
6
MD Step 125
C  -0.32792255 -0.57129858 0.00524247
H  0.17064351 -1.52339931 -0.01683738
H  -1.40153565 -0.59431556 -0.01822651
C  0.32717768 0.56694358 0.00071549
H  -0.14368071 1.51524174 -0.01878705
H  1.38344877 0.65436748 -0.01714436
6